<event>
 8    1  0.9117959E-009  0.9118800E+02  0.7816164E-02  0.1184000E+00
        -11   -1    0    0    0    0  0.00000000000E+00  0.00000000000E+00  0.45593999997E+02  0.45594000000E+02  0.51100000000E-03 0. -1.
         11   -1    0    0    0    0 -0.00000000000E+00 -0.00000000000E+00 -0.45593999997E+02  0.45594000000E+02  0.51100000000E-03 0.  1.
         23    2    1    2    0    0  0.17763568394E-14  0.00000000000E+00 -0.71054273576E-14  0.91188000000E+02  0.91188000000E+02 0.  0.
    9900012    2    3    3    0    0  0.11003677221E+02 -0.26993207543E+02 -0.34342384338E+02  0.46142317322E+02  0.99999960002E+01 0.  0.
         12    1    3    3    0    0 -0.11003677221E+02  0.26993207543E+02  0.34342384338E+02  0.45045682678E+02  0.00000000000E+00 0. -1.
         11    1    4    4    0    0  0.75283786138E+01 -0.16405173649E+02 -0.18737830231E+02  0.26017541948E+02  0.51100000000E-03 0. -1.
        -11    1    4    4    0    0  0.22547566353E+01 -0.11009094857E+02 -0.14872045025E+02  0.18640327801E+02  0.51100000000E-03 0.  1.
         12    1    4    4    0    0  0.12205419722E+01  0.42106096309E+00 -0.73250908211E+00  0.14844475727E+01  0.00000000000E+00 0. -1.
</event>
<event>
 8    1  0.9117959E-009  0.9118800E+02  0.7816164E-02  0.1184000E+00
        -11   -1    0    0    0    0  0.00000000000E+00  0.00000000000E+00  0.45593999997E+02  0.45594000000E+02  0.51100000000E-03 0.  1.
         11   -1    0    0    0    0 -0.00000000000E+00 -0.00000000000E+00 -0.45593999997E+02  0.45594000000E+02  0.51100000000E-03 0. -1.
         23    2    1    2    0    0  0.00000000000E+00  0.00000000000E+00  0.00000000000E+00  0.91188000000E+02  0.91188000000E+02 0.  0.
    9900012    2    3    3    0    0  0.38103620572E+02 -0.22263121639E+02 -0.90322169434E+01  0.46142318423E+02  0.10000006039E+02 0.  0.
         12    1    3    3    0    0 -0.38103620572E+02  0.22263121639E+02  0.90322169434E+01  0.45045681577E+02  0.00000000000E+00 0. -1.
         11    1    4    4    0    0  0.16980618499E+02 -0.10149050262E+02 -0.77640122315E+01  0.21251459056E+02  0.51100000000E-03 0. -1.
        -11    1    4    4    0    0  0.90151993695E+01 -0.69172280602E+01 -0.25717485057E+01  0.11650568842E+02  0.51100000000E-03 0.  1.
        -12    1    4    4    0    0  0.12107802704E+02 -0.51968433171E+01  0.13035437938E+01  0.13240290525E+02  0.00000000000E+00 0.  1.
</event>
<event>
 8    1  0.9117959E-009  0.9118800E+02  0.7816164E-02  0.1184000E+00
        -11   -1    0    0    0    0  0.00000000000E+00  0.00000000000E+00  0.45593999997E+02  0.45594000000E+02  0.51100000000E-03 0. -1.
         11   -1    0    0    0    0 -0.00000000000E+00 -0.00000000000E+00 -0.45593999997E+02  0.45594000000E+02  0.51100000000E-03 0.  1.
         23    2    1    2    0    0  0.35527136788E-14 -0.35527136788E-14  0.00000000000E+00  0.91188000000E+02  0.91188000000E+02 0.  0.
    9900012    2    3    3    0    0  0.22678699492E+02 -0.25180363922E+02 -0.29677252770E+02  0.46142317967E+02  0.10000001873E+02 0.  0.
         12    1    3    3    0    0 -0.22678699492E+02  0.25180363922E+02  0.29677252770E+02  0.45045682033E+02  0.00000000000E+00 0. -1.
         11    1    4    4    0    0  0.56067642609E+01 -0.11273058978E+02 -0.11996663002E+02  0.17390732810E+02  0.51100000000E-03 0. -1.
        -11    1    4    4    0    0  0.71269178130E+01 -0.68192783463E+01 -0.11206611080E+02  0.14929288223E+02  0.51100000000E-03 0.  1.
         12    1    4    4    0    0  0.99450174177E+01 -0.70880265974E+01 -0.64739786878E+01  0.13822296934E+02  0.00000000000E+00 0. -1.
</event>
<event>
 8    1  0.9117959E-009  0.9118800E+02  0.7816164E-02  0.1184000E+00
        -11   -1    0    0    0    0  0.00000000000E+00  0.00000000000E+00  0.45593999997E+02  0.45594000000E+02  0.51100000000E-03 0. -1.
         11   -1    0    0    0    0 -0.00000000000E+00 -0.00000000000E+00 -0.45593999997E+02  0.45594000000E+02  0.51100000000E-03 0.  1.
         23    2    1    2    0    0  0.35527136788E-14  0.00000000000E+00  0.00000000000E+00  0.91188000000E+02  0.91188000000E+02 0.  0.
    9900012    2    3    3    0    0  0.29635073659E+02  0.27730747462E+02  0.19541786321E+02  0.46142319206E+02  0.10000013177E+02 0.  0.
        -12    1    3    3    0    0 -0.29635073659E+02 -0.27730747462E+02 -0.19541786321E+02  0.45045680794E+02  0.00000000000E+00 0.  1.
         11    1    4    4    0    0  0.19445060092E+01  0.40639341912E+01  0.50274373342E+01  0.67506881976E+01  0.51100000000E-03 0.  1.
        -11    1    4    4    0    0  0.11021847982E+02  0.82621339052E+01  0.37779240284E+01  0.14283441456E+02  0.51100000000E-03 0. -1.
         12    1    4    4    0    0  0.16668719668E+02  0.15404679365E+02  0.10736424958E+02  0.25108189553E+02  0.00000000000E+00 0. -1.
</event>
<event>
 8    1  0.9117959E-009  0.9118800E+02  0.7816164E-02  0.1184000E+00
        -11   -1    0    0    0    0  0.00000000000E+00  0.00000000000E+00  0.45593999997E+02  0.45594000000E+02  0.51100000000E-03 0. -1.
         11   -1    0    0    0    0 -0.00000000000E+00 -0.00000000000E+00 -0.45593999997E+02  0.45594000000E+02  0.51100000000E-03 0.  1.
         23    2    1    2    0    0  0.00000000000E+00  0.00000000000E+00 -0.35527136788E-14  0.91188000000E+02  0.91188000000E+02 0.  0.
    9900012    2    3    3    0    0 -0.33720983962E+02 -0.77459971039E+01 -0.28844559965E+02  0.46142313524E+02  0.99999613655E+01 0.  0.
         12    1    3    3    0    0  0.33720983962E+02  0.77459971039E+01  0.28844559965E+02  0.45045686476E+02  0.00000000000E+00 0. -1.
         11    1    4    4    0    0 -0.61961792243E+01 -0.99117972348E-02 -0.14875936742E+01  0.63722578748E+01  0.51100000000E-03 0. -1.
        -11    1    4    4    0    0 -0.16020618165E+02 -0.25090114936E+01 -0.15993542050E+02  0.22776056126E+02  0.51100000000E-03 0.  1.
         12    1    4    4    0    0 -0.11504186572E+02 -0.52270738130E+01 -0.11363424241E+02  0.16993999524E+02  0.00000000000E+00 0. -1.
</event>
<event>
 8    1  0.9117959E-009  0.9118800E+02  0.7816164E-02  0.1184000E+00
        -11   -1    0    0    0    0  0.00000000000E+00  0.00000000000E+00  0.45593999997E+02  0.45594000000E+02  0.51100000000E-03 0. -1.
         11   -1    0    0    0    0 -0.00000000000E+00 -0.00000000000E+00 -0.45593999997E+02  0.45594000000E+02  0.51100000000E-03 0.  1.
         23    2    1    2    0    0 -0.71054273576E-14  0.00000000000E+00  0.17763568394E-14  0.91188000000E+02  0.91188000000E+02 0.  0.
    9900012    2    3    3    0    0 -0.25097552069E+02 -0.34736848122E+02  0.13877240333E+02  0.46142317226E+02  0.99999951245E+01 0.  0.
        -12    1    3    3    0    0  0.25097552069E+02  0.34736848122E+02 -0.13877240333E+02  0.45045682774E+02  0.00000000000E+00 0.  1.
         11    1    4    4    0    0 -0.80648718391E+00  0.47015745654E+00  0.80771656599E+00  0.12344536945E+01  0.51100000000E-03 0. -1.
        -11    1    4    4    0    0 -0.10508810325E+02 -0.17627266132E+02  0.47018449318E+01  0.21053810861E+02  0.51100000000E-03 0.  1.
         12    1    4    4    0    0 -0.13782254560E+02 -0.17579739446E+02  0.83676788355E+01  0.23854052671E+02  0.00000000000E+00 0. -1.
</event>
<event>
 8    1  0.9117959E-009  0.9118800E+02  0.7816164E-02  0.1184000E+00
        -11   -1    0    0    0    0  0.00000000000E+00  0.00000000000E+00  0.45593999997E+02  0.45594000000E+02  0.51100000000E-03 0. -1.
         11   -1    0    0    0    0 -0.00000000000E+00 -0.00000000000E+00 -0.45593999997E+02  0.45594000000E+02  0.51100000000E-03 0.  1.
         23    2    1    2    0    0  0.00000000000E+00  0.00000000000E+00  0.00000000000E+00  0.91188000000E+02  0.91188000000E+02 0.  0.
    9900012    2    3    3    0    0  0.25993156466E+02  0.31191640112E+02  0.19507712616E+02  0.46142318215E+02  0.10000004143E+02 0.  0.
        -12    1    3    3    0    0 -0.25993156466E+02 -0.31191640112E+02 -0.19507712616E+02  0.45045681785E+02  0.00000000000E+00 0.  1.
         11    1    4    4    0    0  0.69674502046E+01  0.54458420952E+01  0.64907420924E+01  0.10969607634E+02  0.51100000000E-03 0. -1.
        -11    1    4    4    0    0  0.17038933638E+02  0.18456240737E+02  0.10123281993E+02  0.27082077473E+02  0.51100000000E-03 0.  1.
        -12    1    4    4    0    0  0.19867726235E+01  0.72895572792E+01  0.28936885310E+01  0.80906331086E+01  0.00000000000E+00 0.  1.
</event>
<event>
 8    1  0.9117959E-009  0.9118800E+02  0.7816164E-02  0.1184000E+00
        -11   -1    0    0    0    0  0.00000000000E+00  0.00000000000E+00  0.45593999997E+02  0.45594000000E+02  0.51100000000E-03 0. -1.
         11   -1    0    0    0    0 -0.00000000000E+00 -0.00000000000E+00 -0.45593999997E+02  0.45594000000E+02  0.51100000000E-03 0.  1.
         23    2    1    2    0    0 -0.17763568394E-14  0.00000000000E+00 -0.71054273576E-14  0.91188000000E+02  0.91188000000E+02 0.  0.
    9900012    2    3    3    0    0 -0.11023399419E+02 -0.89434018158E+01 -0.42750598713E+02  0.46142318064E+02  0.10000002759E+02 0.  0.
         12    1    3    3    0    0  0.11023399419E+02  0.89434018158E+01  0.42750598713E+02  0.45045681936E+02  0.00000000000E+00 0. -1.
         11    1    4    4    0    0  0.47914783948E+00  0.30578913323E+00 -0.42288398861E+01  0.42668696593E+01  0.51100000000E-03 0. -1.
        -11    1    4    4    0    0  0.73548393344E+00 -0.18745656550E+00 -0.47727826512E+00  0.89658874841E+00  0.51100000000E-03 0.  1.
        -12    1    4    4    0    0 -0.12238031192E+02 -0.90617343835E+01 -0.38044480562E+02  0.40978859656E+02  0.00000000000E+00 0.  1.
</event>
<event>
 8    1  0.9117959E-009  0.9118800E+02  0.7816164E-02  0.1184000E+00
        -11   -1    0    0    0    0  0.00000000000E+00  0.00000000000E+00  0.45593999997E+02  0.45594000000E+02  0.51100000000E-03 0.  1.
         11   -1    0    0    0    0 -0.00000000000E+00 -0.00000000000E+00 -0.45593999997E+02  0.45594000000E+02  0.51100000000E-03 0. -1.
         23    2    1    2    0    0 -0.35527136788E-14 -0.71054273576E-14 -0.88817841970E-15  0.91188000000E+02  0.91188000000E+02 0.  0.
    9900012    2    3    3    0    0 -0.11390253603E+02 -0.43194768309E+02 -0.57954823599E+01  0.46142317608E+02  0.99999986040E+01 0.  0.
         12    1    3    3    0    0  0.11390253603E+02  0.43194768309E+02  0.57954823599E+01  0.45045682392E+02  0.00000000000E+00 0. -1.
         11    1    4    4    0    0 -0.25321714950E+01 -0.11529589312E+02 -0.56755034877E+01  0.13097887704E+02  0.51100000000E-03 0. -1.
        -11    1    4    4    0    0 -0.52695121012E+01 -0.19250808543E+02  0.15267375139E+01  0.20017300394E+02  0.51100000000E-03 0.  1.
         12    1    4    4    0    0 -0.35885700065E+01 -0.12414370453E+02 -0.16467163861E+01  0.13027129511E+02  0.00000000000E+00 0. -1.
</event>
<event>
 8    1  0.9117959E-009  0.9118800E+02  0.7816164E-02  0.1184000E+00
        -11   -1    0    0    0    0  0.00000000000E+00  0.00000000000E+00  0.45593999997E+02  0.45594000000E+02  0.51100000000E-03 0. -1.
         11   -1    0    0    0    0 -0.00000000000E+00 -0.00000000000E+00 -0.45593999997E+02  0.45594000000E+02  0.51100000000E-03 0.  1.
         23    2    1    2    0    0  0.71054273576E-14  0.00000000000E+00  0.17763568394E-14  0.91188000000E+02  0.91188000000E+02 0.  0.
    9900012    2    3    3    0    0  0.40093024851E+02 -0.14874818547E+02 -0.14156357095E+02  0.46142319689E+02  0.10000017577E+02 0.  0.
         12    1    3    3    0    0 -0.40093024851E+02  0.14874818547E+02  0.14156357095E+02  0.45045680311E+02  0.00000000000E+00 0. -1.
         11    1    4    4    0    0  0.84898825480E+01 -0.37994259998E+01 -0.73792588223E+01  0.11872961073E+02  0.51100000000E-03 0.  1.
        -11    1    4    4    0    0  0.42495441171E+01 -0.24605483600E+01 -0.80588069910E+00  0.49761800005E+01  0.51100000000E-03 0. -1.
        -12    1    4    4    0    0  0.27353598186E+02 -0.86148441868E+01 -0.59712175735E+01  0.29293178615E+02  0.00000000000E+00 0.  1.
</event>
<event>
 8    1  0.9117959E-009  0.9118800E+02  0.7816164E-02  0.1184000E+00
        -11   -1    0    0    0    0  0.00000000000E+00  0.00000000000E+00  0.45593999997E+02  0.45594000000E+02  0.51100000000E-03 0.  1.
         11   -1    0    0    0    0 -0.00000000000E+00 -0.00000000000E+00 -0.45593999997E+02  0.45594000000E+02  0.51100000000E-03 0. -1.
         23    2    1    2    0    0  0.00000000000E+00 -0.17763568394E-14  0.35527136788E-14  0.91188000000E+02  0.91188000000E+02 0.  0.
    9900012    2    3    3    0    0  0.38845664965E+02 -0.13230320169E+02  0.18576502400E+02  0.46142317634E+02  0.99999988440E+01 0.  0.
        -12    1    3    3    0    0 -0.38845664965E+02  0.13230320169E+02 -0.18576502400E+02  0.45045682366E+02  0.00000000000E+00 0.  1.
         11    1    4    4    0    0  0.17605618310E+02 -0.79925169653E+01  0.70857315620E+01  0.20592370324E+02  0.51100000000E-03 0. -1.
        -11    1    4    4    0    0  0.78039452919E+01 -0.45315464937E+01  0.24872070117E+01  0.93606984100E+01  0.51100000000E-03 0.  1.
         12    1    4    4    0    0  0.13436101363E+02 -0.70625670964E+00  0.90035638265E+01  0.16189248900E+02  0.00000000000E+00 0. -1.
</event>
<event>
 8    1  0.9117959E-009  0.9118800E+02  0.7816164E-02  0.1184000E+00
        -11   -1    0    0    0    0  0.00000000000E+00  0.00000000000E+00  0.45593999997E+02  0.45594000000E+02  0.51100000000E-03 0. -1.
         11   -1    0    0    0    0 -0.00000000000E+00 -0.00000000000E+00 -0.45593999997E+02  0.45594000000E+02  0.51100000000E-03 0.  1.
         23    2    1    2    0    0  0.71054273576E-14  0.88817841970E-15  0.88817841970E-15  0.91188000000E+02  0.91188000000E+02 0.  0.
    9900012    2    3    3    0    0  0.44495144706E+02  0.45196145828E+01  0.53729582256E+01  0.46142317649E+02  0.99999989743E+01 0.  0.
         12    1    3    3    0    0 -0.44495144706E+02 -0.45196145828E+01 -0.53729582256E+01  0.45045682351E+02  0.00000000000E+00 0. -1.
         11    1    4    4    0    0  0.82947813977E+01  0.10535909523E+01  0.18474815462E+01  0.85630976086E+01  0.51100000000E-03 0. -1.
        -11    1    4    4    0    0  0.10856873274E+02  0.89543522127E+00  0.51585821871E+01  0.12053400846E+02  0.51100000000E-03 0.  1.
        -12    1    4    4    0    0  0.25343490035E+02  0.25705884093E+01 -0.16331055078E+01  0.25525819194E+02  0.00000000000E+00 0.  1.
</event>
<event>
 8    1  0.9117959E-009  0.9118800E+02  0.7816164E-02  0.1184000E+00
        -11   -1    0    0    0    0  0.00000000000E+00  0.00000000000E+00  0.45593999997E+02  0.45594000000E+02  0.51100000000E-03 0. -1.
         11   -1    0    0    0    0 -0.00000000000E+00 -0.00000000000E+00 -0.45593999997E+02  0.45594000000E+02  0.51100000000E-03 0.  1.
         23    2    1    2    0    0  0.00000000000E+00  0.35527136788E-14  0.00000000000E+00  0.91188000000E+02  0.91188000000E+02 0.  0.
    9900012    2    3    3    0    0 -0.18036620966E+02  0.23394344024E+02 -0.34007330395E+02  0.46142317090E+02  0.99999938822E+01 0.  0.
         12    1    3    3    0    0  0.18036620966E+02 -0.23394344024E+02  0.34007330395E+02  0.45045682910E+02  0.00000000000E+00 0. -1.
         11    1    4    4    0    0 -0.63896954941E+00  0.40255443441E+01 -0.64199938091E+01  0.76045782343E+01  0.51100000000E-03 0. -1.
        -11    1    4    4    0    0 -0.88346401467E+01  0.13860047580E+02 -0.14217152836E+02  0.21731986114E+02  0.51100000000E-03 0.  1.
         12    1    4    4    0    0 -0.85630112695E+01  0.55087521007E+01 -0.13370183751E+02  0.16805752742E+02  0.00000000000E+00 0. -1.
</event>
<event>
 8    1  0.9117959E-009  0.9118800E+02  0.7816164E-02  0.1184000E+00
        -11   -1    0    0    0    0  0.00000000000E+00  0.00000000000E+00  0.45593999997E+02  0.45594000000E+02  0.51100000000E-03 0. -1.
         11   -1    0    0    0    0 -0.00000000000E+00 -0.00000000000E+00 -0.45593999997E+02  0.45594000000E+02  0.51100000000E-03 0.  1.
         23    2    1    2    0    0 -0.35527136788E-14  0.00000000000E+00  0.00000000000E+00  0.91188000000E+02  0.91188000000E+02 0.  0.
    9900012    2    3    3    0    0  0.23742880153E+02  0.25587604437E+02  0.28472166384E+02  0.46142310779E+02  0.99999363331E+01 0.  0.
        -12    1    3    3    0    0 -0.23742880153E+02 -0.25587604437E+02 -0.28472166384E+02  0.45045689221E+02  0.00000000000E+00 0.  1.
         11    1    4    4    0    0  0.99036743996E-01  0.47700341929E+00  0.76880841675E+00  0.91016876538E+00  0.51100000000E-03 0. -1.
        -11    1    4    4    0    0  0.27794152164E+01  0.28380760782E-01  0.66346597042E+00  0.28576461936E+01  0.51100000000E-03 0.  1.
        -12    1    4    4    0    0  0.20864428193E+02  0.25082220257E+02  0.27039891997E+02  0.42374495820E+02  0.00000000000E+00 0.  1.
</event>
<event>
 8    1  0.9117959E-009  0.9118800E+02  0.7816164E-02  0.1184000E+00
        -11   -1    0    0    0    0  0.00000000000E+00  0.00000000000E+00  0.45593999997E+02  0.45594000000E+02  0.51100000000E-03 0.  1.
         11   -1    0    0    0    0 -0.00000000000E+00 -0.00000000000E+00 -0.45593999997E+02  0.45594000000E+02  0.51100000000E-03 0. -1.
         23    2    1    2    0    0  0.00000000000E+00  0.00000000000E+00 -0.17763568394E-14  0.91188000000E+02  0.91188000000E+02 0.  0.
    9900012    2    3    3    0    0  0.44490063664E+01  0.43275206065E+02 -0.11686587347E+02  0.46142318282E+02  0.10000004751E+02 0.  0.
         12    1    3    3    0    0 -0.44490063664E+01 -0.43275206065E+02  0.11686587347E+02  0.45045681718E+02  0.00000000000E+00 0. -1.
         11    1    4    4    0    0  0.48284660481E-01  0.62037036893E+01 -0.43538035934E+01  0.75791738906E+01  0.51100000000E-03 0. -1.
        -11    1    4    4    0    0  0.80322153587E+00  0.25601998881E+02 -0.69319409133E+01  0.26536000389E+02  0.51100000000E-03 0.  1.
        -12    1    4    4    0    0  0.35975001700E+01  0.11469503494E+02 -0.40084284078E+00  0.12027144003E+02  0.00000000000E+00 0.  1.
</event>
<event>
 8    1  0.9117959E-009  0.9118800E+02  0.7816164E-02  0.1184000E+00
        -11   -1    0    0    0    0  0.00000000000E+00  0.00000000000E+00  0.45593999997E+02  0.45594000000E+02  0.51100000000E-03 0. -1.
         11   -1    0    0    0    0 -0.00000000000E+00 -0.00000000000E+00 -0.45593999997E+02  0.45594000000E+02  0.51100000000E-03 0.  1.
         23    2    1    2    0    0  0.00000000000E+00  0.00000000000E+00  0.00000000000E+00  0.91188000000E+02  0.91188000000E+02 0.  0.
    9900012    2    3    3    0    0 -0.80138181700E+01 -0.13113832251E+02  0.42342881739E+02  0.46142317500E+02  0.99999976147E+01 0.  0.
        -12    1    3    3    0    0  0.80138181700E+01  0.13113832251E+02 -0.42342881739E+02  0.45045682500E+02  0.00000000000E+00 0.  1.
         11    1    4    4    0    0 -0.41799192832E+00 -0.85378285965E+01  0.17853499516E+02  0.19794359793E+02  0.51100000000E-03 0. -1.
        -11    1    4    4    0    0 -0.28018889700E+01 -0.37777141996E+01  0.96925911649E+01  0.10773487371E+02  0.51100000000E-03 0.  1.
         12    1    4    4    0    0 -0.47939372717E+01 -0.79828945480E+00  0.14796791058E+02  0.15574470335E+02  0.00000000000E+00 0. -1.
</event>
<event>
 8    1  0.9117959E-009  0.9118800E+02  0.7816164E-02  0.1184000E+00
        -11   -1    0    0    0    0  0.00000000000E+00  0.00000000000E+00  0.45593999997E+02  0.45594000000E+02  0.51100000000E-03 0. -1.
         11   -1    0    0    0    0 -0.00000000000E+00 -0.00000000000E+00 -0.45593999997E+02  0.45594000000E+02  0.51100000000E-03 0.  1.
         23    2    1    2    0    0  0.00000000000E+00  0.00000000000E+00  0.00000000000E+00  0.91188000000E+02  0.91188000000E+02 0.  0.
    9900012    2    3    3    0    0 -0.31131024523E+02  0.23096982992E+01  0.32475192295E+02  0.46142317536E+02  0.99999979436E+01 0.  0.
        -12    1    3    3    0    0  0.31131024523E+02 -0.23096982992E+01 -0.32475192295E+02  0.45045682464E+02  0.00000000000E+00 0.  1.
         11    1    4    4    0    0 -0.11784159479E+02  0.11848463457E+01  0.16717235832E+02  0.20487465671E+02  0.51100000000E-03 0. -1.
        -11    1    4    4    0    0 -0.94594806931E+01  0.33854221979E+01  0.87903261627E+01  0.13349632682E+02  0.51100000000E-03 0.  1.
         12    1    4    4    0    0 -0.98873843506E+01 -0.22605702444E+01  0.69676303005E+01  0.12305219183E+02  0.00000000000E+00 0. -1.
</event>
<event>
 8    1  0.9117959E-009  0.9118800E+02  0.7816164E-02  0.1184000E+00
        -11   -1    0    0    0    0  0.00000000000E+00  0.00000000000E+00  0.45593999997E+02  0.45594000000E+02  0.51100000000E-03 0. -1.
         11   -1    0    0    0    0 -0.00000000000E+00 -0.00000000000E+00 -0.45593999997E+02  0.45594000000E+02  0.51100000000E-03 0.  1.
         23    2    1    2    0    0  0.35527136788E-14 -0.71054273576E-14  0.00000000000E+00  0.91188000000E+02  0.91188000000E+02 0.  0.
    9900012    2    3    3    0    0  0.16250730165E+02 -0.25745929989E+02 -0.33199010893E+02  0.46142318007E+02  0.10000002246E+02 0.  0.
         12    1    3    3    0    0 -0.16250730165E+02  0.25745929989E+02  0.33199010893E+02  0.45045681993E+02  0.00000000000E+00 0. -1.
         11    1    4    4    0    0  0.18141229446E+01 -0.93192150774E+01 -0.70422356910E+01  0.11820824654E+02  0.51100000000E-03 0. -1.
        -11    1    4    4    0    0  0.85124239289E+00 -0.23755455062E+01 -0.44224009459E+01  0.50917050633E+01  0.51100000000E-03 0.  1.
        -12    1    4    4    0    0  0.13585364828E+02 -0.14051169405E+02 -0.21734374256E+02  0.29229788290E+02  0.00000000000E+00 0.  1.
</event>
<event>
 8    1  0.9117959E-009  0.9118800E+02  0.7816164E-02  0.1184000E+00
        -11   -1    0    0    0    0  0.00000000000E+00  0.00000000000E+00  0.45593999997E+02  0.45594000000E+02  0.51100000000E-03 0.  1.
         11   -1    0    0    0    0 -0.00000000000E+00 -0.00000000000E+00 -0.45593999997E+02  0.45594000000E+02  0.51100000000E-03 0. -1.
         23    2    1    2    0    0  0.00000000000E+00  0.00000000000E+00  0.00000000000E+00  0.91188000000E+02  0.91188000000E+02 0.  0.
    9900012    2    3    3    0    0  0.24613530113E+02 -0.32216625363E+02  0.19631013959E+02  0.46142317371E+02  0.99999964435E+01 0.  0.
         12    1    3    3    0    0 -0.24613530113E+02  0.32216625363E+02 -0.19631013959E+02  0.45045682629E+02  0.00000000000E+00 0. -1.
         11    1    4    4    0    0  0.11461171061E+02 -0.86829885026E+01  0.99405044816E+01  0.17480456546E+02  0.51100000000E-03 0. -1.
        -11    1    4    4    0    0  0.48384227036E+01 -0.95428354287E+01  0.38460492664E+01  0.11369614659E+02  0.51100000000E-03 0.  1.
         12    1    4    4    0    0  0.83139363483E+01 -0.13990801432E+02  0.58444602113E+01  0.17292246166E+02  0.00000000000E+00 0. -1.
</event>
<event>
 8    1  0.9117959E-009  0.9118800E+02  0.7816164E-02  0.1184000E+00
        -11   -1    0    0    0    0  0.00000000000E+00  0.00000000000E+00  0.45593999997E+02  0.45594000000E+02  0.51100000000E-03 0. -1.
         11   -1    0    0    0    0 -0.00000000000E+00 -0.00000000000E+00 -0.45593999997E+02  0.45594000000E+02  0.51100000000E-03 0.  1.
         23    2    1    2    0    0  0.00000000000E+00 -0.35527136788E-14  0.00000000000E+00  0.91188000000E+02  0.91188000000E+02 0.  0.
    9900012    2    3    3    0    0  0.32856473701E+02 -0.19229158430E+02 -0.24079143991E+02  0.46142316818E+02  0.99999913984E+01 0.  0.
         12    1    3    3    0    0 -0.32856473701E+02  0.19229158430E+02  0.24079143991E+02  0.45045683182E+02  0.00000000000E+00 0. -1.
         11    1    4    4    0    0  0.19945575812E+01 -0.25879234067E+00 -0.13038955040E+01  0.23969516405E+01  0.51100000000E-03 0. -1.
        -11    1    4    4    0    0  0.22642502650E+02 -0.14317097128E+02 -0.11820988261E+02  0.29281358578E+02  0.51100000000E-03 0.  1.
         12    1    4    4    0    0  0.82194134701E+01 -0.46532689618E+01 -0.10954260226E+02  0.14464006600E+02  0.00000000000E+00 0. -1.
</event>
<event>
 8    1  0.9117959E-009  0.9118800E+02  0.7816164E-02  0.1184000E+00
        -11   -1    0    0    0    0  0.00000000000E+00  0.00000000000E+00  0.45593999997E+02  0.45594000000E+02  0.51100000000E-03 0. -1.
         11   -1    0    0    0    0 -0.00000000000E+00 -0.00000000000E+00 -0.45593999997E+02  0.45594000000E+02  0.51100000000E-03 0.  1.
         23    2    1    2    0    0 -0.35527136788E-14 -0.88817841970E-15  0.00000000000E+00  0.91188000000E+02  0.91188000000E+02 0.  0.
    9900012    2    3    3    0    0  0.23624654314E+02  0.23650530274E+01 -0.38280486061E+02  0.46142318960E+02  0.10000010933E+02 0.  0.
         12    1    3    3    0    0 -0.23624654314E+02 -0.23650530274E+01  0.38280486061E+02  0.45045681040E+02  0.00000000000E+00 0. -1.
         11    1    4    4    0    0  0.76066260020E+01 -0.35396028185E+00 -0.73791484983E+01  0.10603672941E+02  0.51100000000E-03 0. -1.
        -11    1    4    4    0    0  0.10453594194E+02 -0.14368679448E+01 -0.17228846905E+02  0.20203350885E+02  0.51100000000E-03 0.  1.
        -12    1    4    4    0    0  0.55644341180E+01  0.41558812541E+01 -0.13672490658E+02  0.15335295134E+02  0.00000000000E+00 0.  1.
</event>
<event>
 8    1  0.9117959E-009  0.9118800E+02  0.7816164E-02  0.1184000E+00
        -11   -1    0    0    0    0  0.00000000000E+00  0.00000000000E+00  0.45593999997E+02  0.45594000000E+02  0.51100000000E-03 0. -1.
         11   -1    0    0    0    0 -0.00000000000E+00 -0.00000000000E+00 -0.45593999997E+02  0.45594000000E+02  0.51100000000E-03 0.  1.
         23    2    1    2    0    0  0.00000000000E+00 -0.35527136788E-14  0.71054273576E-14  0.91188000000E+02  0.91188000000E+02 0.  0.
    9900012    2    3    3    0    0  0.18636271005E+02  0.19851880968E+02 -0.35884616498E+02  0.46142317897E+02  0.10000001240E+02 0.  0.
         12    1    3    3    0    0 -0.18636271005E+02 -0.19851880968E+02  0.35884616498E+02  0.45045682103E+02  0.00000000000E+00 0. -1.
         11    1    4    4    0    0  0.35479762687E+00 -0.22504341379E+00 -0.27271655968E+01  0.27593402015E+01  0.51100000000E-03 0. -1.
        -11    1    4    4    0    0  0.35802866986E+01  0.28091143312E+01 -0.23303944492E+01  0.51127599905E+01  0.51100000000E-03 0.  1.
        -12    1    4    4    0    0  0.14701186680E+02  0.17267810050E+02 -0.30827056452E+02  0.38270217705E+02  0.00000000000E+00 0.  1.
</event>
<event>
 8    1  0.9117959E-009  0.9118800E+02  0.7816164E-02  0.1184000E+00
        -11   -1    0    0    0    0  0.00000000000E+00  0.00000000000E+00  0.45593999997E+02  0.45594000000E+02  0.51100000000E-03 0. -1.
         11   -1    0    0    0    0 -0.00000000000E+00 -0.00000000000E+00 -0.45593999997E+02  0.45594000000E+02  0.51100000000E-03 0.  1.
         23    2    1    2    0    0  0.35527136788E-14  0.88817841970E-15  0.00000000000E+00  0.91188000000E+02  0.91188000000E+02 0.  0.
    9900012    2    3    3    0    0  0.31546937603E+02  0.74430604815E+01 -0.31281065761E+02  0.46142317669E+02  0.99999991644E+01 0.  0.
         12    1    3    3    0    0 -0.31546937603E+02 -0.74430604815E+01  0.31281065761E+02  0.45045682331E+02  0.00000000000E+00 0. -1.
         11    1    4    4    0    0  0.11441462631E+02  0.18276338366E+01 -0.11938764916E+02  0.16636749098E+02  0.51100000000E-03 0.  1.
        -11    1    4    4    0    0  0.84120455275E+01  0.40550277290E+01 -0.40174291518E+01  0.10165898735E+02  0.51100000000E-03 0. -1.
         12    1    4    4    0    0  0.11693429444E+02  0.15603989159E+01 -0.15324871694E+02  0.19339669836E+02  0.00000000000E+00 0. -1.
</event>
<event>
 8    1  0.9117959E-009  0.9118800E+02  0.7816164E-02  0.1184000E+00
        -11   -1    0    0    0    0  0.00000000000E+00  0.00000000000E+00  0.45593999997E+02  0.45594000000E+02  0.51100000000E-03 0. -1.
         11   -1    0    0    0    0 -0.00000000000E+00 -0.00000000000E+00 -0.45593999997E+02  0.45594000000E+02  0.51100000000E-03 0.  1.
         23    2    1    2    0    0  0.22204460493E-15  0.00000000000E+00 -0.71054273576E-14  0.91188000000E+02  0.91188000000E+02 0.  0.
    9900012    2    3    3    0    0 -0.29191493747E+00 -0.10497331534E+02  0.43804501641E+02  0.46142317103E+02  0.99999939957E+01 0.  0.
        -12    1    3    3    0    0  0.29191493747E+00  0.10497331534E+02 -0.43804501641E+02  0.45045682897E+02  0.00000000000E+00 0.  1.
         11    1    4    4    0    0  0.20743582386E+01 -0.52231575454E+01  0.20044705633E+02  0.20817650228E+02  0.51100000000E-03 0. -1.
        -11    1    4    4    0    0  0.11377230826E+01 -0.48912683014E+01  0.16620838699E+02  0.17362925984E+02  0.51100000000E-03 0.  1.
        -12    1    4    4    0    0 -0.35039962586E+01 -0.38290568697E+00  0.71389573092E+01  0.79617408906E+01  0.00000000000E+00 0.  1.
</event>
<event>
 8    1  0.9117959E-009  0.9118800E+02  0.7816164E-02  0.1184000E+00
        -11   -1    0    0    0    0  0.00000000000E+00  0.00000000000E+00  0.45593999997E+02  0.45594000000E+02  0.51100000000E-03 0. -1.
         11   -1    0    0    0    0 -0.00000000000E+00 -0.00000000000E+00 -0.45593999997E+02  0.45594000000E+02  0.51100000000E-03 0.  1.
         23    2    1    2    0    0 -0.17763568394E-14  0.35527136788E-14 -0.71054273576E-14  0.91188000000E+02  0.91188000000E+02 0.  0.
    9900012    2    3    3    0    0 -0.13808550759E+02  0.20902260317E+02 -0.37437052352E+02  0.46142318196E+02  0.10000003965E+02 0.  0.
         12    1    3    3    0    0  0.13808550759E+02 -0.20902260317E+02  0.37437052352E+02  0.45045681804E+02  0.00000000000E+00 0. -1.
         11    1    4    4    0    0  0.13488812781E+00  0.13845273167E+01 -0.23896196510E+01  0.27650303860E+01  0.51100000000E-03 0. -1.
        -11    1    4    4    0    0 -0.62790501641E+01  0.22734502449E+01 -0.86263620833E+01  0.10909132414E+02  0.51100000000E-03 0.  1.
        -12    1    4    4    0    0 -0.76643887222E+01  0.17244282755E+02 -0.26421070617E+02  0.32468155396E+02  0.00000000000E+00 0.  1.
</event>
<event>
 8    1  0.9117959E-009  0.9118800E+02  0.7816164E-02  0.1184000E+00
        -11   -1    0    0    0    0  0.00000000000E+00  0.00000000000E+00  0.45593999997E+02  0.45594000000E+02  0.51100000000E-03 0. -1.
         11   -1    0    0    0    0 -0.00000000000E+00 -0.00000000000E+00 -0.45593999997E+02  0.45594000000E+02  0.51100000000E-03 0.  1.
         23    2    1    2    0    0  0.40245584643E-15 -0.88817841970E-15  0.00000000000E+00  0.91188000000E+02  0.91188000000E+02 0.  0.
    9900012    2    3    3    0    0  0.69286824904E-01 -0.70089800279E+01  0.44496998092E+02  0.46142318288E+02  0.10000004803E+02 0.  0.
        -12    1    3    3    0    0 -0.69286824904E-01  0.70089800279E+01 -0.44496998092E+02  0.45045681712E+02  0.00000000000E+00 0.  1.
         11    1    4    4    0    0 -0.76678630095E+00 -0.22087887160E+01  0.37708747774E+01  0.44369139805E+01  0.51100000000E-03 0. -1.
        -11    1    4    4    0    0 -0.30499590683E+01 -0.60466686004E+00  0.18261394678E+02  0.18524211405E+02  0.51100000000E-03 0.  1.
         12    1    4    4    0    0  0.38860321941E+01 -0.41955244519E+01  0.22464728637E+02  0.23181192902E+02  0.00000000000E+00 0. -1.
</event>
<event>
 8    1  0.9117959E-009  0.9118800E+02  0.7816164E-02  0.1184000E+00
        -11   -1    0    0    0    0  0.00000000000E+00  0.00000000000E+00  0.45593999997E+02  0.45594000000E+02  0.51100000000E-03 0. -1.
         11   -1    0    0    0    0 -0.00000000000E+00 -0.00000000000E+00 -0.45593999997E+02  0.45594000000E+02  0.51100000000E-03 0.  1.
         23    2    1    2    0    0  0.00000000000E+00  0.33306690739E-15  0.00000000000E+00  0.91188000000E+02  0.91188000000E+02 0.  0.
    9900012    2    3    3    0    0 -0.20012981938E+02  0.96033200728E+00 -0.40344413572E+02  0.46142318852E+02  0.10000009948E+02 0.  0.
         12    1    3    3    0    0  0.20012981938E+02 -0.96033200728E+00  0.40344413572E+02  0.45045681148E+02  0.00000000000E+00 0. -1.
         11    1    4    4    0    0 -0.13197678445E+01  0.17684569248E+01 -0.36490493739E+01  0.42643626315E+01  0.51100000000E-03 0. -1.
        -11    1    4    4    0    0 -0.81326808910E+01  0.28091025487E+01 -0.11890630107E+02  0.14677146868E+02  0.51100000000E-03 0.  1.
        -12    1    4    4    0    0 -0.10560533202E+02 -0.36172274662E+01 -0.24804734092E+02  0.27200809352E+02  0.00000000000E+00 0.  1.
</event>
<event>
 8    1  0.9117959E-009  0.9118800E+02  0.7816164E-02  0.1184000E+00
        -11   -1    0    0    0    0  0.00000000000E+00  0.00000000000E+00  0.45593999997E+02  0.45594000000E+02  0.51100000000E-03 0. -1.
         11   -1    0    0    0    0 -0.00000000000E+00 -0.00000000000E+00 -0.45593999997E+02  0.45594000000E+02  0.51100000000E-03 0.  1.
         23    2    1    2    0    0 -0.35527136788E-14 -0.71054273576E-14 -0.35527136788E-14  0.91188000000E+02  0.91188000000E+02 0.  0.
    9900012    2    3    3    0    0  0.18157640961E+02 -0.27609553672E+02 -0.30612515718E+02  0.46142317656E+02  0.99999990417E+01 0.  0.
         12    1    3    3    0    0 -0.18157640961E+02  0.27609553672E+02  0.30612515718E+02  0.45045682344E+02  0.00000000000E+00 0. -1.
         11    1    4    4    0    0  0.34292764121E+01 -0.77998563641E+01 -0.85297875374E+01  0.12056324967E+02  0.51100000000E-03 0.  1.
        -11    1    4    4    0    0  0.37952843592E+01 -0.10737512999E+01 -0.55628453464E+01  0.68192649039E+01  0.51100000000E-03 0. -1.
         12    1    4    4    0    0  0.10933080190E+02 -0.18735946008E+02 -0.16519882834E+02  0.27266727785E+02  0.00000000000E+00 0. -1.
</event>
<event>
 8    1  0.9117959E-009  0.9118800E+02  0.7816164E-02  0.1184000E+00
        -11   -1    0    0    0    0  0.00000000000E+00  0.00000000000E+00  0.45593999997E+02  0.45594000000E+02  0.51100000000E-03 0. -1.
         11   -1    0    0    0    0 -0.00000000000E+00 -0.00000000000E+00 -0.45593999997E+02  0.45594000000E+02  0.51100000000E-03 0.  1.
         23    2    1    2    0    0  0.00000000000E+00  0.00000000000E+00 -0.71054273576E-14  0.91188000000E+02  0.91188000000E+02 0.  0.
    9900012    2    3    3    0    0  0.22347631263E+02 -0.10136031266E+02  0.37775095698E+02  0.46142316434E+02  0.99999879010E+01 0.  0.
        -12    1    3    3    0    0 -0.22347631263E+02  0.10136031266E+02 -0.37775095698E+02  0.45045683566E+02  0.00000000000E+00 0.  1.
         11    1    4    4    0    0  0.72958450521E+01 -0.34517436658E+01  0.19099007362E+02  0.20734415155E+02  0.51100000000E-03 0. -1.
        -11    1    4    4    0    0  0.10187857777E+02 -0.50997544051E+01  0.92181641984E+01  0.14655186540E+02  0.51100000000E-03 0.  1.
        -12    1    4    4    0    0  0.48639284338E+01 -0.15845331951E+01  0.94579241378E+01  0.10752714739E+02  0.00000000000E+00 0.  1.
</event>
<event>
 8    1  0.9117959E-009  0.9118800E+02  0.7816164E-02  0.1184000E+00
        -11   -1    0    0    0    0  0.00000000000E+00  0.00000000000E+00  0.45593999997E+02  0.45594000000E+02  0.51100000000E-03 0. -1.
         11   -1    0    0    0    0 -0.00000000000E+00 -0.00000000000E+00 -0.45593999997E+02  0.45594000000E+02  0.51100000000E-03 0.  1.
         23    2    1    2    0    0 -0.44408920985E-15  0.00000000000E+00  0.00000000000E+00  0.91188000000E+02  0.91188000000E+02 0.  0.
    9900012    2    3    3    0    0 -0.24317545772E+01 -0.14120613287E+02 -0.42706069240E+02  0.46142317633E+02  0.99999988352E+01 0.  0.
         12    1    3    3    0    0  0.24317545772E+01  0.14120613287E+02  0.42706069240E+02  0.45045682367E+02  0.00000000000E+00 0. -1.
         11    1    4    4    0    0 -0.12050991208E+01 -0.36682831027E+00 -0.52205732252E+01  0.53704014711E+01  0.51100000000E-03 0. -1.
        -11    1    4    4    0    0 -0.16592381539E+01  0.28524437222E+00 -0.71041851252E+01  0.73009507708E+01  0.51100000000E-03 0.  1.
        -12    1    4    4    0    0  0.43258269750E+00 -0.14039029349E+02 -0.30381310890E+02  0.33470965392E+02  0.00000000000E+00 0.  1.
</event>
<event>
 8    1  0.9117959E-009  0.9118800E+02  0.7816164E-02  0.1184000E+00
        -11   -1    0    0    0    0  0.00000000000E+00  0.00000000000E+00  0.45593999997E+02  0.45594000000E+02  0.51100000000E-03 0. -1.
         11   -1    0    0    0    0 -0.00000000000E+00 -0.00000000000E+00 -0.45593999997E+02  0.45594000000E+02  0.51100000000E-03 0.  1.
         23    2    1    2    0    0  0.00000000000E+00  0.00000000000E+00  0.00000000000E+00  0.91188000000E+02  0.91188000000E+02 0.  0.
    9900012    2    3    3    0    0 -0.92951147641E+01  0.32273329676E+02  0.30019102861E+02  0.46142317594E+02  0.99999984764E+01 0.  0.
        -12    1    3    3    0    0  0.92951147641E+01 -0.32273329676E+02 -0.30019102861E+02  0.45045682406E+02  0.00000000000E+00 0.  1.
         11    1    4    4    0    0 -0.30560198678E+01  0.15747490699E+02  0.14570041298E+02  0.21670459719E+02  0.51100000000E-03 0. -1.
        -11    1    4    4    0    0 -0.14651337900E+01  0.11738927347E+02  0.12118655199E+02  0.16935490438E+02  0.51100000000E-03 0.  1.
        -12    1    4    4    0    0 -0.47739611063E+01  0.47869116298E+01  0.33304063639E+01  0.75363674369E+01  0.00000000000E+00 0.  1.
</event>
<event>
 8    1  0.9117959E-009  0.9118800E+02  0.7816164E-02  0.1184000E+00
        -11   -1    0    0    0    0  0.00000000000E+00  0.00000000000E+00  0.45593999997E+02  0.45594000000E+02  0.51100000000E-03 0. -1.
         11   -1    0    0    0    0 -0.00000000000E+00 -0.00000000000E+00 -0.45593999997E+02  0.45594000000E+02  0.51100000000E-03 0.  1.
         23    2    1    2    0    0  0.00000000000E+00  0.35527136788E-14 -0.35527136788E-14  0.91188000000E+02  0.91188000000E+02 0.  0.
    9900012    2    3    3    0    0 -0.21833577688E+02  0.31526340335E+02 -0.23632567543E+02  0.46142317651E+02  0.99999989992E+01 0.  0.
         12    1    3    3    0    0  0.21833577688E+02 -0.31526340335E+02  0.23632567543E+02  0.45045682349E+02  0.00000000000E+00 0. -1.
         11    1    4    4    0    0 -0.14116466063E+02  0.19630662906E+02 -0.15067394235E+02  0.28489715856E+02  0.51100000000E-03 0. -1.
        -11    1    4    4    0    0 -0.83874718341E+01  0.94076495423E+01 -0.58040403970E+01  0.13875894165E+02  0.51100000000E-03 0.  1.
         12    1    4    4    0    0  0.67036020987E+00  0.24880278867E+01 -0.27611329107E+01  0.37767076305E+01  0.00000000000E+00 0. -1.
</event>
<event>
 8    1  0.9117959E-009  0.9118800E+02  0.7816164E-02  0.1184000E+00
        -11   -1    0    0    0    0  0.00000000000E+00  0.00000000000E+00  0.45593999997E+02  0.45594000000E+02  0.51100000000E-03 0. -1.
         11   -1    0    0    0    0 -0.00000000000E+00 -0.00000000000E+00 -0.45593999997E+02  0.45594000000E+02  0.51100000000E-03 0.  1.
         23    2    1    2    0    0  0.00000000000E+00 -0.35527136788E-14  0.71054273576E-14  0.91188000000E+02  0.91188000000E+02 0.  0.
    9900012    2    3    3    0    0 -0.22923348385E+02 -0.28321998361E+02  0.26485808782E+02  0.46142316975E+02  0.99999928332E+01 0.  0.
        -12    1    3    3    0    0  0.22923348385E+02  0.28321998361E+02 -0.26485808782E+02  0.45045683025E+02  0.00000000000E+00 0.  1.
         11    1    4    4    0    0 -0.93533545866E+01 -0.12604580586E+02  0.91071385972E+01  0.18146643422E+02  0.51100000000E-03 0. -1.
        -11    1    4    4    0    0 -0.11579072074E+02 -0.11744149332E+02  0.97274500655E+01  0.19147408145E+02  0.51100000000E-03 0.  1.
        -12    1    4    4    0    0 -0.19909217246E+01 -0.39732684426E+01  0.76512201195E+01  0.88482654090E+01  0.00000000000E+00 0.  1.
</event>
<event>
 8    1  0.9117959E-009  0.9118800E+02  0.7816164E-02  0.1184000E+00
        -11   -1    0    0    0    0  0.00000000000E+00  0.00000000000E+00  0.45593999997E+02  0.45594000000E+02  0.51100000000E-03 0. -1.
         11   -1    0    0    0    0 -0.00000000000E+00 -0.00000000000E+00 -0.45593999997E+02  0.45594000000E+02  0.51100000000E-03 0.  1.
         23    2    1    2    0    0 -0.35527136788E-14  0.71054273576E-14 -0.10658141036E-13  0.91188000000E+02  0.91188000000E+02 0.  0.
    9900012    2    3    3    0    0 -0.28154231631E+02  0.23504780066E+02 -0.26152975277E+02  0.46142316960E+02  0.99999926956E+01 0.  0.
         12    1    3    3    0    0  0.28154231631E+02 -0.23504780066E+02  0.26152975277E+02  0.45045683040E+02  0.00000000000E+00 0. -1.
         11    1    4    4    0    0 -0.13468955960E+01  0.31925924110E+01 -0.36886957305E+01  0.50609535171E+01  0.51100000000E-03 0. -1.
        -11    1    4    4    0    0 -0.26275844882E+02  0.20730780879E+02 -0.22608374299E+02  0.40389650764E+02  0.51100000000E-03 0.  1.
         12    1    4    4    0    0 -0.53149115309E+00 -0.41859322407E+00  0.14409475219E+00  0.69171267926E+00  0.00000000000E+00 0. -1.
</event>
<event>
 8    1  0.9117959E-009  0.9118800E+02  0.7816164E-02  0.1184000E+00
        -11   -1    0    0    0    0  0.00000000000E+00  0.00000000000E+00  0.45593999997E+02  0.45594000000E+02  0.51100000000E-03 0. -1.
         11   -1    0    0    0    0 -0.00000000000E+00 -0.00000000000E+00 -0.45593999997E+02  0.45594000000E+02  0.51100000000E-03 0.  1.
         23    2    1    2    0    0  0.00000000000E+00 -0.17763568394E-14  0.00000000000E+00  0.91188000000E+02  0.91188000000E+02 0.  0.
    9900012    2    3    3    0    0  0.22310104658E+02  0.12431640406E+02 -0.37105614991E+02  0.46142321885E+02  0.10000037604E+02 0.  0.
         12    1    3    3    0    0 -0.22310104658E+02 -0.12431640406E+02  0.37105614991E+02  0.45045678115E+02  0.00000000000E+00 0. -1.
         11    1    4    4    0    0  0.92735777170E+01  0.58229938056E+01 -0.98205345979E+01  0.14708820503E+02  0.51100000000E-03 0. -1.
        -11    1    4    4    0    0  0.31992064762E+01  0.26578572692E+01 -0.12969481693E+02  0.13620080139E+02  0.51100000000E-03 0.  1.
         12    1    4    4    0    0  0.98373204644E+01  0.39507893308E+01 -0.14315598699E+02  0.17813421243E+02  0.00000000000E+00 0. -1.
</event>
<event>
 8    1  0.9117959E-009  0.9118800E+02  0.7816164E-02  0.1184000E+00
        -11   -1    0    0    0    0  0.00000000000E+00  0.00000000000E+00  0.45593999997E+02  0.45594000000E+02  0.51100000000E-03 0. -1.
         11   -1    0    0    0    0 -0.00000000000E+00 -0.00000000000E+00 -0.45593999997E+02  0.45594000000E+02  0.51100000000E-03 0.  1.
         23    2    1    2    0    0  0.00000000000E+00 -0.35527136788E-14  0.00000000000E+00  0.91188000000E+02  0.91188000000E+02 0.  0.
    9900012    2    3    3    0    0  0.37801138242E+02 -0.17050616471E+02 -0.17591583960E+02  0.46142318735E+02  0.10000008883E+02 0.  0.
         12    1    3    3    0    0 -0.37801138242E+02  0.17050616471E+02  0.17591583960E+02  0.45045681265E+02  0.00000000000E+00 0. -1.
         11    1    4    4    0    0  0.56516565990E+01 -0.48884543836E+00 -0.68975860672E+00  0.57145392966E+01  0.51100000000E-03 0. -1.
        -11    1    4    4    0    0  0.65180544723E+01 -0.63780079975E+00 -0.31113512845E+01  0.72506779711E+01  0.51100000000E-03 0.  1.
        -12    1    4    4    0    0  0.25631427170E+02 -0.15923970233E+02 -0.13790474068E+02  0.33177101468E+02  0.00000000000E+00 0.  1.
</event>
<event>
 8    1  0.9117959E-009  0.9118800E+02  0.7816164E-02  0.1184000E+00
        -11   -1    0    0    0    0  0.00000000000E+00  0.00000000000E+00  0.45593999997E+02  0.45594000000E+02  0.51100000000E-03 0.  1.
         11   -1    0    0    0    0 -0.00000000000E+00 -0.00000000000E+00 -0.45593999997E+02  0.45594000000E+02  0.51100000000E-03 0. -1.
         23    2    1    2    0    0  0.00000000000E+00  0.00000000000E+00  0.00000000000E+00  0.91188000000E+02  0.91188000000E+02 0.  0.
    9900012    2    3    3    0    0 -0.15459496124E+02  0.41773649129E+02  0.67141479406E+01  0.46142316916E+02  0.99999922948E+01 0.  0.
        -12    1    3    3    0    0  0.15459496124E+02 -0.41773649129E+02 -0.67141479406E+01  0.45045683084E+02  0.00000000000E+00 0.  1.
         11    1    4    4    0    0 -0.10588997027E+01  0.79585441729E+01  0.38236974783E+01  0.88927136803E+01  0.51100000000E-03 0.  1.
        -11    1    4    4    0    0 -0.14220790872E+02  0.33929905516E+02  0.25892807159E+01  0.36880533568E+02  0.51100000000E-03 0. -1.
        -12    1    4    4    0    0 -0.17980554866E+00 -0.11480055999E+00  0.30116974640E+00  0.36906966829E+00  0.00000000000E+00 0.  1.
</event>
<event>
 8    1  0.9117959E-009  0.9118800E+02  0.7816164E-02  0.1184000E+00
        -11   -1    0    0    0    0  0.00000000000E+00  0.00000000000E+00  0.45593999997E+02  0.45594000000E+02  0.51100000000E-03 0.  1.
         11   -1    0    0    0    0 -0.00000000000E+00 -0.00000000000E+00 -0.45593999997E+02  0.45594000000E+02  0.51100000000E-03 0. -1.
         23    2    1    2    0    0  0.00000000000E+00  0.00000000000E+00 -0.88817841970E-15  0.91188000000E+02  0.91188000000E+02 0.  0.
    9900012    2    3    3    0    0 -0.40416262811E+02 -0.19649906144E+02 -0.30855262008E+01  0.46142316711E+02  0.99999904245E+01 0.  0.
        -12    1    3    3    0    0  0.40416262811E+02  0.19649906144E+02  0.30855262008E+01  0.45045683289E+02  0.00000000000E+00 0.  1.
         11    1    4    4    0    0 -0.23282559881E+02 -0.11074455924E+02  0.26432190469E+01  0.25917325784E+02  0.51100000000E-03 0. -1.
        -11    1    4    4    0    0 -0.13353474401E+01 -0.14124426116E+01 -0.12457452085E+01  0.23086854057E+01  0.51100000000E-03 0.  1.
         12    1    4    4    0    0 -0.15798355490E+02 -0.71630076082E+01 -0.44830000391E+01  0.17916305521E+02  0.00000000000E+00 0. -1.
</event>
<event>
 8    1  0.9117959E-009  0.9118800E+02  0.7816164E-02  0.1184000E+00
        -11   -1    0    0    0    0  0.00000000000E+00  0.00000000000E+00  0.45593999997E+02  0.45594000000E+02  0.51100000000E-03 0. -1.
         11   -1    0    0    0    0 -0.00000000000E+00 -0.00000000000E+00 -0.45593999997E+02  0.45594000000E+02  0.51100000000E-03 0.  1.
         23    2    1    2    0    0  0.00000000000E+00 -0.35527136788E-14  0.00000000000E+00  0.91188000000E+02  0.91188000000E+02 0.  0.
    9900012    2    3    3    0    0  0.11121214022E+02  0.20799752104E+02 -0.38377105930E+02  0.46142319313E+02  0.10000014155E+02 0.  0.
         12    1    3    3    0    0 -0.11121214022E+02 -0.20799752104E+02  0.38377105930E+02  0.45045680687E+02  0.00000000000E+00 0. -1.
         11    1    4    4    0    0 -0.11933331935E+01  0.46581328300E+01 -0.77975303593E+01  0.91609893319E+01  0.51100000000E-03 0. -1.
        -11    1    4    4    0    0 -0.38463445880E+00  0.46361796759E+00 -0.11755264170E+01  0.13208890586E+01  0.51100000000E-03 0.  1.
        -12    1    4    4    0    0  0.12699181674E+02  0.15678001307E+02 -0.29404049154E+02  0.35660440923E+02  0.00000000000E+00 0.  1.
</event>
<event>
 8    1  0.9117959E-009  0.9118800E+02  0.7816164E-02  0.1184000E+00
        -11   -1    0    0    0    0  0.00000000000E+00  0.00000000000E+00  0.45593999997E+02  0.45594000000E+02  0.51100000000E-03 0. -1.
         11   -1    0    0    0    0 -0.00000000000E+00 -0.00000000000E+00 -0.45593999997E+02  0.45594000000E+02  0.51100000000E-03 0.  1.
         23    2    1    2    0    0  0.35527136788E-14  0.00000000000E+00  0.35527136788E-14  0.91188000000E+02  0.91188000000E+02 0.  0.
    9900012    2    3    3    0    0  0.27966379893E+02  0.22451954000E+02  0.27256280327E+02  0.46142318076E+02  0.10000002867E+02 0.  0.
        -12    1    3    3    0    0 -0.27966379893E+02 -0.22451954000E+02 -0.27256280327E+02  0.45045681924E+02  0.00000000000E+00 0.  1.
         11    1    4    4    0    0  0.16258425521E+02  0.11442110577E+02  0.12864182134E+02  0.23680064973E+02  0.51100000000E-03 0.  1.
        -11    1    4    4    0    0 -0.24709372157E+00  0.25312808747E+01  0.15705237922E+01  0.29891442616E+01  0.51100000000E-03 0. -1.
         12    1    4    4    0    0  0.11955048094E+02  0.84785625484E+01  0.12821574401E+02  0.19473108841E+02  0.00000000000E+00 0. -1.
</event>
<event>
 8    1  0.9117959E-009  0.9118800E+02  0.7816164E-02  0.1184000E+00
        -11   -1    0    0    0    0  0.00000000000E+00  0.00000000000E+00  0.45593999997E+02  0.45594000000E+02  0.51100000000E-03 0. -1.
         11   -1    0    0    0    0 -0.00000000000E+00 -0.00000000000E+00 -0.45593999997E+02  0.45594000000E+02  0.51100000000E-03 0.  1.
         23    2    1    2    0    0  0.00000000000E+00  0.00000000000E+00  0.00000000000E+00  0.91188000000E+02  0.91188000000E+02 0.  0.
    9900012    2    3    3    0    0  0.26074515592E+02  0.89928247958E+01 -0.35614071776E+02  0.46142319079E+02  0.10000012016E+02 0.  0.
         12    1    3    3    0    0 -0.26074515592E+02 -0.89928247958E+01  0.35614071776E+02  0.45045680921E+02  0.00000000000E+00 0. -1.
         11    1    4    4    0    0  0.93392229930E+01  0.27574085054E+01 -0.71626913312E+01  0.12088363626E+02  0.51100000000E-03 0. -1.
        -11    1    4    4    0    0  0.79334716416E+01  0.59290412146E+01 -0.15309228948E+02  0.18233650026E+02  0.51100000000E-03 0.  1.
         12    1    4    4    0    0  0.88018209577E+01  0.30637507582E+00 -0.13142151497E+02  0.15820305428E+02  0.00000000000E+00 0. -1.
</event>
<event>
 8    1  0.9117959E-009  0.9118800E+02  0.7816164E-02  0.1184000E+00
        -11   -1    0    0    0    0  0.00000000000E+00  0.00000000000E+00  0.45593999997E+02  0.45594000000E+02  0.51100000000E-03 0.  1.
         11   -1    0    0    0    0 -0.00000000000E+00 -0.00000000000E+00 -0.45593999997E+02  0.45594000000E+02  0.51100000000E-03 0. -1.
         23    2    1    2    0    0  0.00000000000E+00 -0.35527136788E-14  0.35527136788E-14  0.91188000000E+02  0.91188000000E+02 0.  0.
    9900012    2    3    3    0    0 -0.49499387867E+00 -0.31823712680E+02  0.31876634613E+02  0.46142317167E+02  0.99999945783E+01 0.  0.
        -12    1    3    3    0    0  0.49499387867E+00  0.31823712680E+02 -0.31876634613E+02  0.45045682833E+02  0.00000000000E+00 0.  1.
         11    1    4    4    0    0  0.43500043213E+00 -0.17625909519E+02  0.13079465260E+02  0.21953002608E+02  0.51100000000E-03 0. -1.
        -11    1    4    4    0    0 -0.72128934068E+00 -0.12734451168E+02  0.18791207858E+02  0.22711142593E+02  0.51100000000E-03 0.  1.
         12    1    4    4    0    0 -0.20870497012E+00 -0.14633519931E+01  0.59614947558E-02  0.14781719655E+01  0.00000000000E+00 0. -1.
</event>
<event>
 8    1  0.9117959E-009  0.9118800E+02  0.7816164E-02  0.1184000E+00
        -11   -1    0    0    0    0  0.00000000000E+00  0.00000000000E+00  0.45593999997E+02  0.45594000000E+02  0.51100000000E-03 0. -1.
         11   -1    0    0    0    0 -0.00000000000E+00 -0.00000000000E+00 -0.45593999997E+02  0.45594000000E+02  0.51100000000E-03 0.  1.
         23    2    1    2    0    0  0.00000000000E+00  0.00000000000E+00  0.00000000000E+00  0.91188000000E+02  0.91188000000E+02 0.  0.
    9900012    2    3    3    0    0 -0.60905037732E+01 -0.39087947828E+01 -0.44460552257E+02  0.46142316302E+02  0.99999866923E+01 0.  0.
         12    1    3    3    0    0  0.60905037732E+01  0.39087947828E+01  0.44460552257E+02  0.45045683698E+02  0.00000000000E+00 0. -1.
         11    1    4    4    0    0 -0.81694643925E+00  0.14643022754E+01 -0.42722930030E+01  0.45895610251E+01  0.51100000000E-03 0. -1.
        -11    1    4    4    0    0 -0.65871298898E+01 -0.27590431275E+01 -0.33497948387E+02  0.34250768540E+02  0.51100000000E-03 0.  1.
         12    1    4    4    0    0  0.13135725558E+01 -0.26140539306E+01 -0.66903108664E+01  0.73019867365E+01  0.00000000000E+00 0. -1.
</event>
<event>
 8    1  0.9117959E-009  0.9118800E+02  0.7816164E-02  0.1184000E+00
        -11   -1    0    0    0    0  0.00000000000E+00  0.00000000000E+00  0.45593999997E+02  0.45594000000E+02  0.51100000000E-03 0.  1.
         11   -1    0    0    0    0 -0.00000000000E+00 -0.00000000000E+00 -0.45593999997E+02  0.45594000000E+02  0.51100000000E-03 0. -1.
         23    2    1    2    0    0  0.00000000000E+00  0.00000000000E+00 -0.88817841970E-15  0.91188000000E+02  0.91188000000E+02 0.  0.
    9900012    2    3    3    0    0 -0.41255428459E+02  0.17165351040E+02 -0.56968265392E+01  0.46142317784E+02  0.10000000209E+02 0.  0.
        -12    1    3    3    0    0  0.41255428459E+02 -0.17165351040E+02  0.56968265392E+01  0.45045682216E+02  0.00000000000E+00 0.  1.
         11    1    4    4    0    0 -0.25505681159E+02  0.14134766364E+02 -0.52809566740E+01  0.29634775100E+02  0.51100000000E-03 0. -1.
        -11    1    4    4    0    0  0.83714971143E-01 -0.11941398738E+00  0.31513091680E+00  0.34724005042E+00  0.51100000000E-03 0.  1.
         12    1    4    4    0    0 -0.15833462271E+02  0.31499986635E+01 -0.73100078198E+00  0.16160302634E+02  0.00000000000E+00 0. -1.
</event>
<event>
 8    1  0.9117959E-009  0.9118800E+02  0.7816164E-02  0.1184000E+00
        -11   -1    0    0    0    0  0.00000000000E+00  0.00000000000E+00  0.45593999997E+02  0.45594000000E+02  0.51100000000E-03 0. -1.
         11   -1    0    0    0    0 -0.00000000000E+00 -0.00000000000E+00 -0.45593999997E+02  0.45594000000E+02  0.51100000000E-03 0.  1.
         23    2    1    2    0    0  0.00000000000E+00  0.00000000000E+00  0.00000000000E+00  0.91188000000E+02  0.91188000000E+02 0.  0.
    9900012    2    3    3    0    0 -0.18922924261E+02 -0.48876634692E+01 -0.40585064509E+02  0.46142314546E+02  0.99999706823E+01 0.  0.
         12    1    3    3    0    0  0.18922924261E+02  0.48876634692E+01  0.40585064509E+02  0.45045685454E+02  0.00000000000E+00 0. -1.
         11    1    4    4    0    0 -0.14917169473E+02 -0.29656765071E+01 -0.28677650248E+02  0.32461127618E+02  0.51100000000E-03 0. -1.
        -11    1    4    4    0    0 -0.40247551617E+01 -0.58408697743E+00 -0.41548388278E+01  0.58139915424E+01  0.51100000000E-03 0.  1.
         12    1    4    4    0    0  0.19000373063E-01 -0.13378999847E+01 -0.77525754337E+01  0.78671953858E+01  0.00000000000E+00 0. -1.
</event>
<event>
 8    1  0.9117959E-009  0.9118800E+02  0.7816164E-02  0.1184000E+00
        -11   -1    0    0    0    0  0.00000000000E+00  0.00000000000E+00  0.45593999997E+02  0.45594000000E+02  0.51100000000E-03 0. -1.
         11   -1    0    0    0    0 -0.00000000000E+00 -0.00000000000E+00 -0.45593999997E+02  0.45594000000E+02  0.51100000000E-03 0.  1.
         23    2    1    2    0    0  0.35527136788E-14 -0.71054273576E-14  0.00000000000E+00  0.91188000000E+02  0.91188000000E+02 0.  0.
    9900012    2    3    3    0    0  0.23284360894E+02 -0.35135154534E+02 -0.15889397797E+02  0.46142317535E+02  0.99999979411E+01 0.  0.
         12    1    3    3    0    0 -0.23284360894E+02  0.35135154534E+02  0.15889397797E+02  0.45045682465E+02  0.00000000000E+00 0. -1.
         11    1    4    4    0    0 -0.47150199252E+00 -0.15059257819E+01  0.82067931114E-01  0.15801461945E+01  0.51100000000E-03 0. -1.
        -11    1    4    4    0    0  0.50823215811E+01 -0.59407466336E+01 -0.55115936332E+01  0.95655699181E+01  0.51100000000E-03 0.  1.
        -12    1    4    4    0    0  0.18673541305E+02 -0.27688482119E+02 -0.10459872095E+02  0.34996601423E+02  0.00000000000E+00 0.  1.
</event>
<event>
 8    1  0.9117959E-009  0.9118800E+02  0.7816164E-02  0.1184000E+00
        -11   -1    0    0    0    0  0.00000000000E+00  0.00000000000E+00  0.45593999997E+02  0.45594000000E+02  0.51100000000E-03 0. -1.
         11   -1    0    0    0    0 -0.00000000000E+00 -0.00000000000E+00 -0.45593999997E+02  0.45594000000E+02  0.51100000000E-03 0.  1.
         23    2    1    2    0    0  0.00000000000E+00  0.00000000000E+00  0.00000000000E+00  0.91188000000E+02  0.91188000000E+02 0.  0.
    9900012    2    3    3    0    0 -0.40765147595E+02 -0.18844886611E+02 -0.34909441826E+01  0.46142315400E+02  0.99999784655E+01 0.  0.
         12    1    3    3    0    0  0.40765147595E+02  0.18844886611E+02  0.34909441826E+01  0.45045684600E+02  0.00000000000E+00 0. -1.
         11    1    4    4    0    0 -0.63013870884E+01 -0.39752844606E+01  0.20179086589E+01  0.77189585695E+01  0.51100000000E-03 0. -1.
        -11    1    4    4    0    0 -0.17818490927E+02 -0.60274845742E+01 -0.54181065100E+01  0.19575113477E+02  0.51100000000E-03 0.  1.
         12    1    4    4    0    0 -0.16645269579E+02 -0.88421175765E+01 -0.90746331431E-01  0.18848243353E+02  0.00000000000E+00 0. -1.
</event>
<event>
 8    1  0.9117959E-009  0.9118800E+02  0.7816164E-02  0.1184000E+00
        -11   -1    0    0    0    0  0.00000000000E+00  0.00000000000E+00  0.45593999997E+02  0.45594000000E+02  0.51100000000E-03 0. -1.
         11   -1    0    0    0    0 -0.00000000000E+00 -0.00000000000E+00 -0.45593999997E+02  0.45594000000E+02  0.51100000000E-03 0.  1.
         23    2    1    2    0    0  0.00000000000E+00  0.17763568394E-14  0.00000000000E+00  0.91188000000E+02  0.91188000000E+02 0.  0.
    9900012    2    3    3    0    0 -0.36440812406E+01  0.14325411287E+02  0.42551348633E+02  0.46142312003E+02  0.99999474930E+01 0.  0.
        -12    1    3    3    0    0  0.36440812406E+01 -0.14325411287E+02 -0.42551348633E+02  0.45045687997E+02  0.00000000000E+00 0.  1.
         11    1    4    4    0    0  0.16275504079E+01  0.72126813638E+01  0.20497911452E+02  0.21790733511E+02  0.51100000000E-03 0. -1.
        -11    1    4    4    0    0 -0.35043058451E+01  0.41089531851E+01  0.18883281782E+02  0.19640315345E+02  0.51100000000E-03 0.  1.
        -12    1    4    4    0    0 -0.17673258034E+01  0.30037767380E+01  0.31701553991E+01  0.47112631471E+01  0.00000000000E+00 0.  1.
</event>
<event>
 8    1  0.9117959E-009  0.9118800E+02  0.7816164E-02  0.1184000E+00
        -11   -1    0    0    0    0  0.00000000000E+00  0.00000000000E+00  0.45593999997E+02  0.45594000000E+02  0.51100000000E-03 0. -1.
         11   -1    0    0    0    0 -0.00000000000E+00 -0.00000000000E+00 -0.45593999997E+02  0.45594000000E+02  0.51100000000E-03 0.  1.
         23    2    1    2    0    0  0.00000000000E+00  0.00000000000E+00  0.00000000000E+00  0.91188000000E+02  0.91188000000E+02 0.  0.
    9900012    2    3    3    0    0  0.22995385665E+01  0.43460083249E+02  0.11620962482E+02  0.46142317825E+02  0.10000000579E+02 0.  0.
        -12    1    3    3    0    0 -0.22995385665E+01 -0.43460083249E+02 -0.11620962482E+02  0.45045682175E+02  0.00000000000E+00 0.  1.
         11    1    4    4    0    0 -0.74872252605E+00  0.67410089733E+01  0.19813922441E+01  0.70659537846E+01  0.51100000000E-03 0. -1.
        -11    1    4    4    0    0  0.21956454853E+00  0.22600198255E+02  0.17791827109E+01  0.22671185702E+02  0.51100000000E-03 0.  1.
        -12    1    4    4    0    0  0.28286965440E+01  0.14118876021E+02  0.78603875271E+01  0.16405178338E+02  0.00000000000E+00 0.  1.
</event>
<event>
 8    1  0.9117959E-009  0.9118800E+02  0.7816164E-02  0.1184000E+00
        -11   -1    0    0    0    0  0.00000000000E+00  0.00000000000E+00  0.45593999997E+02  0.45594000000E+02  0.51100000000E-03 0.  1.
         11   -1    0    0    0    0 -0.00000000000E+00 -0.00000000000E+00 -0.45593999997E+02  0.45594000000E+02  0.51100000000E-03 0. -1.
         23    2    1    2    0    0 -0.71054273576E-14  0.00000000000E+00  0.00000000000E+00  0.91188000000E+02  0.91188000000E+02 0.  0.
    9900012    2    3    3    0    0  0.37449428294E+02 -0.12868888830E+02 -0.21471968928E+02  0.46142318421E+02  0.10000006019E+02 0.  0.
        -12    1    3    3    0    0 -0.37449428294E+02  0.12868888830E+02  0.21471968928E+02  0.45045681579E+02  0.00000000000E+00 0.  1.
         11    1    4    4    0    0  0.39567074844E+01 -0.10557445469E+01  0.46919121074E+00  0.41219256809E+01  0.51100000000E-03 0. -1.
        -11    1    4    4    0    0  0.15671443160E+02 -0.40417996937E+01 -0.77128592869E+01  0.17928147537E+02  0.51100000000E-03 0.  1.
         12    1    4    4    0    0  0.17821277649E+02 -0.77713445890E+01 -0.14228300852E+02  0.24092245203E+02  0.00000000000E+00 0. -1.
</event>
<event>
 8    1  0.9117959E-009  0.9118800E+02  0.7816164E-02  0.1184000E+00
        -11   -1    0    0    0    0  0.00000000000E+00  0.00000000000E+00  0.45593999997E+02  0.45594000000E+02  0.51100000000E-03 0. -1.
         11   -1    0    0    0    0 -0.00000000000E+00 -0.00000000000E+00 -0.45593999997E+02  0.45594000000E+02  0.51100000000E-03 0.  1.
         23    2    1    2    0    0  0.00000000000E+00  0.35527136788E-14  0.00000000000E+00  0.91188000000E+02  0.91188000000E+02 0.  0.
    9900012    2    3    3    0    0 -0.23992575827E+02  0.28244670129E+02  0.25606803548E+02  0.46142317927E+02  0.10000001508E+02 0.  0.
        -12    1    3    3    0    0  0.23992575827E+02 -0.28244670129E+02 -0.25606803548E+02  0.45045682073E+02  0.00000000000E+00 0.  1.
         11    1    4    4    0    0 -0.95953691313E+01  0.11904746773E+02  0.12759149904E+02  0.19914567809E+02  0.51100000000E-03 0. -1.
        -11    1    4    4    0    0 -0.43127494125E+01  0.98420204305E+01  0.74329772892E+01  0.13065769219E+02  0.51100000000E-03 0.  1.
         12    1    4    4    0    0 -0.10084457284E+02  0.64979029253E+01  0.54146763545E+01  0.13161980898E+02  0.00000000000E+00 0. -1.
</event>
<event>
 8    1  0.9117959E-009  0.9118800E+02  0.7816164E-02  0.1184000E+00
        -11   -1    0    0    0    0  0.00000000000E+00  0.00000000000E+00  0.45593999997E+02  0.45594000000E+02  0.51100000000E-03 0. -1.
         11   -1    0    0    0    0 -0.00000000000E+00 -0.00000000000E+00 -0.45593999997E+02  0.45594000000E+02  0.51100000000E-03 0.  1.
         23    2    1    2    0    0 -0.35527136788E-14  0.00000000000E+00 -0.71054273576E-14  0.91188000000E+02  0.91188000000E+02 0.  0.
    9900012    2    3    3    0    0  0.21418480315E+02  0.20720046140E+02  0.33779311021E+02  0.46142318031E+02  0.10000002458E+02 0.  0.
        -12    1    3    3    0    0 -0.21418480315E+02 -0.20720046140E+02 -0.33779311021E+02  0.45045681969E+02  0.00000000000E+00 0.  1.
         11    1    4    4    0    0  0.65327024446E+01  0.96206658140E+01  0.11196255421E+02  0.16142786242E+02  0.51100000000E-03 0. -1.
        -11    1    4    4    0    0  0.11341511821E+02  0.82316970773E+01  0.11901741409E+02  0.18385923311E+02  0.51100000000E-03 0.  1.
        -12    1    4    4    0    0  0.35442660493E+01  0.28676832489E+01  0.10681314191E+02  0.11613608478E+02  0.00000000000E+00 0.  1.
</event>
<event>
 8    1  0.9117959E-009  0.9118800E+02  0.7816164E-02  0.1184000E+00
        -11   -1    0    0    0    0  0.00000000000E+00  0.00000000000E+00  0.45593999997E+02  0.45594000000E+02  0.51100000000E-03 0. -1.
         11   -1    0    0    0    0 -0.00000000000E+00 -0.00000000000E+00 -0.45593999997E+02  0.45594000000E+02  0.51100000000E-03 0.  1.
         23    2    1    2    0    0  0.88817841970E-15  0.00000000000E+00  0.00000000000E+00  0.91188000000E+02  0.91188000000E+02 0.  0.
    9900012    2    3    3    0    0  0.43949736102E+01 -0.41891083368E+00 -0.44828813101E+02  0.46142314709E+02  0.99999721672E+01 0.  0.
         12    1    3    3    0    0 -0.43949736102E+01  0.41891083368E+00  0.44828813101E+02  0.45045685291E+02  0.00000000000E+00 0. -1.
         11    1    4    4    0    0 -0.54898294560E+00  0.12802829762E+00 -0.21575810061E+02  0.21583172927E+02  0.51100000000E-03 0. -1.
        -11    1    4    4    0    0  0.19231909558E+01  0.27720758086E+01 -0.11228957723E+02  0.11724869276E+02  0.51100000000E-03 0.  1.
         12    1    4    4    0    0  0.30207656000E+01 -0.33190149399E+01 -0.12024045316E+02  0.12834272506E+02  0.00000000000E+00 0. -1.
</event>
<event>
 8    1  0.1030790E-008  0.9118800E+02  0.7816164E-02  0.1184000E+00
        -11   -1    0    0    0    0  0.00000000000E+00  0.00000000000E+00  0.45593999997E+02  0.45594000000E+02  0.51100000000E-03 0. -1.
         11   -1    0    0    0    0 -0.00000000000E+00 -0.00000000000E+00 -0.45593999997E+02  0.45594000000E+02  0.51100000000E-03 0.  1.
         23    2    1    2    0    0  0.00000000000E+00  0.00000000000E+00  0.35527136788E-14  0.91188000000E+02  0.91188000000E+02 0.  0.
    9900012    2    3    3    0    0 -0.18140649718E+02 -0.32154607744E+02  0.25809136491E+02  0.46142317657E+02  0.99999990461E+01 0.  0.
        -12    1    3    3    0    0  0.18140649718E+02  0.32154607744E+02 -0.25809136491E+02  0.45045682343E+02  0.00000000000E+00 0.  1.
         11    1    4    4    0    0  0.53051965549E+00 -0.10271638965E+01  0.38528471521E+00  0.12185899015E+01  0.51100000000E-03 0. -1.
        -11    1    4    4    0    0 -0.21938519979E+01 -0.87891573765E+01  0.42188969978E+01  0.99930659018E+01  0.51100000000E-03 0.  1.
         12    1    4    4    0    0 -0.16477317376E+02 -0.22338286471E+02  0.21204954778E+02  0.34930661853E+02  0.00000000000E+00 0. -1.
</event>
<event>
 8    1  0.9117959E-009  0.9118800E+02  0.7816164E-02  0.1184000E+00
        -11   -1    0    0    0    0  0.00000000000E+00  0.00000000000E+00  0.45593999997E+02  0.45594000000E+02  0.51100000000E-03 0. -1.
         11   -1    0    0    0    0 -0.00000000000E+00 -0.00000000000E+00 -0.45593999997E+02  0.45594000000E+02  0.51100000000E-03 0.  1.
         23    2    1    2    0    0  0.00000000000E+00 -0.11102230246E-15  0.35527136788E-14  0.91188000000E+02  0.91188000000E+02 0.  0.
    9900012    2    3    3    0    0 -0.34926872606E+02  0.71969189869E+00  0.28437810820E+02  0.46142317957E+02  0.10000001785E+02 0.  0.
        -12    1    3    3    0    0  0.34926872606E+02 -0.71969189869E+00 -0.28437810820E+02  0.45045682043E+02  0.00000000000E+00 0.  1.
         11    1    4    4    0    0 -0.18832189955E+01  0.64401936700E+00  0.19510879121E+01  0.27871166161E+01  0.51100000000E-03 0. -1.
        -11    1    4    4    0    0 -0.60606448316E-01 -0.51790352685E+00  0.25362509702E+01  0.25892984473E+01  0.51100000000E-03 0.  1.
        -12    1    4    4    0    0 -0.32983047163E+02  0.59357605854E+00  0.23950471938E+02  0.40765902893E+02  0.00000000000E+00 0.  1.
</event>
<event>
 8    1  0.9117959E-009  0.9118800E+02  0.7816164E-02  0.1184000E+00
        -11   -1    0    0    0    0  0.00000000000E+00  0.00000000000E+00  0.45593999997E+02  0.45594000000E+02  0.51100000000E-03 0. -1.
         11   -1    0    0    0    0 -0.00000000000E+00 -0.00000000000E+00 -0.45593999997E+02  0.45594000000E+02  0.51100000000E-03 0.  1.
         23    2    1    2    0    0 -0.71054273576E-14 -0.88817841970E-15  0.35527136788E-14  0.91188000000E+02  0.91188000000E+02 0.  0.
    9900012    2    3    3    0    0  0.38846888817E+02  0.70497535851E+01 -0.21687178014E+02  0.46142317781E+02  0.10000000184E+02 0.  0.
         12    1    3    3    0    0 -0.38846888817E+02 -0.70497535851E+01  0.21687178014E+02  0.45045682219E+02  0.00000000000E+00 0. -1.
         11    1    4    4    0    0  0.68471962250E+01  0.23634743040E+01 -0.23691520656E+01  0.76212196334E+01  0.51100000000E-03 0. -1.
        -11    1    4    4    0    0  0.15067280266E+02 -0.62174256735E+00 -0.55786173006E+01  0.16078882725E+02  0.51100000000E-03 0.  1.
        -12    1    4    4    0    0  0.16932412326E+02  0.53080218484E+01 -0.13739408648E+02  0.22442215423E+02  0.00000000000E+00 0.  1.
</event>
<event>
 8    1  0.9117959E-009  0.9118800E+02  0.7816164E-02  0.1184000E+00
        -11   -1    0    0    0    0  0.00000000000E+00  0.00000000000E+00  0.45593999997E+02  0.45594000000E+02  0.51100000000E-03 0. -1.
         11   -1    0    0    0    0 -0.00000000000E+00 -0.00000000000E+00 -0.45593999997E+02  0.45594000000E+02  0.51100000000E-03 0.  1.
         23    2    1    2    0    0  0.88817841970E-15 -0.71054273576E-14  0.35527136788E-14  0.91188000000E+02  0.91188000000E+02 0.  0.
    9900012    2    3    3    0    0 -0.72711656752E+01  0.40763511158E+02 -0.17736398464E+02  0.46142317380E+02  0.99999965288E+01 0.  0.
         12    1    3    3    0    0  0.72711656752E+01 -0.40763511158E+02  0.17736398464E+02  0.45045682620E+02  0.00000000000E+00 0. -1.
         11    1    4    4    0    0 -0.82991384353E+00  0.75080134021E+00 -0.15081759895E+01  0.18780454511E+01  0.51100000000E-03 0. -1.
        -11    1    4    4    0    0 -0.69287544286E+01  0.38150875322E+02 -0.13781403691E+02  0.41151233441E+02  0.51100000000E-03 0.  1.
        -12    1    4    4    0    0  0.48750259689E+00  0.18618344957E+01 -0.24468187833E+01  0.31130384883E+01  0.00000000000E+00 0.  1.
</event>
<event>
 8    1  0.9117959E-009  0.9118800E+02  0.7816164E-02  0.1184000E+00
        -11   -1    0    0    0    0  0.00000000000E+00  0.00000000000E+00  0.45593999997E+02  0.45594000000E+02  0.51100000000E-03 0. -1.
         11   -1    0    0    0    0 -0.00000000000E+00 -0.00000000000E+00 -0.45593999997E+02  0.45594000000E+02  0.51100000000E-03 0.  1.
         23    2    1    2    0    0  0.00000000000E+00  0.71054273576E-14  0.35527136788E-14  0.91188000000E+02  0.91188000000E+02 0.  0.
    9900012    2    3    3    0    0 -0.25204691198E+02  0.25788361091E+02  0.26996248304E+02  0.46142318203E+02  0.10000004026E+02 0.  0.
        -12    1    3    3    0    0  0.25204691198E+02 -0.25788361091E+02 -0.26996248304E+02  0.45045681797E+02  0.00000000000E+00 0.  1.
         11    1    4    4    0    0 -0.12074581637E+02  0.11572617539E+02  0.14117159668E+02  0.21886415781E+02  0.51100000000E-03 0. -1.
        -11    1    4    4    0    0  0.20652720234E+00  0.23222519883E+00  0.21124877086E+01  0.21352251892E+01  0.51100000000E-03 0.  1.
         12    1    4    4    0    0 -0.13336636763E+02  0.13983518353E+02  0.10766600927E+02  0.22120677232E+02  0.00000000000E+00 0. -1.
</event>
<event>
 8    1  0.9117959E-009  0.9118800E+02  0.7816164E-02  0.1184000E+00
        -11   -1    0    0    0    0  0.00000000000E+00  0.00000000000E+00  0.45593999997E+02  0.45594000000E+02  0.51100000000E-03 0.  1.
         11   -1    0    0    0    0 -0.00000000000E+00 -0.00000000000E+00 -0.45593999997E+02  0.45594000000E+02  0.51100000000E-03 0. -1.
         23    2    1    2    0    0  0.00000000000E+00  0.00000000000E+00  0.00000000000E+00  0.91188000000E+02  0.91188000000E+02 0.  0.
    9900012    2    3    3    0    0  0.86654078463E+01  0.40715329021E+02  0.17212965406E+02  0.46142317759E+02  0.99999999853E+01 0.  0.
        -12    1    3    3    0    0 -0.86654078463E+01 -0.40715329021E+02 -0.17212965406E+02  0.45045682241E+02  0.00000000000E+00 0.  1.
         11    1    4    4    0    0  0.50625298008E+01  0.13225850751E+02  0.37772658518E+01  0.14656741577E+02  0.51100000000E-03 0. -1.
        -11    1    4    4    0    0  0.18431291150E+01  0.80911342887E+01  0.95767219265E+00  0.83534852189E+01  0.51100000000E-03 0.  1.
        -12    1    4    4    0    0  0.17597489305E+01  0.19398343981E+02  0.12478027362E+02  0.23132090964E+02  0.00000000000E+00 0.  1.
</event>
<event>
 8    1  0.9117959E-009  0.9118800E+02  0.7816164E-02  0.1184000E+00
        -11   -1    0    0    0    0  0.00000000000E+00  0.00000000000E+00  0.45593999997E+02  0.45594000000E+02  0.51100000000E-03 0. -1.
         11   -1    0    0    0    0 -0.00000000000E+00 -0.00000000000E+00 -0.45593999997E+02  0.45594000000E+02  0.51100000000E-03 0.  1.
         23    2    1    2    0    0 -0.35527136788E-14  0.00000000000E+00  0.71054273576E-14  0.91188000000E+02  0.91188000000E+02 0.  0.
    9900012    2    3    3    0    0  0.20864562613E+02  0.18164361664E+02 -0.35550520265E+02  0.46142317645E+02  0.99999989443E+01 0.  0.
         12    1    3    3    0    0 -0.20864562613E+02 -0.18164361664E+02  0.35550520265E+02  0.45045682355E+02  0.00000000000E+00 0. -1.
         11    1    4    4    0    0  0.15914620326E+02  0.13532450583E+02 -0.19411694518E+02  0.28516946597E+02  0.51100000000E-03 0. -1.
        -11    1    4    4    0    0  0.38909599836E+01  0.23367410732E+01 -0.97484147164E+01  0.10753209669E+02  0.51100000000E-03 0.  1.
         12    1    4    4    0    0  0.10589823032E+01  0.22951700076E+01 -0.63904110311E+01  0.68721613797E+01  0.00000000000E+00 0. -1.
</event>
<event>
 8    1  0.9117959E-009  0.9118800E+02  0.7816164E-02  0.1184000E+00
        -11   -1    0    0    0    0  0.00000000000E+00  0.00000000000E+00  0.45593999997E+02  0.45594000000E+02  0.51100000000E-03 0. -1.
         11   -1    0    0    0    0 -0.00000000000E+00 -0.00000000000E+00 -0.45593999997E+02  0.45594000000E+02  0.51100000000E-03 0.  1.
         23    2    1    2    0    0 -0.35527136788E-14  0.35527136788E-14  0.00000000000E+00  0.91188000000E+02  0.91188000000E+02 0.  0.
    9900012    2    3    3    0    0 -0.30104755531E+02  0.19307294692E+02  0.27386959618E+02  0.46142317731E+02  0.99999997296E+01 0.  0.
        -12    1    3    3    0    0  0.30104755531E+02 -0.19307294692E+02 -0.27386959618E+02  0.45045682269E+02  0.00000000000E+00 0.  1.
         11    1    4    4    0    0 -0.13679527213E+02  0.86342622314E+01  0.15189235456E+02  0.22189926162E+02  0.51100000000E-03 0. -1.
        -11    1    4    4    0    0 -0.16233864480E+01 -0.46787710584E+00 -0.13810269330E+00  0.16951003394E+01  0.51100000000E-03 0.  1.
        -12    1    4    4    0    0 -0.14801841870E+02  0.11140909567E+02  0.12335826856E+02  0.22257291230E+02  0.00000000000E+00 0.  1.
</event>
<event>
 8    1  0.9117959E-009  0.9118800E+02  0.7816164E-02  0.1184000E+00
        -11   -1    0    0    0    0  0.00000000000E+00  0.00000000000E+00  0.45593999997E+02  0.45594000000E+02  0.51100000000E-03 0. -1.
         11   -1    0    0    0    0 -0.00000000000E+00 -0.00000000000E+00 -0.45593999997E+02  0.45594000000E+02  0.51100000000E-03 0.  1.
         23    2    1    2    0    0 -0.17763568394E-14  0.00000000000E+00  0.00000000000E+00  0.91188000000E+02  0.91188000000E+02 0.  0.
    9900012    2    3    3    0    0 -0.11644674736E+02 -0.85605262900E+01 -0.42664182198E+02  0.46142317602E+02  0.99999985525E+01 0.  0.
         12    1    3    3    0    0  0.11644674736E+02  0.85605262900E+01  0.42664182198E+02  0.45045682398E+02  0.00000000000E+00 0. -1.
         11    1    4    4    0    0  0.90242927529E+00  0.95088525578E+00 -0.61764637005E+01  0.63140530146E+01  0.51100000000E-03 0. -1.
        -11    1    4    4    0    0 -0.56923065592E+01 -0.32132574477E+01 -0.12687837132E+02  0.14272651777E+02  0.51100000000E-03 0.  1.
         12    1    4    4    0    0 -0.68547974526E+01 -0.62981540980E+01 -0.23799881365E+02  0.25555612811E+02  0.00000000000E+00 0. -1.
</event>
<event>
 8    1  0.9117959E-009  0.9118800E+02  0.7816164E-02  0.1184000E+00
        -11   -1    0    0    0    0  0.00000000000E+00  0.00000000000E+00  0.45593999997E+02  0.45594000000E+02  0.51100000000E-03 0.  1.
         11   -1    0    0    0    0 -0.00000000000E+00 -0.00000000000E+00 -0.45593999997E+02  0.45594000000E+02  0.51100000000E-03 0. -1.
         23    2    1    2    0    0  0.00000000000E+00 -0.17763568394E-14  0.00000000000E+00  0.91188000000E+02  0.91188000000E+02 0.  0.
    9900012    2    3    3    0    0  0.42513960585E+02 -0.14600564296E+02 -0.29155006960E+01  0.46142318002E+02  0.10000002197E+02 0.  0.
         12    1    3    3    0    0 -0.42513960585E+02  0.14600564296E+02  0.29155006960E+01  0.45045681998E+02  0.00000000000E+00 0. -1.
         11    1    4    4    0    0 -0.22186698150E+00  0.27671326922E+00 -0.29024396301E+00  0.45829794897E+00  0.51100000000E-03 0. -1.
        -11    1    4    4    0    0  0.14026869039E+02 -0.30170963417E+01 -0.28144475996E+01  0.14621116268E+02  0.51100000000E-03 0.  1.
        -12    1    4    4    0    0  0.28708958527E+02 -0.11860181224E+02  0.18919086664E+00  0.31062903785E+02  0.00000000000E+00 0.  1.
</event>
<event>
 8    1  0.9117959E-009  0.9118800E+02  0.7816164E-02  0.1184000E+00
        -11   -1    0    0    0    0  0.00000000000E+00  0.00000000000E+00  0.45593999997E+02  0.45594000000E+02  0.51100000000E-03 0.  1.
         11   -1    0    0    0    0 -0.00000000000E+00 -0.00000000000E+00 -0.45593999997E+02  0.45594000000E+02  0.51100000000E-03 0. -1.
         23    2    1    2    0    0  0.35527136788E-14  0.00000000000E+00  0.00000000000E+00  0.91188000000E+02  0.91188000000E+02 0.  0.
    9900012    2    3    3    0    0  0.28509386423E+02 -0.15269872529E+02  0.31355371696E+02  0.46142318127E+02  0.10000003336E+02 0.  0.
        -12    1    3    3    0    0 -0.28509386423E+02  0.15269872529E+02 -0.31355371696E+02  0.45045681873E+02  0.00000000000E+00 0.  1.
         11    1    4    4    0    0  0.19957208892E+02 -0.78363301777E+01  0.18805982017E+02  0.28519523441E+02  0.51100000000E-03 0. -1.
        -11    1    4    4    0    0  0.63082220278E+01 -0.22060956335E+01  0.66787147346E+01  0.94480555599E+01  0.51100000000E-03 0.  1.
         12    1    4    4    0    0  0.22439555030E+01 -0.52274467173E+01  0.58706749440E+01  0.81747391261E+01  0.00000000000E+00 0. -1.
</event>
<event>
 8    1  0.9117959E-009  0.9118800E+02  0.7816164E-02  0.1184000E+00
        -11   -1    0    0    0    0  0.00000000000E+00  0.00000000000E+00  0.45593999997E+02  0.45594000000E+02  0.51100000000E-03 0. -1.
         11   -1    0    0    0    0 -0.00000000000E+00 -0.00000000000E+00 -0.45593999997E+02  0.45594000000E+02  0.51100000000E-03 0.  1.
         23    2    1    2    0    0  0.35527136788E-14  0.17763568394E-14 -0.71054273576E-14  0.91188000000E+02  0.91188000000E+02 0.  0.
    9900012    2    3    3    0    0  0.20605457428E+02  0.13568211292E+02 -0.37688623905E+02  0.46142316462E+02  0.99999881577E+01 0.  0.
         12    1    3    3    0    0 -0.20605457428E+02 -0.13568211292E+02  0.37688623905E+02  0.45045683538E+02  0.00000000000E+00 0. -1.
         11    1    4    4    0    0  0.60067720926E+01  0.35919543377E+01 -0.67861367098E+01  0.97485947009E+01  0.51100000000E-03 0.  1.
        -11    1    4    4    0    0  0.96274278269E+01  0.49032191661E+01 -0.11728089303E+02  0.15946065462E+02  0.51100000000E-03 0. -1.
        -12    1    4    4    0    0  0.49712575088E+01  0.50730377887E+01 -0.19174397892E+02  0.20447656299E+02  0.00000000000E+00 0.  1.
</event>
<event>
 8    1  0.9117959E-009  0.9118800E+02  0.7816164E-02  0.1184000E+00
        -11   -1    0    0    0    0  0.00000000000E+00  0.00000000000E+00  0.45593999997E+02  0.45594000000E+02  0.51100000000E-03 0. -1.
         11   -1    0    0    0    0 -0.00000000000E+00 -0.00000000000E+00 -0.45593999997E+02  0.45594000000E+02  0.51100000000E-03 0.  1.
         23    2    1    2    0    0  0.00000000000E+00  0.00000000000E+00  0.00000000000E+00  0.91188000000E+02  0.91188000000E+02 0.  0.
    9900012    2    3    3    0    0 -0.31547084454E+01 -0.11127037634E+02 -0.43535623001E+02  0.46142316278E+02  0.99999864777E+01 0.  0.
         12    1    3    3    0    0  0.31547084454E+01  0.11127037634E+02  0.43535623001E+02  0.45045683722E+02  0.00000000000E+00 0. -1.
         11    1    4    4    0    0  0.55313160112E+00 -0.49877101612E+01 -0.22215236674E+02  0.22774985136E+02  0.51100000000E-03 0. -1.
        -11    1    4    4    0    0 -0.75020662521E+00 -0.96761318823E-01 -0.11135113378E+02  0.11160776091E+02  0.51100000000E-03 0.  1.
        -12    1    4    4    0    0 -0.29576334214E+01 -0.60425661544E+01 -0.10185272949E+02  0.12206555051E+02  0.00000000000E+00 0.  1.
</event>
<event>
 8    1  0.9117959E-009  0.9118800E+02  0.7816164E-02  0.1184000E+00
        -11   -1    0    0    0    0  0.00000000000E+00  0.00000000000E+00  0.45593999997E+02  0.45594000000E+02  0.51100000000E-03 0. -1.
         11   -1    0    0    0    0 -0.00000000000E+00 -0.00000000000E+00 -0.45593999997E+02  0.45594000000E+02  0.51100000000E-03 0.  1.
         23    2    1    2    0    0  0.00000000000E+00  0.00000000000E+00  0.71054273576E-14  0.91188000000E+02  0.91188000000E+02 0.  0.
    9900012    2    3    3    0    0 -0.13391951631E+02  0.90831445857E+01 -0.42038859379E+02  0.46142316722E+02  0.99999905286E+01 0.  0.
         12    1    3    3    0    0  0.13391951631E+02 -0.90831445857E+01  0.42038859379E+02  0.45045683278E+02  0.00000000000E+00 0. -1.
         11    1    4    4    0    0  0.37640785808E+00  0.30191875346E-01  0.86764746143E-01  0.38745684567E+00  0.51100000000E-03 0. -1.
        -11    1    4    4    0    0 -0.32775437709E+01  0.26550407768E+00 -0.15194254539E+02  0.15546001313E+02  0.51100000000E-03 0.  1.
        -12    1    4    4    0    0 -0.10490815718E+02  0.87874486327E+01 -0.26931369587E+02  0.30208858564E+02  0.00000000000E+00 0.  1.
</event>
<event>
 8    1  0.9117959E-009  0.9118800E+02  0.7816164E-02  0.1184000E+00
        -11   -1    0    0    0    0  0.00000000000E+00  0.00000000000E+00  0.45593999997E+02  0.45594000000E+02  0.51100000000E-03 0. -1.
         11   -1    0    0    0    0 -0.00000000000E+00 -0.00000000000E+00 -0.45593999997E+02  0.45594000000E+02  0.51100000000E-03 0.  1.
         23    2    1    2    0    0 -0.88817841970E-15  0.00000000000E+00  0.00000000000E+00  0.91188000000E+02  0.91188000000E+02 0.  0.
    9900012    2    3    3    0    0 -0.46074529214E+01  0.52974609571E+01 -0.44495188725E+02  0.46142317247E+02  0.99999953082E+01 0.  0.
         12    1    3    3    0    0  0.46074529214E+01 -0.52974609571E+01  0.44495188725E+02  0.45045682753E+02  0.00000000000E+00 0. -1.
         11    1    4    4    0    0 -0.31331003272E+01  0.43352992141E+01 -0.11198960354E+02  0.12410795712E+02  0.51100000000E-03 0. -1.
        -11    1    4    4    0    0 -0.19720125340E+01  0.28051394057E+01 -0.23754216767E+02  0.24000426142E+02  0.51100000000E-03 0.  1.
         12    1    4    4    0    0  0.49765993987E+00 -0.18429776627E+01 -0.95420116045E+01  0.97310953927E+01  0.00000000000E+00 0. -1.
</event>
<event>
 8    1  0.9117959E-009  0.9118800E+02  0.7816164E-02  0.1184000E+00
        -11   -1    0    0    0    0  0.00000000000E+00  0.00000000000E+00  0.45593999997E+02  0.45594000000E+02  0.51100000000E-03 0. -1.
         11   -1    0    0    0    0 -0.00000000000E+00 -0.00000000000E+00 -0.45593999997E+02  0.45594000000E+02  0.51100000000E-03 0.  1.
         23    2    1    2    0    0  0.00000000000E+00  0.00000000000E+00  0.00000000000E+00  0.91188000000E+02  0.91188000000E+02 0.  0.
    9900012    2    3    3    0    0 -0.53973530997E+01  0.62850656402E+01 -0.44277308333E+02  0.46142317590E+02  0.99999984361E+01 0.  0.
         12    1    3    3    0    0  0.53973530997E+01 -0.62850656402E+01  0.44277308333E+02  0.45045682410E+02  0.00000000000E+00 0. -1.
         11    1    4    4    0    0 -0.58081666053E+00  0.18477479408E-01 -0.39551814482E+00  0.70293973738E+00  0.51100000000E-03 0. -1.
        -11    1    4    4    0    0  0.52632711548E+00  0.64046284480E+01 -0.22497640905E+02  0.23397438585E+02  0.51100000000E-03 0.  1.
        -12    1    4    4    0    0 -0.53428635547E+01 -0.13804028716E+00 -0.21384149283E+02  0.22041939267E+02  0.00000000000E+00 0.  1.
</event>
<event>
 8    1  0.9117959E-009  0.9118800E+02  0.7816164E-02  0.1184000E+00
        -11   -1    0    0    0    0  0.00000000000E+00  0.00000000000E+00  0.45593999997E+02  0.45594000000E+02  0.51100000000E-03 0. -1.
         11   -1    0    0    0    0 -0.00000000000E+00 -0.00000000000E+00 -0.45593999997E+02  0.45594000000E+02  0.51100000000E-03 0.  1.
         23    2    1    2    0    0  0.00000000000E+00  0.00000000000E+00  0.00000000000E+00  0.91188000000E+02  0.91188000000E+02 0.  0.
    9900012    2    3    3    0    0  0.95487889500E+00 -0.32825853452E+02  0.30832850817E+02  0.46142321649E+02  0.10000035453E+02 0.  0.
        -12    1    3    3    0    0 -0.95487889500E+00  0.32825853452E+02 -0.30832850817E+02  0.45045678351E+02  0.00000000000E+00 0.  1.
         11    1    4    4    0    0  0.68095838178E+00 -0.45067654003E+01  0.82474679778E+01  0.94231293633E+01  0.51100000000E-03 0. -1.
        -11    1    4    4    0    0 -0.11304429286E+01 -0.14382581093E+02  0.79976004874E+01  0.16495397962E+02  0.51100000000E-03 0.  1.
        -12    1    4    4    0    0  0.14043634418E+01 -0.13936506959E+02  0.14587782352E+02  0.20223794324E+02  0.00000000000E+00 0.  1.
</event>
<event>
 8    1  0.9117959E-009  0.9118800E+02  0.7816164E-02  0.1184000E+00
        -11   -1    0    0    0    0  0.00000000000E+00  0.00000000000E+00  0.45593999997E+02  0.45594000000E+02  0.51100000000E-03 0. -1.
         11   -1    0    0    0    0 -0.00000000000E+00 -0.00000000000E+00 -0.45593999997E+02  0.45594000000E+02  0.51100000000E-03 0.  1.
         23    2    1    2    0    0  0.00000000000E+00  0.00000000000E+00  0.00000000000E+00  0.91188000000E+02  0.91188000000E+02 0.  0.
    9900012    2    3    3    0    0 -0.19894924333E+02  0.19818008034E+02 -0.35221471326E+02  0.46142317643E+02  0.99999989233E+01 0.  0.
         12    1    3    3    0    0  0.19894924333E+02 -0.19818008034E+02  0.35221471326E+02  0.45045682357E+02  0.00000000000E+00 0. -1.
         11    1    4    4    0    0 -0.94528818259E+00  0.33274854802E+01 -0.46633687513E+01  0.58062671090E+01  0.51100000000E-03 0. -1.
        -11    1    4    4    0    0 -0.61715550999E+01  0.58027017244E+01 -0.50255226619E+01  0.98496354217E+01  0.51100000000E-03 0.  1.
        -12    1    4    4    0    0 -0.12778081050E+02  0.10687820830E+02 -0.25532579913E+02  0.30486415112E+02  0.00000000000E+00 0.  1.
</event>
<event>
 8    1  0.9117959E-009  0.9118800E+02  0.7816164E-02  0.1184000E+00
        -11   -1    0    0    0    0  0.00000000000E+00  0.00000000000E+00  0.45593999997E+02  0.45594000000E+02  0.51100000000E-03 0. -1.
         11   -1    0    0    0    0 -0.00000000000E+00 -0.00000000000E+00 -0.45593999997E+02  0.45594000000E+02  0.51100000000E-03 0.  1.
         23    2    1    2    0    0  0.00000000000E+00  0.00000000000E+00  0.00000000000E+00  0.91188000000E+02  0.91188000000E+02 0.  0.
    9900012    2    3    3    0    0 -0.18361329893E+02 -0.15694233017E+02 -0.38021916256E+02  0.46142317619E+02  0.99999987014E+01 0.  0.
         12    1    3    3    0    0  0.18361329893E+02  0.15694233017E+02  0.38021916256E+02  0.45045682381E+02  0.00000000000E+00 0. -1.
         11    1    4    4    0    0 -0.96646702193E+01 -0.86415237713E+01 -0.19081949784E+02  0.23069516496E+02  0.51100000000E-03 0. -1.
        -11    1    4    4    0    0 -0.73098905542E+01 -0.83611354796E+01 -0.17299386888E+02  0.20557525955E+02  0.51100000000E-03 0.  1.
         12    1    4    4    0    0 -0.13867691197E+01  0.13084262337E+01 -0.16405795844E+01  0.25152751685E+01  0.00000000000E+00 0. -1.
</event>
<event>
 8    1  0.9117959E-009  0.9118800E+02  0.7816164E-02  0.1184000E+00
        -11   -1    0    0    0    0  0.00000000000E+00  0.00000000000E+00  0.45593999997E+02  0.45594000000E+02  0.51100000000E-03 0.  1.
         11   -1    0    0    0    0 -0.00000000000E+00 -0.00000000000E+00 -0.45593999997E+02  0.45594000000E+02  0.51100000000E-03 0. -1.
         23    2    1    2    0    0  0.00000000000E+00  0.00000000000E+00  0.44408920985E-15  0.91188000000E+02  0.91188000000E+02 0.  0.
    9900012    2    3    3    0    0 -0.31964670052E+02  0.31501520461E+02  0.38765339842E+01  0.46142318313E+02  0.10000005035E+02 0.  0.
        -12    1    3    3    0    0  0.31964670052E+02 -0.31501520461E+02 -0.38765339842E+01  0.45045681687E+02  0.00000000000E+00 0.  1.
         11    1    4    4    0    0 -0.14030308613E+02  0.15310252876E+02  0.83534764766E+00  0.20783435925E+02  0.51100000000E-03 0. -1.
        -11    1    4    4    0    0 -0.12877281467E+02  0.70765277267E+01  0.92567075855E+00  0.14722720172E+02  0.51100000000E-03 0.  1.
        -12    1    4    4    0    0 -0.50570799726E+01  0.91147398586E+01  0.21155155780E+01  0.10636162217E+02  0.00000000000E+00 0.  1.
</event>
<event>
 8    1  0.9117959E-009  0.9118800E+02  0.7816164E-02  0.1184000E+00
        -11   -1    0    0    0    0  0.00000000000E+00  0.00000000000E+00  0.45593999997E+02  0.45594000000E+02  0.51100000000E-03 0.  1.
         11   -1    0    0    0    0 -0.00000000000E+00 -0.00000000000E+00 -0.45593999997E+02  0.45594000000E+02  0.51100000000E-03 0. -1.
         23    2    1    2    0    0  0.00000000000E+00  0.00000000000E+00  0.00000000000E+00  0.91188000000E+02  0.91188000000E+02 0.  0.
    9900012    2    3    3    0    0  0.10776198946E+01  0.44028873773E+02 -0.94557066694E+01  0.46142318975E+02  0.10000011070E+02 0.  0.
        -12    1    3    3    0    0 -0.10776198946E+01 -0.44028873773E+02  0.94557066694E+01  0.45045681025E+02  0.00000000000E+00 0.  1.
         11    1    4    4    0    0  0.16781800237E+01  0.20787590709E+02 -0.49401824439E+01  0.21432349813E+02  0.51100000000E-03 0. -1.
        -11    1    4    4    0    0 -0.31144991109E+01  0.16302699116E+02 -0.49420918159E+01  0.17317689654E+02  0.51100000000E-03 0.  1.
        -12    1    4    4    0    0  0.25139389818E+01  0.69385839485E+01  0.42656759040E+00  0.73922795080E+01  0.00000000000E+00 0.  1.
</event>
<event>
 8    1  0.9117959E-009  0.9118800E+02  0.7816164E-02  0.1184000E+00
        -11   -1    0    0    0    0  0.00000000000E+00  0.00000000000E+00  0.45593999997E+02  0.45594000000E+02  0.51100000000E-03 0. -1.
         11   -1    0    0    0    0 -0.00000000000E+00 -0.00000000000E+00 -0.45593999997E+02  0.45594000000E+02  0.51100000000E-03 0.  1.
         23    2    1    2    0    0  0.00000000000E+00 -0.35527136788E-14  0.00000000000E+00  0.91188000000E+02  0.91188000000E+02 0.  0.
    9900012    2    3    3    0    0  0.31715010817E+02 -0.22232145147E+02 -0.23000078615E+02  0.46142314244E+02  0.99999679266E+01 0.  0.
         12    1    3    3    0    0 -0.31715010817E+02  0.22232145147E+02  0.23000078615E+02  0.45045685756E+02  0.00000000000E+00 0. -1.
         11    1    4    4    0    0  0.12507934526E+02 -0.12205512164E+02 -0.11937716477E+02  0.21164404745E+02  0.51100000000E-03 0. -1.
        -11    1    4    4    0    0  0.75854541384E+01 -0.71455824185E+01 -0.50984221469E+01  0.11601395228E+02  0.51100000000E-03 0.  1.
        -12    1    4    4    0    0  0.11621622153E+02 -0.28810505652E+01 -0.59639399905E+01  0.13376514270E+02  0.00000000000E+00 0.  1.
</event>
<event>
 8    1  0.9117959E-009  0.9118800E+02  0.7816164E-02  0.1184000E+00
        -11   -1    0    0    0    0  0.00000000000E+00  0.00000000000E+00  0.45593999997E+02  0.45594000000E+02  0.51100000000E-03 0. -1.
         11   -1    0    0    0    0 -0.00000000000E+00 -0.00000000000E+00 -0.45593999997E+02  0.45594000000E+02  0.51100000000E-03 0.  1.
         23    2    1    2    0    0 -0.88817841970E-15 -0.35527136788E-14  0.00000000000E+00  0.91188000000E+02  0.91188000000E+02 0.  0.
    9900012    2    3    3    0    0 -0.28589730283E+01 -0.22359301388E+02  0.39000018049E+02  0.46142317708E+02  0.99999995168E+01 0.  0.
        -12    1    3    3    0    0  0.28589730283E+01  0.22359301388E+02 -0.39000018049E+02  0.45045682292E+02  0.00000000000E+00 0.  1.
         11    1    4    4    0    0 -0.71653975713E+00 -0.13830251015E+02  0.27680366104E+02  0.30951444882E+02  0.51100000000E-03 0. -1.
        -11    1    4    4    0    0 -0.25463070650E+01 -0.20765204490E+01  0.19941007916E+01  0.38434431273E+01  0.51100000000E-03 0.  1.
         12    1    4    4    0    0  0.40387379388E+00 -0.64525299245E+01  0.93255511530E+01  0.11347429699E+02  0.00000000000E+00 0. -1.
</event>
<event>
 8    1  0.9117959E-009  0.9118800E+02  0.7816164E-02  0.1184000E+00
        -11   -1    0    0    0    0  0.00000000000E+00  0.00000000000E+00  0.45593999997E+02  0.45594000000E+02  0.51100000000E-03 0. -1.
         11   -1    0    0    0    0 -0.00000000000E+00 -0.00000000000E+00 -0.45593999997E+02  0.45594000000E+02  0.51100000000E-03 0.  1.
         23    2    1    2    0    0  0.00000000000E+00  0.88817841970E-15  0.71054273576E-14  0.91188000000E+02  0.91188000000E+02 0.  0.
    9900012    2    3    3    0    0  0.36789386918E+01 -0.54593489271E+01  0.44562027369E+02  0.46142319143E+02  0.10000012601E+02 0.  0.
        -12    1    3    3    0    0 -0.36789386918E+01  0.54593489271E+01 -0.44562027369E+02  0.45045680857E+02  0.00000000000E+00 0.  1.
         11    1    4    4    0    0 -0.12712344191E+01  0.16315208957E+01  0.15817485719E+02  0.15952139422E+02  0.51100000000E-03 0. -1.
        -11    1    4    4    0    0  0.32482683992E+01 -0.27906611913E+01  0.99014761654E+01  0.10787875972E+02  0.51100000000E-03 0.  1.
        -12    1    4    4    0    0  0.17019047117E+01 -0.43002086315E+01  0.18843065484E+02  0.19402303749E+02  0.00000000000E+00 0.  1.
</event>
<event>
 8    1  0.9117959E-009  0.9118800E+02  0.7816164E-02  0.1184000E+00
        -11   -1    0    0    0    0  0.00000000000E+00  0.00000000000E+00  0.45593999997E+02  0.45594000000E+02  0.51100000000E-03 0. -1.
         11   -1    0    0    0    0 -0.00000000000E+00 -0.00000000000E+00 -0.45593999997E+02  0.45594000000E+02  0.51100000000E-03 0.  1.
         23    2    1    2    0    0  0.00000000000E+00  0.00000000000E+00  0.71054273576E-14  0.91188000000E+02  0.91188000000E+02 0.  0.
    9900012    2    3    3    0    0  0.88003121536E+01  0.22008036719E+02 -0.38305535987E+02  0.46142320280E+02  0.10000022966E+02 0.  0.
         12    1    3    3    0    0 -0.88003121536E+01 -0.22008036719E+02  0.38305535987E+02  0.45045679720E+02  0.00000000000E+00 0. -1.
         11    1    4    4    0    0  0.50622196534E+01  0.14184526874E+02 -0.16734836534E+02  0.22514031726E+02  0.51100000000E-03 0. -1.
        -11    1    4    4    0    0  0.14697570002E+01  0.54391706133E+01 -0.88702176789E+01  0.10508354987E+02  0.51100000000E-03 0.  1.
         12    1    4    4    0    0  0.22683355000E+01  0.23843392316E+01 -0.12700481774E+02  0.13119933567E+02  0.00000000000E+00 0. -1.
</event>
<event>
 8    1  0.9117959E-009  0.9118800E+02  0.7816164E-02  0.1184000E+00
        -11   -1    0    0    0    0  0.00000000000E+00  0.00000000000E+00  0.45593999997E+02  0.45594000000E+02  0.51100000000E-03 0. -1.
         11   -1    0    0    0    0 -0.00000000000E+00 -0.00000000000E+00 -0.45593999997E+02  0.45594000000E+02  0.51100000000E-03 0.  1.
         23    2    1    2    0    0  0.35527136788E-14  0.00000000000E+00  0.00000000000E+00  0.91188000000E+02  0.91188000000E+02 0.  0.
    9900012    2    3    3    0    0  0.20535039754E+02 -0.23291486896E+02  0.32633300821E+02  0.46142317166E+02  0.99999945726E+01 0.  0.
        -12    1    3    3    0    0 -0.20535039754E+02  0.23291486896E+02 -0.32633300821E+02  0.45045682834E+02  0.00000000000E+00 0.  1.
         11    1    4    4    0    0  0.12339321726E+02 -0.14400139046E+02  0.18610064233E+02  0.26569858039E+02  0.51100000000E-03 0. -1.
        -11    1    4    4    0    0  0.82976026023E+01 -0.69537841530E+01  0.86429301422E+01  0.13852998401E+02  0.51100000000E-03 0.  1.
        -12    1    4    4    0    0 -0.10188457456E+00 -0.19375636975E+01  0.53803064451E+01  0.57194607256E+01  0.00000000000E+00 0.  1.
</event>
<event>
 8    1  0.9117959E-009  0.9118800E+02  0.7816164E-02  0.1184000E+00
        -11   -1    0    0    0    0  0.00000000000E+00  0.00000000000E+00  0.45593999997E+02  0.45594000000E+02  0.51100000000E-03 0. -1.
         11   -1    0    0    0    0 -0.00000000000E+00 -0.00000000000E+00 -0.45593999997E+02  0.45594000000E+02  0.51100000000E-03 0.  1.
         23    2    1    2    0    0  0.35527136788E-14  0.00000000000E+00 -0.71054273576E-14  0.91188000000E+02  0.91188000000E+02 0.  0.
    9900012    2    3    3    0    0 -0.16484021166E+02 -0.55357217113E+01  0.41554136494E+02  0.46142318426E+02  0.10000006067E+02 0.  0.
        -12    1    3    3    0    0  0.16484021166E+02  0.55357217113E+01 -0.41554136494E+02  0.45045681574E+02  0.00000000000E+00 0.  1.
         11    1    4    4    0    0 -0.25980472295E+01 -0.28707271879E+01  0.12547280740E+02  0.13131076811E+02  0.51100000000E-03 0. -1.
        -11    1    4    4    0    0 -0.30248939107E+01 -0.34378247769E+01  0.11698483154E+02  0.12562767638E+02  0.51100000000E-03 0.  1.
        -12    1    4    4    0    0 -0.10861080026E+02  0.77283025357E+00  0.17308372600E+02  0.20448473977E+02  0.00000000000E+00 0.  1.
</event>
<event>
 8    1  0.9117959E-009  0.9118800E+02  0.7816164E-02  0.1184000E+00
        -11   -1    0    0    0    0  0.00000000000E+00  0.00000000000E+00  0.45593999997E+02  0.45594000000E+02  0.51100000000E-03 0. -1.
         11   -1    0    0    0    0 -0.00000000000E+00 -0.00000000000E+00 -0.45593999997E+02  0.45594000000E+02  0.51100000000E-03 0.  1.
         23    2    1    2    0    0  0.00000000000E+00  0.00000000000E+00  0.00000000000E+00  0.91188000000E+02  0.91188000000E+02 0.  0.
    9900012    2    3    3    0    0 -0.10049805408E+02 -0.21800791935E+01 -0.43856153248E+02  0.46142317502E+02  0.99999976384E+01 0.  0.
         12    1    3    3    0    0  0.10049805408E+02  0.21800791935E+01  0.43856153248E+02  0.45045682498E+02  0.00000000000E+00 0. -1.
         11    1    4    4    0    0 -0.37084367433E+01 -0.17578833783E+01 -0.57359500704E+01  0.70529270889E+01  0.51100000000E-03 0. -1.
        -11    1    4    4    0    0 -0.28411913284E+01  0.24345515482E+01 -0.11641256813E+02  0.12227766348E+02  0.51100000000E-03 0.  1.
         12    1    4    4    0    0 -0.35001773358E+01 -0.28567473634E+01 -0.26478946364E+02  0.26861624065E+02  0.00000000000E+00 0. -1.
</event>
<event>
 8    1  0.9117959E-009  0.9118800E+02  0.7816164E-02  0.1184000E+00
        -11   -1    0    0    0    0  0.00000000000E+00  0.00000000000E+00  0.45593999997E+02  0.45594000000E+02  0.51100000000E-03 0. -1.
         11   -1    0    0    0    0 -0.00000000000E+00 -0.00000000000E+00 -0.45593999997E+02  0.45594000000E+02  0.51100000000E-03 0.  1.
         23    2    1    2    0    0 -0.44408920985E-15  0.00000000000E+00  0.00000000000E+00  0.91188000000E+02  0.91188000000E+02 0.  0.
    9900012    2    3    3    0    0  0.30120381094E+01  0.81579799380E+01 -0.44198286048E+02  0.46142317634E+02  0.99999988413E+01 0.  0.
         12    1    3    3    0    0 -0.30120381094E+01 -0.81579799380E+01  0.44198286048E+02  0.45045682366E+02  0.00000000000E+00 0. -1.
         11    1    4    4    0    0  0.24136658865E+01 -0.21037858162E+00 -0.53293858223E+01  0.58542630334E+01  0.51100000000E-03 0. -1.
        -11    1    4    4    0    0  0.18468642827E+01  0.78422149850E+01 -0.23169970630E+02  0.24530772161E+02  0.51100000000E-03 0.  1.
        -12    1    4    4    0    0 -0.12484920599E+01  0.52614353467E+00 -0.15698929596E+02  0.15757282440E+02  0.00000000000E+00 0.  1.
</event>
<event>
 8    1  0.9117959E-009  0.9118800E+02  0.7816164E-02  0.1184000E+00
        -11   -1    0    0    0    0  0.00000000000E+00  0.00000000000E+00  0.45593999997E+02  0.45594000000E+02  0.51100000000E-03 0.  1.
         11   -1    0    0    0    0 -0.00000000000E+00 -0.00000000000E+00 -0.45593999997E+02  0.45594000000E+02  0.51100000000E-03 0. -1.
         23    2    1    2    0    0  0.00000000000E+00  0.00000000000E+00  0.00000000000E+00  0.91188000000E+02  0.91188000000E+02 0.  0.
    9900012    2    3    3    0    0  0.14050469215E+02  0.42489557339E+02  0.51318079236E+01  0.46142316293E+02  0.99999866134E+01 0.  0.
         12    1    3    3    0    0 -0.14050469215E+02 -0.42489557339E+02 -0.51318079236E+01  0.45045683707E+02  0.00000000000E+00 0. -1.
         11    1    4    4    0    0  0.29058431671E+01  0.12192892746E+02  0.46057986357E+01  0.13353798686E+02  0.51100000000E-03 0. -1.
        -11    1    4    4    0    0  0.75391616215E+01  0.26006716774E+02  0.14159779904E+01  0.27114447611E+02  0.51100000000E-03 0.  1.
         12    1    4    4    0    0  0.36054644264E+01  0.42899478194E+01 -0.88996870240E+00  0.56740699956E+01  0.00000000000E+00 0. -1.
</event>
<event>
 8    1  0.9117959E-009  0.9118800E+02  0.7816164E-02  0.1184000E+00
        -11   -1    0    0    0    0  0.00000000000E+00  0.00000000000E+00  0.45593999997E+02  0.45594000000E+02  0.51100000000E-03 0. -1.
         11   -1    0    0    0    0 -0.00000000000E+00 -0.00000000000E+00 -0.45593999997E+02  0.45594000000E+02  0.51100000000E-03 0.  1.
         23    2    1    2    0    0 -0.35527136788E-14 -0.44408920985E-15  0.00000000000E+00  0.91188000000E+02  0.91188000000E+02 0.  0.
    9900012    2    3    3    0    0  0.25254797892E+02  0.30468825583E+01 -0.37175596241E+02  0.46142320232E+02  0.10000022530E+02 0.  0.
         12    1    3    3    0    0 -0.25254797892E+02 -0.30468825583E+01  0.37175596241E+02  0.45045679768E+02  0.00000000000E+00 0. -1.
         11    1    4    4    0    0  0.10659584869E+02 -0.40562769260E+00 -0.17857365305E+02  0.20800884099E+02  0.51100000000E-03 0. -1.
        -11    1    4    4    0    0  0.12238313670E+02  0.25411658187E-01 -0.14640067089E+02  0.19081628124E+02  0.51100000000E-03 0.  1.
         12    1    4    4    0    0  0.23568993530E+01  0.34270985927E+01 -0.46781638477E+01  0.62598080090E+01  0.00000000000E+00 0. -1.
</event>
<event>
 8    1  0.9117959E-009  0.9118800E+02  0.7816164E-02  0.1184000E+00
        -11   -1    0    0    0    0  0.00000000000E+00  0.00000000000E+00  0.45593999997E+02  0.45594000000E+02  0.51100000000E-03 0. -1.
         11   -1    0    0    0    0 -0.00000000000E+00 -0.00000000000E+00 -0.45593999997E+02  0.45594000000E+02  0.51100000000E-03 0.  1.
         23    2    1    2    0    0  0.35527136788E-14  0.00000000000E+00  0.71054273576E-14  0.91188000000E+02  0.91188000000E+02 0.  0.
    9900012    2    3    3    0    0 -0.21759389696E+02 -0.14320646322E+01 -0.39415618874E+02  0.46142324733E+02  0.10000063576E+02 0.  0.
         12    1    3    3    0    0  0.21759389696E+02  0.14320646322E+01  0.39415618874E+02  0.45045675267E+02  0.00000000000E+00 0. -1.
         11    1    4    4    0    0 -0.13952891293E+02 -0.85350817106E+00 -0.17960996537E+02  0.22759812136E+02  0.51100000000E-03 0. -1.
        -11    1    4    4    0    0  0.88200062478E-01  0.37123836346E+00  0.11120437980E+00  0.39744666149E+00  0.51100000000E-03 0.  1.
        -12    1    4    4    0    0 -0.78946984653E+01 -0.94979482462E+00 -0.21565826717E+02  0.22985065935E+02  0.00000000000E+00 0.  1.
</event>
<event>
 8    1  0.9117959E-009  0.9118800E+02  0.7816164E-02  0.1184000E+00
        -11   -1    0    0    0    0  0.00000000000E+00  0.00000000000E+00  0.45593999997E+02  0.45594000000E+02  0.51100000000E-03 0. -1.
         11   -1    0    0    0    0 -0.00000000000E+00 -0.00000000000E+00 -0.45593999997E+02  0.45594000000E+02  0.51100000000E-03 0.  1.
         23    2    1    2    0    0 -0.17763568394E-14  0.00000000000E+00  0.00000000000E+00  0.91188000000E+02  0.91188000000E+02 0.  0.
    9900012    2    3    3    0    0  0.11930835282E+02 -0.30048759116E+02 -0.31366246894E+02  0.46142309872E+02  0.99999280561E+01 0.  0.
         12    1    3    3    0    0 -0.11930835282E+02  0.30048759116E+02  0.31366246894E+02  0.45045690128E+02  0.00000000000E+00 0. -1.
         11    1    4    4    0    0  0.28795482867E+00 -0.45195211883E+01 -0.98121680795E+00  0.46337648236E+01  0.51100000000E-03 0. -1.
        -11    1    4    4    0    0  0.46778708582E+01 -0.11851525794E+02 -0.11416699416E+02  0.17107956197E+02  0.51100000000E-03 0.  1.
         12    1    4    4    0    0  0.69650095954E+01 -0.13677712133E+02 -0.18968330670E+02  0.24400588851E+02  0.00000000000E+00 0. -1.
</event>
<event>
 8    1  0.9117959E-009  0.9118800E+02  0.7816164E-02  0.1184000E+00
        -11   -1    0    0    0    0  0.00000000000E+00  0.00000000000E+00  0.45593999997E+02  0.45594000000E+02  0.51100000000E-03 0. -1.
         11   -1    0    0    0    0 -0.00000000000E+00 -0.00000000000E+00 -0.45593999997E+02  0.45594000000E+02  0.51100000000E-03 0.  1.
         23    2    1    2    0    0  0.00000000000E+00  0.00000000000E+00  0.00000000000E+00  0.91188000000E+02  0.91188000000E+02 0.  0.
    9900012    2    3    3    0    0  0.12305784118E+02 -0.98410829156E+01 -0.42199924753E+02  0.46142324460E+02  0.10000061087E+02 0.  0.
         12    1    3    3    0    0 -0.12305784118E+02  0.98410829156E+01  0.42199924753E+02  0.45045675540E+02  0.00000000000E+00 0. -1.
         11    1    4    4    0    0 -0.31181725067E+00  0.33461333070E+00 -0.23701888515E+00  0.51514492324E+00  0.51100000000E-03 0. -1.
        -11    1    4    4    0    0  0.55531595345E+01 -0.44551654705E+01 -0.28549332642E+02  0.29423638027E+02  0.51100000000E-03 0.  1.
        -12    1    4    4    0    0  0.70644418338E+01 -0.57205307758E+01 -0.13413573226E+02  0.16203541510E+02  0.00000000000E+00 0.  1.
</event>
<event>
 8    1  0.9117959E-009  0.9118800E+02  0.7816164E-02  0.1184000E+00
        -11   -1    0    0    0    0  0.00000000000E+00  0.00000000000E+00  0.45593999997E+02  0.45594000000E+02  0.51100000000E-03 0. -1.
         11   -1    0    0    0    0 -0.00000000000E+00 -0.00000000000E+00 -0.45593999997E+02  0.45594000000E+02  0.51100000000E-03 0.  1.
         23    2    1    2    0    0  0.00000000000E+00  0.00000000000E+00  0.35527136788E-14  0.91188000000E+02  0.91188000000E+02 0.  0.
    9900012    2    3    3    0    0 -0.38049225243E+02 -0.34862240259E+01 -0.23858251718E+02  0.46142317914E+02  0.10000001396E+02 0.  0.
         12    1    3    3    0    0  0.38049225243E+02  0.34862240259E+01  0.23858251718E+02  0.45045682086E+02  0.00000000000E+00 0. -1.
         11    1    4    4    0    0 -0.73725354080E+00  0.11266155421E+01  0.19773050642E+00  0.13608464195E+01  0.51100000000E-03 0. -1.
        -11    1    4    4    0    0 -0.22603986532E+02 -0.26294140882E+01 -0.12437729646E+02  0.25933591047E+02  0.51100000000E-03 0.  1.
         12    1    4    4    0    0 -0.14707985170E+02 -0.19834254798E+01 -0.11618252578E+02  0.18847880447E+02  0.00000000000E+00 0. -1.
</event>
<event>
 8    1  0.9117959E-009  0.9118800E+02  0.7816164E-02  0.1184000E+00
        -11   -1    0    0    0    0  0.00000000000E+00  0.00000000000E+00  0.45593999997E+02  0.45594000000E+02  0.51100000000E-03 0. -1.
         11   -1    0    0    0    0 -0.00000000000E+00 -0.00000000000E+00 -0.45593999997E+02  0.45594000000E+02  0.51100000000E-03 0.  1.
         23    2    1    2    0    0  0.00000000000E+00  0.44408920985E-15  0.71054273576E-14  0.91188000000E+02  0.91188000000E+02 0.  0.
    9900012    2    3    3    0    0 -0.21792024817E+02  0.37554037364E+01  0.39244331269E+02  0.46142323852E+02  0.10000055544E+02 0.  0.
        -12    1    3    3    0    0  0.21792024817E+02 -0.37554037364E+01 -0.39244331269E+02  0.45045676148E+02  0.00000000000E+00 0.  1.
         11    1    4    4    0    0 -0.17761039101E+02  0.16643262333E+01  0.25220707640E+02  0.30891885437E+02  0.51100000000E-03 0. -1.
        -11    1    4    4    0    0 -0.29669469797E+01  0.32532561055E+01  0.98509794283E+01  0.10790192103E+02  0.51100000000E-03 0.  1.
         12    1    4    4    0    0 -0.10640387372E+01 -0.11621786024E+01  0.41726442002E+01  0.44602463115E+01  0.00000000000E+00 0. -1.
</event>
<event>
 8    1  0.9117959E-009  0.9118800E+02  0.7816164E-02  0.1184000E+00
        -11   -1    0    0    0    0  0.00000000000E+00  0.00000000000E+00  0.45593999997E+02  0.45594000000E+02  0.51100000000E-03 0. -1.
         11   -1    0    0    0    0 -0.00000000000E+00 -0.00000000000E+00 -0.45593999997E+02  0.45594000000E+02  0.51100000000E-03 0.  1.
         23    2    1    2    0    0  0.11102230246E-15 -0.35527136788E-14  0.00000000000E+00  0.91188000000E+02  0.91188000000E+02 0.  0.
    9900012    2    3    3    0    0  0.88826256611E+00 -0.16488778351E+02 -0.41909959073E+02  0.46142317727E+02  0.99999996924E+01 0.  0.
         12    1    3    3    0    0 -0.88826256611E+00  0.16488778351E+02  0.41909959073E+02  0.45045682273E+02  0.00000000000E+00 0. -1.
         11    1    4    4    0    0  0.86645085758E+00 -0.44382940491E+01 -0.23143387917E+02  0.23581043143E+02  0.51100000000E-03 0.  1.
        -11    1    4    4    0    0  0.16173049310E+01 -0.44941050773E+01 -0.65037511159E+01  0.80691656647E+01  0.51100000000E-03 0. -1.
        -12    1    4    4    0    0 -0.15954932225E+01 -0.75563792250E+01 -0.12262820040E+02  0.14492108920E+02  0.00000000000E+00 0.  1.
</event>
<event>
 8    1  0.9117959E-009  0.9118800E+02  0.7816164E-02  0.1184000E+00
        -11   -1    0    0    0    0  0.00000000000E+00  0.00000000000E+00  0.45593999997E+02  0.45594000000E+02  0.51100000000E-03 0. -1.
         11   -1    0    0    0    0 -0.00000000000E+00 -0.00000000000E+00 -0.45593999997E+02  0.45594000000E+02  0.51100000000E-03 0.  1.
         23    2    1    2    0    0  0.00000000000E+00  0.00000000000E+00  0.00000000000E+00  0.91188000000E+02  0.91188000000E+02 0.  0.
    9900012    2    3    3    0    0 -0.84719454863E+01  0.14317597807E+02 -0.41861031526E+02  0.46142318435E+02  0.10000006142E+02 0.  0.
         12    1    3    3    0    0  0.84719454863E+01 -0.14317597807E+02  0.41861031526E+02  0.45045681565E+02  0.00000000000E+00 0. -1.
         11    1    4    4    0    0 -0.12272970895E+01  0.52225514081E+01 -0.77080345753E+01  0.93912245544E+01  0.51100000000E-03 0. -1.
        -11    1    4    4    0    0 -0.62322705085E+01  0.99457375629E+01 -0.32893993200E+02  0.34925258485E+02  0.51100000000E-03 0.  1.
        -12    1    4    4    0    0 -0.10123778883E+01 -0.85069116421E+00 -0.12590037505E+01  0.18258353949E+01  0.00000000000E+00 0.  1.
</event>
<event>
 8    1  0.9117959E-009  0.9118800E+02  0.7816164E-02  0.1184000E+00
        -11   -1    0    0    0    0  0.00000000000E+00  0.00000000000E+00  0.45593999997E+02  0.45594000000E+02  0.51100000000E-03 0. -1.
         11   -1    0    0    0    0 -0.00000000000E+00 -0.00000000000E+00 -0.45593999997E+02  0.45594000000E+02  0.51100000000E-03 0.  1.
         23    2    1    2    0    0  0.00000000000E+00  0.35527136788E-14  0.00000000000E+00  0.91188000000E+02  0.91188000000E+02 0.  0.
    9900012    2    3    3    0    0 -0.32310534461E+02  0.24093497265E+02 -0.20115826299E+02  0.46142315242E+02  0.99999770243E+01 0.  0.
         12    1    3    3    0    0  0.32310534461E+02 -0.24093497265E+02  0.20115826299E+02  0.45045684758E+02  0.00000000000E+00 0. -1.
         11    1    4    4    0    0 -0.14280795513E+02  0.52762342840E+01 -0.55901470158E+01  0.16218184628E+02  0.51100000000E-03 0. -1.
        -11    1    4    4    0    0 -0.11318306050E+02  0.10178528411E+02 -0.85683218834E+01  0.17467759805E+02  0.51100000000E-03 0.  1.
         12    1    4    4    0    0 -0.67114328985E+01  0.86387345698E+01 -0.59573574003E+01  0.12456370808E+02  0.00000000000E+00 0. -1.
</event>
<event>
 8    1  0.9117959E-009  0.9118800E+02  0.7816164E-02  0.1184000E+00
        -11   -1    0    0    0    0  0.00000000000E+00  0.00000000000E+00  0.45593999997E+02  0.45594000000E+02  0.51100000000E-03 0. -1.
         11   -1    0    0    0    0 -0.00000000000E+00 -0.00000000000E+00 -0.45593999997E+02  0.45594000000E+02  0.51100000000E-03 0.  1.
         23    2    1    2    0    0  0.00000000000E+00  0.44408920985E-15  0.00000000000E+00  0.91188000000E+02  0.91188000000E+02 0.  0.
    9900012    2    3    3    0    0  0.35629382608E+02  0.30319361408E+01  0.27394668809E+02  0.46142318509E+02  0.10000006824E+02 0.  0.
        -12    1    3    3    0    0 -0.35629382608E+02 -0.30319361408E+01 -0.27394668809E+02  0.45045681491E+02  0.00000000000E+00 0.  1.
         11    1    4    4    0    0  0.45347443260E+01 -0.19719464455E+01  0.44797791493E+01  0.66723983974E+01  0.51100000000E-03 0.  1.
        -11    1    4    4    0    0  0.22119811999E+02  0.77493737075E+00  0.17105630353E+02  0.27973008434E+02  0.51100000000E-03 0. -1.
        -12    1    4    4    0    0  0.89748262833E+01  0.42289452155E+01  0.58092593065E+01  0.11496911678E+02  0.00000000000E+00 0.  1.
</event>
<event>
 8    1  0.9117959E-009  0.9118800E+02  0.7816164E-02  0.1184000E+00
        -11   -1    0    0    0    0  0.00000000000E+00  0.00000000000E+00  0.45593999997E+02  0.45594000000E+02  0.51100000000E-03 0. -1.
         11   -1    0    0    0    0 -0.00000000000E+00 -0.00000000000E+00 -0.45593999997E+02  0.45594000000E+02  0.51100000000E-03 0.  1.
         23    2    1    2    0    0 -0.35527136788E-14  0.00000000000E+00 -0.17763568394E-14  0.91188000000E+02  0.91188000000E+02 0.  0.
    9900012    2    3    3    0    0  0.18238938567E+02  0.38962477663E+02 -0.13355894379E+02  0.46142318072E+02  0.10000002833E+02 0.  0.
         12    1    3    3    0    0 -0.18238938567E+02 -0.38962477663E+02  0.13355894379E+02  0.45045681928E+02  0.00000000000E+00 0. -1.
         11    1    4    4    0    0  0.61747546429E+01  0.11735611100E+02 -0.24449743808E+01  0.13484437799E+02  0.51100000000E-03 0. -1.
        -11    1    4    4    0    0  0.11727708189E+02  0.19842220654E+02 -0.61156182243E+01  0.23846459828E+02  0.51100000000E-03 0.  1.
         12    1    4    4    0    0  0.33647573532E+00  0.73846459102E+01 -0.47953017738E+01  0.88114204440E+01  0.00000000000E+00 0. -1.
</event>
<event>
 8    1  0.9117959E-009  0.9118800E+02  0.7816164E-02  0.1184000E+00
        -11   -1    0    0    0    0  0.00000000000E+00  0.00000000000E+00  0.45593999997E+02  0.45594000000E+02  0.51100000000E-03 0. -1.
         11   -1    0    0    0    0 -0.00000000000E+00 -0.00000000000E+00 -0.45593999997E+02  0.45594000000E+02  0.51100000000E-03 0.  1.
         23    2    1    2    0    0  0.00000000000E+00  0.17763568394E-14  0.00000000000E+00  0.91188000000E+02  0.91188000000E+02 0.  0.
    9900012    2    3    3    0    0 -0.47119135328E+01  0.12302665423E+02 -0.43076163962E+02  0.46142316440E+02  0.99999879566E+01 0.  0.
         12    1    3    3    0    0  0.47119135328E+01 -0.12302665423E+02  0.43076163962E+02  0.45045683560E+02  0.00000000000E+00 0. -1.
         11    1    4    4    0    0 -0.31568430889E+01  0.59170553641E+01 -0.12008866226E+02  0.13754638154E+02  0.51100000000E-03 0. -1.
        -11    1    4    4    0    0 -0.20080886136E+01  0.71296890733E+01 -0.20727120503E+02  0.22010870287E+02  0.51100000000E-03 0.  1.
        -12    1    4    4    0    0  0.45301816958E+00 -0.74407901396E+00 -0.10340177233E+02  0.10376807999E+02  0.00000000000E+00 0.  1.
</event>
<event>
 8    1  0.9117959E-009  0.9118800E+02  0.7816164E-02  0.1184000E+00
        -11   -1    0    0    0    0  0.00000000000E+00  0.00000000000E+00  0.45593999997E+02  0.45594000000E+02  0.51100000000E-03 0. -1.
         11   -1    0    0    0    0 -0.00000000000E+00 -0.00000000000E+00 -0.45593999997E+02  0.45594000000E+02  0.51100000000E-03 0.  1.
         23    2    1    2    0    0  0.00000000000E+00  0.17763568394E-14  0.71054273576E-14  0.91188000000E+02  0.91188000000E+02 0.  0.
    9900012    2    3    3    0    0 -0.49017894135E+01 -0.13053373135E+02 -0.42833344611E+02  0.46142317630E+02  0.99999988044E+01 0.  0.
         12    1    3    3    0    0  0.49017894135E+01  0.13053373135E+02  0.42833344611E+02  0.45045682370E+02  0.00000000000E+00 0. -1.
         11    1    4    4    0    0 -0.15655470501E+01 -0.41015088307E+01 -0.76118506078E+01  0.87871259346E+01  0.51100000000E-03 0. -1.
        -11    1    4    4    0    0 -0.46941874026E+01 -0.55741764338E+01 -0.30685669652E+02  0.31539136965E+02  0.51100000000E-03 0.  1.
        -12    1    4    4    0    0  0.13579450393E+01 -0.33776878703E+01 -0.45358243513E+01  0.58160547302E+01  0.00000000000E+00 0.  1.
</event>
<event>
 8    1  0.9117959E-009  0.9118800E+02  0.7816164E-02  0.1184000E+00
        -11   -1    0    0    0    0  0.00000000000E+00  0.00000000000E+00  0.45593999997E+02  0.45594000000E+02  0.51100000000E-03 0. -1.
         11   -1    0    0    0    0 -0.00000000000E+00 -0.00000000000E+00 -0.45593999997E+02  0.45594000000E+02  0.51100000000E-03 0.  1.
         23    2    1    2    0    0 -0.22204460493E-15  0.00000000000E+00  0.00000000000E+00  0.91188000000E+02  0.91188000000E+02 0.  0.
    9900012    2    3    3    0    0 -0.18973556409E+01  0.25344053935E+02  0.37191296363E+02  0.46142317038E+02  0.99999934069E+01 0.  0.
        -12    1    3    3    0    0  0.18973556409E+01 -0.25344053935E+02 -0.37191296363E+02  0.45045682962E+02  0.00000000000E+00 0.  1.
         11    1    4    4    0    0 -0.17954021679E+01  0.15480196067E+02  0.21786640624E+02  0.26786519915E+02  0.51100000000E-03 0. -1.
        -11    1    4    4    0    0 -0.45647103613E+00  0.45271409518E+01  0.12428096080E+02  0.13234838248E+02  0.51100000000E-03 0.  1.
        -12    1    4    4    0    0  0.35451756305E+00  0.53367169165E+01  0.29765596598E+01  0.61209588757E+01  0.00000000000E+00 0.  1.
</event>
<event>
 8    1  0.9117959E-009  0.9118800E+02  0.7816164E-02  0.1184000E+00
        -11   -1    0    0    0    0  0.00000000000E+00  0.00000000000E+00  0.45593999997E+02  0.45594000000E+02  0.51100000000E-03 0. -1.
         11   -1    0    0    0    0 -0.00000000000E+00 -0.00000000000E+00 -0.45593999997E+02  0.45594000000E+02  0.51100000000E-03 0.  1.
         23    2    1    2    0    0  0.00000000000E+00 -0.35527136788E-14 -0.71054273576E-14  0.91188000000E+02  0.91188000000E+02 0.  0.
    9900012    2    3    3    0    0  0.18187864164E+02 -0.16778617584E+02  0.37640310382E+02  0.46142319003E+02  0.10000011321E+02 0.  0.
        -12    1    3    3    0    0 -0.18187864164E+02  0.16778617584E+02 -0.37640310382E+02  0.45045680997E+02  0.00000000000E+00 0.  1.
         11    1    4    4    0    0  0.31131997317E+01 -0.51480640798E+01  0.13921525923E+02  0.15165864981E+02  0.51100000000E-03 0. -1.
        -11    1    4    4    0    0  0.35409424064E+00 -0.42644578141E+00 -0.32265218352E+00  0.64136060714E+00  0.51100000000E-03 0.  1.
        -12    1    4    4    0    0  0.14720570192E+02 -0.11204107722E+02  0.24041436643E+02  0.30335093415E+02  0.00000000000E+00 0.  1.
</event>
<event>
 8    1  0.9117959E-009  0.9118800E+02  0.7816164E-02  0.1184000E+00
        -11   -1    0    0    0    0  0.00000000000E+00  0.00000000000E+00  0.45593999997E+02  0.45594000000E+02  0.51100000000E-03 0. -1.
         11   -1    0    0    0    0 -0.00000000000E+00 -0.00000000000E+00 -0.45593999997E+02  0.45594000000E+02  0.51100000000E-03 0.  1.
         23    2    1    2    0    0  0.35527136788E-14  0.00000000000E+00 -0.35527136788E-14  0.91188000000E+02  0.91188000000E+02 0.  0.
    9900012    2    3    3    0    0 -0.16523337599E+02 -0.29324208695E+02  0.29936325495E+02  0.46142317797E+02  0.10000000331E+02 0.  0.
        -12    1    3    3    0    0  0.16523337599E+02  0.29324208695E+02 -0.29936325495E+02  0.45045682203E+02  0.00000000000E+00 0.  1.
         11    1    4    4    0    0 -0.49711543307E+01 -0.68196742189E+01  0.10308453610E+02  0.13322332676E+02  0.51100000000E-03 0. -1.
        -11    1    4    4    0    0 -0.58498466698E-01  0.45851378696E+00 -0.54817949274E-01  0.46546990463E+00  0.51100000000E-03 0.  1.
        -12    1    4    4    0    0 -0.11493684802E+02 -0.22963048263E+02  0.19682689834E+02  0.32354515217E+02  0.00000000000E+00 0.  1.
</event>
<event>
 8    1  0.9117959E-009  0.9118800E+02  0.7816164E-02  0.1184000E+00
        -11   -1    0    0    0    0  0.00000000000E+00  0.00000000000E+00  0.45593999997E+02  0.45594000000E+02  0.51100000000E-03 0. -1.
         11   -1    0    0    0    0 -0.00000000000E+00 -0.00000000000E+00 -0.45593999997E+02  0.45594000000E+02  0.51100000000E-03 0.  1.
         23    2    1    2    0    0  0.00000000000E+00  0.00000000000E+00  0.00000000000E+00  0.91188000000E+02  0.91188000000E+02 0.  0.
    9900012    2    3    3    0    0  0.23827704606E+00  0.17265103004E+02 -0.41604963358E+02  0.46142317257E+02  0.99999954060E+01 0.  0.
         12    1    3    3    0    0 -0.23827704606E+00 -0.17265103004E+02  0.41604963358E+02  0.45045682743E+02  0.00000000000E+00 0. -1.
         11    1    4    4    0    0  0.39667487066E+01  0.32910263646E+01 -0.88990676149E+01  0.10283936722E+02  0.51100000000E-03 0. -1.
        -11    1    4    4    0    0 -0.87245705739E+00  0.68015610599E+01 -0.13077277983E+02  0.14766096772E+02  0.51100000000E-03 0.  1.
         12    1    4    4    0    0 -0.28560146032E+01  0.71725155796E+01 -0.19628617760E+02  0.21092283763E+02  0.00000000000E+00 0. -1.
</event>
<event>
 8    1  0.9117959E-009  0.9118800E+02  0.7816164E-02  0.1184000E+00
        -11   -1    0    0    0    0  0.00000000000E+00  0.00000000000E+00  0.45593999997E+02  0.45594000000E+02  0.51100000000E-03 0. -1.
         11   -1    0    0    0    0 -0.00000000000E+00 -0.00000000000E+00 -0.45593999997E+02  0.45594000000E+02  0.51100000000E-03 0.  1.
         23    2    1    2    0    0  0.71054273576E-14  0.00000000000E+00  0.71054273576E-14  0.91188000000E+02  0.91188000000E+02 0.  0.
    9900012    2    3    3    0    0  0.36085401897E+02 -0.15944228798E+01  0.26914961650E+02  0.46142316799E+02  0.99999912273E+01 0.  0.
        -12    1    3    3    0    0 -0.36085401897E+02  0.15944228798E+01 -0.26914961650E+02  0.45045683201E+02  0.00000000000E+00 0.  1.
         11    1    4    4    0    0  0.60164840652E+01 -0.30072972214E+00  0.27638063691E+01  0.66277556366E+01  0.51100000000E-03 0. -1.
        -11    1    4    4    0    0  0.27652848607E-01  0.10770876673E+01  0.13418025802E+01  0.17208477412E+01  0.51100000000E-03 0.  1.
         12    1    4    4    0    0  0.30041264983E+02 -0.23707808250E+01  0.22809352701E+02  0.37793713421E+02  0.00000000000E+00 0. -1.
</event>
<event>
 8    1  0.9117959E-009  0.9118800E+02  0.7816164E-02  0.1184000E+00
        -11   -1    0    0    0    0  0.00000000000E+00  0.00000000000E+00  0.45593999997E+02  0.45594000000E+02  0.51100000000E-03 0. -1.
         11   -1    0    0    0    0 -0.00000000000E+00 -0.00000000000E+00 -0.45593999997E+02  0.45594000000E+02  0.51100000000E-03 0.  1.
         23    2    1    2    0    0  0.00000000000E+00  0.17763568394E-14 -0.71054273576E-14  0.91188000000E+02  0.91188000000E+02 0.  0.
    9900012    2    3    3    0    0 -0.27294187972E+02  0.10164679044E+02 -0.34363062473E+02  0.46142318080E+02  0.10000002910E+02 0.  0.
         12    1    3    3    0    0  0.27294187972E+02 -0.10164679044E+02  0.34363062473E+02  0.45045681920E+02  0.00000000000E+00 0. -1.
         11    1    4    4    0    0 -0.67641519776E+00  0.10220885595E+01 -0.13910992649E+00  0.12335130222E+01  0.51100000000E-03 0. -1.
        -11    1    4    4    0    0 -0.12979334444E+02  0.93621706294E+00 -0.13162058799E+02  0.18508901023E+02  0.51100000000E-03 0.  1.
        -12    1    4    4    0    0 -0.13638438330E+02  0.82063734219E+01 -0.21061893748E+02  0.26399904035E+02  0.00000000000E+00 0.  1.
</event>
<event>
 8    1  0.9117959E-009  0.9118800E+02  0.7816164E-02  0.1184000E+00
        -11   -1    0    0    0    0  0.00000000000E+00  0.00000000000E+00  0.45593999997E+02  0.45594000000E+02  0.51100000000E-03 0. -1.
         11   -1    0    0    0    0 -0.00000000000E+00 -0.00000000000E+00 -0.45593999997E+02  0.45594000000E+02  0.51100000000E-03 0.  1.
         23    2    1    2    0    0  0.71054273576E-14  0.00000000000E+00  0.00000000000E+00  0.91188000000E+02  0.91188000000E+02 0.  0.
    9900012    2    3    3    0    0 -0.37598872173E+02 -0.37244568100E+01 -0.24526886257E+02  0.46142301907E+02  0.99998554323E+01 0.  0.
         12    1    3    3    0    0  0.37598872173E+02  0.37244568100E+01  0.24526886257E+02  0.45045698093E+02  0.00000000000E+00 0. -1.
         11    1    4    4    0    0 -0.20183552554E+02 -0.32748128628E+01 -0.12558706319E+02  0.23996276746E+02  0.51100000000E-03 0.  1.
        -11    1    4    4    0    0 -0.39608404184E+01 -0.77171059584E+00 -0.64329600456E+01  0.75938639225E+01  0.51100000000E-03 0. -1.
        -12    1    4    4    0    0 -0.13454479200E+02  0.32206664869E+00 -0.55352198923E+01  0.14552161239E+02  0.00000000000E+00 0.  1.
</event>
<event>
 8    1  0.9117959E-009  0.9118800E+02  0.7816164E-02  0.1184000E+00
        -11   -1    0    0    0    0  0.00000000000E+00  0.00000000000E+00  0.45593999997E+02  0.45594000000E+02  0.51100000000E-03 0. -1.
         11   -1    0    0    0    0 -0.00000000000E+00 -0.00000000000E+00 -0.45593999997E+02  0.45594000000E+02  0.51100000000E-03 0.  1.
         23    2    1    2    0    0  0.00000000000E+00  0.00000000000E+00  0.00000000000E+00  0.91188000000E+02  0.91188000000E+02 0.  0.
    9900012    2    3    3    0    0 -0.21157215787E+02 -0.27798097618E+01  0.39670623867E+02  0.46142317408E+02  0.99999967805E+01 0.  0.
        -12    1    3    3    0    0  0.21157215787E+02  0.27798097618E+01 -0.39670623867E+02  0.45045682592E+02  0.00000000000E+00 0.  1.
         11    1    4    4    0    0 -0.14337096630E+02 -0.22609928179E+01  0.31535508071E+02  0.34715309272E+02  0.51100000000E-03 0. -1.
        -11    1    4    4    0    0 -0.11560802133E+01 -0.17265890082E+01  0.32139031764E+01  0.38271144419E+01  0.51100000000E-03 0.  1.
         12    1    4    4    0    0 -0.56640389434E+01  0.12077720643E+01  0.49212126199E+01  0.75998936942E+01  0.00000000000E+00 0. -1.
</event>
<event>
 8    1  0.9117959E-009  0.9118800E+02  0.7816164E-02  0.1184000E+00
        -11   -1    0    0    0    0  0.00000000000E+00  0.00000000000E+00  0.45593999997E+02  0.45594000000E+02  0.51100000000E-03 0. -1.
         11   -1    0    0    0    0 -0.00000000000E+00 -0.00000000000E+00 -0.45593999997E+02  0.45594000000E+02  0.51100000000E-03 0.  1.
         23    2    1    2    0    0 -0.88817841970E-15 -0.35527136788E-14 -0.71054273576E-14  0.91188000000E+02  0.91188000000E+02 0.  0.
    9900012    2    3    3    0    0  0.77518609410E+01  0.24128119553E+02  0.37240514981E+02  0.46142318106E+02  0.10000003146E+02 0.  0.
        -12    1    3    3    0    0 -0.77518609410E+01 -0.24128119553E+02 -0.37240514981E+02  0.45045681894E+02  0.00000000000E+00 0.  1.
         11    1    4    4    0    0  0.84704024077E+00  0.93495645036E+01  0.17099527325E+02  0.19507067144E+02  0.51100000000E-03 0. -1.
        -11    1    4    4    0    0  0.47132223865E+01  0.74620961291E+01  0.15080107694E+02  0.17473036148E+02  0.51100000000E-03 0.  1.
        -12    1    4    4    0    0  0.21915983138E+01  0.73164589204E+01  0.50608799627E+01  0.91622148141E+01  0.00000000000E+00 0.  1.
</event>
<event>
 8    1  0.9117959E-009  0.9118800E+02  0.7816164E-02  0.1184000E+00
        -11   -1    0    0    0    0  0.00000000000E+00  0.00000000000E+00  0.45593999997E+02  0.45594000000E+02  0.51100000000E-03 0. -1.
         11   -1    0    0    0    0 -0.00000000000E+00 -0.00000000000E+00 -0.45593999997E+02  0.45594000000E+02  0.51100000000E-03 0.  1.
         23    2    1    2    0    0 -0.55511151231E-15  0.00000000000E+00  0.00000000000E+00  0.91188000000E+02  0.91188000000E+02 0.  0.
    9900012    2    3    3    0    0  0.68285618271E+00  0.34530967429E+02 -0.28918154924E+02  0.46142315541E+02  0.99999797573E+01 0.  0.
         12    1    3    3    0    0 -0.68285618271E+00 -0.34530967429E+02  0.28918154924E+02  0.45045684459E+02  0.00000000000E+00 0. -1.
         11    1    4    4    0    0 -0.42126046346E+01  0.14789589736E+02 -0.12095813002E+02  0.19564935339E+02  0.51100000000E-03 0. -1.
        -11    1    4    4    0    0  0.29696323100E+00  0.73536338740E+01 -0.62174217149E+01  0.96343370999E+01  0.51100000000E-03 0.  1.
         12    1    4    4    0    0  0.45984975863E+01  0.12387743819E+02 -0.10604920207E+02  0.16943043102E+02  0.00000000000E+00 0. -1.
</event>
<event>
 8    1  0.9117959E-009  0.9118800E+02  0.7816164E-02  0.1184000E+00
        -11   -1    0    0    0    0  0.00000000000E+00  0.00000000000E+00  0.45593999997E+02  0.45594000000E+02  0.51100000000E-03 0. -1.
         11   -1    0    0    0    0 -0.00000000000E+00 -0.00000000000E+00 -0.45593999997E+02  0.45594000000E+02  0.51100000000E-03 0.  1.
         23    2    1    2    0    0 -0.44408920985E-15  0.00000000000E+00  0.00000000000E+00  0.91188000000E+02  0.91188000000E+02 0.  0.
    9900012    2    3    3    0    0  0.30267038586E+01 -0.53018702150E+01 -0.44630065044E+02  0.46142317967E+02  0.10000001874E+02 0.  0.
         12    1    3    3    0    0 -0.30267038586E+01  0.53018702150E+01  0.44630065044E+02  0.45045682033E+02  0.00000000000E+00 0. -1.
         11    1    4    4    0    0  0.98226075797E-01  0.36075669254E+00 -0.91720366571E-01  0.38497615503E+00  0.51100000000E-03 0. -1.
        -11    1    4    4    0    0  0.54608493339E+01 -0.15758797062E+01 -0.24149330630E+02  0.24809160454E+02  0.51100000000E-03 0.  1.
        -12    1    4    4    0    0 -0.25323715511E+01 -0.40867472013E+01 -0.20389014047E+02  0.20948181357E+02  0.00000000000E+00 0.  1.
</event>
<event>
 8    1  0.9117959E-009  0.9118800E+02  0.7816164E-02  0.1184000E+00
        -11   -1    0    0    0    0  0.00000000000E+00  0.00000000000E+00  0.45593999997E+02  0.45594000000E+02  0.51100000000E-03 0. -1.
         11   -1    0    0    0    0 -0.00000000000E+00 -0.00000000000E+00 -0.45593999997E+02  0.45594000000E+02  0.51100000000E-03 0.  1.
         23    2    1    2    0    0  0.00000000000E+00 -0.35527136788E-14  0.00000000000E+00  0.91188000000E+02  0.91188000000E+02 0.  0.
    9900012    2    3    3    0    0  0.91751895348E+01 -0.18460364302E+02 -0.40051771551E+02  0.46142316993E+02  0.99999929958E+01 0.  0.
         12    1    3    3    0    0 -0.91751895348E+01  0.18460364302E+02  0.40051771551E+02  0.45045683007E+02  0.00000000000E+00 0. -1.
         11    1    4    4    0    0  0.34886534370E+01 -0.59416383579E+01 -0.11250546872E+02  0.13192747036E+02  0.51100000000E-03 0. -1.
        -11    1    4    4    0    0  0.68515638946E+01 -0.78984564097E+01 -0.14509757645E+02  0.17884703203E+02  0.51100000000E-03 0.  1.
        -12    1    4    4    0    0 -0.11650277968E+01 -0.46202695344E+01 -0.14291467034E+02  0.15064866755E+02  0.00000000000E+00 0.  1.
</event>
<event>
 8    1  0.9117959E-009  0.9118800E+02  0.7816164E-02  0.1184000E+00
        -11   -1    0    0    0    0  0.00000000000E+00  0.00000000000E+00  0.45593999997E+02  0.45594000000E+02  0.51100000000E-03 0. -1.
         11   -1    0    0    0    0 -0.00000000000E+00 -0.00000000000E+00 -0.45593999997E+02  0.45594000000E+02  0.51100000000E-03 0.  1.
         23    2    1    2    0    0  0.00000000000E+00  0.35527136788E-14  0.00000000000E+00  0.91188000000E+02  0.91188000000E+02 0.  0.
    9900012    2    3    3    0    0 -0.26627587487E+01  0.18713289885E+02  0.40888088294E+02  0.46142320220E+02  0.10000022424E+02 0.  0.
        -12    1    3    3    0    0  0.26627587487E+01 -0.18713289885E+02 -0.40888088294E+02  0.45045679780E+02  0.00000000000E+00 0.  1.
         11    1    4    4    0    0 -0.11732243585E+01  0.54615782454E+01  0.13267711817E+02  0.14395744838E+02  0.51100000000E-03 0. -1.
        -11    1    4    4    0    0 -0.69652849977E+00  0.84077098626E+01  0.83844675576E+01  0.11894285753E+02  0.51100000000E-03 0.  1.
        -12    1    4    4    0    0 -0.79300589039E+00  0.48440017768E+01  0.19235908920E+02  0.19852289630E+02  0.00000000000E+00 0.  1.
</event>
<event>
 8    1  0.9117959E-009  0.9118800E+02  0.7816164E-02  0.1184000E+00
        -11   -1    0    0    0    0  0.00000000000E+00  0.00000000000E+00  0.45593999997E+02  0.45594000000E+02  0.51100000000E-03 0. -1.
         11   -1    0    0    0    0 -0.00000000000E+00 -0.00000000000E+00 -0.45593999997E+02  0.45594000000E+02  0.51100000000E-03 0.  1.
         23    2    1    2    0    0  0.35527136788E-14  0.00000000000E+00  0.71054273576E-14  0.91188000000E+02  0.91188000000E+02 0.  0.
    9900012    2    3    3    0    0 -0.17386092402E+02  0.16164491785E+02 -0.38282455382E+02  0.46142318811E+02  0.10000009574E+02 0.  0.
         12    1    3    3    0    0  0.17386092402E+02 -0.16164491785E+02  0.38282455382E+02  0.45045681189E+02  0.00000000000E+00 0. -1.
         11    1    4    4    0    0 -0.52950530678E+01  0.75840660484E+01 -0.10960104437E+02  0.14341531799E+02  0.51100000000E-03 0. -1.
        -11    1    4    4    0    0  0.12753887181E+00  0.65777848319E+00 -0.56549091584E+01  0.56944654313E+01  0.51100000000E-03 0.  1.
         12    1    4    4    0    0 -0.12218578206E+02  0.79226472539E+01 -0.21667441787E+02  0.26106321581E+02  0.00000000000E+00 0. -1.
</event>
<event>
 8    1  0.9117959E-009  0.9118800E+02  0.7816164E-02  0.1184000E+00
        -11   -1    0    0    0    0  0.00000000000E+00  0.00000000000E+00  0.45593999997E+02  0.45594000000E+02  0.51100000000E-03 0.  1.
         11   -1    0    0    0    0 -0.00000000000E+00 -0.00000000000E+00 -0.45593999997E+02  0.45594000000E+02  0.51100000000E-03 0. -1.
         23    2    1    2    0    0  0.00000000000E+00  0.44408920985E-15  0.00000000000E+00  0.91188000000E+02  0.91188000000E+02 0.  0.
    9900012    2    3    3    0    0  0.38885607615E+02 -0.10726003524E+01 -0.22712799976E+02  0.46142331686E+02  0.10000126977E+02 0.  0.
         12    1    3    3    0    0 -0.38885607615E+02  0.10726003524E+01  0.22712799976E+02  0.45045668314E+02  0.00000000000E+00 0. -1.
         11    1    4    4    0    0  0.16527144270E+02  0.21419984964E+01 -0.11570649229E+02  0.20288286747E+02  0.51100000000E-03 0. -1.
        -11    1    4    4    0    0  0.12660772453E+02 -0.46670406881E+01 -0.71027250207E+01  0.15248774733E+02  0.51100000000E-03 0.  1.
        -12    1    4    4    0    0  0.96976908926E+01  0.14524418394E+01 -0.40394257262E+01  0.10605270206E+02  0.00000000000E+00 0.  1.
</event>
<event>
 8    1  0.9117959E-009  0.9118800E+02  0.7816164E-02  0.1184000E+00
        -11   -1    0    0    0    0  0.00000000000E+00  0.00000000000E+00  0.45593999997E+02  0.45594000000E+02  0.51100000000E-03 0. -1.
         11   -1    0    0    0    0 -0.00000000000E+00 -0.00000000000E+00 -0.45593999997E+02  0.45594000000E+02  0.51100000000E-03 0.  1.
         23    2    1    2    0    0  0.44408920985E-15  0.00000000000E+00  0.00000000000E+00  0.91188000000E+02  0.91188000000E+02 0.  0.
    9900012    2    3    3    0    0 -0.36127619178E+01 -0.40130667302E+02  0.20139288969E+02  0.46142317999E+02  0.10000002165E+02 0.  0.
        -12    1    3    3    0    0  0.36127619178E+01  0.40130667302E+02 -0.20139288969E+02  0.45045682001E+02  0.00000000000E+00 0.  1.
         11    1    4    4    0    0 -0.51544589311E-01 -0.36138994123E+01  0.97840090124E+00  0.37443550034E+01  0.51100000000E-03 0. -1.
        -11    1    4    4    0    0 -0.21652212108E+01 -0.18615379197E+01  0.29754206064E+01  0.41239100820E+01  0.51100000000E-03 0.  1.
        -12    1    4    4    0    0 -0.13959961177E+01 -0.34655229970E+02  0.16185467461E+02  0.38274052913E+02  0.00000000000E+00 0.  1.
</event>
<event>
 8    1  0.9117959E-009  0.9118800E+02  0.7816164E-02  0.1184000E+00
        -11   -1    0    0    0    0  0.00000000000E+00  0.00000000000E+00  0.45593999997E+02  0.45594000000E+02  0.51100000000E-03 0. -1.
         11   -1    0    0    0    0 -0.00000000000E+00 -0.00000000000E+00 -0.45593999997E+02  0.45594000000E+02  0.51100000000E-03 0.  1.
         23    2    1    2    0    0  0.00000000000E+00 -0.22204460493E-15  0.00000000000E+00  0.91188000000E+02  0.91188000000E+02 0.  0.
    9900012    2    3    3    0    0 -0.92399667263E+01  0.45737254042E+00 -0.44085456188E+02  0.46142316277E+02  0.99999864704E+01 0.  0.
         12    1    3    3    0    0  0.92399667263E+01 -0.45737254042E+00  0.44085456188E+02  0.45045683723E+02  0.00000000000E+00 0. -1.
         11    1    4    4    0    0 -0.22999771173E+01 -0.13678504917E+01 -0.65527397113E+01  0.70780864429E+01  0.51100000000E-03 0. -1.
        -11    1    4    4    0    0 -0.61793699197E+01 -0.16476367437E+01 -0.30731387843E+02  0.31389767735E+02  0.51100000000E-03 0.  1.
         12    1    4    4    0    0 -0.76061968940E+00  0.34728597759E+01 -0.68013286338E+01  0.76744620997E+01  0.00000000000E+00 0. -1.
</event>
<event>
 8    1  0.9117959E-009  0.9118800E+02  0.7816164E-02  0.1184000E+00
        -11   -1    0    0    0    0  0.00000000000E+00  0.00000000000E+00  0.45593999997E+02  0.45594000000E+02  0.51100000000E-03 0. -1.
         11   -1    0    0    0    0 -0.00000000000E+00 -0.00000000000E+00 -0.45593999997E+02  0.45594000000E+02  0.51100000000E-03 0.  1.
         23    2    1    2    0    0  0.00000000000E+00  0.00000000000E+00  0.00000000000E+00  0.91188000000E+02  0.91188000000E+02 0.  0.
    9900012    2    3    3    0    0  0.43573990371E+01 -0.16088828586E+02  0.41848251547E+02  0.46142317752E+02  0.99999999197E+01 0.  0.
        -12    1    3    3    0    0 -0.43573990371E+01  0.16088828586E+02 -0.41848251547E+02  0.45045682248E+02  0.00000000000E+00 0.  1.
         11    1    4    4    0    0 -0.17118867560E+00 -0.26913332264E+01  0.42181217415E+01  0.50065089020E+01  0.51100000000E-03 0. -1.
        -11    1    4    4    0    0  0.48569406214E+01 -0.13804057228E+02  0.37841245703E+02  0.40572179444E+02  0.51100000000E-03 0.  1.
        -12    1    4    4    0    0 -0.32835290879E+00  0.40656186845E+00 -0.21111589820E+00  0.56362940667E+00  0.00000000000E+00 0.  1.
</event>
<event>
 8    1  0.9117959E-009  0.9118800E+02  0.7816164E-02  0.1184000E+00
        -11   -1    0    0    0    0  0.00000000000E+00  0.00000000000E+00  0.45593999997E+02  0.45594000000E+02  0.51100000000E-03 0. -1.
         11   -1    0    0    0    0 -0.00000000000E+00 -0.00000000000E+00 -0.45593999997E+02  0.45594000000E+02  0.51100000000E-03 0.  1.
         23    2    1    2    0    0 -0.17763568394E-14  0.35527136788E-14  0.00000000000E+00  0.91188000000E+02  0.91188000000E+02 0.  0.
    9900012    2    3    3    0    0 -0.83876528439E+01  0.19702465379E+02  0.39630463227E+02  0.46142317878E+02  0.10000001070E+02 0.  0.
        -12    1    3    3    0    0  0.83876528439E+01 -0.19702465379E+02 -0.39630463227E+02  0.45045682122E+02  0.00000000000E+00 0.  1.
         11    1    4    4    0    0 -0.31138243206E+01  0.65030055084E+01  0.65970622240E+01  0.97727280116E+01  0.51100000000E-03 0. -1.
        -11    1    4    4    0    0  0.87931333589E+00  0.94921528473E+00  0.14738410956E+01  0.19612265131E+01  0.51100000000E-03 0.  1.
        -12    1    4    4    0    0 -0.61531418593E+01  0.12250244586E+02  0.31559559907E+02  0.34408363354E+02  0.00000000000E+00 0.  1.
</event>
<event>
 8    1  0.9117959E-009  0.9118800E+02  0.7816164E-02  0.1184000E+00
        -11   -1    0    0    0    0  0.00000000000E+00  0.00000000000E+00  0.45593999997E+02  0.45594000000E+02  0.51100000000E-03 0.  1.
         11   -1    0    0    0    0 -0.00000000000E+00 -0.00000000000E+00 -0.45593999997E+02  0.45594000000E+02  0.51100000000E-03 0. -1.
         23    2    1    2    0    0  0.00000000000E+00 -0.35527136788E-14  0.00000000000E+00  0.91188000000E+02  0.91188000000E+02 0.  0.
    9900012    2    3    3    0    0 -0.39817972565E+02  0.18657940504E+02 -0.97736264172E+01  0.46142318116E+02  0.10000003235E+02 0.  0.
        -12    1    3    3    0    0  0.39817972565E+02 -0.18657940504E+02  0.97736264172E+01  0.45045681884E+02  0.00000000000E+00 0.  1.
         11    1    4    4    0    0 -0.20162809618E+02  0.11508928009E+02 -0.61674908462E+01  0.24021495774E+02  0.51100000000E-03 0. -1.
        -11    1    4    4    0    0 -0.26645336838E+01  0.16898253840E+01 -0.28609562598E+01  0.42591455202E+01  0.51100000000E-03 0.  1.
         12    1    4    4    0    0 -0.16990629263E+02  0.54591871111E+01 -0.74517931115E+00  0.17861676822E+02  0.00000000000E+00 0. -1.
</event>
<event>
 8    1  0.9117959E-009  0.9118800E+02  0.7816164E-02  0.1184000E+00
        -11   -1    0    0    0    0  0.00000000000E+00  0.00000000000E+00  0.45593999997E+02  0.45594000000E+02  0.51100000000E-03 0. -1.
         11   -1    0    0    0    0 -0.00000000000E+00 -0.00000000000E+00 -0.45593999997E+02  0.45594000000E+02  0.51100000000E-03 0.  1.
         23    2    1    2    0    0  0.00000000000E+00 -0.35527136788E-14  0.00000000000E+00  0.91188000000E+02  0.91188000000E+02 0.  0.
    9900012    2    3    3    0    0  0.84999466164E+01  0.20883500274E+02 -0.38996714924E+02  0.46142318175E+02  0.10000003777E+02 0.  0.
         12    1    3    3    0    0 -0.84999466164E+01 -0.20883500274E+02  0.38996714924E+02  0.45045681825E+02  0.00000000000E+00 0. -1.
         11    1    4    4    0    0  0.15029080148E+01  0.13212245236E+01 -0.38978826635E+01  0.43815358337E+01  0.51100000000E-03 0. -1.
        -11    1    4    4    0    0  0.85798966252E+01  0.11154445565E+02 -0.21760901524E+02  0.25914727808E+02  0.51100000000E-03 0.  1.
         12    1    4    4    0    0 -0.15828580236E+01  0.84078301849E+01 -0.13337930737E+02  0.15846054534E+02  0.00000000000E+00 0. -1.
</event>
<event>
 8    1  0.9117959E-009  0.9118800E+02  0.7816164E-02  0.1184000E+00
        -11   -1    0    0    0    0  0.00000000000E+00  0.00000000000E+00  0.45593999997E+02  0.45594000000E+02  0.51100000000E-03 0. -1.
         11   -1    0    0    0    0 -0.00000000000E+00 -0.00000000000E+00 -0.45593999997E+02  0.45594000000E+02  0.51100000000E-03 0.  1.
         23    2    1    2    0    0  0.00000000000E+00  0.00000000000E+00  0.00000000000E+00  0.91188000000E+02  0.91188000000E+02 0.  0.
    9900012    2    3    3    0    0 -0.30366016004E+01 -0.56875053724E+01  0.44581888791E+02  0.46142317912E+02  0.10000001373E+02 0.  0.
        -12    1    3    3    0    0  0.30366016004E+01  0.56875053724E+01 -0.44581888791E+02  0.45045682088E+02  0.00000000000E+00 0.  1.
         11    1    4    4    0    0 -0.50312968933E+00  0.83521526560E+00  0.35567948094E+00  0.10378979615E+01  0.51100000000E-03 0. -1.
        -11    1    4    4    0    0 -0.11524064528E+01 -0.55298219902E+01  0.19024278005E+02  0.19845153710E+02  0.51100000000E-03 0.  1.
         12    1    4    4    0    0 -0.13810654583E+01 -0.99289864777E+00  0.25201931305E+02  0.25259266240E+02  0.00000000000E+00 0. -1.
</event>
<event>
 8    1  0.9117959E-009  0.9118800E+02  0.7816164E-02  0.1184000E+00
        -11   -1    0    0    0    0  0.00000000000E+00  0.00000000000E+00  0.45593999997E+02  0.45594000000E+02  0.51100000000E-03 0. -1.
         11   -1    0    0    0    0 -0.00000000000E+00 -0.00000000000E+00 -0.45593999997E+02  0.45594000000E+02  0.51100000000E-03 0.  1.
         23    2    1    2    0    0  0.00000000000E+00  0.00000000000E+00  0.71054273576E-14  0.91188000000E+02  0.91188000000E+02 0.  0.
    9900012    2    3    3    0    0  0.17575589847E+02 -0.10677680319E+02  0.40077416983E+02  0.46142316882E+02  0.99999919857E+01 0.  0.
        -12    1    3    3    0    0 -0.17575589847E+02  0.10677680319E+02 -0.40077416983E+02  0.45045683118E+02  0.00000000000E+00 0.  1.
         11    1    4    4    0    0  0.64472403022E+01  0.23394142325E+00  0.99017875325E+01  0.11818080754E+02  0.51100000000E-03 0. -1.
        -11    1    4    4    0    0  0.21310578676E+01 -0.24159730221E+01  0.11329654676E+02  0.11778769402E+02  0.51100000000E-03 0.  1.
        -12    1    4    4    0    0  0.89972916774E+01 -0.84956487205E+01  0.18845974775E+02  0.22545466727E+02  0.00000000000E+00 0.  1.
</event>
<event>
 8    1  0.9117959E-009  0.9118800E+02  0.7816164E-02  0.1184000E+00
        -11   -1    0    0    0    0  0.00000000000E+00  0.00000000000E+00  0.45593999997E+02  0.45594000000E+02  0.51100000000E-03 0.  1.
         11   -1    0    0    0    0 -0.00000000000E+00 -0.00000000000E+00 -0.45593999997E+02  0.45594000000E+02  0.51100000000E-03 0. -1.
         23    2    1    2    0    0  0.00000000000E+00  0.00000000000E+00  0.00000000000E+00  0.91188000000E+02  0.91188000000E+02 0.  0.
    9900012    2    3    3    0    0  0.56993674268E+01  0.40818998938E+02 -0.18178007816E+02  0.46142318392E+02  0.10000005753E+02 0.  0.
        -12    1    3    3    0    0 -0.56993674268E+01 -0.40818998938E+02  0.18178007816E+02  0.45045681608E+02  0.00000000000E+00 0.  1.
         11    1    4    4    0    0  0.75682855076E+01  0.31527372811E+02 -0.13573776464E+02  0.35149702554E+02  0.51100000000E-03 0. -1.
        -11    1    4    4    0    0 -0.44602570957E+00 -0.19464510569E-01  0.10966490500E+00  0.45972214791E+00  0.51100000000E-03 0.  1.
         12    1    4    4    0    0 -0.14228923712E+01  0.93110906380E+01 -0.47138962562E+01  0.10532893690E+02  0.00000000000E+00 0. -1.
</event>
<event>
 8    1  0.9117959E-009  0.9118800E+02  0.7816164E-02  0.1184000E+00
        -11   -1    0    0    0    0  0.00000000000E+00  0.00000000000E+00  0.45593999997E+02  0.45594000000E+02  0.51100000000E-03 0. -1.
         11   -1    0    0    0    0 -0.00000000000E+00 -0.00000000000E+00 -0.45593999997E+02  0.45594000000E+02  0.51100000000E-03 0.  1.
         23    2    1    2    0    0  0.00000000000E+00 -0.17763568394E-14 -0.17763568394E-14  0.91188000000E+02  0.91188000000E+02 0.  0.
    9900012    2    3    3    0    0 -0.40421288893E+02 -0.12970002598E+02 -0.15066916665E+02  0.46142317178E+02  0.99999946798E+01 0.  0.
         12    1    3    3    0    0  0.40421288893E+02  0.12970002598E+02  0.15066916665E+02  0.45045682822E+02  0.00000000000E+00 0. -1.
         11    1    4    4    0    0 -0.22898071904E+02 -0.98203370148E+01 -0.53546149978E+01  0.25483967863E+02  0.51100000000E-03 0. -1.
        -11    1    4    4    0    0 -0.11960073250E+02 -0.47661675140E+00 -0.54136306518E+01  0.13136891290E+02  0.51100000000E-03 0.  1.
         12    1    4    4    0    0 -0.55631437383E+01 -0.26730488320E+01 -0.42986710157E+01  0.75214580243E+01  0.00000000000E+00 0. -1.
</event>
<event>
 8    1  0.9117959E-009  0.9118800E+02  0.7816164E-02  0.1184000E+00
        -11   -1    0    0    0    0  0.00000000000E+00  0.00000000000E+00  0.45593999997E+02  0.45594000000E+02  0.51100000000E-03 0. -1.
         11   -1    0    0    0    0 -0.00000000000E+00 -0.00000000000E+00 -0.45593999997E+02  0.45594000000E+02  0.51100000000E-03 0.  1.
         23    2    1    2    0    0  0.00000000000E+00  0.00000000000E+00  0.00000000000E+00  0.91188000000E+02  0.91188000000E+02 0.  0.
    9900012    2    3    3    0    0  0.31308659661E+02 -0.24243983700E+02 -0.21473485202E+02  0.46142317830E+02  0.10000000626E+02 0.  0.
         12    1    3    3    0    0 -0.31308659661E+02  0.24243983700E+02  0.21473485202E+02  0.45045682170E+02  0.00000000000E+00 0. -1.
         11    1    4    4    0    0  0.20664700572E+02 -0.15081778516E+02 -0.12266556696E+02  0.28371787155E+02  0.51100000000E-03 0. -1.
        -11    1    4    4    0    0  0.41734946064E+01 -0.71671642707E+01 -0.38862800514E+01  0.91591197073E+01  0.51100000000E-03 0.  1.
         12    1    4    4    0    0  0.64704644823E+01 -0.19950409141E+01 -0.53206484552E+01  0.86114109674E+01  0.00000000000E+00 0. -1.
</event>
<event>
 8    1  0.9117959E-009  0.9118800E+02  0.7816164E-02  0.1184000E+00
        -11   -1    0    0    0    0  0.00000000000E+00  0.00000000000E+00  0.45593999997E+02  0.45594000000E+02  0.51100000000E-03 0. -1.
         11   -1    0    0    0    0 -0.00000000000E+00 -0.00000000000E+00 -0.45593999997E+02  0.45594000000E+02  0.51100000000E-03 0.  1.
         23    2    1    2    0    0  0.00000000000E+00 -0.35527136788E-14  0.00000000000E+00  0.91188000000E+02  0.91188000000E+02 0.  0.
    9900012    2    3    3    0    0 -0.18035107175E+02  0.22343702149E+02 -0.34707453815E+02  0.46142318000E+02  0.10000002175E+02 0.  0.
         12    1    3    3    0    0  0.18035107175E+02 -0.22343702149E+02  0.34707453815E+02  0.45045682000E+02  0.00000000000E+00 0. -1.
         11    1    4    4    0    0 -0.83474979754E+01  0.85530898516E+01 -0.16947883281E+02  0.20738052378E+02  0.51100000000E-03 0. -1.
        -11    1    4    4    0    0 -0.10230919130E+02  0.10602591274E+02 -0.15885696353E+02  0.21666610183E+02  0.51100000000E-03 0.  1.
         12    1    4    4    0    0  0.54330992999E+00  0.31880210237E+01 -0.18738741807E+01  0.37376554379E+01  0.00000000000E+00 0. -1.
</event>
<event>
 8    1  0.9117959E-009  0.9118800E+02  0.7816164E-02  0.1184000E+00
        -11   -1    0    0    0    0  0.00000000000E+00  0.00000000000E+00  0.45593999997E+02  0.45594000000E+02  0.51100000000E-03 0. -1.
         11   -1    0    0    0    0 -0.00000000000E+00 -0.00000000000E+00 -0.45593999997E+02  0.45594000000E+02  0.51100000000E-03 0.  1.
         23    2    1    2    0    0 -0.17763568394E-14  0.00000000000E+00  0.35527136788E-14  0.91188000000E+02  0.91188000000E+02 0.  0.
    9900012    2    3    3    0    0 -0.87127911556E+01  0.34686002298E+02  0.27387625728E+02  0.46142317319E+02  0.99999959711E+01 0.  0.
        -12    1    3    3    0    0  0.87127911556E+01 -0.34686002298E+02 -0.27387625728E+02  0.45045682681E+02  0.00000000000E+00 0.  1.
         11    1    4    4    0    0 -0.97530989423E+00  0.13018523059E+02  0.11501512794E+02  0.17398792166E+02  0.51100000000E-03 0. -1.
        -11    1    4    4    0    0  0.24467549667E+00  0.84250660670E+01  0.46145446028E+01  0.96091428590E+01  0.51100000000E-03 0.  1.
        -12    1    4    4    0    0 -0.79821567581E+01  0.13242413172E+02  0.11271568331E+02  0.19134382294E+02  0.00000000000E+00 0.  1.
</event>
<event>
 8    1  0.9117959E-009  0.9118800E+02  0.7816164E-02  0.1184000E+00
        -11   -1    0    0    0    0  0.00000000000E+00  0.00000000000E+00  0.45593999997E+02  0.45594000000E+02  0.51100000000E-03 0. -1.
         11   -1    0    0    0    0 -0.00000000000E+00 -0.00000000000E+00 -0.45593999997E+02  0.45594000000E+02  0.51100000000E-03 0.  1.
         23    2    1    2    0    0  0.00000000000E+00  0.00000000000E+00 -0.35527136788E-14  0.91188000000E+02  0.91188000000E+02 0.  0.
    9900012    2    3    3    0    0  0.17774205284E+02 -0.28896433826E+02  0.29634224342E+02  0.46142317480E+02  0.99999974363E+01 0.  0.
        -12    1    3    3    0    0 -0.17774205284E+02  0.28896433826E+02 -0.29634224342E+02  0.45045682520E+02  0.00000000000E+00 0.  1.
         11    1    4    4    0    0  0.41411708497E+00 -0.90582702859E+00 -0.31184035367E+00  0.10436763067E+01  0.51100000000E-03 0.  1.
        -11    1    4    4    0    0  0.40159021921E+01 -0.22587481173E+01  0.55430563919E+01  0.72079739108E+01  0.51100000000E-03 0. -1.
         12    1    4    4    0    0  0.13344186007E+02 -0.25731858680E+02  0.24403008304E+02  0.37890667263E+02  0.00000000000E+00 0. -1.
</event>
<event>
 8    1  0.9117959E-009  0.9118800E+02  0.7816164E-02  0.1184000E+00
        -11   -1    0    0    0    0  0.00000000000E+00  0.00000000000E+00  0.45593999997E+02  0.45594000000E+02  0.51100000000E-03 0. -1.
         11   -1    0    0    0    0 -0.00000000000E+00 -0.00000000000E+00 -0.45593999997E+02  0.45594000000E+02  0.51100000000E-03 0.  1.
         23    2    1    2    0    0  0.00000000000E+00  0.24980018054E-15  0.71054273576E-14  0.91188000000E+02  0.91188000000E+02 0.  0.
    9900012    2    3    3    0    0  0.22437657107E+02 -0.24018974839E+00 -0.39059023920E+02  0.46142317663E+02  0.99999991069E+01 0.  0.
         12    1    3    3    0    0 -0.22437657107E+02  0.24018974839E+00  0.39059023920E+02  0.45045682337E+02  0.00000000000E+00 0. -1.
         11    1    4    4    0    0  0.75240069169E+01 -0.33764435828E+01 -0.15884433742E+02  0.17897661493E+02  0.51100000000E-03 0. -1.
        -11    1    4    4    0    0  0.34889746006E+01 -0.25876758428E-01 -0.21209055544E+01  0.40831181714E+01  0.51100000000E-03 0.  1.
        -12    1    4    4    0    0  0.11424675590E+02  0.31621305928E+01 -0.21053684624E+02  0.24161537998E+02  0.00000000000E+00 0.  1.
</event>
<event>
 8    1  0.9117959E-009  0.9118800E+02  0.7816164E-02  0.1184000E+00
        -11   -1    0    0    0    0  0.00000000000E+00  0.00000000000E+00  0.45593999997E+02  0.45594000000E+02  0.51100000000E-03 0. -1.
         11   -1    0    0    0    0 -0.00000000000E+00 -0.00000000000E+00 -0.45593999997E+02  0.45594000000E+02  0.51100000000E-03 0.  1.
         23    2    1    2    0    0  0.17763568394E-14  0.00000000000E+00  0.00000000000E+00  0.91188000000E+02  0.91188000000E+02 0.  0.
    9900012    2    3    3    0    0 -0.10424108756E+02 -0.16078704443E+02  0.40766736125E+02  0.46142317030E+02  0.99999933338E+01 0.  0.
        -12    1    3    3    0    0  0.10424108756E+02  0.16078704443E+02 -0.40766736125E+02  0.45045682970E+02  0.00000000000E+00 0.  1.
         11    1    4    4    0    0  0.26205257521E+00  0.39940563216E+00  0.69633902441E+00  0.84444343162E+00  0.51100000000E-03 0. -1.
        -11    1    4    4    0    0 -0.10877469055E+02 -0.16900237455E+02  0.40077216331E+02  0.44834368828E+02  0.51100000000E-03 0.  1.
        -12    1    4    4    0    0  0.19130772336E+00  0.42212738015E+00 -0.68192307342E-02  0.46350477020E+00  0.00000000000E+00 0.  1.
</event>
<event>
 8    1  0.9117959E-009  0.9118800E+02  0.7816164E-02  0.1184000E+00
        -11   -1    0    0    0    0  0.00000000000E+00  0.00000000000E+00  0.45593999997E+02  0.45594000000E+02  0.51100000000E-03 0. -1.
         11   -1    0    0    0    0 -0.00000000000E+00 -0.00000000000E+00 -0.45593999997E+02  0.45594000000E+02  0.51100000000E-03 0.  1.
         23    2    1    2    0    0 -0.71054273576E-14  0.00000000000E+00  0.00000000000E+00  0.91188000000E+02  0.91188000000E+02 0.  0.
    9900012    2    3    3    0    0  0.35683115353E+02  0.10206131612E+02  0.25527703192E+02  0.46142317920E+02  0.10000001447E+02 0.  0.
        -12    1    3    3    0    0 -0.35683115353E+02 -0.10206131612E+02 -0.25527703192E+02  0.45045682080E+02  0.00000000000E+00 0.  1.
         11    1    4    4    0    0  0.11332231159E+02  0.24496462554E+01  0.68710297635E+01  0.13477064966E+02  0.51100000000E-03 0. -1.
        -11    1    4    4    0    0  0.11147771913E+02  0.35172495002E+01  0.36809991199E+01  0.12255350564E+02  0.51100000000E-03 0.  1.
         12    1    4    4    0    0  0.13203112281E+02  0.42392358565E+01  0.14975674309E+02  0.20409902390E+02  0.00000000000E+00 0. -1.
</event>
<event>
 8    1  0.9117959E-009  0.9118800E+02  0.7816164E-02  0.1184000E+00
        -11   -1    0    0    0    0  0.00000000000E+00  0.00000000000E+00  0.45593999997E+02  0.45594000000E+02  0.51100000000E-03 0. -1.
         11   -1    0    0    0    0 -0.00000000000E+00 -0.00000000000E+00 -0.45593999997E+02  0.45594000000E+02  0.51100000000E-03 0.  1.
         23    2    1    2    0    0  0.00000000000E+00  0.00000000000E+00  0.71054273576E-14  0.91188000000E+02  0.91188000000E+02 0.  0.
    9900012    2    3    3    0    0  0.67795135302E+00  0.17829145158E+02 -0.41361521969E+02  0.46142317247E+02  0.99999953107E+01 0.  0.
         12    1    3    3    0    0 -0.67795135302E+00 -0.17829145158E+02  0.41361521969E+02  0.45045682753E+02  0.00000000000E+00 0. -1.
         11    1    4    4    0    0  0.14441454994E+01  0.83811575231E+00 -0.58884722343E+01  0.61206290324E+01  0.51100000000E-03 0. -1.
        -11    1    4    4    0    0  0.27823426121E+01  0.11947334769E+02 -0.25475790742E+02  0.28275362999E+02  0.51100000000E-03 0.  1.
         12    1    4    4    0    0 -0.35485367585E+01  0.50436946373E+01 -0.99972589922E+01  0.11746325216E+02  0.00000000000E+00 0. -1.
</event>
<event>
 8    1  0.9117959E-009  0.9118800E+02  0.7816164E-02  0.1184000E+00
        -11   -1    0    0    0    0  0.00000000000E+00  0.00000000000E+00  0.45593999997E+02  0.45594000000E+02  0.51100000000E-03 0. -1.
         11   -1    0    0    0    0 -0.00000000000E+00 -0.00000000000E+00 -0.45593999997E+02  0.45594000000E+02  0.51100000000E-03 0.  1.
         23    2    1    2    0    0 -0.35527136788E-14  0.00000000000E+00  0.00000000000E+00  0.91188000000E+02  0.91188000000E+02 0.  0.
    9900012    2    3    3    0    0  0.30284993249E+02  0.27726202926E+02 -0.18525393509E+02  0.46142319303E+02  0.10000014059E+02 0.  0.
         12    1    3    3    0    0 -0.30284993249E+02 -0.27726202926E+02  0.18525393509E+02  0.45045680697E+02  0.00000000000E+00 0. -1.
         11    1    4    4    0    0  0.11984347881E+02  0.68097328853E+01 -0.42444538638E+01  0.14422636547E+02  0.51100000000E-03 0. -1.
        -11    1    4    4    0    0  0.14066900974E+02  0.17546169605E+02 -0.13559585306E+02  0.26260390796E+02  0.51100000000E-03 0.  1.
        -12    1    4    4    0    0  0.42337443940E+01  0.33703004357E+01 -0.72135433910E+00  0.54592919598E+01  0.00000000000E+00 0.  1.
</event>
<event>
 8    1  0.9117959E-009  0.9118800E+02  0.7816164E-02  0.1184000E+00
        -11   -1    0    0    0    0  0.00000000000E+00  0.00000000000E+00  0.45593999997E+02  0.45594000000E+02  0.51100000000E-03 0. -1.
         11   -1    0    0    0    0 -0.00000000000E+00 -0.00000000000E+00 -0.45593999997E+02  0.45594000000E+02  0.51100000000E-03 0.  1.
         23    2    1    2    0    0  0.00000000000E+00  0.00000000000E+00 -0.71054273576E-14  0.91188000000E+02  0.91188000000E+02 0.  0.
    9900012    2    3    3    0    0 -0.20087688910E+02 -0.47893468984E+01 -0.40033241783E+02  0.46142317220E+02  0.99999950661E+01 0.  0.
         12    1    3    3    0    0  0.20087688910E+02  0.47893468984E+01  0.40033241783E+02  0.45045682780E+02  0.00000000000E+00 0. -1.
         11    1    4    4    0    0 -0.59448033996E+01 -0.22621013378E+01 -0.18566632994E+02  0.19625943312E+02  0.51100000000E-03 0. -1.
        -11    1    4    4    0    0 -0.20283537952E+01 -0.92261392097E-01 -0.36503806193E+00  0.20630037157E+01  0.51100000000E-03 0.  1.
        -12    1    4    4    0    0 -0.12114531715E+02 -0.24349841685E+01 -0.21101570728E+02  0.24453370192E+02  0.00000000000E+00 0.  1.
</event>
<event>
 8    1  0.9117959E-009  0.9118800E+02  0.7816164E-02  0.1184000E+00
        -11   -1    0    0    0    0  0.00000000000E+00  0.00000000000E+00  0.45593999997E+02  0.45594000000E+02  0.51100000000E-03 0. -1.
         11   -1    0    0    0    0 -0.00000000000E+00 -0.00000000000E+00 -0.45593999997E+02  0.45594000000E+02  0.51100000000E-03 0.  1.
         23    2    1    2    0    0  0.00000000000E+00  0.00000000000E+00  0.00000000000E+00  0.91188000000E+02  0.91188000000E+02 0.  0.
    9900012    2    3    3    0    0 -0.36851025002E+02  0.23524858719E+01  0.25798859508E+02  0.46142318904E+02  0.10000010425E+02 0.  0.
        -12    1    3    3    0    0  0.36851025002E+02 -0.23524858719E+01 -0.25798859508E+02  0.45045681096E+02  0.00000000000E+00 0.  1.
         11    1    4    4    0    0 -0.15115405235E+02  0.23083972392E+01  0.11443079190E+02  0.19098383043E+02  0.51100000000E-03 0. -1.
        -11    1    4    4    0    0 -0.19316325589E+02 -0.20318241833E+01  0.13754446243E+02  0.23799864190E+02  0.51100000000E-03 0.  1.
         12    1    4    4    0    0 -0.24192941773E+01  0.20759128161E+01  0.60133407491E+00  0.32440716709E+01  0.00000000000E+00 0. -1.
</event>
<event>
 8    1  0.9117959E-009  0.9118800E+02  0.7816164E-02  0.1184000E+00
        -11   -1    0    0    0    0  0.00000000000E+00  0.00000000000E+00  0.45593999997E+02  0.45594000000E+02  0.51100000000E-03 0. -1.
         11   -1    0    0    0    0 -0.00000000000E+00 -0.00000000000E+00 -0.45593999997E+02  0.45594000000E+02  0.51100000000E-03 0.  1.
         23    2    1    2    0    0  0.00000000000E+00 -0.35527136788E-14  0.00000000000E+00  0.91188000000E+02  0.91188000000E+02 0.  0.
    9900012    2    3    3    0    0 -0.94442570100E+01  0.26567125391E+02 -0.35129866718E+02  0.46142315660E+02  0.99999808406E+01 0.  0.
         12    1    3    3    0    0  0.94442570100E+01 -0.26567125391E+02  0.35129866718E+02  0.45045684340E+02  0.00000000000E+00 0. -1.
         11    1    4    4    0    0 -0.27383188624E+01  0.10460416080E+01 -0.31347227697E+01  0.42917456054E+01  0.51100000000E-03 0. -1.
        -11    1    4    4    0    0 -0.45390498173E+01  0.95184009411E+01 -0.15668856242E+02  0.18886926323E+02  0.51100000000E-03 0.  1.
        -12    1    4    4    0    0 -0.21668883303E+01  0.16002682842E+02 -0.16326287706E+02  0.22963643732E+02  0.00000000000E+00 0.  1.
</event>
<event>
 8    1  0.9117959E-009  0.9118800E+02  0.7816164E-02  0.1184000E+00
        -11   -1    0    0    0    0  0.00000000000E+00  0.00000000000E+00  0.45593999997E+02  0.45594000000E+02  0.51100000000E-03 0. -1.
         11   -1    0    0    0    0 -0.00000000000E+00 -0.00000000000E+00 -0.45593999997E+02  0.45594000000E+02  0.51100000000E-03 0.  1.
         23    2    1    2    0    0  0.00000000000E+00 -0.17763568394E-14  0.00000000000E+00  0.91188000000E+02  0.91188000000E+02 0.  0.
    9900012    2    3    3    0    0 -0.12022201090E+02  0.11623245613E+02  0.41826789488E+02  0.46142317893E+02  0.10000001202E+02 0.  0.
        -12    1    3    3    0    0  0.12022201090E+02 -0.11623245613E+02 -0.41826789488E+02  0.45045682107E+02  0.00000000000E+00 0.  1.
         11    1    4    4    0    0 -0.21995273700E+01  0.13724695902E+01  0.19560846365E+02  0.19731910810E+02  0.51100000000E-03 0. -1.
        -11    1    4    4    0    0 -0.32542865178E+01  0.35865903354E+01  0.73213009373E+01  0.87781238685E+01  0.51100000000E-03 0.  1.
         12    1    4    4    0    0 -0.65683872018E+01  0.66641856876E+01  0.14944642186E+02  0.17632283215E+02  0.00000000000E+00 0. -1.
</event>
<event>
 8    1  0.9117959E-009  0.9118800E+02  0.7816164E-02  0.1184000E+00
        -11   -1    0    0    0    0  0.00000000000E+00  0.00000000000E+00  0.45593999997E+02  0.45594000000E+02  0.51100000000E-03 0. -1.
         11   -1    0    0    0    0 -0.00000000000E+00 -0.00000000000E+00 -0.45593999997E+02  0.45594000000E+02  0.51100000000E-03 0.  1.
         23    2    1    2    0    0 -0.88817841970E-15 -0.44408920985E-15  0.00000000000E+00  0.91188000000E+02  0.91188000000E+02 0.  0.
    9900012    2    3    3    0    0  0.71704178767E+01 -0.23491090862E+01  0.44409236099E+02  0.46142318110E+02  0.10000003184E+02 0.  0.
        -12    1    3    3    0    0 -0.71704178767E+01  0.23491090862E+01 -0.44409236099E+02  0.45045681890E+02  0.00000000000E+00 0.  1.
         11    1    4    4    0    0  0.20711302758E+01 -0.25698503616E+00  0.67736329602E+01  0.70878576219E+01  0.51100000000E-03 0. -1.
        -11    1    4    4    0    0  0.33670982734E+01 -0.51180553662E+01  0.30540999305E+02  0.31149389726E+02  0.51100000000E-03 0.  1.
        -12    1    4    4    0    0  0.17321893274E+01  0.30259313161E+01  0.70946038339E+01  0.79050707622E+01  0.00000000000E+00 0.  1.
</event>
<event>
 8    1  0.9117959E-009  0.9118800E+02  0.7816164E-02  0.1184000E+00
        -11   -1    0    0    0    0  0.00000000000E+00  0.00000000000E+00  0.45593999997E+02  0.45594000000E+02  0.51100000000E-03 0. -1.
         11   -1    0    0    0    0 -0.00000000000E+00 -0.00000000000E+00 -0.45593999997E+02  0.45594000000E+02  0.51100000000E-03 0.  1.
         23    2    1    2    0    0  0.17763568394E-14  0.35527136788E-14  0.71054273576E-14  0.91188000000E+02  0.91188000000E+02 0.  0.
    9900012    2    3    3    0    0  0.11727328340E+02 -0.16598193823E+02 -0.40200536541E+02  0.46142318671E+02  0.10000008297E+02 0.  0.
         12    1    3    3    0    0 -0.11727328340E+02  0.16598193823E+02  0.40200536541E+02  0.45045681329E+02  0.00000000000E+00 0. -1.
         11    1    4    4    0    0  0.32467944393E+01  0.62093889404E+00 -0.75838050224E+01  0.82729280258E+01  0.51100000000E-03 0. -1.
        -11    1    4    4    0    0  0.67329077814E+00 -0.23556563808E+01 -0.39547265315E+01  0.46521285082E+01  0.51100000000E-03 0.  1.
         12    1    4    4    0    0  0.78072431229E+01 -0.14863476336E+02 -0.28662004987E+02  0.33217262137E+02  0.00000000000E+00 0. -1.
</event>
<event>
 8    1  0.9117959E-009  0.9118800E+02  0.7816164E-02  0.1184000E+00
        -11   -1    0    0    0    0  0.00000000000E+00  0.00000000000E+00  0.45593999997E+02  0.45594000000E+02  0.51100000000E-03 0. -1.
         11   -1    0    0    0    0 -0.00000000000E+00 -0.00000000000E+00 -0.45593999997E+02  0.45594000000E+02  0.51100000000E-03 0.  1.
         23    2    1    2    0    0 -0.17763568394E-14  0.00000000000E+00  0.00000000000E+00  0.91188000000E+02  0.91188000000E+02 0.  0.
    9900012    2    3    3    0    0  0.87278135661E+01 -0.63653852407E+01 -0.43731236255E+02  0.46142313377E+02  0.99999600254E+01 0.  0.
         12    1    3    3    0    0 -0.87278135661E+01  0.63653852407E+01  0.43731236255E+02  0.45045686623E+02  0.00000000000E+00 0. -1.
         11    1    4    4    0    0  0.83505663370E+01 -0.30781241587E+01 -0.34176165521E+02  0.35315960931E+02  0.51100000000E-03 0. -1.
        -11    1    4    4    0    0  0.17200890560E+01 -0.23347821976E+01 -0.81881110929E+01  0.86864882318E+01  0.51100000000E-03 0.  1.
         12    1    4    4    0    0 -0.13428418268E+01 -0.95247888439E+00 -0.13669596413E+01  0.21398642148E+01  0.00000000000E+00 0. -1.
</event>
<event>
 8    1  0.9117959E-009  0.9118800E+02  0.7816164E-02  0.1184000E+00
        -11   -1    0    0    0    0  0.00000000000E+00  0.00000000000E+00  0.45593999997E+02  0.45594000000E+02  0.51100000000E-03 0. -1.
         11   -1    0    0    0    0 -0.00000000000E+00 -0.00000000000E+00 -0.45593999997E+02  0.45594000000E+02  0.51100000000E-03 0.  1.
         23    2    1    2    0    0  0.17763568394E-14  0.71054273576E-14 -0.35527136788E-14  0.91188000000E+02  0.91188000000E+02 0.  0.
    9900012    2    3    3    0    0  0.10024743036E+02  0.34834634422E+02 -0.26742592987E+02  0.46142317544E+02  0.99999980192E+01 0.  0.
         12    1    3    3    0    0 -0.10024743036E+02 -0.34834634422E+02  0.26742592987E+02  0.45045682456E+02  0.00000000000E+00 0. -1.
         11    1    4    4    0    0 -0.51115185223E+00  0.16520708273E+01  0.43886694199E+00  0.17841576971E+01  0.51100000000E-03 0. -1.
        -11    1    4    4    0    0  0.27791350077E+01  0.42842256281E+01 -0.45865743449E+01  0.68640254302E+01  0.51100000000E-03 0.  1.
         12    1    4    4    0    0  0.77567598805E+01  0.28898337967E+02 -0.22594885584E+02  0.37494134417E+02  0.00000000000E+00 0. -1.
</event>
<event>
 8    1  0.9117959E-009  0.9118800E+02  0.7816164E-02  0.1184000E+00
        -11   -1    0    0    0    0  0.00000000000E+00  0.00000000000E+00  0.45593999997E+02  0.45594000000E+02  0.51100000000E-03 0.  1.
         11   -1    0    0    0    0 -0.00000000000E+00 -0.00000000000E+00 -0.45593999997E+02  0.45594000000E+02  0.51100000000E-03 0. -1.
         23    2    1    2    0    0  0.00000000000E+00  0.00000000000E+00  0.44408920985E-15  0.91188000000E+02  0.91188000000E+02 0.  0.
    9900012    2    3    3    0    0  0.24134555379E+02 -0.37924048762E+02  0.28988307000E+01  0.46142318106E+02  0.10000003145E+02 0.  0.
        -12    1    3    3    0    0 -0.24134555379E+02  0.37924048762E+02 -0.28988307000E+01  0.45045681894E+02  0.00000000000E+00 0.  1.
         11    1    4    4    0    0  0.44901428064E+01 -0.10123344500E+02 -0.20355697456E+01  0.11259974722E+02  0.51100000000E-03 0. -1.
        -11    1    4    4    0    0  0.58541610744E+01 -0.10724781683E+02 -0.64428570202E+00  0.12235491341E+02  0.51100000000E-03 0.  1.
         12    1    4    4    0    0  0.13790251499E+02 -0.17075922579E+02  0.55786861476E+01  0.22646852043E+02  0.00000000000E+00 0. -1.
</event>
<event>
 8    1  0.9117959E-009  0.9118800E+02  0.7816164E-02  0.1184000E+00
        -11   -1    0    0    0    0  0.00000000000E+00  0.00000000000E+00  0.45593999997E+02  0.45594000000E+02  0.51100000000E-03 0. -1.
         11   -1    0    0    0    0 -0.00000000000E+00 -0.00000000000E+00 -0.45593999997E+02  0.45594000000E+02  0.51100000000E-03 0.  1.
         23    2    1    2    0    0  0.00000000000E+00 -0.71054273576E-14  0.17763568394E-14  0.91188000000E+02  0.91188000000E+02 0.  0.
    9900012    2    3    3    0    0  0.28033537720E+02  0.33641504123E+02 -0.10558573911E+02  0.46142317413E+02  0.99999968227E+01 0.  0.
         12    1    3    3    0    0 -0.28033537720E+02 -0.33641504123E+02  0.10558573911E+02  0.45045682587E+02  0.00000000000E+00 0. -1.
         11    1    4    4    0    0  0.75204744011E+01  0.67505082012E+01 -0.54059366384E+01  0.11460848459E+02  0.51100000000E-03 0. -1.
        -11    1    4    4    0    0  0.13161301937E-01  0.22012154051E+01 -0.46643980717E+00  0.22501308482E+01  0.51100000000E-03 0.  1.
        -12    1    4    4    0    0  0.20499902017E+02  0.24689780516E+02 -0.46861974652E+01  0.32431338106E+02  0.00000000000E+00 0.  1.
</event>
<event>
 8    1  0.9117959E-009  0.9118800E+02  0.7816164E-02  0.1184000E+00
        -11   -1    0    0    0    0  0.00000000000E+00  0.00000000000E+00  0.45593999997E+02  0.45594000000E+02  0.51100000000E-03 0. -1.
         11   -1    0    0    0    0 -0.00000000000E+00 -0.00000000000E+00 -0.45593999997E+02  0.45594000000E+02  0.51100000000E-03 0.  1.
         23    2    1    2    0    0  0.00000000000E+00 -0.35527136788E-14  0.35527136788E-14  0.91188000000E+02  0.91188000000E+02 0.  0.
    9900012    2    3    3    0    0 -0.13796496399E+02 -0.29219727556E+02 -0.31384355975E+02  0.46142316618E+02  0.99999895794E+01 0.  0.
         12    1    3    3    0    0  0.13796496399E+02  0.29219727556E+02  0.31384355975E+02  0.45045683382E+02  0.00000000000E+00 0. -1.
         11    1    4    4    0    0 -0.35761844349E+01 -0.11021356821E+02 -0.86006096112E+01  0.14430172807E+02  0.51100000000E-03 0. -1.
        -11    1    4    4    0    0 -0.10805575373E+02 -0.13583425277E+02 -0.17074590122E+02  0.24347721238E+02  0.51100000000E-03 0.  1.
        -12    1    4    4    0    0  0.58526340965E+00 -0.46149454582E+01 -0.57091562421E+01  0.73644225732E+01  0.00000000000E+00 0.  1.
</event>
<event>
 8    1  0.9117959E-009  0.9118800E+02  0.7816164E-02  0.1184000E+00
        -11   -1    0    0    0    0  0.00000000000E+00  0.00000000000E+00  0.45593999997E+02  0.45594000000E+02  0.51100000000E-03 0. -1.
         11   -1    0    0    0    0 -0.00000000000E+00 -0.00000000000E+00 -0.45593999997E+02  0.45594000000E+02  0.51100000000E-03 0.  1.
         23    2    1    2    0    0  0.00000000000E+00  0.71054273576E-14 -0.35527136788E-14  0.91188000000E+02  0.91188000000E+02 0.  0.
    9900012    2    3    3    0    0  0.28177081221E+02 -0.30956515671E+02  0.16639102099E+02  0.46142317773E+02  0.10000000111E+02 0.  0.
        -12    1    3    3    0    0 -0.28177081221E+02  0.30956515671E+02 -0.16639102099E+02  0.45045682227E+02  0.00000000000E+00 0.  1.
         11    1    4    4    0    0  0.15659715632E+00  0.45488543101E+00  0.11703682230E+01  0.12653874755E+01  0.51100000000E-03 0.  1.
        -11    1    4    4    0    0  0.11001391345E+02 -0.11368600265E+02  0.52765645212E+01  0.16676864721E+02  0.51100000000E-03 0. -1.
        -12    1    4    4    0    0  0.17019092720E+02 -0.20042800837E+02  0.10192169355E+02  0.28200065577E+02  0.00000000000E+00 0.  1.
</event>
<event>
 8    1  0.9117959E-009  0.9118800E+02  0.7816164E-02  0.1184000E+00
        -11   -1    0    0    0    0  0.00000000000E+00  0.00000000000E+00  0.45593999997E+02  0.45594000000E+02  0.51100000000E-03 0.  1.
         11   -1    0    0    0    0 -0.00000000000E+00 -0.00000000000E+00 -0.45593999997E+02  0.45594000000E+02  0.51100000000E-03 0. -1.
         23    2    1    2    0    0  0.00000000000E+00  0.71054273576E-14  0.35527136788E-14  0.91188000000E+02  0.91188000000E+02 0.  0.
    9900012    2    3    3    0    0  0.93752015446E+01  0.40848545211E+02 -0.16511071383E+02  0.46142317320E+02  0.99999959814E+01 0.  0.
         12    1    3    3    0    0 -0.93752015446E+01 -0.40848545211E+02  0.16511071383E+02  0.45045682680E+02  0.00000000000E+00 0. -1.
         11    1    4    4    0    0  0.85340164832E+01  0.24467690780E+02 -0.82446202996E+01  0.27193217787E+02  0.51100000000E-03 0. -1.
        -11    1    4    4    0    0 -0.10145027506E+01  0.14579286749E+01 -0.19524432587E+01  0.26394709302E+01  0.51100000000E-03 0.  1.
        -12    1    4    4    0    0  0.18556878121E+01  0.14922925756E+02 -0.63140078247E+01  0.16309628604E+02  0.00000000000E+00 0.  1.
</event>
<event>
 8    1  0.9117959E-009  0.9118800E+02  0.7816164E-02  0.1184000E+00
        -11   -1    0    0    0    0  0.00000000000E+00  0.00000000000E+00  0.45593999997E+02  0.45594000000E+02  0.51100000000E-03 0. -1.
         11   -1    0    0    0    0 -0.00000000000E+00 -0.00000000000E+00 -0.45593999997E+02  0.45594000000E+02  0.51100000000E-03 0.  1.
         23    2    1    2    0    0  0.00000000000E+00  0.00000000000E+00  0.00000000000E+00  0.91188000000E+02  0.91188000000E+02 0.  0.
    9900012    2    3    3    0    0  0.34691658882E+02 -0.66947899393E+01 -0.27942478398E+02  0.46142317551E+02  0.99999980817E+01 0.  0.
         12    1    3    3    0    0 -0.34691658882E+02  0.66947899393E+01  0.27942478398E+02  0.45045682449E+02  0.00000000000E+00 0. -1.
         11    1    4    4    0    0  0.44646614899E+01  0.91511174432E+00 -0.28038744054E+01  0.53509198898E+01  0.51100000000E-03 0. -1.
        -11    1    4    4    0    0  0.29173384930E+01  0.10326894106E+01 -0.46013891132E+01  0.55452766688E+01  0.51100000000E-03 0.  1.
        -12    1    4    4    0    0  0.27309658899E+02 -0.86425910943E+01 -0.20537214879E+02  0.35246120992E+02  0.00000000000E+00 0.  1.
</event>
<event>
 8    1  0.9117959E-009  0.9118800E+02  0.7816164E-02  0.1184000E+00
        -11   -1    0    0    0    0  0.00000000000E+00  0.00000000000E+00  0.45593999997E+02  0.45594000000E+02  0.51100000000E-03 0. -1.
         11   -1    0    0    0    0 -0.00000000000E+00 -0.00000000000E+00 -0.45593999997E+02  0.45594000000E+02  0.51100000000E-03 0.  1.
         23    2    1    2    0    0 -0.17763568394E-14 -0.35527136788E-14  0.00000000000E+00  0.91188000000E+02  0.91188000000E+02 0.  0.
    9900012    2    3    3    0    0 -0.10702942360E+02 -0.16315754021E+02  0.40599958690E+02  0.46142318186E+02  0.10000003879E+02 0.  0.
        -12    1    3    3    0    0  0.10702942360E+02  0.16315754021E+02 -0.40599958690E+02  0.45045681814E+02  0.00000000000E+00 0.  1.
         11    1    4    4    0    0 -0.32829137669E+01 -0.28732235059E+01  0.60065969620E+01  0.74237553463E+01  0.51100000000E-03 0.  1.
        -11    1    4    4    0    0  0.19498223420E+00 -0.80253035167E+01  0.16851626604E+02  0.18666034235E+02  0.51100000000E-03 0. -1.
         12    1    4    4    0    0 -0.76150108274E+01 -0.54172269986E+01  0.17741735123E+02  0.20052528605E+02  0.00000000000E+00 0. -1.
</event>
<event>
 8    1  0.9117959E-009  0.9118800E+02  0.7816164E-02  0.1184000E+00
        -11   -1    0    0    0    0  0.00000000000E+00  0.00000000000E+00  0.45593999997E+02  0.45594000000E+02  0.51100000000E-03 0.  1.
         11   -1    0    0    0    0 -0.00000000000E+00 -0.00000000000E+00 -0.45593999997E+02  0.45594000000E+02  0.51100000000E-03 0. -1.
         23    2    1    2    0    0  0.17763568394E-14  0.71054273576E-14  0.35527136788E-14  0.91188000000E+02  0.91188000000E+02 0.  0.
    9900012    2    3    3    0    0 -0.11935197600E+02 -0.36190221625E+02  0.24019417434E+02  0.46142317667E+02  0.99999991391E+01 0.  0.
        -12    1    3    3    0    0  0.11935197600E+02  0.36190221625E+02 -0.24019417434E+02  0.45045682333E+02  0.00000000000E+00 0.  1.
         11    1    4    4    0    0  0.62873843152E+00 -0.27354222747E+01  0.29900589727E+01  0.41010120650E+01  0.51100000000E-03 0.  1.
        -11    1    4    4    0    0 -0.28077980845E+01 -0.37083225873E+01  0.51471189306E+01  0.69374505434E+01  0.51100000000E-03 0. -1.
         12    1    4    4    0    0 -0.97561379470E+01 -0.29746476763E+02  0.15882239530E+02  0.35103855058E+02  0.00000000000E+00 0. -1.
</event>
<event>
 8    1  0.9117959E-009  0.9118800E+02  0.7816164E-02  0.1184000E+00
        -11   -1    0    0    0    0  0.00000000000E+00  0.00000000000E+00  0.45593999997E+02  0.45594000000E+02  0.51100000000E-03 0. -1.
         11   -1    0    0    0    0 -0.00000000000E+00 -0.00000000000E+00 -0.45593999997E+02  0.45594000000E+02  0.51100000000E-03 0.  1.
         23    2    1    2    0    0  0.17763568394E-14  0.35527136788E-14  0.00000000000E+00  0.91188000000E+02  0.91188000000E+02 0.  0.
    9900012    2    3    3    0    0  0.10671713408E+02 -0.23796904726E+02  0.36727851858E+02  0.46142320477E+02  0.10000024764E+02 0.  0.
        -12    1    3    3    0    0 -0.10671713408E+02  0.23796904726E+02 -0.36727851858E+02  0.45045679523E+02  0.00000000000E+00 0.  1.
         11    1    4    4    0    0  0.54172085572E+01 -0.13294928036E+02  0.24663749884E+02  0.28537726235E+02  0.51100000000E-03 0. -1.
        -11    1    4    4    0    0  0.29187729292E+01 -0.38970592597E+01  0.83735614103E+01  0.96862189341E+01  0.51100000000E-03 0.  1.
        -12    1    4    4    0    0  0.23357319213E+01 -0.66049174301E+01  0.36905405638E+01  0.79183753081E+01  0.00000000000E+00 0.  1.
</event>
<event>
 8    1  0.9117959E-009  0.9118800E+02  0.7816164E-02  0.1184000E+00
        -11   -1    0    0    0    0  0.00000000000E+00  0.00000000000E+00  0.45593999997E+02  0.45594000000E+02  0.51100000000E-03 0. -1.
         11   -1    0    0    0    0 -0.00000000000E+00 -0.00000000000E+00 -0.45593999997E+02  0.45594000000E+02  0.51100000000E-03 0.  1.
         23    2    1    2    0    0  0.00000000000E+00  0.00000000000E+00  0.00000000000E+00  0.91188000000E+02  0.91188000000E+02 0.  0.
    9900012    2    3    3    0    0 -0.27172249684E+02  0.22484645201E+02  0.28021832770E+02  0.46142317250E+02  0.99999953361E+01 0.  0.
        -12    1    3    3    0    0  0.27172249684E+02 -0.22484645201E+02 -0.28021832770E+02  0.45045682750E+02  0.00000000000E+00 0.  1.
         11    1    4    4    0    0 -0.10215079067E+02  0.86768341750E+01  0.87478659203E+01  0.16005013279E+02  0.51100000000E-03 0. -1.
        -11    1    4    4    0    0 -0.11008185978E+01  0.23424663057E+01  0.58814339903E+01  0.64257463397E+01  0.51100000000E-03 0.  1.
        -12    1    4    4    0    0 -0.15856352019E+02  0.11465344720E+02  0.13392532859E+02  0.23711557631E+02  0.00000000000E+00 0.  1.
</event>
<event>
 8    1  0.9117959E-009  0.9118800E+02  0.7816164E-02  0.1184000E+00
        -11   -1    0    0    0    0  0.00000000000E+00  0.00000000000E+00  0.45593999997E+02  0.45594000000E+02  0.51100000000E-03 0. -1.
         11   -1    0    0    0    0 -0.00000000000E+00 -0.00000000000E+00 -0.45593999997E+02  0.45594000000E+02  0.51100000000E-03 0.  1.
         23    2    1    2    0    0  0.00000000000E+00 -0.88817841970E-15  0.00000000000E+00  0.91188000000E+02  0.91188000000E+02 0.  0.
    9900012    2    3    3    0    0 -0.13429011871E+02  0.55347026792E+01 -0.42639678653E+02  0.46142317752E+02  0.99999999178E+01 0.  0.
         12    1    3    3    0    0  0.13429011871E+02 -0.55347026792E+01  0.42639678653E+02  0.45045682248E+02  0.00000000000E+00 0. -1.
         11    1    4    4    0    0  0.10809900829E+00 -0.33606396035E+00 -0.55905874372E+01  0.56017222829E+01  0.51100000000E-03 0. -1.
        -11    1    4    4    0    0  0.35740276662E+00  0.19650393416E+01 -0.37665720483E+01  0.42633533290E+01  0.51100000000E-03 0.  1.
        -12    1    4    4    0    0 -0.13894513646E+02  0.39057272980E+01 -0.33282519167E+02  0.36277242140E+02  0.00000000000E+00 0.  1.
</event>
<event>
 8    1  0.9117959E-009  0.9118800E+02  0.7816164E-02  0.1184000E+00
        -11   -1    0    0    0    0  0.00000000000E+00  0.00000000000E+00  0.45593999997E+02  0.45594000000E+02  0.51100000000E-03 0. -1.
         11   -1    0    0    0    0 -0.00000000000E+00 -0.00000000000E+00 -0.45593999997E+02  0.45594000000E+02  0.51100000000E-03 0.  1.
         23    2    1    2    0    0  0.00000000000E+00 -0.17763568394E-14  0.00000000000E+00  0.91188000000E+02  0.91188000000E+02 0.  0.
    9900012    2    3    3    0    0 -0.15562664123E+02  0.13587358094E+02  0.40028748190E+02  0.46142317674E+02  0.99999992084E+01 0.  0.
        -12    1    3    3    0    0  0.15562664123E+02 -0.13587358094E+02 -0.40028748190E+02  0.45045682326E+02  0.00000000000E+00 0.  1.
         11    1    4    4    0    0 -0.12088101582E+01 -0.21195854054E+00  0.26400675939E+01  0.29113752048E+01  0.51100000000E-03 0. -1.
        -11    1    4    4    0    0 -0.11982047344E+02  0.10307918563E+02  0.34946121647E+02  0.38354322599E+02  0.51100000000E-03 0.  1.
         12    1    4    4    0    0 -0.23718066201E+01  0.34913980716E+01  0.24425589489E+01  0.48766198700E+01  0.00000000000E+00 0. -1.
</event>
<event>
 8    1  0.9117959E-009  0.9118800E+02  0.7816164E-02  0.1184000E+00
        -11   -1    0    0    0    0  0.00000000000E+00  0.00000000000E+00  0.45593999997E+02  0.45594000000E+02  0.51100000000E-03 0.  1.
         11   -1    0    0    0    0 -0.00000000000E+00 -0.00000000000E+00 -0.45593999997E+02  0.45594000000E+02  0.51100000000E-03 0. -1.
         23    2    1    2    0    0  0.00000000000E+00  0.00000000000E+00 -0.35527136788E-14  0.91188000000E+02  0.91188000000E+02 0.  0.
    9900012    2    3    3    0    0  0.54155305182E+01 -0.36075589779E+02 -0.26426073263E+02  0.46142317667E+02  0.99999991439E+01 0.  0.
         12    1    3    3    0    0 -0.54155305182E+01  0.36075589779E+02  0.26426073263E+02  0.45045682333E+02  0.00000000000E+00 0. -1.
         11    1    4    4    0    0  0.47300466249E+01 -0.15831670762E+02 -0.72542676097E+01  0.18045485280E+02  0.51100000000E-03 0. -1.
        -11    1    4    4    0    0  0.17555114116E+01 -0.10906620532E+02 -0.90124831672E+01  0.14256964784E+02  0.51100000000E-03 0.  1.
         12    1    4    4    0    0 -0.10700275183E+01 -0.93372984856E+01 -0.10159322486E+02  0.13839867603E+02  0.00000000000E+00 0. -1.
</event>
<event>
 8    1  0.9117959E-009  0.9118800E+02  0.7816164E-02  0.1184000E+00
        -11   -1    0    0    0    0  0.00000000000E+00  0.00000000000E+00  0.45593999997E+02  0.45594000000E+02  0.51100000000E-03 0.  1.
         11   -1    0    0    0    0 -0.00000000000E+00 -0.00000000000E+00 -0.45593999997E+02  0.45594000000E+02  0.51100000000E-03 0. -1.
         23    2    1    2    0    0  0.00000000000E+00  0.00000000000E+00  0.00000000000E+00  0.91188000000E+02  0.91188000000E+02 0.  0.
    9900012    2    3    3    0    0 -0.24625623798E+02 -0.33582916630E+02  0.17172059384E+02  0.46142320292E+02  0.10000023079E+02 0.  0.
        -12    1    3    3    0    0  0.24625623798E+02  0.33582916630E+02 -0.17172059384E+02  0.45045679708E+02  0.00000000000E+00 0.  1.
         11    1    4    4    0    0 -0.13444624589E+02 -0.13814759191E+02  0.58160490086E+01  0.20135340280E+02  0.51100000000E-03 0.  1.
        -11    1    4    4    0    0 -0.11686889830E+02 -0.18804397032E+02  0.11428988907E+02  0.24916069701E+02  0.51100000000E-03 0. -1.
        -12    1    4    4    0    0  0.50589062036E+00 -0.96376040700E+00 -0.72978531575E-01  0.10909103116E+01  0.00000000000E+00 0.  1.
</event>
<event>
 8    1  0.9117959E-009  0.9118800E+02  0.7816164E-02  0.1184000E+00
        -11   -1    0    0    0    0  0.00000000000E+00  0.00000000000E+00  0.45593999997E+02  0.45594000000E+02  0.51100000000E-03 0.  1.
         11   -1    0    0    0    0 -0.00000000000E+00 -0.00000000000E+00 -0.45593999997E+02  0.45594000000E+02  0.51100000000E-03 0. -1.
         23    2    1    2    0    0  0.00000000000E+00  0.00000000000E+00  0.00000000000E+00  0.91188000000E+02  0.91188000000E+02 0.  0.
    9900012    2    3    3    0    0 -0.38176879352E+02 -0.81241788692E+01 -0.22486375629E+02  0.46142317763E+02  0.10000000013E+02 0.  0.
         12    1    3    3    0    0  0.38176879352E+02  0.81241788692E+01  0.22486375629E+02  0.45045682237E+02  0.00000000000E+00 0. -1.
         11    1    4    4    0    0 -0.23376574255E+02 -0.11157469391E+01 -0.11231009463E+02  0.25958518620E+02  0.51100000000E-03 0.  1.
        -11    1    4    4    0    0 -0.60709279056E+01 -0.34054013688E+01 -0.27827518249E+01  0.74964412955E+01  0.51100000000E-03 0. -1.
        -12    1    4    4    0    0 -0.87293771910E+01 -0.36030305613E+01 -0.84726143408E+01  0.12687357847E+02  0.00000000000E+00 0.  1.
</event>
<event>
 8    1  0.9117959E-009  0.9118800E+02  0.7816164E-02  0.1184000E+00
        -11   -1    0    0    0    0  0.00000000000E+00  0.00000000000E+00  0.45593999997E+02  0.45594000000E+02  0.51100000000E-03 0. -1.
         11   -1    0    0    0    0 -0.00000000000E+00 -0.00000000000E+00 -0.45593999997E+02  0.45594000000E+02  0.51100000000E-03 0.  1.
         23    2    1    2    0    0  0.00000000000E+00  0.00000000000E+00 -0.17763568394E-14  0.91188000000E+02  0.91188000000E+02 0.  0.
    9900012    2    3    3    0    0 -0.25312869862E+02  0.35371063242E+02 -0.11715799609E+02  0.46142318120E+02  0.10000003270E+02 0.  0.
         12    1    3    3    0    0  0.25312869862E+02 -0.35371063242E+02  0.11715799609E+02  0.45045681880E+02  0.00000000000E+00 0. -1.
         11    1    4    4    0    0 -0.21788700392E+01  0.38675436022E+01  0.15092040651E+01  0.46886101708E+01  0.51100000000E-03 0. -1.
        -11    1    4    4    0    0 -0.70663033659E+01  0.67677186933E+01 -0.29611275325E+01  0.10222667758E+02  0.51100000000E-03 0.  1.
         12    1    4    4    0    0 -0.16067696457E+02  0.24735800947E+02 -0.10263876142E+02  0.31231040191E+02  0.00000000000E+00 0. -1.
</event>
<event>
 8    1  0.9117959E-009  0.9118800E+02  0.7816164E-02  0.1184000E+00
        -11   -1    0    0    0    0  0.00000000000E+00  0.00000000000E+00  0.45593999997E+02  0.45594000000E+02  0.51100000000E-03 0. -1.
         11   -1    0    0    0    0 -0.00000000000E+00 -0.00000000000E+00 -0.45593999997E+02  0.45594000000E+02  0.51100000000E-03 0.  1.
         23    2    1    2    0    0  0.00000000000E+00  0.00000000000E+00  0.00000000000E+00  0.91188000000E+02  0.91188000000E+02 0.  0.
    9900012    2    3    3    0    0 -0.39773116359E+02  0.41933709787E+01  0.20727477189E+02  0.46142318124E+02  0.10000003307E+02 0.  0.
        -12    1    3    3    0    0  0.39773116359E+02 -0.41933709787E+01 -0.20727477189E+02  0.45045681876E+02  0.00000000000E+00 0.  1.
         11    1    4    4    0    0 -0.23285592452E+02  0.44556854483E+01  0.13674855484E+02  0.27369209368E+02  0.51100000000E-03 0. -1.
        -11    1    4    4    0    0 -0.15743993198E+02 -0.11128054195E+01  0.76000563983E+01  0.17517777120E+02  0.51100000000E-03 0.  1.
        -12    1    4    4    0    0 -0.74353070905E+00  0.85049094993E+00 -0.54743469360E+00  0.12553316355E+01  0.00000000000E+00 0.  1.
</event>
<event>
 8    1  0.9117959E-009  0.9118800E+02  0.7816164E-02  0.1184000E+00
        -11   -1    0    0    0    0  0.00000000000E+00  0.00000000000E+00  0.45593999997E+02  0.45594000000E+02  0.51100000000E-03 0. -1.
         11   -1    0    0    0    0 -0.00000000000E+00 -0.00000000000E+00 -0.45593999997E+02  0.45594000000E+02  0.51100000000E-03 0.  1.
         23    2    1    2    0    0 -0.71054273576E-14  0.00000000000E+00  0.00000000000E+00  0.91188000000E+02  0.91188000000E+02 0.  0.
    9900012    2    3    3    0    0 -0.36690024022E+02  0.21377859037E+02  0.15031393345E+02  0.46142317570E+02  0.99999982536E+01 0.  0.
        -12    1    3    3    0    0  0.36690024022E+02 -0.21377859037E+02 -0.15031393345E+02  0.45045682430E+02  0.00000000000E+00 0.  1.
         11    1    4    4    0    0 -0.51639542149E+01  0.40940266906E+01  0.15919025129E+01  0.67795008333E+01  0.51100000000E-03 0. -1.
        -11    1    4    4    0    0 -0.25458510619E+02  0.16494543573E+02  0.13595397141E+02  0.33242150266E+02  0.51100000000E-03 0.  1.
        -12    1    4    4    0    0 -0.60675591875E+01  0.78928877337E+00 -0.15590630864E+00  0.61206664701E+01  0.00000000000E+00 0.  1.
</event>
<event>
 8    1  0.9117959E-009  0.9118800E+02  0.7816164E-02  0.1184000E+00
        -11   -1    0    0    0    0  0.00000000000E+00  0.00000000000E+00  0.45593999997E+02  0.45594000000E+02  0.51100000000E-03 0. -1.
         11   -1    0    0    0    0 -0.00000000000E+00 -0.00000000000E+00 -0.45593999997E+02  0.45594000000E+02  0.51100000000E-03 0.  1.
         23    2    1    2    0    0  0.35527136788E-14  0.44408920985E-15  0.00000000000E+00  0.91188000000E+02  0.91188000000E+02 0.  0.
    9900012    2    3    3    0    0  0.21314818441E+02  0.23719145840E+01 -0.39612701464E+02  0.46142316730E+02  0.99999905990E+01 0.  0.
         12    1    3    3    0    0 -0.21314818441E+02 -0.23719145840E+01  0.39612701464E+02  0.45045683270E+02  0.00000000000E+00 0. -1.
         11    1    4    4    0    0  0.22544265198E+01 -0.14302754939E+01 -0.42432711915E+01  0.50133299899E+01  0.51100000000E-03 0. -1.
        -11    1    4    4    0    0  0.73510437768E+01 -0.23688279317E+01 -0.14128000893E+02  0.16101229762E+02  0.51100000000E-03 0.  1.
        -12    1    4    4    0    0  0.11709348145E+02  0.61710180096E+01 -0.21241429380E+02  0.25027756978E+02  0.00000000000E+00 0.  1.
</event>
<event>
 8    1  0.9117959E-009  0.9118800E+02  0.7816164E-02  0.1184000E+00
        -11   -1    0    0    0    0  0.00000000000E+00  0.00000000000E+00  0.45593999997E+02  0.45594000000E+02  0.51100000000E-03 0.  1.
         11   -1    0    0    0    0 -0.00000000000E+00 -0.00000000000E+00 -0.45593999997E+02  0.45594000000E+02  0.51100000000E-03 0. -1.
         23    2    1    2    0    0  0.00000000000E+00  0.00000000000E+00  0.22204460493E-15  0.91188000000E+02  0.91188000000E+02 0.  0.
    9900012    2    3    3    0    0 -0.35387405991E+02 -0.27843429890E+02  0.12603193751E+01  0.46142317679E+02  0.99999992523E+01 0.  0.
         12    1    3    3    0    0  0.35387405991E+02  0.27843429890E+02 -0.12603193751E+01  0.45045682321E+02  0.00000000000E+00 0. -1.
         11    1    4    4    0    0 -0.94176081879E+01 -0.75245350486E+01  0.36593109640E+01  0.12597639806E+02  0.51100000000E-03 0. -1.
        -11    1    4    4    0    0 -0.13792554185E+02 -0.95859683862E+01  0.14607840822E+01  0.16859989064E+02  0.51100000000E-03 0.  1.
        -12    1    4    4    0    0 -0.12177243618E+02 -0.10732926455E+02 -0.38597756711E+01  0.16684688809E+02  0.00000000000E+00 0.  1.
</event>
<event>
 8    1  0.9117959E-009  0.9118800E+02  0.7816164E-02  0.1184000E+00
        -11   -1    0    0    0    0  0.00000000000E+00  0.00000000000E+00  0.45593999997E+02  0.45594000000E+02  0.51100000000E-03 0. -1.
         11   -1    0    0    0    0 -0.00000000000E+00 -0.00000000000E+00 -0.45593999997E+02  0.45594000000E+02  0.51100000000E-03 0.  1.
         23    2    1    2    0    0 -0.44408920985E-15  0.00000000000E+00  0.00000000000E+00  0.91188000000E+02  0.91188000000E+02 0.  0.
    9900012    2    3    3    0    0  0.26965120805E+01 -0.24245996198E+02  0.37867851479E+02  0.46142315582E+02  0.99999801324E+01 0.  0.
        -12    1    3    3    0    0 -0.26965120805E+01  0.24245996198E+02 -0.37867851479E+02  0.45045684418E+02  0.00000000000E+00 0.  1.
         11    1    4    4    0    0 -0.27957530930E+01 -0.95037967886E+01  0.11552835872E+02  0.15218620361E+02  0.51100000000E-03 0. -1.
        -11    1    4    4    0    0 -0.51865883387E-02 -0.15070808644E+01  0.51274040140E+01  0.53443046148E+01  0.51100000000E-03 0.  1.
         12    1    4    4    0    0  0.54974517619E+01 -0.13235118545E+02  0.21187611593E+02  0.25579390607E+02  0.00000000000E+00 0. -1.
</event>
<event>
 8    1  0.9117959E-009  0.9118800E+02  0.7816164E-02  0.1184000E+00
        -11   -1    0    0    0    0  0.00000000000E+00  0.00000000000E+00  0.45593999997E+02  0.45594000000E+02  0.51100000000E-03 0. -1.
         11   -1    0    0    0    0 -0.00000000000E+00 -0.00000000000E+00 -0.45593999997E+02  0.45594000000E+02  0.51100000000E-03 0.  1.
         23    2    1    2    0    0  0.88817841970E-15  0.00000000000E+00  0.71054273576E-14  0.91188000000E+02  0.91188000000E+02 0.  0.
    9900012    2    3    3    0    0 -0.69288655555E+01  0.11105814658E+02 -0.43101800351E+02  0.46142317736E+02  0.99999997735E+01 0.  0.
         12    1    3    3    0    0  0.69288655555E+01 -0.11105814658E+02  0.43101800351E+02  0.45045682264E+02  0.00000000000E+00 0. -1.
         11    1    4    4    0    0 -0.18884165009E+01  0.25289111269E+00 -0.78670057267E+01  0.80944332822E+01  0.51100000000E-03 0. -1.
        -11    1    4    4    0    0  0.18512417212E+01  0.34478075135E+01 -0.13831226291E+02  0.14374188448E+02  0.51100000000E-03 0.  1.
        -12    1    4    4    0    0 -0.68916907758E+01  0.74051160315E+01 -0.21403568333E+02  0.23673696006E+02  0.00000000000E+00 0.  1.
</event>
<event>
 8    1  0.9117959E-009  0.9118800E+02  0.7816164E-02  0.1184000E+00
        -11   -1    0    0    0    0  0.00000000000E+00  0.00000000000E+00  0.45593999997E+02  0.45594000000E+02  0.51100000000E-03 0. -1.
         11   -1    0    0    0    0 -0.00000000000E+00 -0.00000000000E+00 -0.45593999997E+02  0.45594000000E+02  0.51100000000E-03 0.  1.
         23    2    1    2    0    0  0.00000000000E+00  0.00000000000E+00  0.00000000000E+00  0.91188000000E+02  0.91188000000E+02 0.  0.
    9900012    2    3    3    0    0  0.26607045817E+02 -0.32449936997E+02  0.16376209100E+02  0.46142317380E+02  0.99999965214E+01 0.  0.
        -12    1    3    3    0    0 -0.26607045817E+02  0.32449936997E+02 -0.16376209100E+02  0.45045682620E+02  0.00000000000E+00 0.  1.
         11    1    4    4    0    0  0.35982369381E+01 -0.19257582963E+01  0.15297513058E+01  0.43584393304E+01  0.51100000000E-03 0. -1.
        -11    1    4    4    0    0  0.11826407760E+02 -0.10682523029E+02  0.88618606720E+01  0.18234933331E+02  0.51100000000E-03 0.  1.
        -12    1    4    4    0    0  0.11182401119E+02 -0.19841655672E+02  0.59845971220E+01  0.23548944718E+02  0.00000000000E+00 0.  1.
</event>
<event>
 8    1  0.9117959E-009  0.9118800E+02  0.7816164E-02  0.1184000E+00
        -11   -1    0    0    0    0  0.00000000000E+00  0.00000000000E+00  0.45593999997E+02  0.45594000000E+02  0.51100000000E-03 0. -1.
         11   -1    0    0    0    0 -0.00000000000E+00 -0.00000000000E+00 -0.45593999997E+02  0.45594000000E+02  0.51100000000E-03 0.  1.
         23    2    1    2    0    0  0.00000000000E+00 -0.35527136788E-14  0.00000000000E+00  0.91188000000E+02  0.91188000000E+02 0.  0.
    9900012    2    3    3    0    0 -0.34371906538E+01  0.25078611399E+02  0.37260738417E+02  0.46142315893E+02  0.99999829627E+01 0.  0.
        -12    1    3    3    0    0  0.34371906538E+01 -0.25078611399E+02 -0.37260738417E+02  0.45045684107E+02  0.00000000000E+00 0.  1.
         11    1    4    4    0    0 -0.23438692039E+01  0.16591925937E+02  0.26645999736E+02  0.31476896787E+02  0.51100000000E-03 0. -1.
        -11    1    4    4    0    0 -0.81805412757E+00  0.91573086954E+01  0.10456367025E+02  0.13923402124E+02  0.51100000000E-03 0.  1.
         12    1    4    4    0    0 -0.27526732233E+00 -0.67062323296E+00  0.15837165623E+00  0.74201698149E+00  0.00000000000E+00 0. -1.
</event>
<event>
 8    1  0.9117959E-009  0.9118800E+02  0.7816164E-02  0.1184000E+00
        -11   -1    0    0    0    0  0.00000000000E+00  0.00000000000E+00  0.45593999997E+02  0.45594000000E+02  0.51100000000E-03 0. -1.
         11   -1    0    0    0    0 -0.00000000000E+00 -0.00000000000E+00 -0.45593999997E+02  0.45594000000E+02  0.51100000000E-03 0.  1.
         23    2    1    2    0    0  0.00000000000E+00  0.00000000000E+00  0.35527136788E-14  0.91188000000E+02  0.91188000000E+02 0.  0.
    9900012    2    3    3    0    0  0.18435928417E+02  0.32504266637E+02  0.25153581930E+02  0.46142317741E+02  0.99999998199E+01 0.  0.
        -12    1    3    3    0    0 -0.18435928417E+02 -0.32504266637E+02 -0.25153581930E+02  0.45045682259E+02  0.00000000000E+00 0.  1.
         11    1    4    4    0    0  0.87734498841E+01  0.14512078956E+02  0.96594268854E+01  0.19516105824E+02  0.51100000000E-03 0. -1.
        -11    1    4    4    0    0  0.26054231122E+01  0.25770138401E+01  0.84858799502E-02  0.36646012330E+01  0.51100000000E-03 0.  1.
        -12    1    4    4    0    0  0.70570554210E+01  0.15415173841E+02  0.15485669165E+02  0.22961610685E+02  0.00000000000E+00 0.  1.
</event>
<event>
 8    1  0.9117959E-009  0.9118800E+02  0.7816164E-02  0.1184000E+00
        -11   -1    0    0    0    0  0.00000000000E+00  0.00000000000E+00  0.45593999997E+02  0.45594000000E+02  0.51100000000E-03 0. -1.
         11   -1    0    0    0    0 -0.00000000000E+00 -0.00000000000E+00 -0.45593999997E+02  0.45594000000E+02  0.51100000000E-03 0.  1.
         23    2    1    2    0    0  0.00000000000E+00  0.17763568394E-14 -0.71054273576E-14  0.91188000000E+02  0.91188000000E+02 0.  0.
    9900012    2    3    3    0    0  0.20971376664E+02 -0.10238530617E+02  0.38529044879E+02  0.46142318213E+02  0.10000004118E+02 0.  0.
        -12    1    3    3    0    0 -0.20971376664E+02  0.10238530617E+02 -0.38529044879E+02  0.45045681787E+02  0.00000000000E+00 0.  1.
         11    1    4    4    0    0  0.18066488091E+01 -0.20033042868E+01  0.10565140132E+01  0.28971417132E+01  0.51100000000E-03 0. -1.
        -11    1    4    4    0    0  0.64233391837E+01 -0.23261344992E+00  0.92745068546E+01  0.11284053923E+02  0.51100000000E-03 0.  1.
        -12    1    4    4    0    0  0.12741388671E+02 -0.80026128801E+01  0.28198024012E+02  0.31961122576E+02  0.00000000000E+00 0.  1.
</event>
<event>
 8    1  0.9117959E-009  0.9118800E+02  0.7816164E-02  0.1184000E+00
        -11   -1    0    0    0    0  0.00000000000E+00  0.00000000000E+00  0.45593999997E+02  0.45594000000E+02  0.51100000000E-03 0. -1.
         11   -1    0    0    0    0 -0.00000000000E+00 -0.00000000000E+00 -0.45593999997E+02  0.45594000000E+02  0.51100000000E-03 0.  1.
         23    2    1    2    0    0  0.00000000000E+00  0.17763568394E-14  0.00000000000E+00  0.91188000000E+02  0.91188000000E+02 0.  0.
    9900012    2    3    3    0    0 -0.16605009467E+02  0.14572031070E+02  0.39256122179E+02  0.46142316994E+02  0.99999930083E+01 0.  0.
        -12    1    3    3    0    0  0.16605009467E+02 -0.14572031070E+02 -0.39256122179E+02  0.45045683006E+02  0.00000000000E+00 0.  1.
         11    1    4    4    0    0 -0.11450291270E+02  0.91425266015E+01  0.18578097388E+02  0.23660952340E+02  0.51100000000E-03 0. -1.
        -11    1    4    4    0    0 -0.50834624680E+01  0.28240380745E+01  0.17047923393E+02  0.18012453303E+02  0.51100000000E-03 0.  1.
         12    1    4    4    0    0 -0.71255729465E-01  0.26054663936E+01  0.36301013983E+01  0.44689113517E+01  0.00000000000E+00 0. -1.
</event>
<event>
 8    1  0.9117959E-009  0.9118800E+02  0.7816164E-02  0.1184000E+00
        -11   -1    0    0    0    0  0.00000000000E+00  0.00000000000E+00  0.45593999997E+02  0.45594000000E+02  0.51100000000E-03 0.  1.
         11   -1    0    0    0    0 -0.00000000000E+00 -0.00000000000E+00 -0.45593999997E+02  0.45594000000E+02  0.51100000000E-03 0. -1.
         23    2    1    2    0    0  0.71054273576E-14  0.00000000000E+00 -0.17763568394E-14  0.91188000000E+02  0.91188000000E+02 0.  0.
    9900012    2    3    3    0    0 -0.40355584388E+02 -0.17600559237E+02  0.95268352812E+01  0.46142317995E+02  0.10000002136E+02 0.  0.
        -12    1    3    3    0    0  0.40355584388E+02  0.17600559237E+02 -0.95268352812E+01  0.45045682005E+02  0.00000000000E+00 0.  1.
         11    1    4    4    0    0 -0.22215443010E+00 -0.12269623452E+01  0.10248680883E+01  0.16140458627E+01  0.51100000000E-03 0. -1.
        -11    1    4    4    0    0 -0.15719387887E+02 -0.71087128551E+01  0.66556041255E+00  0.17264875468E+02  0.51100000000E-03 0.  1.
         12    1    4    4    0    0 -0.24414042071E+02 -0.92648840370E+01  0.78364067803E+01  0.27263396664E+02  0.00000000000E+00 0. -1.
</event>
<event>
 8    1  0.9117959E-009  0.9118800E+02  0.7816164E-02  0.1184000E+00
        -11   -1    0    0    0    0  0.00000000000E+00  0.00000000000E+00  0.45593999997E+02  0.45594000000E+02  0.51100000000E-03 0. -1.
         11   -1    0    0    0    0 -0.00000000000E+00 -0.00000000000E+00 -0.45593999997E+02  0.45594000000E+02  0.51100000000E-03 0.  1.
         23    2    1    2    0    0  0.00000000000E+00  0.00000000000E+00  0.14210854715E-13  0.91188000000E+02  0.91188000000E+02 0.  0.
    9900012    2    3    3    0    0 -0.17914388421E+02 -0.69783310679E+01  0.40736851420E+02  0.46142317847E+02  0.10000000782E+02 0.  0.
        -12    1    3    3    0    0  0.17914388421E+02  0.69783310679E+01 -0.40736851420E+02  0.45045682153E+02  0.00000000000E+00 0.  1.
         11    1    4    4    0    0 -0.57572934816E+01 -0.30660772729E-01  0.86351141693E+01  0.10378466423E+02  0.51100000000E-03 0. -1.
        -11    1    4    4    0    0 -0.31973816391E+01  0.12115321808E+00  0.14029840324E+02  0.14390078083E+02  0.51100000000E-03 0.  1.
         12    1    4    4    0    0 -0.89597133007E+01 -0.70688235133E+01  0.18071896927E+02  0.21373773341E+02  0.00000000000E+00 0. -1.
</event>
<event>
 8    1  0.9117959E-009  0.9118800E+02  0.7816164E-02  0.1184000E+00
        -11   -1    0    0    0    0  0.00000000000E+00  0.00000000000E+00  0.45593999997E+02  0.45594000000E+02  0.51100000000E-03 0. -1.
         11   -1    0    0    0    0 -0.00000000000E+00 -0.00000000000E+00 -0.45593999997E+02  0.45594000000E+02  0.51100000000E-03 0.  1.
         23    2    1    2    0    0  0.00000000000E+00  0.00000000000E+00  0.00000000000E+00  0.91188000000E+02  0.91188000000E+02 0.  0.
    9900012    2    3    3    0    0  0.61540409999E+01 -0.44795787333E+01 -0.44397911968E+02  0.46142318372E+02  0.10000005568E+02 0.  0.
         12    1    3    3    0    0 -0.61540409999E+01  0.44795787333E+01  0.44397911968E+02  0.45045681628E+02  0.00000000000E+00 0. -1.
         11    1    4    4    0    0 -0.14589974971E+01  0.14429403229E+01 -0.12728930349E+02  0.12893270282E+02  0.51100000000E-03 0. -1.
        -11    1    4    4    0    0  0.28557142619E+01 -0.13131255639E+01 -0.64568479117E+01  0.71812455680E+01  0.51100000000E-03 0.  1.
        -12    1    4    4    0    0  0.47573242351E+01 -0.46093934923E+01 -0.25212133707E+02  0.26067802522E+02  0.00000000000E+00 0.  1.
</event>
<event>
 8    1  0.9117959E-009  0.9118800E+02  0.7816164E-02  0.1184000E+00
        -11   -1    0    0    0    0  0.00000000000E+00  0.00000000000E+00  0.45593999997E+02  0.45594000000E+02  0.51100000000E-03 0. -1.
         11   -1    0    0    0    0 -0.00000000000E+00 -0.00000000000E+00 -0.45593999997E+02  0.45594000000E+02  0.51100000000E-03 0.  1.
         23    2    1    2    0    0 -0.17763568394E-14  0.00000000000E+00  0.00000000000E+00  0.91188000000E+02  0.91188000000E+02 0.  0.
    9900012    2    3    3    0    0  0.10021387429E+02 -0.36376266816E+02  0.24605943551E+02  0.46142318170E+02  0.10000003730E+02 0.  0.
        -12    1    3    3    0    0 -0.10021387429E+02  0.36376266816E+02 -0.24605943551E+02  0.45045681830E+02  0.00000000000E+00 0.  1.
         11    1    4    4    0    0  0.35032242261E+01 -0.15902649274E+02  0.13672832433E+02  0.21262953250E+02  0.51100000000E-03 0. -1.
        -11    1    4    4    0    0  0.24339658694E+01 -0.13404987520E+01  0.15440884313E+01  0.31788891302E+01  0.51100000000E-03 0.  1.
        -12    1    4    4    0    0  0.40841973334E+01 -0.19133118790E+02  0.93890226873E+01  0.21700475790E+02  0.00000000000E+00 0.  1.
</event>
<event>
 8    1  0.9117959E-009  0.9118800E+02  0.7816164E-02  0.1184000E+00
        -11   -1    0    0    0    0  0.00000000000E+00  0.00000000000E+00  0.45593999997E+02  0.45594000000E+02  0.51100000000E-03 0. -1.
         11   -1    0    0    0    0 -0.00000000000E+00 -0.00000000000E+00 -0.45593999997E+02  0.45594000000E+02  0.51100000000E-03 0.  1.
         23    2    1    2    0    0  0.00000000000E+00  0.00000000000E+00  0.00000000000E+00  0.91188000000E+02  0.91188000000E+02 0.  0.
    9900012    2    3    3    0    0 -0.61623794310E+01 -0.81711170739E+01  0.43867657443E+02  0.46142318253E+02  0.10000004486E+02 0.  0.
        -12    1    3    3    0    0  0.61623794310E+01  0.81711170739E+01 -0.43867657443E+02  0.45045681747E+02  0.00000000000E+00 0.  1.
         11    1    4    4    0    0 -0.22547325338E+01 -0.68537612566E+01  0.29227685484E+02  0.30105073678E+02  0.51100000000E-03 0. -1.
        -11    1    4    4    0    0 -0.44066344908E+01 -0.21289386063E+01  0.14136546980E+02  0.14959704806E+02  0.51100000000E-03 0.  1.
         12    1    4    4    0    0  0.49898759364E+00  0.81158278910E+00  0.50342497940E+00  0.10775397682E+01  0.00000000000E+00 0. -1.
</event>
<event>
 8    1  0.9117959E-009  0.9118800E+02  0.7816164E-02  0.1184000E+00
        -11   -1    0    0    0    0  0.00000000000E+00  0.00000000000E+00  0.45593999997E+02  0.45594000000E+02  0.51100000000E-03 0. -1.
         11   -1    0    0    0    0 -0.00000000000E+00 -0.00000000000E+00 -0.45593999997E+02  0.45594000000E+02  0.51100000000E-03 0.  1.
         23    2    1    2    0    0  0.00000000000E+00  0.00000000000E+00  0.71054273576E-14  0.91188000000E+02  0.91188000000E+02 0.  0.
    9900012    2    3    3    0    0 -0.15313368257E+02  0.31371443667E+01 -0.42246569932E+02  0.46142316598E+02  0.99999893893E+01 0.  0.
         12    1    3    3    0    0  0.15313368257E+02 -0.31371443667E+01  0.42246569932E+02  0.45045683402E+02  0.00000000000E+00 0. -1.
         11    1    4    4    0    0 -0.51676043556E+01 -0.10284837417E+01 -0.90394234833E+01  0.10462938916E+02  0.51100000000E-03 0. -1.
        -11    1    4    4    0    0 -0.10093449510E+02  0.24420261082E+01 -0.21851844618E+02  0.24193890303E+02  0.51100000000E-03 0.  1.
        -12    1    4    4    0    0 -0.52314391124E-01  0.17236020002E+01 -0.11355301832E+02  0.11485487379E+02  0.00000000000E+00 0.  1.
</event>
<event>
 8    1  0.9117959E-009  0.9118800E+02  0.7816164E-02  0.1184000E+00
        -11   -1    0    0    0    0  0.00000000000E+00  0.00000000000E+00  0.45593999997E+02  0.45594000000E+02  0.51100000000E-03 0. -1.
         11   -1    0    0    0    0 -0.00000000000E+00 -0.00000000000E+00 -0.45593999997E+02  0.45594000000E+02  0.51100000000E-03 0.  1.
         23    2    1    2    0    0 -0.88817841970E-15  0.88817841970E-15  0.00000000000E+00  0.91188000000E+02  0.91188000000E+02 0.  0.
    9900012    2    3    3    0    0  0.65067407792E+01 -0.42125700023E+01 -0.44373753809E+02  0.46142318202E+02  0.10000004020E+02 0.  0.
         12    1    3    3    0    0 -0.65067407792E+01  0.42125700023E+01  0.44373753809E+02  0.45045681798E+02  0.00000000000E+00 0. -1.
         11    1    4    4    0    0  0.22870165019E+01  0.13149838379E+01 -0.14985579014E+02  0.15216018061E+02  0.51100000000E-03 0. -1.
        -11    1    4    4    0    0 -0.69604506318E+00  0.81310681967E+00 -0.82079638529E+01  0.82774568741E+01  0.51100000000E-03 0.  1.
         12    1    4    4    0    0  0.49157693405E+01 -0.63406606599E+01 -0.21180210941E+02  0.22648843267E+02  0.00000000000E+00 0. -1.
</event>
<event>
 8    1  0.9117959E-009  0.9118800E+02  0.7816164E-02  0.1184000E+00
        -11   -1    0    0    0    0  0.00000000000E+00  0.00000000000E+00  0.45593999997E+02  0.45594000000E+02  0.51100000000E-03 0.  1.
         11   -1    0    0    0    0 -0.00000000000E+00 -0.00000000000E+00 -0.45593999997E+02  0.45594000000E+02  0.51100000000E-03 0. -1.
         23    2    1    2    0    0 -0.71054273576E-14  0.17763568394E-14 -0.35527136788E-14  0.91188000000E+02  0.91188000000E+02 0.  0.
    9900012    2    3    3    0    0  0.38016160212E+02  0.11429425247E+02 -0.21289747235E+02  0.46142317231E+02  0.99999951705E+01 0.  0.
         12    1    3    3    0    0 -0.38016160212E+02 -0.11429425247E+02  0.21289747235E+02  0.45045682769E+02  0.00000000000E+00 0. -1.
         11    1    4    4    0    0  0.13129661797E+01 -0.97067503528E+00 -0.57007763943E+00  0.17294736163E+01  0.51100000000E-03 0. -1.
        -11    1    4    4    0    0  0.96103045672E+01  0.46258116877E+01 -0.28518116093E+01  0.11040331397E+02  0.51100000000E-03 0.  1.
         12    1    4    4    0    0  0.27092889465E+02  0.77742885950E+01 -0.17867857986E+02  0.33372512218E+02  0.00000000000E+00 0. -1.
</event>
<event>
 8    1  0.9117959E-009  0.9118800E+02  0.7816164E-02  0.1184000E+00
        -11   -1    0    0    0    0  0.00000000000E+00  0.00000000000E+00  0.45593999997E+02  0.45594000000E+02  0.51100000000E-03 0. -1.
         11   -1    0    0    0    0 -0.00000000000E+00 -0.00000000000E+00 -0.45593999997E+02  0.45594000000E+02  0.51100000000E-03 0.  1.
         23    2    1    2    0    0  0.00000000000E+00  0.00000000000E+00  0.00000000000E+00  0.91188000000E+02  0.91188000000E+02 0.  0.
    9900012    2    3    3    0    0 -0.26415559961E+02 -0.22953339726E+02  0.28363281045E+02  0.46142319583E+02  0.10000016612E+02 0.  0.
        -12    1    3    3    0    0  0.26415559961E+02  0.22953339726E+02 -0.28363281045E+02  0.45045680417E+02  0.00000000000E+00 0.  1.
         11    1    4    4    0    0 -0.94010350575E+01 -0.42858411031E+01  0.12365778924E+02  0.16113980972E+02  0.51100000000E-03 0. -1.
        -11    1    4    4    0    0 -0.35870523546E+01 -0.50466949985E+01  0.28312860040E+01  0.68082490921E+01  0.51100000000E-03 0.  1.
         12    1    4    4    0    0 -0.13427472549E+02 -0.13620803624E+02  0.13166216117E+02  0.23220089519E+02  0.00000000000E+00 0. -1.
</event>
<event>
 8    1  0.9117959E-009  0.9118800E+02  0.7816164E-02  0.1184000E+00
        -11   -1    0    0    0    0  0.00000000000E+00  0.00000000000E+00  0.45593999997E+02  0.45594000000E+02  0.51100000000E-03 0.  1.
         11   -1    0    0    0    0 -0.00000000000E+00 -0.00000000000E+00 -0.45593999997E+02  0.45594000000E+02  0.51100000000E-03 0. -1.
         23    2    1    2    0    0  0.00000000000E+00  0.00000000000E+00  0.71054273576E-14  0.91188000000E+02  0.91188000000E+02 0.  0.
    9900012    2    3    3    0    0  0.27988769891E+02 -0.61620654669E+01  0.34753002665E+02  0.46142317798E+02  0.10000000334E+02 0.  0.
        -12    1    3    3    0    0 -0.27988769891E+02  0.61620654669E+01 -0.34753002665E+02  0.45045682202E+02  0.00000000000E+00 0.  1.
         11    1    4    4    0    0  0.13690204345E+02 -0.38494899617E+01  0.13343446796E+02  0.19500970248E+02  0.51100000000E-03 0. -1.
        -11    1    4    4    0    0  0.15507491695E+01  0.15787221168E+01  0.14678936968E+01  0.26555411265E+01  0.51100000000E-03 0.  1.
         12    1    4    4    0    0  0.12747816377E+02 -0.38912976220E+01  0.19941662173E+02  0.23985806423E+02  0.00000000000E+00 0. -1.
</event>
<event>
 8    1  0.9117959E-009  0.9118800E+02  0.7816164E-02  0.1184000E+00
        -11   -1    0    0    0    0  0.00000000000E+00  0.00000000000E+00  0.45593999997E+02  0.45594000000E+02  0.51100000000E-03 0. -1.
         11   -1    0    0    0    0 -0.00000000000E+00 -0.00000000000E+00 -0.45593999997E+02  0.45594000000E+02  0.51100000000E-03 0.  1.
         23    2    1    2    0    0  0.00000000000E+00  0.00000000000E+00  0.35527136788E-14  0.91188000000E+02  0.91188000000E+02 0.  0.
    9900012    2    3    3    0    0 -0.18363130596E+02  0.32504123483E+02 -0.25206968458E+02  0.46142313552E+02  0.99999616203E+01 0.  0.
         12    1    3    3    0    0  0.18363130596E+02 -0.32504123483E+02  0.25206968458E+02  0.45045686448E+02  0.00000000000E+00 0. -1.
         11    1    4    4    0    0 -0.31236547548E+00  0.65086074642E+01 -0.64332891579E+01  0.91567872621E+01  0.51100000000E-03 0. -1.
        -11    1    4    4    0    0 -0.62043488572E+01  0.10953480115E+02 -0.91032000826E+01  0.15535151218E+02  0.51100000000E-03 0.  1.
         12    1    4    4    0    0 -0.11846416263E+02  0.15042035905E+02 -0.96704792174E+01  0.21450375072E+02  0.00000000000E+00 0. -1.
</event>
<event>
 8    1  0.9117959E-009  0.9118800E+02  0.7816164E-02  0.1184000E+00
        -11   -1    0    0    0    0  0.00000000000E+00  0.00000000000E+00  0.45593999997E+02  0.45594000000E+02  0.51100000000E-03 0. -1.
         11   -1    0    0    0    0 -0.00000000000E+00 -0.00000000000E+00 -0.45593999997E+02  0.45594000000E+02  0.51100000000E-03 0.  1.
         23    2    1    2    0    0  0.17763568394E-14  0.00000000000E+00  0.00000000000E+00  0.91188000000E+02  0.91188000000E+02 0.  0.
    9900012    2    3    3    0    0 -0.11565516761E+02 -0.22423552443E+02 -0.37316703995E+02  0.46142320083E+02  0.10000021177E+02 0.  0.
         12    1    3    3    0    0  0.11565516761E+02  0.22423552443E+02  0.37316703995E+02  0.45045679917E+02  0.00000000000E+00 0. -1.
         11    1    4    4    0    0 -0.26343559538E+01 -0.10859513425E+02 -0.13729893113E+02  0.17702509096E+02  0.51100000000E-03 0. -1.
        -11    1    4    4    0    0 -0.14955552009E+01 -0.64149925333E+01 -0.74760029632E+01  0.99639066198E+01  0.51100000000E-03 0.  1.
        -12    1    4    4    0    0 -0.74356056061E+01 -0.51490464846E+01 -0.16110807918E+02  0.18475904368E+02  0.00000000000E+00 0.  1.
</event>
<event>
 8    1  0.9117959E-009  0.9118800E+02  0.7816164E-02  0.1184000E+00
        -11   -1    0    0    0    0  0.00000000000E+00  0.00000000000E+00  0.45593999997E+02  0.45594000000E+02  0.51100000000E-03 0. -1.
         11   -1    0    0    0    0 -0.00000000000E+00 -0.00000000000E+00 -0.45593999997E+02  0.45594000000E+02  0.51100000000E-03 0.  1.
         23    2    1    2    0    0  0.00000000000E+00 -0.71054273576E-14  0.00000000000E+00  0.91188000000E+02  0.91188000000E+02 0.  0.
    9900012    2    3    3    0    0  0.95468615377E+01 -0.42678743876E+02  0.10793317354E+02  0.46142318258E+02  0.10000004532E+02 0.  0.
        -12    1    3    3    0    0 -0.95468615377E+01  0.42678743876E+02 -0.10793317354E+02  0.45045681742E+02  0.00000000000E+00 0.  1.
         11    1    4    4    0    0  0.51539873420E+01 -0.23902115094E+02  0.44651543588E+01  0.24855830205E+02  0.51100000000E-03 0. -1.
        -11    1    4    4    0    0  0.49682751390E+00 -0.91858025624E+00 -0.11359773116E+01  0.15430722534E+01  0.51100000000E-03 0.  1.
         12    1    4    4    0    0  0.38960466818E+01 -0.17858048526E+02  0.74641403068E+01  0.19743415799E+02  0.00000000000E+00 0. -1.
</event>
<event>
 8    1  0.9117959E-009  0.9118800E+02  0.7816164E-02  0.1184000E+00
        -11   -1    0    0    0    0  0.00000000000E+00  0.00000000000E+00  0.45593999997E+02  0.45594000000E+02  0.51100000000E-03 0.  1.
         11   -1    0    0    0    0 -0.00000000000E+00 -0.00000000000E+00 -0.45593999997E+02  0.45594000000E+02  0.51100000000E-03 0. -1.
         23    2    1    2    0    0  0.00000000000E+00  0.88817841970E-15  0.00000000000E+00  0.91188000000E+02  0.91188000000E+02 0.  0.
    9900012    2    3    3    0    0  0.33205354988E+02 -0.58861814847E+01 -0.29864207014E+02  0.46142316601E+02  0.99999894188E+01 0.  0.
         12    1    3    3    0    0 -0.33205354988E+02  0.58861814847E+01  0.29864207014E+02  0.45045683399E+02  0.00000000000E+00 0. -1.
         11    1    4    4    0    0  0.81872167873E+01 -0.44630134014E+01 -0.44078030626E+01  0.10313958282E+02  0.51100000000E-03 0. -1.
        -11    1    4    4    0    0  0.48410916443E+01  0.78888659730E+00 -0.53403753182E+01  0.72510771043E+01  0.51100000000E-03 0.  1.
        -12    1    4    4    0    0  0.20177046556E+02 -0.22120546806E+01 -0.20116028633E+02  0.28577281214E+02  0.00000000000E+00 0.  1.
</event>
<event>
 8    1  0.9117959E-009  0.9118800E+02  0.7816164E-02  0.1184000E+00
        -11   -1    0    0    0    0  0.00000000000E+00  0.00000000000E+00  0.45593999997E+02  0.45594000000E+02  0.51100000000E-03 0. -1.
         11   -1    0    0    0    0 -0.00000000000E+00 -0.00000000000E+00 -0.45593999997E+02  0.45594000000E+02  0.51100000000E-03 0.  1.
         23    2    1    2    0    0 -0.17763568394E-14  0.00000000000E+00  0.00000000000E+00  0.91188000000E+02  0.91188000000E+02 0.  0.
    9900012    2    3    3    0    0  0.89175475328E+01 -0.59010388760E+01  0.43758070816E+02  0.46142315686E+02  0.99999810738E+01 0.  0.
        -12    1    3    3    0    0 -0.89175475328E+01  0.59010388760E+01 -0.43758070816E+02  0.45045684314E+02  0.00000000000E+00 0.  1.
         11    1    4    4    0    0  0.23395669197E+01 -0.23128670208E+01  0.24364501243E+02  0.24585602460E+02  0.51100000000E-03 0. -1.
        -11    1    4    4    0    0  0.12366634201E+01  0.14996432351E+00  0.10258405900E+02  0.10333765895E+02  0.51100000000E-03 0.  1.
         12    1    4    4    0    0  0.53413171931E+01 -0.37381361786E+01  0.91351636731E+01  0.11222947330E+02  0.00000000000E+00 0. -1.
</event>
<event>
 8    1  0.9117959E-009  0.9118800E+02  0.7816164E-02  0.1184000E+00
        -11   -1    0    0    0    0  0.00000000000E+00  0.00000000000E+00  0.45593999997E+02  0.45594000000E+02  0.51100000000E-03 0. -1.
         11   -1    0    0    0    0 -0.00000000000E+00 -0.00000000000E+00 -0.45593999997E+02  0.45594000000E+02  0.51100000000E-03 0.  1.
         23    2    1    2    0    0  0.00000000000E+00  0.00000000000E+00  0.35527136788E-14  0.91188000000E+02  0.91188000000E+02 0.  0.
    9900012    2    3    3    0    0  0.36040154700E+02 -0.10811528935E+02  0.24765533229E+02  0.46142317134E+02  0.99999942800E+01 0.  0.
        -12    1    3    3    0    0 -0.36040154700E+02  0.10811528935E+02 -0.24765533229E+02  0.45045682866E+02  0.00000000000E+00 0.  1.
         11    1    4    4    0    0  0.14061295288E+02 -0.46074664624E+01  0.46447207322E+01  0.15508778267E+02  0.51100000000E-03 0. -1.
        -11    1    4    4    0    0  0.61327651899E+01 -0.31400187170E+01  0.71323969121E+01  0.99167339578E+01  0.51100000000E-03 0.  1.
        -12    1    4    4    0    0  0.15846094222E+02 -0.30640437558E+01  0.12988415585E+02  0.20716804909E+02  0.00000000000E+00 0.  1.
</event>
<event>
 8    1  0.9117959E-009  0.9118800E+02  0.7816164E-02  0.1184000E+00
        -11   -1    0    0    0    0  0.00000000000E+00  0.00000000000E+00  0.45593999997E+02  0.45594000000E+02  0.51100000000E-03 0. -1.
         11   -1    0    0    0    0 -0.00000000000E+00 -0.00000000000E+00 -0.45593999997E+02  0.45594000000E+02  0.51100000000E-03 0.  1.
         23    2    1    2    0    0  0.00000000000E+00  0.00000000000E+00  0.35527136788E-14  0.91188000000E+02  0.91188000000E+02 0.  0.
    9900012    2    3    3    0    0 -0.23422953015E+02 -0.25250342333E+02  0.29032725588E+02  0.46142315735E+02  0.99999815205E+01 0.  0.
        -12    1    3    3    0    0  0.23422953015E+02  0.25250342333E+02 -0.29032725588E+02  0.45045684265E+02  0.00000000000E+00 0.  1.
         11    1    4    4    0    0 -0.22354479314E+02 -0.21326007184E+02  0.27329119077E+02  0.41248055440E+02  0.51100000000E-03 0. -1.
        -11    1    4    4    0    0  0.20796978959E+00 -0.10101266799E+00  0.70456164169E+00  0.74152704640E+00  0.51100000000E-03 0.  1.
         12    1    4    4    0    0 -0.12764434902E+01 -0.38233224813E+01  0.99904486985E+00  0.41527332484E+01  0.00000000000E+00 0. -1.
</event>
<event>
 8    1  0.9117959E-009  0.9118800E+02  0.7816164E-02  0.1184000E+00
        -11   -1    0    0    0    0  0.00000000000E+00  0.00000000000E+00  0.45593999997E+02  0.45594000000E+02  0.51100000000E-03 0. -1.
         11   -1    0    0    0    0 -0.00000000000E+00 -0.00000000000E+00 -0.45593999997E+02  0.45594000000E+02  0.51100000000E-03 0.  1.
         23    2    1    2    0    0  0.22204460493E-15  0.00000000000E+00  0.00000000000E+00  0.91188000000E+02  0.91188000000E+02 0.  0.
    9900012    2    3    3    0    0 -0.98877665194E+00 -0.29620043642E+02 -0.33923278258E+02  0.46142317938E+02  0.10000001617E+02 0.  0.
         12    1    3    3    0    0  0.98877665194E+00  0.29620043642E+02  0.33923278258E+02  0.45045682062E+02  0.00000000000E+00 0. -1.
         11    1    4    4    0    0  0.94742378267E+00 -0.12615490496E+01 -0.33087908143E+01  0.36656806656E+01  0.51100000000E-03 0. -1.
        -11    1    4    4    0    0 -0.20592168200E+00 -0.17054774387E+02 -0.23397647193E+02  0.28954406013E+02  0.51100000000E-03 0.  1.
        -12    1    4    4    0    0 -0.17302787526E+01 -0.11303720206E+02 -0.72168402509E+01  0.13522231260E+02  0.00000000000E+00 0.  1.
</event>
<event>
 8    1  0.9117959E-009  0.9118800E+02  0.7816164E-02  0.1184000E+00
        -11   -1    0    0    0    0  0.00000000000E+00  0.00000000000E+00  0.45593999997E+02  0.45594000000E+02  0.51100000000E-03 0. -1.
         11   -1    0    0    0    0 -0.00000000000E+00 -0.00000000000E+00 -0.45593999997E+02  0.45594000000E+02  0.51100000000E-03 0.  1.
         23    2    1    2    0    0  0.00000000000E+00  0.71054273576E-14  0.17763568394E-14  0.91188000000E+02  0.91188000000E+02 0.  0.
    9900012    2    3    3    0    0 -0.25441358946E+02 -0.35026544876E+02 -0.12449574484E+02  0.46142317679E+02  0.99999992506E+01 0.  0.
         12    1    3    3    0    0  0.25441358946E+02  0.35026544876E+02  0.12449574484E+02  0.45045682321E+02  0.00000000000E+00 0. -1.
         11    1    4    4    0    0 -0.13261508924E+01 -0.44495396590E+01 -0.10363572651E+01  0.47572172547E+01  0.51100000000E-03 0. -1.
        -11    1    4    4    0    0 -0.19347978818E+02 -0.22893419775E+02 -0.52204133245E+01  0.30425411564E+02  0.51100000000E-03 0.  1.
        -12    1    4    4    0    0 -0.47672292350E+01 -0.76835854423E+01 -0.61928038947E+01  0.10959688860E+02  0.00000000000E+00 0.  1.
</event>
<event>
 8    1  0.9117959E-009  0.9118800E+02  0.7816164E-02  0.1184000E+00
        -11   -1    0    0    0    0  0.00000000000E+00  0.00000000000E+00  0.45593999997E+02  0.45594000000E+02  0.51100000000E-03 0. -1.
         11   -1    0    0    0    0 -0.00000000000E+00 -0.00000000000E+00 -0.45593999997E+02  0.45594000000E+02  0.51100000000E-03 0.  1.
         23    2    1    2    0    0  0.17763568394E-14  0.00000000000E+00 -0.71054273576E-14  0.91188000000E+02  0.91188000000E+02 0.  0.
    9900012    2    3    3    0    0  0.11559038876E+02  0.88760144200E+00 -0.43528314425E+02  0.46142319044E+02  0.10000011701E+02 0.  0.
         12    1    3    3    0    0 -0.11559038876E+02 -0.88760144200E+00  0.43528314425E+02  0.45045680956E+02  0.00000000000E+00 0. -1.
         11    1    4    4    0    0  0.11504542511E+01  0.23355163755E+01 -0.77112037712E+01  0.81388479274E+01  0.51100000000E-03 0. -1.
        -11    1    4    4    0    0  0.20749012848E+01  0.24068026460E+01 -0.58007137696E+01  0.66140906265E+01  0.51100000000E-03 0.  1.
        -12    1    4    4    0    0  0.83336833402E+01 -0.38547175794E+01 -0.30016396885E+02  0.31389380490E+02  0.00000000000E+00 0.  1.
</event>
<event>
 8    1  0.9117959E-009  0.9118800E+02  0.7816164E-02  0.1184000E+00
        -11   -1    0    0    0    0  0.00000000000E+00  0.00000000000E+00  0.45593999997E+02  0.45594000000E+02  0.51100000000E-03 0. -1.
         11   -1    0    0    0    0 -0.00000000000E+00 -0.00000000000E+00 -0.45593999997E+02  0.45594000000E+02  0.51100000000E-03 0.  1.
         23    2    1    2    0    0 -0.17763568394E-14  0.00000000000E+00  0.71054273576E-14  0.91188000000E+02  0.91188000000E+02 0.  0.
    9900012    2    3    3    0    0 -0.89041962084E+01 -0.17079166933E+02 -0.40720152497E+02  0.46142317936E+02  0.10000001596E+02 0.  0.
         12    1    3    3    0    0  0.89041962084E+01  0.17079166933E+02  0.40720152497E+02  0.45045682064E+02  0.00000000000E+00 0. -1.
         11    1    4    4    0    0 -0.40407955141E+00 -0.34016960144E+01 -0.26813932070E+01  0.43502512399E+01  0.51100000000E-03 0. -1.
        -11    1    4    4    0    0 -0.42704485289E+01 -0.11841352840E+02 -0.29824093660E+02  0.32371761315E+02  0.51100000000E-03 0.  1.
         12    1    4    4    0    0 -0.42296681281E+01 -0.18361180784E+01 -0.82146656295E+01  0.94203053813E+01  0.00000000000E+00 0. -1.
</event>
<event>
 8    1  0.9117959E-009  0.9118800E+02  0.7816164E-02  0.1184000E+00
        -11   -1    0    0    0    0  0.00000000000E+00  0.00000000000E+00  0.45593999997E+02  0.45594000000E+02  0.51100000000E-03 0. -1.
         11   -1    0    0    0    0 -0.00000000000E+00 -0.00000000000E+00 -0.45593999997E+02  0.45594000000E+02  0.51100000000E-03 0.  1.
         23    2    1    2    0    0  0.00000000000E+00  0.17763568394E-14 -0.17763568394E-14  0.91188000000E+02  0.91188000000E+02 0.  0.
    9900012    2    3    3    0    0  0.41386405901E+02  0.89878494609E+01  0.15345927566E+02  0.46142317364E+02  0.99999963747E+01 0.  0.
        -12    1    3    3    0    0 -0.41386405901E+02 -0.89878494609E+01 -0.15345927566E+02  0.45045682636E+02  0.00000000000E+00 0.  1.
         11    1    4    4    0    0  0.34814512668E+02  0.91630021093E+01  0.13096007651E+02  0.38308175585E+02  0.51100000000E-03 0. -1.
        -11    1    4    4    0    0  0.33554382600E+01 -0.24558399679E+00  0.30255542418E+01  0.45247382407E+01  0.51100000000E-03 0.  1.
         12    1    4    4    0    0  0.32164549731E+01  0.70431348373E-01 -0.77563432739E+00  0.33094035382E+01  0.00000000000E+00 0. -1.
</event>
<event>
 8    1  0.9117959E-009  0.9118800E+02  0.7816164E-02  0.1184000E+00
        -11   -1    0    0    0    0  0.00000000000E+00  0.00000000000E+00  0.45593999997E+02  0.45594000000E+02  0.51100000000E-03 0. -1.
         11   -1    0    0    0    0 -0.00000000000E+00 -0.00000000000E+00 -0.45593999997E+02  0.45594000000E+02  0.51100000000E-03 0.  1.
         23    2    1    2    0    0 -0.35527136788E-14  0.00000000000E+00  0.71054273576E-14  0.91188000000E+02  0.91188000000E+02 0.  0.
    9900012    2    3    3    0    0  0.17320073672E+02  0.64252433833E+01 -0.41083387935E+02  0.46142317979E+02  0.10000001986E+02 0.  0.
         12    1    3    3    0    0 -0.17320073672E+02 -0.64252433833E+01  0.41083387935E+02  0.45045682021E+02  0.00000000000E+00 0. -1.
         11    1    4    4    0    0  0.23885573376E+01 -0.19490603650E+01 -0.53266484825E+01  0.61544477233E+01  0.51100000000E-03 0. -1.
        -11    1    4    4    0    0  0.60443060250E+01  0.38910802500E+01 -0.95403968259E+01  0.11945430620E+02  0.51100000000E-03 0.  1.
        -12    1    4    4    0    0  0.88872103092E+01  0.44832234984E+01 -0.26216342626E+02  0.28042439636E+02  0.00000000000E+00 0.  1.
</event>
<event>
 8    1  0.9117959E-009  0.9118800E+02  0.7816164E-02  0.1184000E+00
        -11   -1    0    0    0    0  0.00000000000E+00  0.00000000000E+00  0.45593999997E+02  0.45594000000E+02  0.51100000000E-03 0. -1.
         11   -1    0    0    0    0 -0.00000000000E+00 -0.00000000000E+00 -0.45593999997E+02  0.45594000000E+02  0.51100000000E-03 0.  1.
         23    2    1    2    0    0 -0.35527136788E-14  0.71054273576E-14  0.35527136788E-14  0.91188000000E+02  0.91188000000E+02 0.  0.
    9900012    2    3    3    0    0 -0.16577538616E+02  0.38458948279E+02  0.16589392635E+02  0.46142318328E+02  0.10000005172E+02 0.  0.
        -12    1    3    3    0    0  0.16577538616E+02 -0.38458948279E+02 -0.16589392635E+02  0.45045681672E+02  0.00000000000E+00 0.  1.
         11    1    4    4    0    0 -0.82126872417E+01  0.17586310623E+02  0.79522179419E+01  0.20975326542E+02  0.51100000000E-03 0. -1.
        -11    1    4    4    0    0 -0.64278811206E+01  0.13785154873E+02  0.21418790423E+01  0.15360201713E+02  0.51100000000E-03 0.  1.
         12    1    4    4    0    0 -0.19369702540E+01  0.70874827818E+01  0.64952956509E+01  0.98067900732E+01  0.00000000000E+00 0. -1.
</event>
<event>
 8    1  0.9117959E-009  0.9118800E+02  0.7816164E-02  0.1184000E+00
        -11   -1    0    0    0    0  0.00000000000E+00  0.00000000000E+00  0.45593999997E+02  0.45594000000E+02  0.51100000000E-03 0. -1.
         11   -1    0    0    0    0 -0.00000000000E+00 -0.00000000000E+00 -0.45593999997E+02  0.45594000000E+02  0.51100000000E-03 0.  1.
         23    2    1    2    0    0  0.00000000000E+00  0.00000000000E+00  0.00000000000E+00  0.91188000000E+02  0.91188000000E+02 0.  0.
    9900012    2    3    3    0    0  0.32547448240E+02  0.30237523987E+02  0.74477641426E+01  0.46142318359E+02  0.10000005451E+02 0.  0.
         12    1    3    3    0    0 -0.32547448240E+02 -0.30237523987E+02 -0.74477641426E+01  0.45045681641E+02  0.00000000000E+00 0. -1.
         11    1    4    4    0    0  0.23530853884E+02  0.21567293195E+02  0.73212007659E+01  0.32748270202E+02  0.51100000000E-03 0. -1.
        -11    1    4    4    0    0  0.22042930020E+01  0.52716690632E+01  0.71410826914E+00  0.57584158614E+01  0.51100000000E-03 0.  1.
         12    1    4    4    0    0  0.68123013540E+01  0.33985617283E+01 -0.58754489249E+00  0.76356322960E+01  0.00000000000E+00 0. -1.
</event>
<event>
 8    1  0.9117959E-009  0.9118800E+02  0.7816164E-02  0.1184000E+00
        -11   -1    0    0    0    0  0.00000000000E+00  0.00000000000E+00  0.45593999997E+02  0.45594000000E+02  0.51100000000E-03 0. -1.
         11   -1    0    0    0    0 -0.00000000000E+00 -0.00000000000E+00 -0.45593999997E+02  0.45594000000E+02  0.51100000000E-03 0.  1.
         23    2    1    2    0    0 -0.35527136788E-14 -0.35527136788E-14  0.00000000000E+00  0.91188000000E+02  0.91188000000E+02 0.  0.
    9900012    2    3    3    0    0  0.23329819330E+02  0.27340674962E+02 -0.27153644820E+02  0.46142318694E+02  0.10000008503E+02 0.  0.
         12    1    3    3    0    0 -0.23329819330E+02 -0.27340674962E+02  0.27153644820E+02  0.45045681306E+02  0.00000000000E+00 0. -1.
         11    1    4    4    0    0 -0.23242400180E+00  0.13756565122E+01 -0.31963867273E+00  0.14313004221E+01  0.51100000000E-03 0. -1.
        -11    1    4    4    0    0  0.52123310885E+00  0.32060821054E+01 -0.36250898258E+01  0.48674349432E+01  0.51100000000E-03 0.  1.
        -12    1    4    4    0    0  0.23041010223E+02  0.22758936344E+02 -0.23208916321E+02  0.39843583328E+02  0.00000000000E+00 0.  1.
</event>
<event>
 8    1  0.9117959E-009  0.9118800E+02  0.7816164E-02  0.1184000E+00
        -11   -1    0    0    0    0  0.00000000000E+00  0.00000000000E+00  0.45593999997E+02  0.45594000000E+02  0.51100000000E-03 0. -1.
         11   -1    0    0    0    0 -0.00000000000E+00 -0.00000000000E+00 -0.45593999997E+02  0.45594000000E+02  0.51100000000E-03 0.  1.
         23    2    1    2    0    0  0.00000000000E+00  0.35527136788E-14  0.00000000000E+00  0.91188000000E+02  0.91188000000E+02 0.  0.
    9900012    2    3    3    0    0  0.77988462919E+00 -0.28229031004E+02  0.35094544805E+02  0.46142317782E+02  0.10000000187E+02 0.  0.
        -12    1    3    3    0    0 -0.77988462919E+00  0.28229031004E+02 -0.35094544805E+02  0.45045682218E+02  0.00000000000E+00 0.  1.
         11    1    4    4    0    0 -0.47409537401E-01 -0.12683398931E+02  0.18341893167E+02  0.22300132316E+02  0.51100000000E-03 0. -1.
        -11    1    4    4    0    0  0.28861498752E+00 -0.90558560130E+01  0.14206933434E+02  0.16850186485E+02  0.51100000000E-03 0.  1.
        -12    1    4    4    0    0  0.53867917907E+00 -0.64897760600E+01  0.25457182045E+01  0.69919989805E+01  0.00000000000E+00 0.  1.
</event>
<event>
 8    1  0.9117959E-009  0.9118800E+02  0.7816164E-02  0.1184000E+00
        -11   -1    0    0    0    0  0.00000000000E+00  0.00000000000E+00  0.45593999997E+02  0.45594000000E+02  0.51100000000E-03 0.  1.
         11   -1    0    0    0    0 -0.00000000000E+00 -0.00000000000E+00 -0.45593999997E+02  0.45594000000E+02  0.51100000000E-03 0. -1.
         23    2    1    2    0    0  0.00000000000E+00  0.00000000000E+00  0.00000000000E+00  0.91188000000E+02  0.91188000000E+02 0.  0.
    9900012    2    3    3    0    0  0.65664069020E+01 -0.42820000745E+02  0.12346795230E+02  0.46142317456E+02  0.99999972195E+01 0.  0.
         12    1    3    3    0    0 -0.65664069020E+01  0.42820000745E+02 -0.12346795230E+02  0.45045682544E+02  0.00000000000E+00 0. -1.
         11    1    4    4    0    0  0.52075018311E+01 -0.19113403058E+02  0.16735450157E+01  0.19880669127E+02  0.51100000000E-03 0. -1.
        -11    1    4    4    0    0 -0.11343166186E+00 -0.15219239664E+02  0.53353892364E+01  0.16127755618E+02  0.51100000000E-03 0.  1.
         12    1    4    4    0    0  0.14723367328E+01 -0.84873580230E+01  0.53378609781E+01  0.10133892711E+02  0.00000000000E+00 0. -1.
</event>
<event>
 8    1  0.9117959E-009  0.9118800E+02  0.7816164E-02  0.1184000E+00
        -11   -1    0    0    0    0  0.00000000000E+00  0.00000000000E+00  0.45593999997E+02  0.45594000000E+02  0.51100000000E-03 0. -1.
         11   -1    0    0    0    0 -0.00000000000E+00 -0.00000000000E+00 -0.45593999997E+02  0.45594000000E+02  0.51100000000E-03 0.  1.
         23    2    1    2    0    0  0.00000000000E+00  0.00000000000E+00  0.00000000000E+00  0.91188000000E+02  0.91188000000E+02 0.  0.
    9900012    2    3    3    0    0  0.23120970617E+02  0.13909951005E+02  0.36070034023E+02  0.46142319035E+02  0.10000011614E+02 0.  0.
        -12    1    3    3    0    0 -0.23120970617E+02 -0.13909951005E+02 -0.36070034023E+02  0.45045680965E+02  0.00000000000E+00 0.  1.
         11    1    4    4    0    0  0.56687558561E+01  0.51956372074E+01  0.60706246900E+01  0.97970364568E+01  0.51100000000E-03 0. -1.
        -11    1    4    4    0    0  0.10886228916E+02  0.86260730275E+01  0.21661064385E+02  0.25731708580E+02  0.51100000000E-03 0.  1.
        -12    1    4    4    0    0  0.65659858447E+01  0.88240770044E-01  0.83383449472E+01  0.10613573998E+02  0.00000000000E+00 0.  1.
</event>
<event>
 8    1  0.9117959E-009  0.9118800E+02  0.7816164E-02  0.1184000E+00
        -11   -1    0    0    0    0  0.00000000000E+00  0.00000000000E+00  0.45593999997E+02  0.45594000000E+02  0.51100000000E-03 0. -1.
         11   -1    0    0    0    0 -0.00000000000E+00 -0.00000000000E+00 -0.45593999997E+02  0.45594000000E+02  0.51100000000E-03 0.  1.
         23    2    1    2    0    0  0.26645352591E-14 -0.71054273576E-14  0.71054273576E-14  0.91188000000E+02  0.91188000000E+02 0.  0.
    9900012    2    3    3    0    0  0.68434832427E+01 -0.40464885092E+02  0.18570767974E+02  0.46142316394E+02  0.99999875332E+01 0.  0.
        -12    1    3    3    0    0 -0.68434832427E+01  0.40464885092E+02 -0.18570767974E+02  0.45045683606E+02  0.00000000000E+00 0.  1.
         11    1    4    4    0    0  0.56822467127E+01 -0.14691929986E+02  0.56559938992E+01  0.16737114496E+02  0.51100000000E-03 0. -1.
        -11    1    4    4    0    0  0.24322956382E+00 -0.46422410714E+01  0.49072814263E-01  0.46488677319E+01  0.51100000000E-03 0.  1.
        -12    1    4    4    0    0  0.91800696613E+00 -0.21130714035E+02  0.12865701261E+02  0.24756334166E+02  0.00000000000E+00 0.  1.
</event>
<event>
 8    1  0.9117959E-009  0.9118800E+02  0.7816164E-02  0.1184000E+00
        -11   -1    0    0    0    0  0.00000000000E+00  0.00000000000E+00  0.45593999997E+02  0.45594000000E+02  0.51100000000E-03 0.  1.
         11   -1    0    0    0    0 -0.00000000000E+00 -0.00000000000E+00 -0.45593999997E+02  0.45594000000E+02  0.51100000000E-03 0. -1.
         23    2    1    2    0    0 -0.14210854715E-13  0.35527136788E-14 -0.17763568394E-14  0.91188000000E+02  0.91188000000E+02 0.  0.
    9900012    2    3    3    0    0  0.39214414447E+02 -0.16364994985E+02  0.14950921931E+02  0.46142318433E+02  0.10000006128E+02 0.  0.
        -12    1    3    3    0    0 -0.39214414447E+02  0.16364994985E+02 -0.14950921931E+02  0.45045681567E+02  0.00000000000E+00 0.  1.
         11    1    4    4    0    0  0.22584239957E+02 -0.52399434152E+01  0.88047681983E+01  0.24799775094E+02  0.51100000000E-03 0. -1.
        -11    1    4    4    0    0  0.49334292010E+00  0.10660149576E+00  0.83718076804E+00  0.97755972462E+00  0.51100000000E-03 0.  1.
        -12    1    4    4    0    0  0.16136831570E+02 -0.11231653065E+02  0.53089729646E+01  0.20364983615E+02  0.00000000000E+00 0.  1.
</event>
<event>
 8    1  0.9117959E-009  0.9118800E+02  0.7816164E-02  0.1184000E+00
        -11   -1    0    0    0    0  0.00000000000E+00  0.00000000000E+00  0.45593999997E+02  0.45594000000E+02  0.51100000000E-03 0. -1.
         11   -1    0    0    0    0 -0.00000000000E+00 -0.00000000000E+00 -0.45593999997E+02  0.45594000000E+02  0.51100000000E-03 0.  1.
         23    2    1    2    0    0  0.35527136788E-14  0.00000000000E+00  0.00000000000E+00  0.91188000000E+02  0.91188000000E+02 0.  0.
    9900012    2    3    3    0    0  0.31915104991E+02 -0.16178358253E+02  0.27364216043E+02  0.46142317388E+02  0.99999965959E+01 0.  0.
        -12    1    3    3    0    0 -0.31915104991E+02  0.16178358253E+02 -0.27364216043E+02  0.45045682612E+02  0.00000000000E+00 0.  1.
         11    1    4    4    0    0  0.73724411426E+01 -0.13868951517E+01  0.90200347933E+01  0.11731896458E+02  0.51100000000E-03 0. -1.
        -11    1    4    4    0    0  0.15336988874E+02 -0.67816004156E+01  0.89332767738E+01  0.19000441208E+02  0.51100000000E-03 0.  1.
         12    1    4    4    0    0  0.92056749744E+01 -0.80098626857E+01  0.94109044754E+01  0.15409979722E+02  0.00000000000E+00 0. -1.
</event>
<event>
 8    1  0.9117959E-009  0.9118800E+02  0.7816164E-02  0.1184000E+00
        -11   -1    0    0    0    0  0.00000000000E+00  0.00000000000E+00  0.45593999997E+02  0.45594000000E+02  0.51100000000E-03 0. -1.
         11   -1    0    0    0    0 -0.00000000000E+00 -0.00000000000E+00 -0.45593999997E+02  0.45594000000E+02  0.51100000000E-03 0.  1.
         23    2    1    2    0    0  0.88817841970E-15  0.88817841970E-15 -0.71054273576E-14  0.91188000000E+02  0.91188000000E+02 0.  0.
    9900012    2    3    3    0    0 -0.78115520707E+01 -0.43454537782E+01  0.44149856281E+02  0.46142321806E+02  0.10000036886E+02 0.  0.
        -12    1    3    3    0    0  0.78115520707E+01  0.43454537782E+01 -0.44149856281E+02  0.45045678194E+02  0.00000000000E+00 0.  1.
         11    1    4    4    0    0 -0.79023557348E+01 -0.50772777004E+01  0.34156519770E+02  0.35424480491E+02  0.51100000000E-03 0. -1.
        -11    1    4    4    0    0 -0.16935207842E+01  0.32785543346E+00  0.27434215606E+01  0.32406579505E+01  0.51100000000E-03 0.  1.
        -12    1    4    4    0    0  0.17843244482E+01  0.40396848870E+00  0.72499149502E+01  0.74771833642E+01  0.00000000000E+00 0.  1.
</event>
<event>
 8    1  0.9117959E-009  0.9118800E+02  0.7816164E-02  0.1184000E+00
        -11   -1    0    0    0    0  0.00000000000E+00  0.00000000000E+00  0.45593999997E+02  0.45594000000E+02  0.51100000000E-03 0.  1.
         11   -1    0    0    0    0 -0.00000000000E+00 -0.00000000000E+00 -0.45593999997E+02  0.45594000000E+02  0.51100000000E-03 0. -1.
         23    2    1    2    0    0  0.00000000000E+00  0.00000000000E+00  0.71054273576E-14  0.91188000000E+02  0.91188000000E+02 0.  0.
    9900012    2    3    3    0    0 -0.11848205538E+02  0.28952708706E+02 -0.32411019400E+02  0.46142317694E+02  0.99999993866E+01 0.  0.
         12    1    3    3    0    0  0.11848205538E+02 -0.28952708706E+02  0.32411019400E+02  0.45045682306E+02  0.00000000000E+00 0. -1.
         11    1    4    4    0    0 -0.24236364034E+01  0.21582189137E+01 -0.27315593224E+01  0.42418555949E+01  0.51100000000E-03 0. -1.
        -11    1    4    4    0    0 -0.33316610879E+00  0.13009781229E+02 -0.14294298716E+02  0.19331124730E+02  0.51100000000E-03 0.  1.
        -12    1    4    4    0    0 -0.90914030258E+01  0.13784708564E+02 -0.15385161361E+02  0.22569337369E+02  0.00000000000E+00 0.  1.
</event>
<event>
 8    1  0.9117959E-009  0.9118800E+02  0.7816164E-02  0.1184000E+00
        -11   -1    0    0    0    0  0.00000000000E+00  0.00000000000E+00  0.45593999997E+02  0.45594000000E+02  0.51100000000E-03 0. -1.
         11   -1    0    0    0    0 -0.00000000000E+00 -0.00000000000E+00 -0.45593999997E+02  0.45594000000E+02  0.51100000000E-03 0.  1.
         23    2    1    2    0    0 -0.35527136788E-14  0.00000000000E+00  0.00000000000E+00  0.91188000000E+02  0.91188000000E+02 0.  0.
    9900012    2    3    3    0    0  0.23127512754E+02 -0.15981704860E+02  0.35196828775E+02  0.46142317718E+02  0.99999996089E+01 0.  0.
        -12    1    3    3    0    0 -0.23127512754E+02  0.15981704860E+02 -0.35196828775E+02  0.45045682282E+02  0.00000000000E+00 0.  1.
         11    1    4    4    0    0  0.66098465326E+01 -0.29684745768E+01  0.11459591993E+02  0.13558176920E+02  0.51100000000E-03 0. -1.
        -11    1    4    4    0    0  0.44335747151E+01 -0.77539501129E+01  0.11825823336E+02  0.14819933365E+02  0.51100000000E-03 0.  1.
         12    1    4    4    0    0  0.12084091506E+02 -0.52592801707E+01  0.11911413447E+02  0.17764207434E+02  0.00000000000E+00 0. -1.
</event>
<event>
 8    1  0.9117959E-009  0.9118800E+02  0.7816164E-02  0.1184000E+00
        -11   -1    0    0    0    0  0.00000000000E+00  0.00000000000E+00  0.45593999997E+02  0.45594000000E+02  0.51100000000E-03 0. -1.
         11   -1    0    0    0    0 -0.00000000000E+00 -0.00000000000E+00 -0.45593999997E+02  0.45594000000E+02  0.51100000000E-03 0.  1.
         23    2    1    2    0    0  0.35527136788E-14 -0.35527136788E-14  0.00000000000E+00  0.91188000000E+02  0.91188000000E+02 0.  0.
    9900012    2    3    3    0    0  0.26172828497E+02  0.30743962626E+02 -0.19972615219E+02  0.46142317098E+02  0.99999939506E+01 0.  0.
         12    1    3    3    0    0 -0.26172828497E+02 -0.30743962626E+02  0.19972615219E+02  0.45045682902E+02  0.00000000000E+00 0. -1.
         11    1    4    4    0    0  0.14572707580E+02  0.20006739649E+02 -0.93144029516E+01  0.26446011801E+02  0.51100000000E-03 0.  1.
        -11    1    4    4    0    0  0.39134097928E+01  0.56181153227E+01 -0.69152922838E+01  0.97313546650E+01  0.51100000000E-03 0. -1.
        -12    1    4    4    0    0  0.76867111244E+01  0.51191076537E+01 -0.37429199835E+01  0.99649506312E+01  0.00000000000E+00 0.  1.
</event>
<event>
 8    1  0.9117959E-009  0.9118800E+02  0.7816164E-02  0.1184000E+00
        -11   -1    0    0    0    0  0.00000000000E+00  0.00000000000E+00  0.45593999997E+02  0.45594000000E+02  0.51100000000E-03 0. -1.
         11   -1    0    0    0    0 -0.00000000000E+00 -0.00000000000E+00 -0.45593999997E+02  0.45594000000E+02  0.51100000000E-03 0.  1.
         23    2    1    2    0    0  0.35527136788E-14  0.00000000000E+00 -0.71054273576E-14  0.91188000000E+02  0.91188000000E+02 0.  0.
    9900012    2    3    3    0    0  0.24151800253E+02  0.56159908884E+01 -0.37606711855E+02  0.46142316681E+02  0.99999901494E+01 0.  0.
         12    1    3    3    0    0 -0.24151800253E+02 -0.56159908884E+01  0.37606711855E+02  0.45045683319E+02  0.00000000000E+00 0. -1.
         11    1    4    4    0    0  0.31283546710E+01 -0.19836459120E+00 -0.28394098442E+01  0.42294444060E+01  0.51100000000E-03 0. -1.
        -11    1    4    4    0    0  0.17921843156E+02  0.48808497252E+01 -0.22254031172E+02  0.28987187856E+02  0.51100000000E-03 0.  1.
         12    1    4    4    0    0  0.31016024264E+01  0.93350575439E+00 -0.12513270839E+02  0.12925684419E+02  0.00000000000E+00 0. -1.
</event>
<event>
 8    1  0.9117959E-009  0.9118800E+02  0.7816164E-02  0.1184000E+00
        -11   -1    0    0    0    0  0.00000000000E+00  0.00000000000E+00  0.45593999997E+02  0.45594000000E+02  0.51100000000E-03 0. -1.
         11   -1    0    0    0    0 -0.00000000000E+00 -0.00000000000E+00 -0.45593999997E+02  0.45594000000E+02  0.51100000000E-03 0.  1.
         23    2    1    2    0    0  0.35527136788E-14  0.00000000000E+00 -0.71054273576E-14  0.91188000000E+02  0.91188000000E+02 0.  0.
    9900012    2    3    3    0    0  0.15555038110E+02 -0.31369063510E+02 -0.28339656777E+02  0.46142317606E+02  0.99999985889E+01 0.  0.
         12    1    3    3    0    0 -0.15555038110E+02  0.31369063510E+02  0.28339656777E+02  0.45045682394E+02  0.00000000000E+00 0. -1.
         11    1    4    4    0    0  0.96093057005E+00 -0.18016712637E+00  0.14084057086E-01  0.97777624008E+00  0.51100000000E-03 0. -1.
        -11    1    4    4    0    0  0.13177803107E+02 -0.20779989749E+02 -0.20895769131E+02  0.32281506107E+02  0.51100000000E-03 0.  1.
         12    1    4    4    0    0  0.14163044324E+01 -0.10408906634E+02 -0.74579717031E+01  0.12883035259E+02  0.00000000000E+00 0. -1.
</event>
<event>
 8    1  0.9117959E-009  0.9118800E+02  0.7816164E-02  0.1184000E+00
        -11   -1    0    0    0    0  0.00000000000E+00  0.00000000000E+00  0.45593999997E+02  0.45594000000E+02  0.51100000000E-03 0.  1.
         11   -1    0    0    0    0 -0.00000000000E+00 -0.00000000000E+00 -0.45593999997E+02  0.45594000000E+02  0.51100000000E-03 0. -1.
         23    2    1    2    0    0 -0.71054273576E-14  0.00000000000E+00 -0.44408920985E-15  0.91188000000E+02  0.91188000000E+02 0.  0.
    9900012    2    3    3    0    0  0.39782993133E+02 -0.21032293702E+02  0.20173269818E+01  0.46142317309E+02  0.99999958740E+01 0.  0.
        -12    1    3    3    0    0 -0.39782993133E+02  0.21032293702E+02 -0.20173269818E+01  0.45045682691E+02  0.00000000000E+00 0.  1.
         11    1    4    4    0    0  0.23470343333E+02 -0.96127016904E+01  0.43370885085E+00  0.25366299565E+02  0.51100000000E-03 0. -1.
        -11    1    4    4    0    0  0.24337176266E+01 -0.33429673766E+01  0.22437232534E+01  0.47045410686E+01  0.51100000000E-03 0.  1.
         12    1    4    4    0    0  0.13878932173E+02 -0.80766246348E+01 -0.66010512243E+00  0.16071476675E+02  0.00000000000E+00 0. -1.
</event>
<event>
 8    1  0.9117959E-009  0.9118800E+02  0.7816164E-02  0.1184000E+00
        -11   -1    0    0    0    0  0.00000000000E+00  0.00000000000E+00  0.45593999997E+02  0.45594000000E+02  0.51100000000E-03 0. -1.
         11   -1    0    0    0    0 -0.00000000000E+00 -0.00000000000E+00 -0.45593999997E+02  0.45594000000E+02  0.51100000000E-03 0.  1.
         23    2    1    2    0    0 -0.35527136788E-14  0.35527136788E-14  0.35527136788E-14  0.91188000000E+02  0.91188000000E+02 0.  0.
    9900012    2    3    3    0    0  0.22483479108E+02 -0.27281595822E+02 -0.27916324556E+02  0.46142317853E+02  0.10000000835E+02 0.  0.
         12    1    3    3    0    0 -0.22483479108E+02  0.27281595822E+02  0.27916324556E+02  0.45045682147E+02  0.00000000000E+00 0. -1.
         11    1    4    4    0    0  0.21588175884E+01 -0.22938881363E+00 -0.12715581200E+01  0.25159437437E+01  0.51100000000E-03 0. -1.
        -11    1    4    4    0    0  0.14010247221E+02 -0.17812304218E+02 -0.21752527712E+02  0.31412380854E+02  0.51100000000E-03 0.  1.
        -12    1    4    4    0    0  0.63144142990E+01 -0.92399027905E+01 -0.48922387231E+01  0.12213993255E+02  0.00000000000E+00 0.  1.
</event>
<event>
 8    1  0.9117959E-009  0.9118800E+02  0.7816164E-02  0.1184000E+00
        -11   -1    0    0    0    0  0.00000000000E+00  0.00000000000E+00  0.45593999997E+02  0.45594000000E+02  0.51100000000E-03 0. -1.
         11   -1    0    0    0    0 -0.00000000000E+00 -0.00000000000E+00 -0.45593999997E+02  0.45594000000E+02  0.51100000000E-03 0.  1.
         23    2    1    2    0    0  0.00000000000E+00  0.00000000000E+00  0.00000000000E+00  0.91188000000E+02  0.91188000000E+02 0.  0.
    9900012    2    3    3    0    0 -0.49206606755E+01 -0.35662078639E+02 -0.27076130900E+02  0.46142316313E+02  0.99999867947E+01 0.  0.
         12    1    3    3    0    0  0.49206606755E+01  0.35662078639E+02  0.27076130900E+02  0.45045683687E+02  0.00000000000E+00 0. -1.
         11    1    4    4    0    0 -0.38382309383E+01 -0.85201438387E+01 -0.54669778041E+01  0.10826482085E+02  0.51100000000E-03 0.  1.
        -11    1    4    4    0    0 -0.41749153017E+00 -0.32821770127E+00  0.36292397796E+00  0.64322633038E+00  0.51100000000E-03 0. -1.
        -12    1    4    4    0    0 -0.66493820702E+00 -0.26813717099E+02 -0.21972077074E+02  0.34672607897E+02  0.00000000000E+00 0.  1.
</event>
<event>
 8    1  0.9117959E-009  0.9118800E+02  0.7816164E-02  0.1184000E+00
        -11   -1    0    0    0    0  0.00000000000E+00  0.00000000000E+00  0.45593999997E+02  0.45594000000E+02  0.51100000000E-03 0. -1.
         11   -1    0    0    0    0 -0.00000000000E+00 -0.00000000000E+00 -0.45593999997E+02  0.45594000000E+02  0.51100000000E-03 0.  1.
         23    2    1    2    0    0  0.17763568394E-14  0.00000000000E+00  0.00000000000E+00  0.91188000000E+02  0.91188000000E+02 0.  0.
    9900012    2    3    3    0    0 -0.96844920239E+01  0.33008248583E+01 -0.43868309533E+02  0.46142318611E+02  0.10000007753E+02 0.  0.
         12    1    3    3    0    0  0.96844920239E+01 -0.33008248583E+01  0.43868309533E+02  0.45045681389E+02  0.00000000000E+00 0. -1.
         11    1    4    4    0    0  0.10512320699E+01 -0.50367059440E+00 -0.96824338171E+00  0.15153443305E+01  0.51100000000E-03 0. -1.
        -11    1    4    4    0    0 -0.31851804271E+01  0.77767203609E+00 -0.21205071807E+02  0.21457055221E+02  0.51100000000E-03 0.  1.
        -12    1    4    4    0    0 -0.75505436668E+01  0.30268234166E+01 -0.21694994344E+02  0.23169919060E+02  0.00000000000E+00 0.  1.
</event>
<event>
 8    1  0.9117959E-009  0.9118800E+02  0.7816164E-02  0.1184000E+00
        -11   -1    0    0    0    0  0.00000000000E+00  0.00000000000E+00  0.45593999997E+02  0.45594000000E+02  0.51100000000E-03 0. -1.
         11   -1    0    0    0    0 -0.00000000000E+00 -0.00000000000E+00 -0.45593999997E+02  0.45594000000E+02  0.51100000000E-03 0.  1.
         23    2    1    2    0    0  0.00000000000E+00 -0.35527136788E-14  0.00000000000E+00  0.91188000000E+02  0.91188000000E+02 0.  0.
    9900012    2    3    3    0    0 -0.16829861108E+02  0.23279434456E+02  0.34697797716E+02  0.46142318078E+02  0.10000002888E+02 0.  0.
        -12    1    3    3    0    0  0.16829861108E+02 -0.23279434456E+02 -0.34697797716E+02  0.45045681922E+02  0.00000000000E+00 0.  1.
         11    1    4    4    0    0 -0.84953348502E+01  0.15325087644E+02  0.25796814381E+02  0.31185006942E+02  0.51100000000E-03 0. -1.
        -11    1    4    4    0    0 -0.39645664342E+01  0.53501131988E+01  0.34436658869E+01  0.74966881523E+01  0.51100000000E-03 0.  1.
         12    1    4    4    0    0 -0.43699598236E+01  0.26042336129E+01  0.54573174487E+01  0.74606229838E+01  0.00000000000E+00 0. -1.
</event>
<event>
 8    1  0.9117959E-009  0.9118800E+02  0.7816164E-02  0.1184000E+00
        -11   -1    0    0    0    0  0.00000000000E+00  0.00000000000E+00  0.45593999997E+02  0.45594000000E+02  0.51100000000E-03 0. -1.
         11   -1    0    0    0    0 -0.00000000000E+00 -0.00000000000E+00 -0.45593999997E+02  0.45594000000E+02  0.51100000000E-03 0.  1.
         23    2    1    2    0    0  0.00000000000E+00  0.00000000000E+00  0.00000000000E+00  0.91188000000E+02  0.91188000000E+02 0.  0.
    9900012    2    3    3    0    0 -0.12768678539E+02  0.27402525586E+02  0.33394248779E+02  0.46142318613E+02  0.10000007765E+02 0.  0.
        -12    1    3    3    0    0  0.12768678539E+02 -0.27402525586E+02 -0.33394248779E+02  0.45045681387E+02  0.00000000000E+00 0.  1.
         11    1    4    4    0    0 -0.84453523226E+01  0.14627509193E+02  0.17135852859E+02  0.24060869779E+02  0.51100000000E-03 0. -1.
        -11    1    4    4    0    0  0.13361090532E+01  0.11701732451E+01  0.35266255754E+01  0.39486176108E+01  0.51100000000E-03 0.  1.
        -12    1    4    4    0    0 -0.56594352692E+01  0.11604843148E+02  0.12731770345E+02  0.18132831223E+02  0.00000000000E+00 0.  1.
</event>
<event>
 8    1  0.9117959E-009  0.9118800E+02  0.7816164E-02  0.1184000E+00
        -11   -1    0    0    0    0  0.00000000000E+00  0.00000000000E+00  0.45593999997E+02  0.45594000000E+02  0.51100000000E-03 0. -1.
         11   -1    0    0    0    0 -0.00000000000E+00 -0.00000000000E+00 -0.45593999997E+02  0.45594000000E+02  0.51100000000E-03 0.  1.
         23    2    1    2    0    0  0.00000000000E+00  0.00000000000E+00 -0.71054273576E-14  0.91188000000E+02  0.91188000000E+02 0.  0.
    9900012    2    3    3    0    0 -0.19094872329E+02  0.40619820148E+01 -0.40595561153E+02  0.46142318381E+02  0.10000005655E+02 0.  0.
         12    1    3    3    0    0  0.19094872329E+02 -0.40619820148E+01  0.40595561153E+02  0.45045681619E+02  0.00000000000E+00 0. -1.
         11    1    4    4    0    0 -0.54508216170E+01 -0.19938657991E+01 -0.16213095552E+02  0.17220668534E+02  0.51100000000E-03 0. -1.
        -11    1    4    4    0    0 -0.13315929189E+02  0.46935109296E+01 -0.21579783993E+02  0.25788177378E+02  0.51100000000E-03 0.  1.
        -12    1    4    4    0    0 -0.32812152312E+00  0.13623368843E+01 -0.28026816079E+01  0.31334724693E+01  0.00000000000E+00 0.  1.
</event>
<event>
 8    1  0.9117959E-009  0.9118800E+02  0.7816164E-02  0.1184000E+00
        -11   -1    0    0    0    0  0.00000000000E+00  0.00000000000E+00  0.45593999997E+02  0.45594000000E+02  0.51100000000E-03 0.  1.
         11   -1    0    0    0    0 -0.00000000000E+00 -0.00000000000E+00 -0.45593999997E+02  0.45594000000E+02  0.51100000000E-03 0. -1.
         23    2    1    2    0    0  0.00000000000E+00  0.00000000000E+00  0.00000000000E+00  0.91188000000E+02  0.91188000000E+02 0.  0.
    9900012    2    3    3    0    0 -0.41571496790E+02  0.16244687699E+02 -0.60855742567E+01  0.46142318322E+02  0.10000005119E+02 0.  0.
         12    1    3    3    0    0  0.41571496790E+02 -0.16244687699E+02  0.60855742567E+01  0.45045681678E+02  0.00000000000E+00 0. -1.
         11    1    4    4    0    0 -0.17021324938E+01  0.10345018715E+01  0.19425447877E+00  0.20012956334E+01  0.51100000000E-03 0. -1.
        -11    1    4    4    0    0 -0.36897250529E+02  0.14706273989E+02 -0.32273869865E+01  0.39850942502E+02  0.51100000000E-03 0.  1.
         12    1    4    4    0    0 -0.29721137666E+01  0.50391183778E+00 -0.30524417490E+01  0.42900801872E+01  0.00000000000E+00 0. -1.
</event>
<event>
 8    1  0.9117959E-009  0.9118800E+02  0.7816164E-02  0.1184000E+00
        -11   -1    0    0    0    0  0.00000000000E+00  0.00000000000E+00  0.45593999997E+02  0.45594000000E+02  0.51100000000E-03 0. -1.
         11   -1    0    0    0    0 -0.00000000000E+00 -0.00000000000E+00 -0.45593999997E+02  0.45594000000E+02  0.51100000000E-03 0.  1.
         23    2    1    2    0    0  0.00000000000E+00  0.17763568394E-14  0.00000000000E+00  0.91188000000E+02  0.91188000000E+02 0.  0.
    9900012    2    3    3    0    0  0.24546791799E+02  0.15991608851E+02 -0.34217493008E+02  0.46142319086E+02  0.10000012082E+02 0.  0.
         12    1    3    3    0    0 -0.24546791799E+02 -0.15991608851E+02  0.34217493008E+02  0.45045680914E+02  0.00000000000E+00 0. -1.
         11    1    4    4    0    0  0.19511801962E+01  0.34275522005E+01 -0.55425213550E+01  0.68025555108E+01  0.51100000000E-03 0.  1.
        -11    1    4    4    0    0  0.12165383517E+02  0.41821295600E+01 -0.18484857871E+02  0.22520584685E+02  0.51100000000E-03 0. -1.
        -12    1    4    4    0    0  0.10430228086E+02  0.83819270904E+01 -0.10190113782E+02  0.16819178891E+02  0.00000000000E+00 0.  1.
</event>
<event>
 8    1  0.9117959E-009  0.9118800E+02  0.7816164E-02  0.1184000E+00
        -11   -1    0    0    0    0  0.00000000000E+00  0.00000000000E+00  0.45593999997E+02  0.45594000000E+02  0.51100000000E-03 0. -1.
         11   -1    0    0    0    0 -0.00000000000E+00 -0.00000000000E+00 -0.45593999997E+02  0.45594000000E+02  0.51100000000E-03 0.  1.
         23    2    1    2    0    0  0.00000000000E+00  0.00000000000E+00  0.00000000000E+00  0.91188000000E+02  0.91188000000E+02 0.  0.
    9900012    2    3    3    0    0  0.12548494231E+02 -0.34298761403E+01 -0.43126380143E+02  0.46142318497E+02  0.10000006708E+02 0.  0.
         12    1    3    3    0    0 -0.12548494231E+02  0.34298761403E+01  0.43126380143E+02  0.45045681503E+02  0.00000000000E+00 0. -1.
         11    1    4    4    0    0  0.17519865528E+01  0.86455369343E+00 -0.12511557141E+01  0.23199786318E+01  0.51100000000E-03 0. -1.
        -11    1    4    4    0    0  0.46274466719E+01  0.93665005922E+00 -0.18254097163E+02  0.18854777631E+02  0.51100000000E-03 0.  1.
        -12    1    4    4    0    0  0.61690610068E+01 -0.52310798930E+01 -0.23621127267E+02  0.24967562234E+02  0.00000000000E+00 0.  1.
</event>
<event>
 8    1  0.9117959E-009  0.9118800E+02  0.7816164E-02  0.1184000E+00
        -11   -1    0    0    0    0  0.00000000000E+00  0.00000000000E+00  0.45593999997E+02  0.45594000000E+02  0.51100000000E-03 0. -1.
         11   -1    0    0    0    0 -0.00000000000E+00 -0.00000000000E+00 -0.45593999997E+02  0.45594000000E+02  0.51100000000E-03 0.  1.
         23    2    1    2    0    0  0.00000000000E+00  0.00000000000E+00  0.71054273576E-14  0.91188000000E+02  0.91188000000E+02 0.  0.
    9900012    2    3    3    0    0  0.14573372323E+02 -0.19339663182E+02  0.37982991702E+02  0.46142318614E+02  0.10000007778E+02 0.  0.
        -12    1    3    3    0    0 -0.14573372323E+02  0.19339663182E+02 -0.37982991702E+02  0.45045681386E+02  0.00000000000E+00 0.  1.
         11    1    4    4    0    0  0.10642048011E+02 -0.13661796040E+02  0.25401758149E+02  0.30743245994E+02  0.51100000000E-03 0. -1.
        -11    1    4    4    0    0  0.19140980747E+01 -0.50029664206E+00  0.78673608348E+01  0.81123014574E+01  0.51100000000E-03 0.  1.
         12    1    4    4    0    0  0.20172262373E+01 -0.51775705001E+01  0.47138727185E+01  0.72867711630E+01  0.00000000000E+00 0. -1.
</event>
<event>
 8    1  0.9117959E-009  0.9118800E+02  0.7816164E-02  0.1184000E+00
        -11   -1    0    0    0    0  0.00000000000E+00  0.00000000000E+00  0.45593999997E+02  0.45594000000E+02  0.51100000000E-03 0.  1.
         11   -1    0    0    0    0 -0.00000000000E+00 -0.00000000000E+00 -0.45593999997E+02  0.45594000000E+02  0.51100000000E-03 0. -1.
         23    2    1    2    0    0  0.71054273576E-14  0.00000000000E+00  0.00000000000E+00  0.91188000000E+02  0.91188000000E+02 0.  0.
    9900012    2    3    3    0    0  0.43560190609E+02 -0.24047924796E+01  0.11217851368E+02  0.46142318497E+02  0.10000006707E+02 0.  0.
         12    1    3    3    0    0 -0.43560190609E+02  0.24047924796E+01 -0.11217851368E+02  0.45045681503E+02  0.00000000000E+00 0. -1.
         11    1    4    4    0    0  0.12456660200E+02 -0.81764920488E+00  0.13769021105E+01  0.12559171678E+02  0.51100000000E-03 0. -1.
        -11    1    4    4    0    0  0.56993290965E+01  0.23499022061E+01  0.33301545954E+00  0.61737583437E+01  0.51100000000E-03 0.  1.
         12    1    4    4    0    0  0.25404201313E+02 -0.39370454808E+01  0.95079337979E+01  0.27409388475E+02  0.00000000000E+00 0. -1.
</event>
<event>
 8    1  0.9117959E-009  0.9118800E+02  0.7816164E-02  0.1184000E+00
        -11   -1    0    0    0    0  0.00000000000E+00  0.00000000000E+00  0.45593999997E+02  0.45594000000E+02  0.51100000000E-03 0. -1.
         11   -1    0    0    0    0 -0.00000000000E+00 -0.00000000000E+00 -0.45593999997E+02  0.45594000000E+02  0.51100000000E-03 0.  1.
         23    2    1    2    0    0  0.00000000000E+00 -0.71054273576E-14 -0.35527136788E-14  0.91188000000E+02  0.91188000000E+02 0.  0.
    9900012    2    3    3    0    0 -0.12444946971E+02 -0.36127851575E+02  0.23854037951E+02  0.46142317731E+02  0.99999997246E+01 0.  0.
        -12    1    3    3    0    0  0.12444946971E+02  0.36127851575E+02 -0.23854037951E+02  0.45045682269E+02  0.00000000000E+00 0.  1.
         11    1    4    4    0    0 -0.76037214490E+01 -0.18299225463E+02  0.93298959536E+01  0.21902629778E+02  0.51100000000E-03 0. -1.
        -11    1    4    4    0    0 -0.51290439061E+01 -0.18157207292E+02  0.13734433066E+02  0.23337221770E+02  0.51100000000E-03 0.  1.
         12    1    4    4    0    0  0.28781838390E+00  0.32858118066E+00  0.78970893201E+00  0.90246618313E+00  0.00000000000E+00 0. -1.
</event>
<event>
 8    1  0.9117959E-009  0.9118800E+02  0.7816164E-02  0.1184000E+00
        -11   -1    0    0    0    0  0.00000000000E+00  0.00000000000E+00  0.45593999997E+02  0.45594000000E+02  0.51100000000E-03 0. -1.
         11   -1    0    0    0    0 -0.00000000000E+00 -0.00000000000E+00 -0.45593999997E+02  0.45594000000E+02  0.51100000000E-03 0.  1.
         23    2    1    2    0    0 -0.71054273576E-14  0.00000000000E+00 -0.71054273576E-14  0.91188000000E+02  0.91188000000E+02 0.  0.
    9900012    2    3    3    0    0  0.33066239059E+02 -0.16240147072E+02  0.25922862710E+02  0.46142319258E+02  0.10000013645E+02 0.  0.
        -12    1    3    3    0    0 -0.33066239059E+02  0.16240147072E+02 -0.25922862710E+02  0.45045680742E+02  0.00000000000E+00 0.  1.
         11    1    4    4    0    0 -0.34538083715E+00 -0.41108421184E-01  0.98366630429E+00  0.10433491670E+01  0.51100000000E-03 0. -1.
        -11    1    4    4    0    0  0.51477258654E+01 -0.25173905142E+01  0.65767331581E+01  0.87229442209E+01  0.51100000000E-03 0.  1.
         12    1    4    4    0    0  0.28263894031E+02 -0.13681648137E+02  0.18362463248E+02  0.36376025870E+02  0.00000000000E+00 0. -1.
</event>
<event>
 8    1  0.9117959E-009  0.9118800E+02  0.7816164E-02  0.1184000E+00
        -11   -1    0    0    0    0  0.00000000000E+00  0.00000000000E+00  0.45593999997E+02  0.45594000000E+02  0.51100000000E-03 0. -1.
         11   -1    0    0    0    0 -0.00000000000E+00 -0.00000000000E+00 -0.45593999997E+02  0.45594000000E+02  0.51100000000E-03 0.  1.
         23    2    1    2    0    0  0.35527136788E-14 -0.88817841970E-15  0.00000000000E+00  0.91188000000E+02  0.91188000000E+02 0.  0.
    9900012    2    3    3    0    0  0.30565673425E+02  0.76722563722E+01 -0.32186790123E+02  0.46142319095E+02  0.10000012166E+02 0.  0.
         12    1    3    3    0    0 -0.30565673425E+02 -0.76722563722E+01  0.32186790123E+02  0.45045680905E+02  0.00000000000E+00 0. -1.
         11    1    4    4    0    0  0.82703360481E+01  0.20692566762E+01 -0.72229110487E+01  0.11173662149E+02  0.51100000000E-03 0. -1.
        -11    1    4    4    0    0  0.17333569254E+02  0.53430177113E+01 -0.13938221732E+02  0.22875193696E+02  0.51100000000E-03 0.  1.
         12    1    4    4    0    0  0.49617681224E+01  0.25998198471E+00 -0.11025657343E+02  0.12093463250E+02  0.00000000000E+00 0. -1.
</event>
<event>
 8    1  0.9117959E-009  0.9118800E+02  0.7816164E-02  0.1184000E+00
        -11   -1    0    0    0    0  0.00000000000E+00  0.00000000000E+00  0.45593999997E+02  0.45594000000E+02  0.51100000000E-03 0. -1.
         11   -1    0    0    0    0 -0.00000000000E+00 -0.00000000000E+00 -0.45593999997E+02  0.45594000000E+02  0.51100000000E-03 0.  1.
         23    2    1    2    0    0  0.88817841970E-15  0.71054273576E-14  0.88817841970E-15  0.91188000000E+02  0.91188000000E+02 0.  0.
    9900012    2    3    3    0    0  0.25158350407E+01  0.44909913155E+02  0.24256975997E+01  0.46142315030E+02  0.99999750948E+01 0.  0.
        -12    1    3    3    0    0 -0.25158350407E+01 -0.44909913155E+02 -0.24256975997E+01  0.45045684970E+02  0.00000000000E+00 0.  1.
         11    1    4    4    0    0 -0.54786713122E+00  0.15524101502E+02  0.30251979936E+00  0.15536711503E+02  0.51100000000E-03 0.  1.
        -11    1    4    4    0    0  0.54803864818E+01  0.24128171273E+02  0.18791530177E+01  0.24813998091E+02  0.51100000000E-03 0. -1.
         12    1    4    4    0    0 -0.24166843099E+01  0.52576403811E+01  0.24402478259E+00  0.57916054359E+01  0.00000000000E+00 0. -1.
</event>
<event>
 8    1  0.9117959E-009  0.9118800E+02  0.7816164E-02  0.1184000E+00
        -11   -1    0    0    0    0  0.00000000000E+00  0.00000000000E+00  0.45593999997E+02  0.45594000000E+02  0.51100000000E-03 0. -1.
         11   -1    0    0    0    0 -0.00000000000E+00 -0.00000000000E+00 -0.45593999997E+02  0.45594000000E+02  0.51100000000E-03 0.  1.
         23    2    1    2    0    0  0.88817841970E-15  0.17763568394E-14  0.00000000000E+00  0.91188000000E+02  0.91188000000E+02 0.  0.
    9900012    2    3    3    0    0 -0.72847813029E+01 -0.14989656061E+02  0.41849201804E+02  0.46142317420E+02  0.99999968855E+01 0.  0.
        -12    1    3    3    0    0  0.72847813029E+01  0.14989656061E+02 -0.41849201804E+02  0.45045682580E+02  0.00000000000E+00 0.  1.
         11    1    4    4    0    0  0.28359063036E+00 -0.58745601525E+01  0.15668833814E+02  0.16736284952E+02  0.51100000000E-03 0. -1.
        -11    1    4    4    0    0 -0.27858845049E+01 -0.87254587063E+00  0.11792623647E+02  0.12148599159E+02  0.51100000000E-03 0.  1.
        -12    1    4    4    0    0 -0.47824874284E+01 -0.82425500383E+01  0.14387744343E+02  0.17257433309E+02  0.00000000000E+00 0.  1.
</event>
<event>
 8    1  0.9117959E-009  0.9118800E+02  0.7816164E-02  0.1184000E+00
        -11   -1    0    0    0    0  0.00000000000E+00  0.00000000000E+00  0.45593999997E+02  0.45594000000E+02  0.51100000000E-03 0. -1.
         11   -1    0    0    0    0 -0.00000000000E+00 -0.00000000000E+00 -0.45593999997E+02  0.45594000000E+02  0.51100000000E-03 0.  1.
         23    2    1    2    0    0  0.00000000000E+00  0.00000000000E+00  0.00000000000E+00  0.91188000000E+02  0.91188000000E+02 0.  0.
    9900012    2    3    3    0    0  0.16603936592E+02  0.21177275757E+02 -0.36124033125E+02  0.46142317765E+02  0.10000000033E+02 0.  0.
         12    1    3    3    0    0 -0.16603936592E+02 -0.21177275757E+02  0.36124033125E+02  0.45045682235E+02  0.00000000000E+00 0. -1.
         11    1    4    4    0    0  0.10725449284E+01  0.33651332912E+01 -0.30939012760E+01  0.46953913636E+01  0.51100000000E-03 0. -1.
        -11    1    4    4    0    0  0.14133397319E+02  0.15021795629E+02 -0.22770055194E+02  0.30722673671E+02  0.51100000000E-03 0.  1.
         12    1    4    4    0    0  0.13979943447E+01  0.27903468372E+01 -0.10260076655E+02  0.10724252730E+02  0.00000000000E+00 0. -1.
</event>
<event>
 8    1  0.9117959E-009  0.9118800E+02  0.7816164E-02  0.1184000E+00
        -11   -1    0    0    0    0  0.00000000000E+00  0.00000000000E+00  0.45593999997E+02  0.45594000000E+02  0.51100000000E-03 0. -1.
         11   -1    0    0    0    0 -0.00000000000E+00 -0.00000000000E+00 -0.45593999997E+02  0.45594000000E+02  0.51100000000E-03 0.  1.
         23    2    1    2    0    0  0.00000000000E+00 -0.88817841970E-15  0.00000000000E+00  0.91188000000E+02  0.91188000000E+02 0.  0.
    9900012    2    3    3    0    0 -0.27018745267E+02 -0.63008009265E+01 -0.35488039513E+02  0.46142316116E+02  0.99999849985E+01 0.  0.
         12    1    3    3    0    0  0.27018745267E+02  0.63008009265E+01  0.35488039513E+02  0.45045683884E+02  0.00000000000E+00 0. -1.
         11    1    4    4    0    0 -0.15293761469E+02 -0.39295897775E+00 -0.19768822388E+02  0.24997197753E+02  0.51100000000E-03 0. -1.
        -11    1    4    4    0    0 -0.18396881811E+01  0.67676229310E+00 -0.40245481661E+01  0.44765442037E+01  0.51100000000E-03 0.  1.
        -12    1    4    4    0    0 -0.98852956172E+01 -0.65846042419E+01 -0.11694668959E+02  0.16668574160E+02  0.00000000000E+00 0.  1.
</event>
<event>
 8    1  0.9117959E-009  0.9118800E+02  0.7816164E-02  0.1184000E+00
        -11   -1    0    0    0    0  0.00000000000E+00  0.00000000000E+00  0.45593999997E+02  0.45594000000E+02  0.51100000000E-03 0. -1.
         11   -1    0    0    0    0 -0.00000000000E+00 -0.00000000000E+00 -0.45593999997E+02  0.45594000000E+02  0.51100000000E-03 0.  1.
         23    2    1    2    0    0 -0.88817841970E-15  0.00000000000E+00  0.00000000000E+00  0.91188000000E+02  0.91188000000E+02 0.  0.
    9900012    2    3    3    0    0  0.63542184807E+01 -0.17881714159E+02 -0.40853171996E+02  0.46142318122E+02  0.10000003289E+02 0.  0.
         12    1    3    3    0    0 -0.63542184807E+01  0.17881714159E+02  0.40853171996E+02  0.45045681878E+02  0.00000000000E+00 0. -1.
         11    1    4    4    0    0  0.60935848160E+01 -0.97611542570E+01 -0.23067732774E+02  0.25778522144E+02  0.51100000000E-03 0. -1.
        -11    1    4    4    0    0  0.28597301858E+01 -0.31593396629E+01 -0.87650456982E+01  0.97460510051E+01  0.51100000000E-03 0.  1.
         12    1    4    4    0    0 -0.25990965212E+01 -0.49612202387E+01 -0.90203935234E+01  0.10617744972E+02  0.00000000000E+00 0. -1.
</event>
<event>
 8    1  0.9117959E-009  0.9118800E+02  0.7816164E-02  0.1184000E+00
        -11   -1    0    0    0    0  0.00000000000E+00  0.00000000000E+00  0.45593999997E+02  0.45594000000E+02  0.51100000000E-03 0. -1.
         11   -1    0    0    0    0 -0.00000000000E+00 -0.00000000000E+00 -0.45593999997E+02  0.45594000000E+02  0.51100000000E-03 0.  1.
         23    2    1    2    0    0  0.00000000000E+00  0.00000000000E+00  0.00000000000E+00  0.91188000000E+02  0.91188000000E+02 0.  0.
    9900012    2    3    3    0    0 -0.25425249857E+02 -0.20570580437E+02 -0.30976141444E+02  0.46142318203E+02  0.10000004030E+02 0.  0.
         12    1    3    3    0    0  0.25425249857E+02  0.20570580437E+02  0.30976141444E+02  0.45045681797E+02  0.00000000000E+00 0. -1.
         11    1    4    4    0    0 -0.13154706593E+02 -0.92710972750E+01 -0.10452336128E+02  0.19189864018E+02  0.51100000000E-03 0. -1.
        -11    1    4    4    0    0 -0.46613092958E+01 -0.45670959196E+01 -0.43176228005E+01  0.78248345924E+01  0.51100000000E-03 0.  1.
         12    1    4    4    0    0 -0.76092339681E+01 -0.67323872420E+01 -0.16206182516E+02  0.19127619593E+02  0.00000000000E+00 0. -1.
</event>
<event>
 8    1  0.9117959E-009  0.9118800E+02  0.7816164E-02  0.1184000E+00
        -11   -1    0    0    0    0  0.00000000000E+00  0.00000000000E+00  0.45593999997E+02  0.45594000000E+02  0.51100000000E-03 0. -1.
         11   -1    0    0    0    0 -0.00000000000E+00 -0.00000000000E+00 -0.45593999997E+02  0.45594000000E+02  0.51100000000E-03 0.  1.
         23    2    1    2    0    0  0.00000000000E+00  0.17763568394E-14  0.00000000000E+00  0.91188000000E+02  0.91188000000E+02 0.  0.
    9900012    2    3    3    0    0 -0.26546030254E+01  0.15946774903E+02 -0.42044820456E+02  0.46142317918E+02  0.10000001432E+02 0.  0.
         12    1    3    3    0    0  0.26546030254E+01 -0.15946774903E+02  0.42044820456E+02  0.45045682082E+02  0.00000000000E+00 0. -1.
         11    1    4    4    0    0 -0.10775367193E+01  0.15064726273E+01 -0.18796683885E+01  0.26388820872E+01  0.51100000000E-03 0. -1.
        -11    1    4    4    0    0 -0.22185230870E+01  0.88609890122E+01 -0.33810834915E+02  0.35023014275E+02  0.51100000000E-03 0.  1.
        -12    1    4    4    0    0  0.64145678099E+00  0.55793132637E+01 -0.63543171522E+01  0.84804215560E+01  0.00000000000E+00 0.  1.
</event>
<event>
 8    1  0.9117959E-009  0.9118800E+02  0.7816164E-02  0.1184000E+00
        -11   -1    0    0    0    0  0.00000000000E+00  0.00000000000E+00  0.45593999997E+02  0.45594000000E+02  0.51100000000E-03 0. -1.
         11   -1    0    0    0    0 -0.00000000000E+00 -0.00000000000E+00 -0.45593999997E+02  0.45594000000E+02  0.51100000000E-03 0.  1.
         23    2    1    2    0    0  0.00000000000E+00  0.17763568394E-14  0.71054273576E-14  0.91188000000E+02  0.91188000000E+02 0.  0.
    9900012    2    3    3    0    0 -0.16737331446E+02 -0.11236193199E+02  0.40283038596E+02  0.46142317631E+02  0.99999988127E+01 0.  0.
        -12    1    3    3    0    0  0.16737331446E+02  0.11236193199E+02 -0.40283038596E+02  0.45045682369E+02  0.00000000000E+00 0.  1.
         11    1    4    4    0    0 -0.12121597420E+02 -0.86959392323E+01  0.20886832311E+02  0.25667338144E+02  0.51100000000E-03 0. -1.
        -11    1    4    4    0    0 -0.35024507182E+01 -0.43899257118E+00  0.68563048779E+01  0.77116011535E+01  0.51100000000E-03 0.  1.
        -12    1    4    4    0    0 -0.11132833076E+01 -0.21012613958E+01  0.12539901407E+02  0.12763378333E+02  0.00000000000E+00 0.  1.
</event>
<event>
 8    1  0.9117959E-009  0.9118800E+02  0.7816164E-02  0.1184000E+00
        -11   -1    0    0    0    0  0.00000000000E+00  0.00000000000E+00  0.45593999997E+02  0.45594000000E+02  0.51100000000E-03 0. -1.
         11   -1    0    0    0    0 -0.00000000000E+00 -0.00000000000E+00 -0.45593999997E+02  0.45594000000E+02  0.51100000000E-03 0.  1.
         23    2    1    2    0    0  0.35527136788E-14  0.00000000000E+00 -0.35527136788E-14  0.91188000000E+02  0.91188000000E+02 0.  0.
    9900012    2    3    3    0    0 -0.20990792922E+02  0.24097861796E+02  0.31745758726E+02  0.46142317325E+02  0.99999960187E+01 0.  0.
        -12    1    3    3    0    0  0.20990792922E+02 -0.24097861796E+02 -0.31745758726E+02  0.45045682675E+02  0.00000000000E+00 0.  1.
         11    1    4    4    0    0  0.89272455913E-01  0.15340847871E+01  0.22477534896E+01  0.27228260533E+01  0.51100000000E-03 0. -1.
        -11    1    4    4    0    0 -0.46324906517E+00  0.12284739614E+01  0.42938781336E+01  0.44901155506E+01  0.51100000000E-03 0.  1.
         12    1    4    4    0    0 -0.20616816313E+02  0.21335303047E+02  0.25204127103E+02  0.38929375721E+02  0.00000000000E+00 0. -1.
</event>
<event>
 8    1  0.9117959E-009  0.9118800E+02  0.7816164E-02  0.1184000E+00
        -11   -1    0    0    0    0  0.00000000000E+00  0.00000000000E+00  0.45593999997E+02  0.45594000000E+02  0.51100000000E-03 0.  1.
         11   -1    0    0    0    0 -0.00000000000E+00 -0.00000000000E+00 -0.45593999997E+02  0.45594000000E+02  0.51100000000E-03 0. -1.
         23    2    1    2    0    0  0.35527136788E-14  0.00000000000E+00 -0.35527136788E-14  0.91188000000E+02  0.91188000000E+02 0.  0.
    9900012    2    3    3    0    0  0.27701801451E+02 -0.28194768628E+02 -0.21605063403E+02  0.46142317119E+02  0.99999941421E+01 0.  0.
        -12    1    3    3    0    0 -0.27701801451E+02  0.28194768628E+02  0.21605063403E+02  0.45045682881E+02  0.00000000000E+00 0.  1.
         11    1    4    4    0    0  0.22479304939E+02 -0.21771519223E+02 -0.15301103248E+02  0.34834493834E+02  0.51100000000E-03 0. -1.
        -11    1    4    4    0    0  0.42186969016E+01 -0.17057451609E+01 -0.33689752375E+01  0.56618870099E+01  0.51100000000E-03 0.  1.
        -12    1    4    4    0    0  0.10037996098E+01 -0.47175042437E+01 -0.29349849181E+01  0.56459362745E+01  0.00000000000E+00 0.  1.
</event>
<event>
 8    1  0.9117959E-009  0.9118800E+02  0.7816164E-02  0.1184000E+00
        -11   -1    0    0    0    0  0.00000000000E+00  0.00000000000E+00  0.45593999997E+02  0.45594000000E+02  0.51100000000E-03 0. -1.
         11   -1    0    0    0    0 -0.00000000000E+00 -0.00000000000E+00 -0.45593999997E+02  0.45594000000E+02  0.51100000000E-03 0.  1.
         23    2    1    2    0    0  0.00000000000E+00  0.00000000000E+00  0.00000000000E+00  0.91188000000E+02  0.91188000000E+02 0.  0.
    9900012    2    3    3    0    0 -0.95131857280E+01  0.21086683052E+02  0.38651838258E+02  0.46142317571E+02  0.99999982620E+01 0.  0.
        -12    1    3    3    0    0  0.95131857280E+01 -0.21086683052E+02 -0.38651838258E+02  0.45045682429E+02  0.00000000000E+00 0.  1.
         11    1    4    4    0    0 -0.10689223822E+01  0.21041758334E+01  0.51985372472E+01  0.57091979094E+01  0.51100000000E-03 0. -1.
        -11    1    4    4    0    0 -0.96152037345E+01  0.17557864339E+02  0.26333948343E+02  0.33078808603E+02  0.51100000000E-03 0.  1.
        -12    1    4    4    0    0  0.11709403887E+01  0.14246428788E+01  0.71193526682E+01  0.73543110581E+01  0.00000000000E+00 0.  1.
</event>
<event>
 8    1  0.9117959E-009  0.9118800E+02  0.7816164E-02  0.1184000E+00
        -11   -1    0    0    0    0  0.00000000000E+00  0.00000000000E+00  0.45593999997E+02  0.45594000000E+02  0.51100000000E-03 0. -1.
         11   -1    0    0    0    0 -0.00000000000E+00 -0.00000000000E+00 -0.45593999997E+02  0.45594000000E+02  0.51100000000E-03 0.  1.
         23    2    1    2    0    0  0.00000000000E+00  0.17763568394E-14 -0.71054273576E-14  0.91188000000E+02  0.91188000000E+02 0.  0.
    9900012    2    3    3    0    0 -0.87921910288E+01  0.10003636358E+02 -0.43031827126E+02  0.46142317529E+02  0.99999978817E+01 0.  0.
         12    1    3    3    0    0  0.87921910288E+01 -0.10003636358E+02  0.43031827126E+02  0.45045682471E+02  0.00000000000E+00 0. -1.
         11    1    4    4    0    0  0.57951402248E+00  0.34338453602E+01 -0.19877962583E+02  0.20180696895E+02  0.51100000000E-03 0. -1.
        -11    1    4    4    0    0 -0.13656899686E+01  0.22744172939E+01 -0.55490850039E+01  0.61506444995E+01  0.51100000000E-03 0.  1.
         12    1    4    4    0    0 -0.80060150827E+01  0.42953737037E+01 -0.17604779539E+02  0.19810976134E+02  0.00000000000E+00 0. -1.
</event>
<event>
 8    1  0.9117959E-009  0.9118800E+02  0.7816164E-02  0.1184000E+00
        -11   -1    0    0    0    0  0.00000000000E+00  0.00000000000E+00  0.45593999997E+02  0.45594000000E+02  0.51100000000E-03 0. -1.
         11   -1    0    0    0    0 -0.00000000000E+00 -0.00000000000E+00 -0.45593999997E+02  0.45594000000E+02  0.51100000000E-03 0.  1.
         23    2    1    2    0    0 -0.71054273576E-14 -0.88817841970E-15  0.35527136788E-14  0.91188000000E+02  0.91188000000E+02 0.  0.
    9900012    2    3    3    0    0  0.34444062581E+02  0.78199593043E+01 -0.27956544652E+02  0.46142316528E+02  0.99999887513E+01 0.  0.
         12    1    3    3    0    0 -0.34444062581E+02 -0.78199593043E+01  0.27956544652E+02  0.45045683472E+02  0.00000000000E+00 0. -1.
         11    1    4    4    0    0  0.12097646817E+02  0.14146471276E+01 -0.11831446375E+02  0.16980500834E+02  0.51100000000E-03 0. -1.
        -11    1    4    4    0    0  0.21666286664E+02  0.62009074176E+01 -0.13126661553E+02  0.26080423202E+02  0.51100000000E-03 0.  1.
         12    1    4    4    0    0  0.68012910075E+00  0.20440475901E+00 -0.29984367236E+01  0.30813924912E+01  0.00000000000E+00 0. -1.
</event>
<event>
 8    1  0.9117959E-009  0.9118800E+02  0.7816164E-02  0.1184000E+00
        -11   -1    0    0    0    0  0.00000000000E+00  0.00000000000E+00  0.45593999997E+02  0.45594000000E+02  0.51100000000E-03 0. -1.
         11   -1    0    0    0    0 -0.00000000000E+00 -0.00000000000E+00 -0.45593999997E+02  0.45594000000E+02  0.51100000000E-03 0.  1.
         23    2    1    2    0    0  0.88817841970E-15  0.00000000000E+00  0.00000000000E+00  0.91188000000E+02  0.91188000000E+02 0.  0.
    9900012    2    3    3    0    0  0.58224097592E+01 -0.86114271448E+00  0.44659506291E+02  0.46142317361E+02  0.99999963551E+01 0.  0.
        -12    1    3    3    0    0 -0.58224097592E+01  0.86114271448E+00 -0.44659506291E+02  0.45045682639E+02  0.00000000000E+00 0.  1.
         11    1    4    4    0    0 -0.48656486282E+00 -0.21678641943E+01  0.75160675588E+01  0.78375794950E+01  0.51100000000E-03 0. -1.
        -11    1    4    4    0    0 -0.27009093242E+00 -0.16847544748E+01  0.12735022203E+02  0.12848818527E+02  0.51100000000E-03 0.  1.
        -12    1    4    4    0    0  0.65790655545E+01  0.29914759547E+01  0.24408416529E+02  0.25455919340E+02  0.00000000000E+00 0.  1.
</event>
<event>
 8    1  0.9117959E-009  0.9118800E+02  0.7816164E-02  0.1184000E+00
        -11   -1    0    0    0    0  0.00000000000E+00  0.00000000000E+00  0.45593999997E+02  0.45594000000E+02  0.51100000000E-03 0. -1.
         11   -1    0    0    0    0 -0.00000000000E+00 -0.00000000000E+00 -0.45593999997E+02  0.45594000000E+02  0.51100000000E-03 0.  1.
         23    2    1    2    0    0  0.35527136788E-14  0.00000000000E+00  0.71054273576E-14  0.91188000000E+02  0.91188000000E+02 0.  0.
    9900012    2    3    3    0    0  0.21159082076E+02  0.33104445258E+01  0.39628875411E+02  0.46142316926E+02  0.99999923841E+01 0.  0.
        -12    1    3    3    0    0 -0.21159082076E+02 -0.33104445258E+01 -0.39628875411E+02  0.45045683074E+02  0.00000000000E+00 0.  1.
         11    1    4    4    0    0  0.16406816593E+02  0.18863137852E+01  0.32285385533E+02  0.36264141099E+02  0.51100000000E-03 0. -1.
        -11    1    4    4    0    0  0.23428056965E+01 -0.47363600895E+00  0.61304340172E+01  0.65799157366E+01  0.51100000000E-03 0.  1.
        -12    1    4    4    0    0  0.24094597868E+01  0.18977667495E+01  0.12130558612E+01  0.32982600901E+01  0.00000000000E+00 0.  1.
</event>
<event>
 8    1  0.9117959E-009  0.9118800E+02  0.7816164E-02  0.1184000E+00
        -11   -1    0    0    0    0  0.00000000000E+00  0.00000000000E+00  0.45593999997E+02  0.45594000000E+02  0.51100000000E-03 0. -1.
         11   -1    0    0    0    0 -0.00000000000E+00 -0.00000000000E+00 -0.45593999997E+02  0.45594000000E+02  0.51100000000E-03 0.  1.
         23    2    1    2    0    0  0.00000000000E+00  0.00000000000E+00  0.00000000000E+00  0.91188000000E+02  0.91188000000E+02 0.  0.
    9900012    2    3    3    0    0  0.14199466835E+02  0.39698204076E+02  0.15860048588E+02  0.46142318670E+02  0.10000008287E+02 0.  0.
        -12    1    3    3    0    0 -0.14199466835E+02 -0.39698204076E+02 -0.15860048588E+02  0.45045681330E+02  0.00000000000E+00 0.  1.
         11    1    4    4    0    0  0.17973120932E+01  0.91576321214E+01  0.13557607370E+01  0.94303045692E+01  0.51100000000E-03 0. -1.
        -11    1    4    4    0    0  0.87516442321E+01  0.19821120478E+02  0.58023556426E+01  0.22430680441E+02  0.51100000000E-03 0.  1.
        -12    1    4    4    0    0  0.36505105093E+01  0.10719451477E+02  0.87019322084E+01  0.14281333660E+02  0.00000000000E+00 0.  1.
</event>
<event>
 8    1  0.9117959E-009  0.9118800E+02  0.7816164E-02  0.1184000E+00
        -11   -1    0    0    0    0  0.00000000000E+00  0.00000000000E+00  0.45593999997E+02  0.45594000000E+02  0.51100000000E-03 0. -1.
         11   -1    0    0    0    0 -0.00000000000E+00 -0.00000000000E+00 -0.45593999997E+02  0.45594000000E+02  0.51100000000E-03 0.  1.
         23    2    1    2    0    0 -0.17763568394E-14  0.17763568394E-14  0.00000000000E+00  0.91188000000E+02  0.91188000000E+02 0.  0.
    9900012    2    3    3    0    0 -0.14873925698E+02  0.10456327208E+02  0.41213408008E+02  0.46142318254E+02  0.10000004492E+02 0.  0.
        -12    1    3    3    0    0  0.14873925698E+02 -0.10456327208E+02 -0.41213408008E+02  0.45045681746E+02  0.00000000000E+00 0.  1.
         11    1    4    4    0    0 -0.92521330155E+00  0.45178332277E+01  0.86564105909E+01  0.98081742086E+01  0.51100000000E-03 0. -1.
        -11    1    4    4    0    0 -0.22756386094E+01 -0.86701521166E+00  0.72159112777E+01  0.76157483077E+01  0.51100000000E-03 0.  1.
        -12    1    4    4    0    0 -0.11673073787E+02  0.68055091920E+01  0.25341086139E+02  0.28718395737E+02  0.00000000000E+00 0.  1.
</event>
<event>
 8    1  0.9117959E-009  0.9118800E+02  0.7816164E-02  0.1184000E+00
        -11   -1    0    0    0    0  0.00000000000E+00  0.00000000000E+00  0.45593999997E+02  0.45594000000E+02  0.51100000000E-03 0.  1.
         11   -1    0    0    0    0 -0.00000000000E+00 -0.00000000000E+00 -0.45593999997E+02  0.45594000000E+02  0.51100000000E-03 0. -1.
         23    2    1    2    0    0  0.00000000000E+00  0.17763568394E-14 -0.22204460493E-15  0.91188000000E+02  0.91188000000E+02 0.  0.
    9900012    2    3    3    0    0  0.42721531030E+02  0.14264799498E+02 -0.70699121589E+00  0.46142317023E+02  0.99999932727E+01 0.  0.
         12    1    3    3    0    0 -0.42721531030E+02 -0.14264799498E+02  0.70699121589E+00  0.45045682977E+02  0.00000000000E+00 0. -1.
         11    1    4    4    0    0  0.12437048590E+02  0.82422856571E+01  0.50441183392E+00  0.14928827216E+02  0.51100000000E-03 0. -1.
        -11    1    4    4    0    0  0.20813186907E+02  0.31862844688E+01  0.10110746667E+01  0.21079929558E+02  0.51100000000E-03 0.  1.
         12    1    4    4    0    0  0.94712955332E+01  0.28362293724E+01 -0.22224777165E+01  0.10133560250E+02  0.00000000000E+00 0. -1.
</event>
<event>
 8    1  0.9117959E-009  0.9118800E+02  0.7816164E-02  0.1184000E+00
        -11   -1    0    0    0    0  0.00000000000E+00  0.00000000000E+00  0.45593999997E+02  0.45594000000E+02  0.51100000000E-03 0.  1.
         11   -1    0    0    0    0 -0.00000000000E+00 -0.00000000000E+00 -0.45593999997E+02  0.45594000000E+02  0.51100000000E-03 0. -1.
         23    2    1    2    0    0 -0.71054273576E-14  0.00000000000E+00  0.35527136788E-14  0.91188000000E+02  0.91188000000E+02 0.  0.
    9900012    2    3    3    0    0  0.39659373421E+02  0.10319691955E+02 -0.18701644621E+02  0.46142318146E+02  0.10000003507E+02 0.  0.
        -12    1    3    3    0    0 -0.39659373421E+02 -0.10319691955E+02  0.18701644621E+02  0.45045681854E+02  0.00000000000E+00 0.  1.
         11    1    4    4    0    0  0.31072080847E+01  0.18559758771E+01 -0.26722300946E+01  0.44989112547E+01  0.51100000000E-03 0. -1.
        -11    1    4    4    0    0  0.17784705092E+02  0.54056108158E+00 -0.50206345925E+01  0.18487690864E+02  0.51100000000E-03 0.  1.
        -12    1    4    4    0    0  0.18767460244E+02  0.79231549962E+01 -0.11008779933E+02  0.23155716027E+02  0.00000000000E+00 0.  1.
</event>
<event>
 8    1  0.9117959E-009  0.9118800E+02  0.7816164E-02  0.1184000E+00
        -11   -1    0    0    0    0  0.00000000000E+00  0.00000000000E+00  0.45593999997E+02  0.45594000000E+02  0.51100000000E-03 0. -1.
         11   -1    0    0    0    0 -0.00000000000E+00 -0.00000000000E+00 -0.45593999997E+02  0.45594000000E+02  0.51100000000E-03 0.  1.
         23    2    1    2    0    0  0.00000000000E+00  0.00000000000E+00  0.00000000000E+00  0.91188000000E+02  0.91188000000E+02 0.  0.
    9900012    2    3    3    0    0 -0.50043415901E+01  0.19113707858E+02  0.40481308462E+02  0.46142316548E+02  0.99999889415E+01 0.  0.
        -12    1    3    3    0    0  0.50043415901E+01 -0.19113707858E+02 -0.40481308462E+02  0.45045683452E+02  0.00000000000E+00 0.  1.
         11    1    4    4    0    0 -0.37696085920E+01  0.44510404782E+01  0.14730293671E+02  0.15843082471E+02  0.51100000000E-03 0. -1.
        -11    1    4    4    0    0 -0.22740049038E+01  0.14710182823E+02  0.23469115696E+02  0.27791365004E+02  0.51100000000E-03 0.  1.
        -12    1    4    4    0    0  0.10392719058E+01 -0.47515442747E-01  0.22818990947E+01  0.25078690735E+01  0.00000000000E+00 0.  1.
</event>
<event>
 8    1  0.9117959E-009  0.9118800E+02  0.7816164E-02  0.1184000E+00
        -11   -1    0    0    0    0  0.00000000000E+00  0.00000000000E+00  0.45593999997E+02  0.45594000000E+02  0.51100000000E-03 0. -1.
         11   -1    0    0    0    0 -0.00000000000E+00 -0.00000000000E+00 -0.45593999997E+02  0.45594000000E+02  0.51100000000E-03 0.  1.
         23    2    1    2    0    0 -0.44408920985E-15  0.00000000000E+00  0.00000000000E+00  0.91188000000E+02  0.91188000000E+02 0.  0.
    9900012    2    3    3    0    0 -0.39494365568E+01 -0.14303788966E+02 -0.42531364749E+02  0.46142318572E+02  0.10000007399E+02 0.  0.
         12    1    3    3    0    0  0.39494365568E+01  0.14303788966E+02  0.42531364749E+02  0.45045681428E+02  0.00000000000E+00 0. -1.
         11    1    4    4    0    0 -0.10237675233E+01 -0.71537039378E+01 -0.22404248240E+02  0.23540898866E+02  0.51100000000E-03 0. -1.
        -11    1    4    4    0    0 -0.39118545930E+01 -0.75813683769E+01 -0.14108044022E+02  0.16486863232E+02  0.51100000000E-03 0.  1.
         12    1    4    4    0    0  0.98618555947E+00  0.43128334895E+00 -0.60190724862E+01  0.61145564744E+01  0.00000000000E+00 0. -1.
</event>
<event>
 8    1  0.9117959E-009  0.9118800E+02  0.7816164E-02  0.1184000E+00
        -11   -1    0    0    0    0  0.00000000000E+00  0.00000000000E+00  0.45593999997E+02  0.45594000000E+02  0.51100000000E-03 0. -1.
         11   -1    0    0    0    0 -0.00000000000E+00 -0.00000000000E+00 -0.45593999997E+02  0.45594000000E+02  0.51100000000E-03 0.  1.
         23    2    1    2    0    0  0.00000000000E+00  0.00000000000E+00 -0.35527136788E-14  0.91188000000E+02  0.91188000000E+02 0.  0.
    9900012    2    3    3    0    0  0.23975156381E+02  0.22491529765E+02 -0.30796695709E+02  0.46142317618E+02  0.99999986975E+01 0.  0.
         12    1    3    3    0    0 -0.23975156381E+02 -0.22491529765E+02  0.30796695709E+02  0.45045682382E+02  0.00000000000E+00 0. -1.
         11    1    4    4    0    0 -0.46462634968E+00  0.83825758568E-01 -0.19844255661E+01  0.20398160435E+01  0.51100000000E-03 0.  1.
        -11    1    4    4    0    0  0.46429978854E+01  0.64017020422E+01 -0.61315073204E+01  0.10006727771E+02  0.51100000000E-03 0. -1.
        -12    1    4    4    0    0  0.19796784845E+02  0.16006001964E+02 -0.22680762822E+02  0.34095773804E+02  0.00000000000E+00 0.  1.
</event>
<event>
 8    1  0.9117959E-009  0.9118800E+02  0.7816164E-02  0.1184000E+00
        -11   -1    0    0    0    0  0.00000000000E+00  0.00000000000E+00  0.45593999997E+02  0.45594000000E+02  0.51100000000E-03 0. -1.
         11   -1    0    0    0    0 -0.00000000000E+00 -0.00000000000E+00 -0.45593999997E+02  0.45594000000E+02  0.51100000000E-03 0.  1.
         23    2    1    2    0    0  0.00000000000E+00  0.00000000000E+00  0.71054273576E-14  0.91188000000E+02  0.91188000000E+02 0.  0.
    9900012    2    3    3    0    0  0.19739241737E+02  0.17224832472E+02  0.36643974586E+02  0.46142318837E+02  0.10000009807E+02 0.  0.
        -12    1    3    3    0    0 -0.19739241737E+02 -0.17224832472E+02 -0.36643974586E+02  0.45045681163E+02  0.00000000000E+00 0.  1.
         11    1    4    4    0    0  0.15776019222E+02  0.12824450116E+02  0.26440763906E+02  0.33353609992E+02  0.51100000000E-03 0. -1.
        -11    1    4    4    0    0  0.35671336985E+01  0.54170474266E+01  0.77651014115E+01  0.10117590911E+02  0.51100000000E-03 0.  1.
        -12    1    4    4    0    0  0.39608881671E+00 -0.10166650706E+01  0.24381092678E+01  0.26711179342E+01  0.00000000000E+00 0.  1.
</event>
<event>
 8    1  0.9117959E-009  0.9118800E+02  0.7816164E-02  0.1184000E+00
        -11   -1    0    0    0    0  0.00000000000E+00  0.00000000000E+00  0.45593999997E+02  0.45594000000E+02  0.51100000000E-03 0. -1.
         11   -1    0    0    0    0 -0.00000000000E+00 -0.00000000000E+00 -0.45593999997E+02  0.45594000000E+02  0.51100000000E-03 0.  1.
         23    2    1    2    0    0  0.00000000000E+00  0.00000000000E+00  0.00000000000E+00  0.91188000000E+02  0.91188000000E+02 0.  0.
    9900012    2    3    3    0    0 -0.13438629366E+02 -0.35036877673E+01 -0.42851381805E+02  0.46142317523E+02  0.99999978292E+01 0.  0.
         12    1    3    3    0    0  0.13438629366E+02  0.35036877673E+01  0.42851381805E+02  0.45045682477E+02  0.00000000000E+00 0. -1.
         11    1    4    4    0    0 -0.26134243084E+00 -0.13286593188E+01 -0.71610983786E+01  0.72880014888E+01  0.51100000000E-03 0. -1.
        -11    1    4    4    0    0 -0.12678786239E+01 -0.31590146841E+01 -0.82785652731E+01  0.89510632453E+01  0.51100000000E-03 0.  1.
        -12    1    4    4    0    0 -0.11909408312E+02  0.98398623563E+00 -0.27411718153E+02  0.29903252789E+02  0.00000000000E+00 0.  1.
</event>
<event>
 8    1  0.9117959E-009  0.9118800E+02  0.7816164E-02  0.1184000E+00
        -11   -1    0    0    0    0  0.00000000000E+00  0.00000000000E+00  0.45593999997E+02  0.45594000000E+02  0.51100000000E-03 0. -1.
         11   -1    0    0    0    0 -0.00000000000E+00 -0.00000000000E+00 -0.45593999997E+02  0.45594000000E+02  0.51100000000E-03 0.  1.
         23    2    1    2    0    0  0.00000000000E+00  0.00000000000E+00  0.00000000000E+00  0.91188000000E+02  0.91188000000E+02 0.  0.
    9900012    2    3    3    0    0  0.26286484630E+02  0.28452433675E+02 -0.22991158955E+02  0.46142316008E+02  0.99999840094E+01 0.  0.
         12    1    3    3    0    0 -0.26286484630E+02 -0.28452433675E+02  0.22991158955E+02  0.45045683992E+02  0.00000000000E+00 0. -1.
         11    1    4    4    0    0  0.74866601902E+01  0.42017345895E+01 -0.24494772266E+01  0.89277429011E+01  0.51100000000E-03 0. -1.
        -11    1    4    4    0    0  0.17054274110E+02  0.22603171483E+02 -0.17303393659E+02  0.33183716773E+02  0.51100000000E-03 0.  1.
         12    1    4    4    0    0  0.17455503299E+01  0.16475276024E+01 -0.32382880697E+01  0.40308563330E+01  0.00000000000E+00 0. -1.
</event>
<event>
 8    1  0.9117959E-009  0.9118800E+02  0.7816164E-02  0.1184000E+00
        -11   -1    0    0    0    0  0.00000000000E+00  0.00000000000E+00  0.45593999997E+02  0.45594000000E+02  0.51100000000E-03 0.  1.
         11   -1    0    0    0    0 -0.00000000000E+00 -0.00000000000E+00 -0.45593999997E+02  0.45594000000E+02  0.51100000000E-03 0. -1.
         23    2    1    2    0    0  0.71054273576E-14  0.00000000000E+00 -0.35527136788E-14  0.91188000000E+02  0.91188000000E+02 0.  0.
    9900012    2    3    3    0    0 -0.26805543374E+02 -0.33987514564E+02  0.12466970470E+02  0.46142315917E+02  0.99999831842E+01 0.  0.
         12    1    3    3    0    0  0.26805543374E+02  0.33987514564E+02 -0.12466970470E+02  0.45045684083E+02  0.00000000000E+00 0. -1.
         11    1    4    4    0    0 -0.11394200413E+01 -0.33731715074E+01 -0.73145380947E+00  0.36347749566E+01  0.51100000000E-03 0. -1.
        -11    1    4    4    0    0 -0.33184118114E+01 -0.68903015294E+01  0.10250448748E+01  0.77161408342E+01  0.51100000000E-03 0.  1.
        -12    1    4    4    0    0 -0.22347711521E+02 -0.23724041527E+02  0.12173379404E+02  0.34791400126E+02  0.00000000000E+00 0.  1.
</event>
<event>
 8    1  0.9117959E-009  0.9118800E+02  0.7816164E-02  0.1184000E+00
        -11   -1    0    0    0    0  0.00000000000E+00  0.00000000000E+00  0.45593999997E+02  0.45594000000E+02  0.51100000000E-03 0. -1.
         11   -1    0    0    0    0 -0.00000000000E+00 -0.00000000000E+00 -0.45593999997E+02  0.45594000000E+02  0.51100000000E-03 0.  1.
         23    2    1    2    0    0 -0.35527136788E-14  0.00000000000E+00  0.71054273576E-14  0.91188000000E+02  0.91188000000E+02 0.  0.
    9900012    2    3    3    0    0  0.17042808556E+02 -0.28033713957E+01 -0.41602852103E+02  0.46142317434E+02  0.99999970209E+01 0.  0.
         12    1    3    3    0    0 -0.17042808556E+02  0.28033713957E+01  0.41602852103E+02  0.45045682566E+02  0.00000000000E+00 0. -1.
         11    1    4    4    0    0  0.91609009624E+00  0.10986332470E+01 -0.15722470474E+01  0.21256004128E+01  0.51100000000E-03 0. -1.
        -11    1    4    4    0    0  0.15495590484E+01 -0.30590607278E+01 -0.49808991312E+01  0.60471763821E+01  0.51100000000E-03 0.  1.
        -12    1    4    4    0    0  0.14577159412E+02 -0.84294391491E+00 -0.35049705925E+02  0.37969540639E+02  0.00000000000E+00 0.  1.
</event>
<event>
 8    1  0.9117959E-009  0.9118800E+02  0.7816164E-02  0.1184000E+00
        -11   -1    0    0    0    0  0.00000000000E+00  0.00000000000E+00  0.45593999997E+02  0.45594000000E+02  0.51100000000E-03 0. -1.
         11   -1    0    0    0    0 -0.00000000000E+00 -0.00000000000E+00 -0.45593999997E+02  0.45594000000E+02  0.51100000000E-03 0.  1.
         23    2    1    2    0    0 -0.35527136788E-14  0.00000000000E+00  0.00000000000E+00  0.91188000000E+02  0.91188000000E+02 0.  0.
    9900012    2    3    3    0    0 -0.17873454724E+02 -0.29442199134E+02  0.29031188239E+02  0.46142319140E+02  0.10000012572E+02 0.  0.
        -12    1    3    3    0    0  0.17873454724E+02  0.29442199134E+02 -0.29031188239E+02  0.45045680860E+02  0.00000000000E+00 0.  1.
         11    1    4    4    0    0 -0.32109191416E+01 -0.10340380663E+02  0.10496023040E+02  0.15079786932E+02  0.51100000000E-03 0. -1.
        -11    1    4    4    0    0 -0.86327442390E+00 -0.23010563225E+01 -0.53020799674E-01  0.24582339995E+01  0.51100000000E-03 0.  1.
        -12    1    4    4    0    0 -0.13799261158E+02 -0.16800762148E+02  0.18588185998E+02  0.28604298208E+02  0.00000000000E+00 0.  1.
</event>
<event>
 8    1  0.9117959E-009  0.9118800E+02  0.7816164E-02  0.1184000E+00
        -11   -1    0    0    0    0  0.00000000000E+00  0.00000000000E+00  0.45593999997E+02  0.45594000000E+02  0.51100000000E-03 0. -1.
         11   -1    0    0    0    0 -0.00000000000E+00 -0.00000000000E+00 -0.45593999997E+02  0.45594000000E+02  0.51100000000E-03 0.  1.
         23    2    1    2    0    0  0.35527136788E-14  0.44408920985E-15 -0.71054273576E-14  0.91188000000E+02  0.91188000000E+02 0.  0.
    9900012    2    3    3    0    0  0.23833054920E+02  0.17394685717E+01 -0.38184722238E+02  0.46142320183E+02  0.10000022088E+02 0.  0.
         12    1    3    3    0    0 -0.23833054920E+02 -0.17394685717E+01  0.38184722238E+02  0.45045679817E+02  0.00000000000E+00 0. -1.
         11    1    4    4    0    0  0.11771702639E+02 -0.24136531657E+01 -0.17490976015E+02  0.21221049617E+02  0.51100000000E-03 0. -1.
        -11    1    4    4    0    0  0.57306572863E+01 -0.60806828206E+00 -0.66674792141E+01  0.88128008771E+01  0.51100000000E-03 0.  1.
         12    1    4    4    0    0  0.63306949948E+01  0.47611900194E+01 -0.14026267009E+02  0.16108469689E+02  0.00000000000E+00 0. -1.
</event>
<event>
 8    1  0.9117959E-009  0.9118800E+02  0.7816164E-02  0.1184000E+00
        -11   -1    0    0    0    0  0.00000000000E+00  0.00000000000E+00  0.45593999997E+02  0.45594000000E+02  0.51100000000E-03 0.  1.
         11   -1    0    0    0    0 -0.00000000000E+00 -0.00000000000E+00 -0.45593999997E+02  0.45594000000E+02  0.51100000000E-03 0. -1.
         23    2    1    2    0    0 -0.35527136788E-14  0.17763568394E-14  0.71054273576E-14  0.91188000000E+02  0.91188000000E+02 0.  0.
    9900012    2    3    3    0    0 -0.28314588342E+02 -0.15501848667E+02 -0.31417992230E+02  0.46142318067E+02  0.10000002791E+02 0.  0.
         12    1    3    3    0    0  0.28314588342E+02  0.15501848667E+02  0.31417992230E+02  0.45045681933E+02  0.00000000000E+00 0. -1.
         11    1    4    4    0    0 -0.34184876099E+01 -0.52787489523E+01 -0.74268762380E+01  0.97318928763E+01  0.51100000000E-03 0. -1.
        -11    1    4    4    0    0 -0.20372889094E+02 -0.89510804723E+01 -0.22048816068E+02  0.31326135125E+02  0.51100000000E-03 0.  1.
        -12    1    4    4    0    0 -0.45232116381E+01 -0.12720192420E+01 -0.19422999240E+01  0.50842900654E+01  0.00000000000E+00 0.  1.
</event>
<event>
 8    1  0.9117959E-009  0.9118800E+02  0.7816164E-02  0.1184000E+00
        -11   -1    0    0    0    0  0.00000000000E+00  0.00000000000E+00  0.45593999997E+02  0.45594000000E+02  0.51100000000E-03 0. -1.
         11   -1    0    0    0    0 -0.00000000000E+00 -0.00000000000E+00 -0.45593999997E+02  0.45594000000E+02  0.51100000000E-03 0.  1.
         23    2    1    2    0    0  0.71054273576E-14  0.00000000000E+00  0.00000000000E+00  0.91188000000E+02  0.91188000000E+02 0.  0.
    9900012    2    3    3    0    0 -0.36673842544E+02 -0.34786681297E+01  0.25923778483E+02  0.46142310421E+02  0.99999330627E+01 0.  0.
        -12    1    3    3    0    0  0.36673842544E+02  0.34786681297E+01 -0.25923778483E+02  0.45045689579E+02  0.00000000000E+00 0.  1.
         11    1    4    4    0    0 -0.20469321943E+02  0.27292772133E+01  0.12358338765E+02  0.24065964186E+02  0.51100000000E-03 0.  1.
        -11    1    4    4    0    0 -0.57241988587E+01 -0.14747058603E+01  0.43312166252E+01  0.73280725750E+01  0.51100000000E-03 0. -1.
        -12    1    4    4    0    0 -0.10480321742E+02 -0.47332394827E+01  0.92342230922E+01  0.14748273659E+02  0.00000000000E+00 0.  1.
</event>
<event>
 8    1  0.9117959E-009  0.9118800E+02  0.7816164E-02  0.1184000E+00
        -11   -1    0    0    0    0  0.00000000000E+00  0.00000000000E+00  0.45593999997E+02  0.45594000000E+02  0.51100000000E-03 0. -1.
         11   -1    0    0    0    0 -0.00000000000E+00 -0.00000000000E+00 -0.45593999997E+02  0.45594000000E+02  0.51100000000E-03 0.  1.
         23    2    1    2    0    0  0.17763568394E-14  0.35527136788E-14  0.00000000000E+00  0.91188000000E+02  0.91188000000E+02 0.  0.
    9900012    2    3    3    0    0 -0.65843263643E+01 -0.16287690762E+02  0.41478562662E+02  0.46142318913E+02  0.10000010505E+02 0.  0.
        -12    1    3    3    0    0  0.65843263643E+01  0.16287690762E+02 -0.41478562662E+02  0.45045681087E+02  0.00000000000E+00 0.  1.
         11    1    4    4    0    0 -0.89522512999E+00  0.78006342051E+00  0.19832140577E+01  0.23115071345E+01  0.51100000000E-03 0. -1.
        -11    1    4    4    0    0 -0.45733732165E+00 -0.53533129313E+01  0.18130195783E+02  0.18909550925E+02  0.51100000000E-03 0.  1.
         12    1    4    4    0    0 -0.52317639126E+01 -0.11714441251E+02  0.21365152822E+02  0.24921260854E+02  0.00000000000E+00 0. -1.
</event>
<event>
 8    1  0.9117959E-009  0.9118800E+02  0.7816164E-02  0.1184000E+00
        -11   -1    0    0    0    0  0.00000000000E+00  0.00000000000E+00  0.45593999997E+02  0.45594000000E+02  0.51100000000E-03 0.  1.
         11   -1    0    0    0    0 -0.00000000000E+00 -0.00000000000E+00 -0.45593999997E+02  0.45594000000E+02  0.51100000000E-03 0. -1.
         23    2    1    2    0    0  0.00000000000E+00  0.00000000000E+00  0.00000000000E+00  0.91188000000E+02  0.91188000000E+02 0.  0.
    9900012    2    3    3    0    0 -0.42871553313E+02  0.13380660841E+02  0.34786957058E+01  0.46142317723E+02  0.99999996497E+01 0.  0.
        -12    1    3    3    0    0  0.42871553313E+02 -0.13380660841E+02 -0.34786957058E+01  0.45045682277E+02  0.00000000000E+00 0.  1.
         11    1    4    4    0    0 -0.27697267233E+02  0.89053842091E+01  0.30607224394E+01  0.29254273230E+02  0.51100000000E-03 0. -1.
        -11    1    4    4    0    0 -0.14559506270E+02  0.28549655460E+01  0.13887756691E+01  0.14901635790E+02  0.51100000000E-03 0.  1.
        -12    1    4    4    0    0 -0.61477980996E+00  0.16203110860E+01 -0.97080240276E+00  0.19864087030E+01  0.00000000000E+00 0.  1.
</event>
<event>
 8    1  0.9117959E-009  0.9118800E+02  0.7816164E-02  0.1184000E+00
        -11   -1    0    0    0    0  0.00000000000E+00  0.00000000000E+00  0.45593999997E+02  0.45594000000E+02  0.51100000000E-03 0. -1.
         11   -1    0    0    0    0 -0.00000000000E+00 -0.00000000000E+00 -0.45593999997E+02  0.45594000000E+02  0.51100000000E-03 0.  1.
         23    2    1    2    0    0  0.00000000000E+00  0.00000000000E+00  0.00000000000E+00  0.91188000000E+02  0.91188000000E+02 0.  0.
    9900012    2    3    3    0    0 -0.17813786552E+02  0.35959006869E+02 -0.20462937879E+02  0.46142323260E+02  0.10000050148E+02 0.  0.
         12    1    3    3    0    0  0.17813786552E+02 -0.35959006869E+02  0.20462937879E+02  0.45045676740E+02  0.00000000000E+00 0. -1.
         11    1    4    4    0    0 -0.91714393981E+01  0.16409766838E+02 -0.62861595466E+01  0.19821996630E+02  0.51100000000E-03 0. -1.
        -11    1    4    4    0    0 -0.31285166278E+01  0.13285879443E+02 -0.71352218806E+01  0.15401740175E+02  0.51100000000E-03 0.  1.
         12    1    4    4    0    0 -0.55138305259E+01  0.62633605872E+01 -0.70415564514E+01  0.10918586455E+02  0.00000000000E+00 0. -1.
</event>
<event>
 8    1  0.9117959E-009  0.9118800E+02  0.7816164E-02  0.1184000E+00
        -11   -1    0    0    0    0  0.00000000000E+00  0.00000000000E+00  0.45593999997E+02  0.45594000000E+02  0.51100000000E-03 0. -1.
         11   -1    0    0    0    0 -0.00000000000E+00 -0.00000000000E+00 -0.45593999997E+02  0.45594000000E+02  0.51100000000E-03 0.  1.
         23    2    1    2    0    0  0.35527136788E-14  0.00000000000E+00  0.35527136788E-14  0.91188000000E+02  0.91188000000E+02 0.  0.
    9900012    2    3    3    0    0 -0.27687948222E+02  0.16898157742E+02 -0.31256092286E+02  0.46142317445E+02  0.99999971171E+01 0.  0.
         12    1    3    3    0    0  0.27687948222E+02 -0.16898157742E+02  0.31256092286E+02  0.45045682555E+02  0.00000000000E+00 0. -1.
         11    1    4    4    0    0 -0.94921483485E+01  0.41684464173E+01 -0.97184180746E+01  0.14210013228E+02  0.51100000000E-03 0.  1.
        -11    1    4    4    0    0 -0.48730157279E+01  0.34424893347E+01 -0.11173508336E+02  0.12666661119E+02  0.51100000000E-03 0. -1.
         12    1    4    4    0    0 -0.13322784146E+02  0.92872219899E+01 -0.10364165876E+02  0.19265643098E+02  0.00000000000E+00 0. -1.
</event>
<event>
 8    1  0.9117959E-009  0.9118800E+02  0.7816164E-02  0.1184000E+00
        -11   -1    0    0    0    0  0.00000000000E+00  0.00000000000E+00  0.45593999997E+02  0.45594000000E+02  0.51100000000E-03 0.  1.
         11   -1    0    0    0    0 -0.00000000000E+00 -0.00000000000E+00 -0.45593999997E+02  0.45594000000E+02  0.51100000000E-03 0. -1.
         23    2    1    2    0    0 -0.35527136788E-14 -0.35527136788E-14  0.35527136788E-14  0.91188000000E+02  0.91188000000E+02 0.  0.
    9900012    2    3    3    0    0  0.18730071951E+02  0.29115856830E+02 -0.28819516884E+02  0.46142320211E+02  0.10000022336E+02 0.  0.
         12    1    3    3    0    0 -0.18730071951E+02 -0.29115856830E+02  0.28819516884E+02  0.45045679789E+02  0.00000000000E+00 0. -1.
         11    1    4    4    0    0  0.10459449218E+02  0.82675512662E+01 -0.90704149899E+01  0.16125287912E+02  0.51100000000E-03 0. -1.
        -11    1    4    4    0    0  0.68176737001E+01  0.13624859994E+02 -0.13139481119E+02  0.20118733780E+02  0.51100000000E-03 0.  1.
        -12    1    4    4    0    0  0.14529490333E+01  0.72234455697E+01 -0.66096207750E+01  0.98982985194E+01  0.00000000000E+00 0.  1.
</event>
<event>
 8    1  0.9117959E-009  0.9118800E+02  0.7816164E-02  0.1184000E+00
        -11   -1    0    0    0    0  0.00000000000E+00  0.00000000000E+00  0.45593999997E+02  0.45594000000E+02  0.51100000000E-03 0. -1.
         11   -1    0    0    0    0 -0.00000000000E+00 -0.00000000000E+00 -0.45593999997E+02  0.45594000000E+02  0.51100000000E-03 0.  1.
         23    2    1    2    0    0  0.17763568394E-14  0.00000000000E+00  0.00000000000E+00  0.91188000000E+02  0.91188000000E+02 0.  0.
    9900012    2    3    3    0    0  0.15381281596E+02 -0.40422430679E+02 -0.12591930666E+02  0.46142318260E+02  0.10000004545E+02 0.  0.
         12    1    3    3    0    0 -0.15381281596E+02  0.40422430679E+02  0.12591930666E+02  0.45045681740E+02  0.00000000000E+00 0. -1.
         11    1    4    4    0    0  0.97413731256E+01 -0.27228740120E+02 -0.64292281255E+01  0.29624881661E+02  0.51100000000E-03 0.  1.
        -11    1    4    4    0    0  0.53533781639E+01 -0.13603399751E+02 -0.64067066753E+01  0.15961110025E+02  0.51100000000E-03 0. -1.
         12    1    4    4    0    0  0.28653030669E+00  0.40970919140E+00  0.24400413513E+00  0.55632657327E+00  0.00000000000E+00 0. -1.
</event>
<event>
 8    1  0.9117959E-009  0.9118800E+02  0.7816164E-02  0.1184000E+00
        -11   -1    0    0    0    0  0.00000000000E+00  0.00000000000E+00  0.45593999997E+02  0.45594000000E+02  0.51100000000E-03 0. -1.
         11   -1    0    0    0    0 -0.00000000000E+00 -0.00000000000E+00 -0.45593999997E+02  0.45594000000E+02  0.51100000000E-03 0.  1.
         23    2    1    2    0    0  0.00000000000E+00  0.00000000000E+00 -0.35527136788E-14  0.91188000000E+02  0.91188000000E+02 0.  0.
    9900012    2    3    3    0    0  0.28610689027E+02  0.18738157911E+02  0.29315924100E+02  0.46142317695E+02  0.99999993950E+01 0.  0.
        -12    1    3    3    0    0 -0.28610689027E+02 -0.18738157911E+02 -0.29315924100E+02  0.45045682305E+02  0.00000000000E+00 0.  1.
         11    1    4    4    0    0  0.11279734225E+02  0.86593094222E+01  0.11386471080E+02  0.18217238203E+02  0.51100000000E-03 0. -1.
        -11    1    4    4    0    0  0.25892628945E+01  0.39703235533E+01  0.13827525730E+01  0.49375860898E+01  0.51100000000E-03 0.  1.
        -12    1    4    4    0    0  0.14741691908E+02  0.61085249357E+01  0.16546700447E+02  0.22987493402E+02  0.00000000000E+00 0.  1.
</event>
<event>
 8    1  0.9117959E-009  0.9118800E+02  0.7816164E-02  0.1184000E+00
        -11   -1    0    0    0    0  0.00000000000E+00  0.00000000000E+00  0.45593999997E+02  0.45594000000E+02  0.51100000000E-03 0. -1.
         11   -1    0    0    0    0 -0.00000000000E+00 -0.00000000000E+00 -0.45593999997E+02  0.45594000000E+02  0.51100000000E-03 0.  1.
         23    2    1    2    0    0  0.35527136788E-14 -0.35527136788E-14  0.00000000000E+00  0.91188000000E+02  0.91188000000E+02 0.  0.
    9900012    2    3    3    0    0 -0.25602540627E+02  0.29160369482E+02 -0.22875669742E+02  0.46142317621E+02  0.99999987218E+01 0.  0.
         12    1    3    3    0    0  0.25602540627E+02 -0.29160369482E+02  0.22875669742E+02  0.45045682379E+02  0.00000000000E+00 0. -1.
         11    1    4    4    0    0 -0.12749422226E+01  0.31580832160E+01 -0.43328828437E+01  0.55111560736E+01  0.51100000000E-03 0. -1.
        -11    1    4    4    0    0 -0.17171240210E+01  0.49287969575E-01 -0.64207321144E+00  0.18339036172E+01  0.51100000000E-03 0.  1.
        -12    1    4    4    0    0 -0.22610474383E+02  0.25952998296E+02 -0.17900713687E+02  0.38797257930E+02  0.00000000000E+00 0.  1.
</event>
<event>
 8    1  0.9117959E-009  0.9118800E+02  0.7816164E-02  0.1184000E+00
        -11   -1    0    0    0    0  0.00000000000E+00  0.00000000000E+00  0.45593999997E+02  0.45594000000E+02  0.51100000000E-03 0. -1.
         11   -1    0    0    0    0 -0.00000000000E+00 -0.00000000000E+00 -0.45593999997E+02  0.45594000000E+02  0.51100000000E-03 0.  1.
         23    2    1    2    0    0  0.88817841970E-15 -0.71054273576E-14 -0.35527136788E-14  0.91188000000E+02  0.91188000000E+02 0.  0.
    9900012    2    3    3    0    0 -0.57655949931E+01  0.34288980877E+02  0.28638037384E+02  0.46142317849E+02  0.10000000805E+02 0.  0.
        -12    1    3    3    0    0  0.57655949931E+01 -0.34288980877E+02 -0.28638037384E+02  0.45045682151E+02  0.00000000000E+00 0.  1.
         11    1    4    4    0    0  0.52575273942E+00  0.13054996246E+02  0.10184198759E+02  0.16565845814E+02  0.51100000000E-03 0. -1.
        -11    1    4    4    0    0 -0.17923613223E+01  0.42086671334E+01  0.80469134752E+00  0.46446707715E+01  0.51100000000E-03 0.  1.
        -12    1    4    4    0    0 -0.44989864102E+01  0.17025317498E+02  0.17649147278E+02  0.24931801263E+02  0.00000000000E+00 0.  1.
</event>
<event>
 8    1  0.9117959E-009  0.9118800E+02  0.7816164E-02  0.1184000E+00
        -11   -1    0    0    0    0  0.00000000000E+00  0.00000000000E+00  0.45593999997E+02  0.45594000000E+02  0.51100000000E-03 0. -1.
         11   -1    0    0    0    0 -0.00000000000E+00 -0.00000000000E+00 -0.45593999997E+02  0.45594000000E+02  0.51100000000E-03 0.  1.
         23    2    1    2    0    0  0.00000000000E+00 -0.35527136788E-14  0.71054273576E-14  0.91188000000E+02  0.91188000000E+02 0.  0.
    9900012    2    3    3    0    0  0.14758211668E+02  0.24402841225E+02 -0.34868467183E+02  0.46142317907E+02  0.10000001332E+02 0.  0.
         12    1    3    3    0    0 -0.14758211668E+02 -0.24402841225E+02  0.34868467183E+02  0.45045682093E+02  0.00000000000E+00 0. -1.
         11    1    4    4    0    0  0.48549395197E+01  0.12380628125E+02 -0.11922247920E+02  0.17860301964E+02  0.51100000000E-03 0. -1.
        -11    1    4    4    0    0  0.31191538915E+01  0.79814859382E+01 -0.10663057532E+02  0.13679694257E+02  0.51100000000E-03 0.  1.
        -12    1    4    4    0    0  0.67841182573E+01  0.40407271627E+01 -0.12283161731E+02  0.14602321687E+02  0.00000000000E+00 0.  1.
</event>
<event>
 8    1  0.9117959E-009  0.9118800E+02  0.7816164E-02  0.1184000E+00
        -11   -1    0    0    0    0  0.00000000000E+00  0.00000000000E+00  0.45593999997E+02  0.45594000000E+02  0.51100000000E-03 0. -1.
         11   -1    0    0    0    0 -0.00000000000E+00 -0.00000000000E+00 -0.45593999997E+02  0.45594000000E+02  0.51100000000E-03 0.  1.
         23    2    1    2    0    0 -0.17763568394E-14 -0.17763568394E-14  0.00000000000E+00  0.91188000000E+02  0.91188000000E+02 0.  0.
    9900012    2    3    3    0    0 -0.15412828314E+02  0.11214065796E+02  0.40814250225E+02  0.46142316858E+02  0.99999917618E+01 0.  0.
        -12    1    3    3    0    0  0.15412828314E+02 -0.11214065796E+02 -0.40814250225E+02  0.45045683142E+02  0.00000000000E+00 0.  1.
         11    1    4    4    0    0 -0.24872875150E+01  0.13690973129E+01  0.95251899577E+01  0.99393294857E+01  0.51100000000E-03 0. -1.
        -11    1    4    4    0    0  0.62635733361E+00  0.13403352809E+01  0.60545660821E+00  0.15985618975E+01  0.51100000000E-03 0.  1.
         12    1    4    4    0    0 -0.13551898132E+02  0.85046332023E+01  0.30683603659E+02  0.34604425475E+02  0.00000000000E+00 0. -1.
</event>
<event>
 8    1  0.1635570E-008  0.9118800E+02  0.7816164E-02  0.1184000E+00
        -11   -1    0    0    0    0  0.00000000000E+00  0.00000000000E+00  0.45593999997E+02  0.45594000000E+02  0.51100000000E-03 0. -1.
         11   -1    0    0    0    0 -0.00000000000E+00 -0.00000000000E+00 -0.45593999997E+02  0.45594000000E+02  0.51100000000E-03 0.  1.
         23    2    1    2    0    0  0.00000000000E+00  0.35527136788E-14  0.71054273576E-14  0.91188000000E+02  0.91188000000E+02 0.  0.
    9900012    2    3    3    0    0 -0.25848732015E+02  0.98469221879E+01  0.35552701672E+02  0.46142318525E+02  0.10000006970E+02 0.  0.
        -12    1    3    3    0    0  0.25848732015E+02 -0.98469221879E+01 -0.35552701672E+02  0.45045681475E+02  0.00000000000E+00 0.  1.
         11    1    4    4    0    0  0.18856258859E+00  0.23709462727E+00 -0.12231571220E+00  0.32669727067E+00  0.51100000000E-03 0. -1.
        -11    1    4    4    0    0 -0.37561131204E+01 -0.63423939107E+00  0.24834438971E+01  0.45473222042E+01  0.51100000000E-03 0.  1.
         12    1    4    4    0    0 -0.22281181483E+02  0.10244066952E+02  0.33191573487E+02  0.41268299051E+02  0.00000000000E+00 0. -1.
</event>
<event>
 8    1  0.9117959E-009  0.9118800E+02  0.7816164E-02  0.1184000E+00
        -11   -1    0    0    0    0  0.00000000000E+00  0.00000000000E+00  0.45593999997E+02  0.45594000000E+02  0.51100000000E-03 0. -1.
         11   -1    0    0    0    0 -0.00000000000E+00 -0.00000000000E+00 -0.45593999997E+02  0.45594000000E+02  0.51100000000E-03 0.  1.
         23    2    1    2    0    0  0.35527136788E-14  0.00000000000E+00  0.00000000000E+00  0.91188000000E+02  0.91188000000E+02 0.  0.
    9900012    2    3    3    0    0  0.16875024409E+02  0.38908311207E+02 -0.15181913139E+02  0.46142316341E+02  0.99999870473E+01 0.  0.
         12    1    3    3    0    0 -0.16875024409E+02 -0.38908311207E+02  0.15181913139E+02  0.45045683659E+02  0.00000000000E+00 0. -1.
         11    1    4    4    0    0  0.92984888781E+00  0.30027089010E+01  0.10422799277E+01  0.33116804506E+01  0.51100000000E-03 0. -1.
        -11    1    4    4    0    0  0.22356505717E+01  0.79782882922E+01 -0.15361912578E+01  0.84268084939E+01  0.51100000000E-03 0.  1.
        -12    1    4    4    0    0  0.13709524949E+02  0.27927314014E+02 -0.14688001809E+02  0.34403827396E+02  0.00000000000E+00 0.  1.
</event>
<event>
 8    1  0.9117959E-009  0.9118800E+02  0.7816164E-02  0.1184000E+00
        -11   -1    0    0    0    0  0.00000000000E+00  0.00000000000E+00  0.45593999997E+02  0.45594000000E+02  0.51100000000E-03 0. -1.
         11   -1    0    0    0    0 -0.00000000000E+00 -0.00000000000E+00 -0.45593999997E+02  0.45594000000E+02  0.51100000000E-03 0.  1.
         23    2    1    2    0    0  0.00000000000E+00 -0.35527136788E-14  0.00000000000E+00  0.91188000000E+02  0.91188000000E+02 0.  0.
    9900012    2    3    3    0    0 -0.21812346653E+02  0.27909081980E+02  0.27828369350E+02  0.46142318030E+02  0.10000002454E+02 0.  0.
        -12    1    3    3    0    0  0.21812346653E+02 -0.27909081980E+02 -0.27828369350E+02  0.45045681970E+02  0.00000000000E+00 0.  1.
         11    1    4    4    0    0 -0.62089627485E+01  0.10112887612E+02  0.49921462284E+01  0.12874130592E+02  0.51100000000E-03 0.  1.
        -11    1    4    4    0    0 -0.15888968268E+01  0.47941100695E+01  0.41711769749E+01  0.65503283965E+01  0.51100000000E-03 0. -1.
         12    1    4    4    0    0 -0.14014487077E+02  0.13002084298E+02  0.18665046146E+02  0.26717859042E+02  0.00000000000E+00 0. -1.
</event>
<event>
 8    1  0.9117959E-009  0.9118800E+02  0.7816164E-02  0.1184000E+00
        -11   -1    0    0    0    0  0.00000000000E+00  0.00000000000E+00  0.45593999997E+02  0.45594000000E+02  0.51100000000E-03 0. -1.
         11   -1    0    0    0    0 -0.00000000000E+00 -0.00000000000E+00 -0.45593999997E+02  0.45594000000E+02  0.51100000000E-03 0.  1.
         23    2    1    2    0    0  0.27170106442E-15  0.00000000000E+00  0.00000000000E+00  0.91188000000E+02  0.91188000000E+02 0.  0.
    9900012    2    3    3    0    0 -0.72981614791E-03 -0.20744448321E+02  0.39984765035E+02  0.46142316837E+02  0.99999915772E+01 0.  0.
        -12    1    3    3    0    0  0.72981614791E-03  0.20744448321E+02 -0.39984765035E+02  0.45045683163E+02  0.00000000000E+00 0.  1.
         11    1    4    4    0    0 -0.26354327283E+00 -0.77905559080E+01  0.83735262737E+01  0.11440199252E+02  0.51100000000E-03 0. -1.
        -11    1    4    4    0    0  0.25773476889E+01 -0.28082218909E+01  0.10380109211E+02  0.11057825229E+02  0.51100000000E-03 0.  1.
         12    1    4    4    0    0 -0.23145342322E+01 -0.10145670523E+02  0.21231129550E+02  0.23644292357E+02  0.00000000000E+00 0. -1.
</event>
<event>
 8    1  0.9117959E-009  0.9118800E+02  0.7816164E-02  0.1184000E+00
        -11   -1    0    0    0    0  0.00000000000E+00  0.00000000000E+00  0.45593999997E+02  0.45594000000E+02  0.51100000000E-03 0. -1.
         11   -1    0    0    0    0 -0.00000000000E+00 -0.00000000000E+00 -0.45593999997E+02  0.45594000000E+02  0.51100000000E-03 0.  1.
         23    2    1    2    0    0  0.00000000000E+00 -0.88817841970E-15 -0.71054273576E-14  0.91188000000E+02  0.91188000000E+02 0.  0.
    9900012    2    3    3    0    0 -0.18757494316E+02  0.44112942673E+01  0.40716216912E+02  0.46142318412E+02  0.10000005936E+02 0.  0.
        -12    1    3    3    0    0  0.18757494316E+02 -0.44112942673E+01 -0.40716216912E+02  0.45045681588E+02  0.00000000000E+00 0.  1.
         11    1    4    4    0    0 -0.63093088011E+01  0.28189239146E+00  0.16471949360E+02  0.17641200550E+02  0.51100000000E-03 0. -1.
        -11    1    4    4    0    0 -0.37608869037E+01  0.44946174354E+01  0.65711065129E+01  0.88048451013E+01  0.51100000000E-03 0.  1.
         12    1    4    4    0    0 -0.86872986110E+01 -0.36521555957E+00  0.17673161039E+02  0.19696272761E+02  0.00000000000E+00 0. -1.
</event>
<event>
 8    1  0.9117959E-009  0.9118800E+02  0.7816164E-02  0.1184000E+00
        -11   -1    0    0    0    0  0.00000000000E+00  0.00000000000E+00  0.45593999997E+02  0.45594000000E+02  0.51100000000E-03 0. -1.
         11   -1    0    0    0    0 -0.00000000000E+00 -0.00000000000E+00 -0.45593999997E+02  0.45594000000E+02  0.51100000000E-03 0.  1.
         23    2    1    2    0    0 -0.35527136788E-14  0.00000000000E+00  0.00000000000E+00  0.91188000000E+02  0.91188000000E+02 0.  0.
    9900012    2    3    3    0    0  0.31124417819E+02  0.12755321159E+02 -0.29961406709E+02  0.46142317694E+02  0.99999993872E+01 0.  0.
         12    1    3    3    0    0 -0.31124417819E+02 -0.12755321159E+02  0.29961406709E+02  0.45045682306E+02  0.00000000000E+00 0. -1.
         11    1    4    4    0    0  0.19208326559E+02  0.87723825203E+01 -0.21935610203E+02  0.30448078749E+02  0.51100000000E-03 0.  1.
        -11    1    4    4    0    0  0.80646292222E+01  0.22227876537E+00 -0.53727394870E+01  0.96929862374E+01  0.51100000000E-03 0. -1.
        -12    1    4    4    0    0  0.38514620383E+01  0.37606598731E+01 -0.26530570186E+01  0.60012527073E+01  0.00000000000E+00 0.  1.
</event>
<event>
 8    1  0.9117959E-009  0.9118800E+02  0.7816164E-02  0.1184000E+00
        -11   -1    0    0    0    0  0.00000000000E+00  0.00000000000E+00  0.45593999997E+02  0.45594000000E+02  0.51100000000E-03 0. -1.
         11   -1    0    0    0    0 -0.00000000000E+00 -0.00000000000E+00 -0.45593999997E+02  0.45594000000E+02  0.51100000000E-03 0.  1.
         23    2    1    2    0    0  0.00000000000E+00 -0.11102230246E-15  0.00000000000E+00  0.91188000000E+02  0.91188000000E+02 0.  0.
    9900012    2    3    3    0    0  0.42209641947E+02 -0.79976656455E+00 -0.15710505751E+02  0.46142317734E+02  0.99999997550E+01 0.  0.
         12    1    3    3    0    0 -0.42209641947E+02  0.79976656455E+00  0.15710505751E+02  0.45045682266E+02  0.00000000000E+00 0. -1.
         11    1    4    4    0    0  0.19271279430E+02 -0.26141387594E+01 -0.10498305473E+02  0.22100460411E+02  0.51100000000E-03 0. -1.
        -11    1    4    4    0    0  0.22229126387E+02  0.17102871372E+01 -0.58853085768E+01  0.23058534198E+02  0.51100000000E-03 0.  1.
         12    1    4    4    0    0  0.70923612967E+00  0.10408505764E+00  0.67310829911E+00  0.98332312551E+00  0.00000000000E+00 0. -1.
</event>
<event>
 8    1  0.9117959E-009  0.9118800E+02  0.7816164E-02  0.1184000E+00
        -11   -1    0    0    0    0  0.00000000000E+00  0.00000000000E+00  0.45593999997E+02  0.45594000000E+02  0.51100000000E-03 0. -1.
         11   -1    0    0    0    0 -0.00000000000E+00 -0.00000000000E+00 -0.45593999997E+02  0.45594000000E+02  0.51100000000E-03 0.  1.
         23    2    1    2    0    0  0.00000000000E+00  0.00000000000E+00  0.00000000000E+00  0.91188000000E+02  0.91188000000E+02 0.  0.
    9900012    2    3    3    0    0  0.20153649921E+02 -0.20666163550E+02 -0.34581112087E+02  0.46142320583E+02  0.10000025732E+02 0.  0.
         12    1    3    3    0    0 -0.20153649921E+02  0.20666163550E+02  0.34581112087E+02  0.45045679417E+02  0.00000000000E+00 0. -1.
         11    1    4    4    0    0  0.32538116473E+01 -0.64706060139E+01 -0.73609287204E+01  0.10326630831E+02  0.51100000000E-03 0. -1.
        -11    1    4    4    0    0  0.12645338786E+02 -0.11694709734E+02 -0.25107017611E+02  0.30447219288E+02  0.51100000000E-03 0.  1.
        -12    1    4    4    0    0  0.42544994880E+01 -0.25008478012E+01 -0.21131657549E+01  0.53684704643E+01  0.00000000000E+00 0.  1.
</event>
<event>
 8    1  0.9117959E-009  0.9118800E+02  0.7816164E-02  0.1184000E+00
        -11   -1    0    0    0    0  0.00000000000E+00  0.00000000000E+00  0.45593999997E+02  0.45594000000E+02  0.51100000000E-03 0.  1.
         11   -1    0    0    0    0 -0.00000000000E+00 -0.00000000000E+00 -0.45593999997E+02  0.45594000000E+02  0.51100000000E-03 0. -1.
         23    2    1    2    0    0  0.00000000000E+00  0.00000000000E+00 -0.97144514655E-16  0.91188000000E+02  0.91188000000E+02 0.  0.
    9900012    2    3    3    0    0 -0.37961643338E+02  0.24248978866E+02 -0.11905249669E+00  0.46142317471E+02  0.99999973548E+01 0.  0.
         12    1    3    3    0    0  0.37961643338E+02 -0.24248978866E+02  0.11905249669E+00  0.45045682529E+02  0.00000000000E+00 0. -1.
         11    1    4    4    0    0 -0.86788054309E+01  0.28213136808E+01 -0.43779068726E+00  0.91363633651E+01  0.51100000000E-03 0. -1.
        -11    1    4    4    0    0 -0.13702758325E+02  0.57327947016E+01  0.92897316859E+00  0.14882658103E+02  0.51100000000E-03 0.  1.
        -12    1    4    4    0    0 -0.15580079583E+02  0.15694870484E+02 -0.61023497802E+00  0.22123296003E+02  0.00000000000E+00 0.  1.
</event>
<event>
 8    1  0.9117959E-009  0.9118800E+02  0.7816164E-02  0.1184000E+00
        -11   -1    0    0    0    0  0.00000000000E+00  0.00000000000E+00  0.45593999997E+02  0.45594000000E+02  0.51100000000E-03 0. -1.
         11   -1    0    0    0    0 -0.00000000000E+00 -0.00000000000E+00 -0.45593999997E+02  0.45594000000E+02  0.51100000000E-03 0.  1.
         23    2    1    2    0    0  0.00000000000E+00  0.00000000000E+00 -0.71054273576E-14  0.91188000000E+02  0.91188000000E+02 0.  0.
    9900012    2    3    3    0    0  0.40101432067E+01  0.24765111673E+02 -0.37412851900E+02  0.46142317720E+02  0.99999996289E+01 0.  0.
         12    1    3    3    0    0 -0.40101432067E+01 -0.24765111673E+02  0.37412851900E+02  0.45045682280E+02  0.00000000000E+00 0. -1.
         11    1    4    4    0    0  0.27218146601E+01  0.11017998038E+02 -0.13572071355E+02  0.17691966452E+02  0.51100000000E-03 0. -1.
        -11    1    4    4    0    0 -0.16781159769E+01  0.79181778442E+01 -0.17770829865E+02  0.19527314407E+02  0.51100000000E-03 0.  1.
         12    1    4    4    0    0  0.29664445235E+01  0.58289357907E+01 -0.60699506795E+01  0.89230368606E+01  0.00000000000E+00 0. -1.
</event>
<event>
 8    1  0.9117959E-009  0.9118800E+02  0.7816164E-02  0.1184000E+00
        -11   -1    0    0    0    0  0.00000000000E+00  0.00000000000E+00  0.45593999997E+02  0.45594000000E+02  0.51100000000E-03 0.  1.
         11   -1    0    0    0    0 -0.00000000000E+00 -0.00000000000E+00 -0.45593999997E+02  0.45594000000E+02  0.51100000000E-03 0. -1.
         23    2    1    2    0    0  0.71054273576E-14  0.00000000000E+00  0.00000000000E+00  0.91188000000E+02  0.91188000000E+02 0.  0.
    9900012    2    3    3    0    0 -0.41771998687E+02 -0.79036737253E+01 -0.14891121758E+02  0.46142318299E+02  0.10000004906E+02 0.  0.
         12    1    3    3    0    0  0.41771998687E+02  0.79036737253E+01  0.14891121758E+02  0.45045681701E+02  0.00000000000E+00 0. -1.
         11    1    4    4    0    0 -0.25101502233E+01 -0.10521427402E+01  0.11014690612E+00  0.27239660591E+01  0.51100000000E-03 0. -1.
        -11    1    4    4    0    0 -0.19977466240E+02 -0.15743116865E+01 -0.34690840676E+01  0.20337457049E+02  0.51100000000E-03 0.  1.
        -12    1    4    4    0    0 -0.19284382224E+02 -0.52772192986E+01 -0.11532184596E+02  0.23080895191E+02  0.00000000000E+00 0.  1.
</event>
<event>
 8    1  0.9117959E-009  0.9118800E+02  0.7816164E-02  0.1184000E+00
        -11   -1    0    0    0    0  0.00000000000E+00  0.00000000000E+00  0.45593999997E+02  0.45594000000E+02  0.51100000000E-03 0.  1.
         11   -1    0    0    0    0 -0.00000000000E+00 -0.00000000000E+00 -0.45593999997E+02  0.45594000000E+02  0.51100000000E-03 0. -1.
         23    2    1    2    0    0  0.71054273576E-14  0.17763568394E-14  0.17763568394E-14  0.91188000000E+02  0.91188000000E+02 0.  0.
    9900012    2    3    3    0    0  0.41221665648E+02 -0.14940555211E+02 -0.10327999232E+02  0.46142317888E+02  0.10000001153E+02 0.  0.
         12    1    3    3    0    0 -0.41221665648E+02  0.14940555211E+02  0.10327999232E+02  0.45045682112E+02  0.00000000000E+00 0. -1.
         11    1    4    4    0    0  0.44960560722E+01 -0.17517793129E+01  0.10410389985E+01  0.49362955161E+01  0.51100000000E-03 0. -1.
        -11    1    4    4    0    0  0.64674244756E+01 -0.39202046353E+01  0.49926047490E-01  0.75629410021E+01  0.51100000000E-03 0.  1.
         12    1    4    4    0    0  0.30258185101E+02 -0.92685712625E+01 -0.11418964278E+02  0.33643081369E+02  0.00000000000E+00 0. -1.
</event>
<event>
 8    1  0.9117959E-009  0.9118800E+02  0.7816164E-02  0.1184000E+00
        -11   -1    0    0    0    0  0.00000000000E+00  0.00000000000E+00  0.45593999997E+02  0.45594000000E+02  0.51100000000E-03 0. -1.
         11   -1    0    0    0    0 -0.00000000000E+00 -0.00000000000E+00 -0.45593999997E+02  0.45594000000E+02  0.51100000000E-03 0.  1.
         23    2    1    2    0    0  0.00000000000E+00  0.00000000000E+00  0.00000000000E+00  0.91188000000E+02  0.91188000000E+02 0.  0.
    9900012    2    3    3    0    0  0.97672979347E+01  0.19736981212E+02 -0.39295862991E+02  0.46142318914E+02  0.10000010510E+02 0.  0.
         12    1    3    3    0    0 -0.97672979347E+01 -0.19736981212E+02  0.39295862991E+02  0.45045681086E+02  0.00000000000E+00 0. -1.
         11    1    4    4    0    0  0.59871523463E+01  0.41896535274E+01 -0.10846591356E+02  0.13078521866E+02  0.51100000000E-03 0. -1.
        -11    1    4    4    0    0  0.43751721656E+01  0.73367493994E+01 -0.12942071547E+02  0.15507006139E+02  0.51100000000E-03 0.  1.
         12    1    4    4    0    0 -0.59502657724E+00  0.82105782855E+01 -0.15507200089E+02  0.17556790908E+02  0.00000000000E+00 0. -1.
</event>
<event>
 8    1  0.9117959E-009  0.9118800E+02  0.7816164E-02  0.1184000E+00
        -11   -1    0    0    0    0  0.00000000000E+00  0.00000000000E+00  0.45593999997E+02  0.45594000000E+02  0.51100000000E-03 0. -1.
         11   -1    0    0    0    0 -0.00000000000E+00 -0.00000000000E+00 -0.45593999997E+02  0.45594000000E+02  0.51100000000E-03 0.  1.
         23    2    1    2    0    0  0.00000000000E+00  0.00000000000E+00  0.00000000000E+00  0.91188000000E+02  0.91188000000E+02 0.  0.
    9900012    2    3    3    0    0 -0.35540947096E+02 -0.16836151616E+02  0.21965847259E+02  0.46142319102E+02  0.10000012229E+02 0.  0.
        -12    1    3    3    0    0  0.35540947096E+02  0.16836151616E+02 -0.21965847259E+02  0.45045680898E+02  0.00000000000E+00 0.  1.
         11    1    4    4    0    0 -0.32038525633E+02 -0.14661507519E+02  0.21886670611E+02  0.41478347100E+02  0.51100000000E-03 0. -1.
        -11    1    4    4    0    0 -0.19906858974E+01  0.11450351720E-01  0.21702989979E+00  0.20025143423E+01  0.51100000000E-03 0.  1.
         12    1    4    4    0    0 -0.15117355661E+01 -0.21860944480E+01 -0.13785325105E+00  0.26614576600E+01  0.00000000000E+00 0. -1.
</event>
<event>
 8    1  0.9117959E-009  0.9118800E+02  0.7816164E-02  0.1184000E+00
        -11   -1    0    0    0    0  0.00000000000E+00  0.00000000000E+00  0.45593999997E+02  0.45594000000E+02  0.51100000000E-03 0. -1.
         11   -1    0    0    0    0 -0.00000000000E+00 -0.00000000000E+00 -0.45593999997E+02  0.45594000000E+02  0.51100000000E-03 0.  1.
         23    2    1    2    0    0  0.00000000000E+00 -0.71054273576E-14  0.35527136788E-14  0.91188000000E+02  0.91188000000E+02 0.  0.
    9900012    2    3    3    0    0  0.20026333958E+02 -0.30037647727E+02  0.26940660610E+02  0.46142317334E+02  0.99999961022E+01 0.  0.
        -12    1    3    3    0    0 -0.20026333958E+02  0.30037647727E+02 -0.26940660610E+02  0.45045682666E+02  0.00000000000E+00 0.  1.
         11    1    4    4    0    0  0.21103486762E+01 -0.59619064675E+01  0.75643849963E+01  0.98599097813E+01  0.51100000000E-03 0. -1.
        -11    1    4    4    0    0  0.35208022376E+01 -0.91498986467E+01  0.78382598536E+01  0.12552091915E+02  0.51100000000E-03 0.  1.
         12    1    4    4    0    0  0.14395183045E+02 -0.14925842612E+02  0.11538015760E+02  0.23730315638E+02  0.00000000000E+00 0. -1.
</event>
<event>
 8    1  0.9117959E-009  0.9118800E+02  0.7816164E-02  0.1184000E+00
        -11   -1    0    0    0    0  0.00000000000E+00  0.00000000000E+00  0.45593999997E+02  0.45594000000E+02  0.51100000000E-03 0. -1.
         11   -1    0    0    0    0 -0.00000000000E+00 -0.00000000000E+00 -0.45593999997E+02  0.45594000000E+02  0.51100000000E-03 0.  1.
         23    2    1    2    0    0  0.00000000000E+00  0.00000000000E+00  0.00000000000E+00  0.91188000000E+02  0.91188000000E+02 0.  0.
    9900012    2    3    3    0    0 -0.68146915950E+01  0.17780613229E+02  0.40823081767E+02  0.46142309493E+02  0.99999246051E+01 0.  0.
        -12    1    3    3    0    0  0.68146915950E+01 -0.17780613229E+02 -0.40823081767E+02  0.45045690507E+02  0.00000000000E+00 0.  1.
         11    1    4    4    0    0 -0.45752220324E+01  0.13505854416E+02  0.33500167179E+02  0.36408817083E+02  0.51100000000E-03 0. -1.
        -11    1    4    4    0    0 -0.77577088365E+00  0.22125222626E+01  0.67429807396E+01  0.71389680446E+01  0.51100000000E-03 0.  1.
        -12    1    4    4    0    0 -0.14636986790E+01  0.20622365504E+01  0.57993384822E+00  0.25945243651E+01  0.00000000000E+00 0.  1.
</event>
<event>
 8    1  0.9117959E-009  0.9118800E+02  0.7816164E-02  0.1184000E+00
        -11   -1    0    0    0    0  0.00000000000E+00  0.00000000000E+00  0.45593999997E+02  0.45594000000E+02  0.51100000000E-03 0. -1.
         11   -1    0    0    0    0 -0.00000000000E+00 -0.00000000000E+00 -0.45593999997E+02  0.45594000000E+02  0.51100000000E-03 0.  1.
         23    2    1    2    0    0  0.00000000000E+00 -0.35527136788E-14  0.00000000000E+00  0.91188000000E+02  0.91188000000E+02 0.  0.
    9900012    2    3    3    0    0 -0.28629404732E+02 -0.21346699723E+02 -0.27455218845E+02  0.46142318229E+02  0.10000004264E+02 0.  0.
         12    1    3    3    0    0  0.28629404732E+02  0.21346699723E+02  0.27455218845E+02  0.45045681771E+02  0.00000000000E+00 0. -1.
         11    1    4    4    0    0 -0.64286019698E+00 -0.11443669386E+01 -0.15994506679E+01  0.20690789311E+01  0.51100000000E-03 0. -1.
        -11    1    4    4    0    0 -0.17230479542E+02 -0.12198068784E+02 -0.10154425295E+02  0.23426366783E+02  0.51100000000E-03 0.  1.
        -12    1    4    4    0    0 -0.10756064993E+02 -0.80042640007E+01 -0.15701342882E+02  0.20646872515E+02  0.00000000000E+00 0.  1.
</event>
<event>
 8    1  0.2048496E-008  0.9118800E+02  0.7816164E-02  0.1184000E+00
        -11   -1    0    0    0    0  0.00000000000E+00  0.00000000000E+00  0.45593999997E+02  0.45594000000E+02  0.51100000000E-03 0. -1.
         11   -1    0    0    0    0 -0.00000000000E+00 -0.00000000000E+00 -0.45593999997E+02  0.45594000000E+02  0.51100000000E-03 0.  1.
         23    2    1    2    0    0  0.00000000000E+00 -0.17763568394E-14  0.71054273576E-14  0.91188000000E+02  0.91188000000E+02 0.  0.
    9900012    2    3    3    0    0 -0.12727504150E+02  0.12050755769E+02  0.41495824397E+02  0.46142317423E+02  0.99999969128E+01 0.  0.
        -12    1    3    3    0    0  0.12727504150E+02 -0.12050755769E+02 -0.41495824397E+02  0.45045682577E+02  0.00000000000E+00 0.  1.
         11    1    4    4    0    0 -0.13068714872E+01  0.54017337954E-01  0.13159862100E+01  0.18554382023E+01  0.51100000000E-03 0. -1.
        -11    1    4    4    0    0 -0.11920090274E+01 -0.12354064019E+01  0.22227389325E+01  0.28085019357E+01  0.51100000000E-03 0.  1.
         12    1    4    4    0    0 -0.10228623636E+02  0.13232144833E+02  0.37957099254E+02  0.41478377285E+02  0.00000000000E+00 0. -1.
</event>
<event>
 8    1  0.9117959E-009  0.9118800E+02  0.7816164E-02  0.1184000E+00
        -11   -1    0    0    0    0  0.00000000000E+00  0.00000000000E+00  0.45593999997E+02  0.45594000000E+02  0.51100000000E-03 0. -1.
         11   -1    0    0    0    0 -0.00000000000E+00 -0.00000000000E+00 -0.45593999997E+02  0.45594000000E+02  0.51100000000E-03 0.  1.
         23    2    1    2    0    0  0.44408920985E-15  0.00000000000E+00  0.00000000000E+00  0.91188000000E+02  0.91188000000E+02 0.  0.
    9900012    2    3    3    0    0 -0.24971707512E+01 -0.21144043869E+02 -0.39696435083E+02  0.46142318617E+02  0.10000007806E+02 0.  0.
         12    1    3    3    0    0  0.24971707512E+01  0.21144043869E+02  0.39696435083E+02  0.45045681383E+02  0.00000000000E+00 0. -1.
         11    1    4    4    0    0  0.94106946959E+00 -0.55942496387E+01 -0.15014977036E+02  0.16050880861E+02  0.51100000000E-03 0.  1.
        -11    1    4    4    0    0  0.15233598652E+01 -0.36674401898E+01 -0.87334864782E+01  0.95939840083E+01  0.51100000000E-03 0. -1.
         12    1    4    4    0    0 -0.49616000861E+01 -0.11882354041E+02 -0.15947971569E+02  0.20497453748E+02  0.00000000000E+00 0. -1.
</event>
<event>
 8    1  0.9117959E-009  0.9118800E+02  0.7816164E-02  0.1184000E+00
        -11   -1    0    0    0    0  0.00000000000E+00  0.00000000000E+00  0.45593999997E+02  0.45594000000E+02  0.51100000000E-03 0. -1.
         11   -1    0    0    0    0 -0.00000000000E+00 -0.00000000000E+00 -0.45593999997E+02  0.45594000000E+02  0.51100000000E-03 0.  1.
         23    2    1    2    0    0 -0.35527136788E-14  0.00000000000E+00  0.00000000000E+00  0.91188000000E+02  0.91188000000E+02 0.  0.
    9900012    2    3    3    0    0  0.26360533806E+02 -0.11129039369E+02 -0.34790522700E+02  0.46142315084E+02  0.99999755847E+01 0.  0.
         12    1    3    3    0    0 -0.26360533806E+02  0.11129039369E+02  0.34790522700E+02  0.45045684916E+02  0.00000000000E+00 0. -1.
         11    1    4    4    0    0  0.33587511254E+01 -0.40790176550E+00 -0.47502589076E+01  0.58320281998E+01  0.51100000000E-03 0. -1.
        -11    1    4    4    0    0  0.17143595610E+02 -0.11258213178E+02 -0.26249477926E+02  0.33311939692E+02  0.51100000000E-03 0.  1.
        -12    1    4    4    0    0  0.58581870712E+01  0.53707557416E+00 -0.37907858664E+01  0.69983471919E+01  0.00000000000E+00 0.  1.
</event>
<event>
 8    1  0.9117959E-009  0.9118800E+02  0.7816164E-02  0.1184000E+00
        -11   -1    0    0    0    0  0.00000000000E+00  0.00000000000E+00  0.45593999997E+02  0.45594000000E+02  0.51100000000E-03 0.  1.
         11   -1    0    0    0    0 -0.00000000000E+00 -0.00000000000E+00 -0.45593999997E+02  0.45594000000E+02  0.51100000000E-03 0. -1.
         23    2    1    2    0    0  0.44408920985E-15  0.00000000000E+00  0.71054273576E-14  0.91188000000E+02  0.91188000000E+02 0.  0.
    9900012    2    3    3    0    0  0.26066635949E+01 -0.35418361911E+02  0.27710259587E+02  0.46142317167E+02  0.99999945786E+01 0.  0.
         12    1    3    3    0    0 -0.26066635949E+01  0.35418361911E+02 -0.27710259587E+02  0.45045682833E+02  0.00000000000E+00 0. -1.
         11    1    4    4    0    0  0.52509217424E+00 -0.14339322495E+01  0.14587683463E+00  0.15340025422E+01  0.51100000000E-03 0. -1.
        -11    1    4    4    0    0 -0.49156031535E+00  0.36996669818E+00  0.37144775368E+00  0.71866584462E+00  0.51100000000E-03 0.  1.
        -12    1    4    4    0    0  0.25731317360E+01 -0.34354396359E+02  0.27192934999E+02  0.43889648780E+02  0.00000000000E+00 0.  1.
</event>
<event>
 8    1  0.9117959E-009  0.9118800E+02  0.7816164E-02  0.1184000E+00
        -11   -1    0    0    0    0  0.00000000000E+00  0.00000000000E+00  0.45593999997E+02  0.45594000000E+02  0.51100000000E-03 0. -1.
         11   -1    0    0    0    0 -0.00000000000E+00 -0.00000000000E+00 -0.45593999997E+02  0.45594000000E+02  0.51100000000E-03 0.  1.
         23    2    1    2    0    0  0.00000000000E+00  0.44408920985E-15 -0.35527136788E-14  0.91188000000E+02  0.91188000000E+02 0.  0.
    9900012    2    3    3    0    0 -0.36388344136E+02  0.33081522065E+01 -0.26344980708E+02  0.46142317982E+02  0.10000002016E+02 0.  0.
         12    1    3    3    0    0  0.36388344136E+02 -0.33081522065E+01  0.26344980708E+02  0.45045682018E+02  0.00000000000E+00 0. -1.
         11    1    4    4    0    0 -0.68277083209E+01 -0.20226976555E+00 -0.54606936128E+01  0.87451523124E+01  0.51100000000E-03 0. -1.
        -11    1    4    4    0    0 -0.27497844795E+02  0.33214385371E+01 -0.21684620182E+02  0.35176500323E+02  0.51100000000E-03 0.  1.
         12    1    4    4    0    0 -0.20627910200E+01  0.18898343495E+00  0.80033308667E+00  0.22206653463E+01  0.00000000000E+00 0. -1.
</event>
<event>
 8    1  0.9117959E-009  0.9118800E+02  0.7816164E-02  0.1184000E+00
        -11   -1    0    0    0    0  0.00000000000E+00  0.00000000000E+00  0.45593999997E+02  0.45594000000E+02  0.51100000000E-03 0. -1.
         11   -1    0    0    0    0 -0.00000000000E+00 -0.00000000000E+00 -0.45593999997E+02  0.45594000000E+02  0.51100000000E-03 0.  1.
         23    2    1    2    0    0  0.00000000000E+00  0.00000000000E+00  0.00000000000E+00  0.91188000000E+02  0.91188000000E+02 0.  0.
    9900012    2    3    3    0    0 -0.28033282001E+02 -0.94678987487E+01  0.33964797982E+02  0.46142317538E+02  0.99999979679E+01 0.  0.
        -12    1    3    3    0    0  0.28033282001E+02  0.94678987487E+01 -0.33964797982E+02  0.45045682462E+02  0.00000000000E+00 0.  1.
         11    1    4    4    0    0 -0.11327243155E+01 -0.12510961382E+01  0.42703658992E+01  0.45917677529E+01  0.51100000000E-03 0.  1.
        -11    1    4    4    0    0 -0.20228449890E+02 -0.41199386662E+01  0.24999489791E+02  0.32421267243E+02  0.51100000000E-03 0. -1.
         12    1    4    4    0    0 -0.66721077958E+01 -0.40968639443E+01  0.46949422920E+01  0.91292825426E+01  0.00000000000E+00 0. -1.
</event>
<event>
 8    1  0.9117959E-009  0.9118800E+02  0.7816164E-02  0.1184000E+00
        -11   -1    0    0    0    0  0.00000000000E+00  0.00000000000E+00  0.45593999997E+02  0.45594000000E+02  0.51100000000E-03 0. -1.
         11   -1    0    0    0    0 -0.00000000000E+00 -0.00000000000E+00 -0.45593999997E+02  0.45594000000E+02  0.51100000000E-03 0.  1.
         23    2    1    2    0    0  0.11102230246E-15  0.00000000000E+00 -0.71054273576E-14  0.91188000000E+02  0.91188000000E+02 0.  0.
    9900012    2    3    3    0    0  0.83540624303E+00  0.47715598257E+01 -0.44784472785E+02  0.46142304430E+02  0.99998784393E+01 0.  0.
         12    1    3    3    0    0 -0.83540624303E+00 -0.47715598257E+01  0.44784472785E+02  0.45045695570E+02  0.00000000000E+00 0. -1.
         11    1    4    4    0    0 -0.41955338742E+00 -0.12471750971E+01 -0.34241708658E+01  0.36682989446E+01  0.51100000000E-03 0. -1.
        -11    1    4    4    0    0  0.65926045184E+00 -0.13288802812E+01 -0.23925486102E+01  0.28151085695E+01  0.51100000000E-03 0.  1.
        -12    1    4    4    0    0  0.59569917862E+00  0.73476152040E+01 -0.38967753309E+02  0.39658896916E+02  0.00000000000E+00 0.  1.
</event>
<event>
 8    1  0.9117959E-009  0.9118800E+02  0.7816164E-02  0.1184000E+00
        -11   -1    0    0    0    0  0.00000000000E+00  0.00000000000E+00  0.45593999997E+02  0.45594000000E+02  0.51100000000E-03 0. -1.
         11   -1    0    0    0    0 -0.00000000000E+00 -0.00000000000E+00 -0.45593999997E+02  0.45594000000E+02  0.51100000000E-03 0.  1.
         23    2    1    2    0    0  0.17763568394E-14  0.00000000000E+00  0.71054273576E-14  0.91188000000E+02  0.91188000000E+02 0.  0.
    9900012    2    3    3    0    0  0.81788604491E+01  0.31128551214E+01  0.44187440171E+02  0.46142317697E+02  0.99999994158E+01 0.  0.
        -12    1    3    3    0    0 -0.81788604491E+01 -0.31128551214E+01 -0.44187440171E+02  0.45045682303E+02  0.00000000000E+00 0.  1.
         11    1    4    4    0    0  0.72539855993E+01  0.30724978317E+00  0.28737367417E+02  0.29640360926E+02  0.51100000000E-03 0. -1.
        -11    1    4    4    0    0 -0.53979897558E+00  0.39134381156E+01  0.10075752098E+02  0.10822530269E+02  0.51100000000E-03 0.  1.
        -12    1    4    4    0    0  0.14646738254E+01 -0.11078327774E+01  0.53743206557E+01  0.56794265017E+01  0.00000000000E+00 0.  1.
</event>
<event>
 8    1  0.9117959E-009  0.9118800E+02  0.7816164E-02  0.1184000E+00
        -11   -1    0    0    0    0  0.00000000000E+00  0.00000000000E+00  0.45593999997E+02  0.45594000000E+02  0.51100000000E-03 0. -1.
         11   -1    0    0    0    0 -0.00000000000E+00 -0.00000000000E+00 -0.45593999997E+02  0.45594000000E+02  0.51100000000E-03 0.  1.
         23    2    1    2    0    0  0.00000000000E+00  0.00000000000E+00 -0.35527136788E-14  0.91188000000E+02  0.91188000000E+02 0.  0.
    9900012    2    3    3    0    0  0.44445691402E+01  0.40484385062E+02 -0.19245099369E+02  0.46142317872E+02  0.10000001011E+02 0.  0.
         12    1    3    3    0    0 -0.44445691402E+01 -0.40484385062E+02  0.19245099369E+02  0.45045682128E+02  0.00000000000E+00 0. -1.
         11    1    4    4    0    0 -0.16915745543E+01  0.44359487358E+01 -0.21974650093E+01  0.52314355953E+01  0.51100000000E-03 0. -1.
        -11    1    4    4    0    0  0.29070186077E+01  0.31217849351E+02 -0.13814231380E+02  0.34261317316E+02  0.51100000000E-03 0.  1.
         12    1    4    4    0    0  0.32291250868E+01  0.48305869743E+01 -0.32334029797E+01  0.66495649611E+01  0.00000000000E+00 0. -1.
</event>
<event>
 8    1  0.9117959E-009  0.9118800E+02  0.7816164E-02  0.1184000E+00
        -11   -1    0    0    0    0  0.00000000000E+00  0.00000000000E+00  0.45593999997E+02  0.45594000000E+02  0.51100000000E-03 0. -1.
         11   -1    0    0    0    0 -0.00000000000E+00 -0.00000000000E+00 -0.45593999997E+02  0.45594000000E+02  0.51100000000E-03 0.  1.
         23    2    1    2    0    0  0.00000000000E+00  0.00000000000E+00  0.00000000000E+00  0.91188000000E+02  0.91188000000E+02 0.  0.
    9900012    2    3    3    0    0  0.15500166975E+02  0.33124844660E+02 -0.26298345373E+02  0.46142317861E+02  0.10000000910E+02 0.  0.
         12    1    3    3    0    0 -0.15500166975E+02 -0.33124844660E+02  0.26298345373E+02  0.45045682139E+02  0.00000000000E+00 0. -1.
         11    1    4    4    0    0  0.30852155426E+01  0.25457909766E+01 -0.66098153376E+00  0.40541957883E+01  0.51100000000E-03 0. -1.
        -11    1    4    4    0    0  0.87135345313E+01  0.15393897104E+02 -0.14866781015E+02  0.23106685830E+02  0.51100000000E-03 0.  1.
        -12    1    4    4    0    0  0.37014169008E+01  0.15185156580E+02 -0.10770582825E+02  0.18981436242E+02  0.00000000000E+00 0.  1.
</event>
<event>
 8    1  0.9117959E-009  0.9118800E+02  0.7816164E-02  0.1184000E+00
        -11   -1    0    0    0    0  0.00000000000E+00  0.00000000000E+00  0.45593999997E+02  0.45594000000E+02  0.51100000000E-03 0. -1.
         11   -1    0    0    0    0 -0.00000000000E+00 -0.00000000000E+00 -0.45593999997E+02  0.45594000000E+02  0.51100000000E-03 0.  1.
         23    2    1    2    0    0  0.35527136788E-14  0.88817841970E-15  0.00000000000E+00  0.91188000000E+02  0.91188000000E+02 0.  0.
    9900012    2    3    3    0    0 -0.23207994047E+02 -0.41166134636E+01  0.38386925078E+02  0.46142317510E+02  0.99999977092E+01 0.  0.
        -12    1    3    3    0    0  0.23207994047E+02  0.41166134636E+01 -0.38386925078E+02  0.45045682490E+02  0.00000000000E+00 0.  1.
         11    1    4    4    0    0 -0.67785833879E+01 -0.39716428344E+01  0.18217340234E+02  0.19839219365E+02  0.51100000000E-03 0.  1.
        -11    1    4    4    0    0 -0.38956349538E+01 -0.81006869275E+00  0.73752620353E+01  0.83801356391E+01  0.51100000000E-03 0. -1.
        -12    1    4    4    0    0 -0.12533775705E+02  0.66509806350E+00  0.12794322808E+02  0.17922962506E+02  0.00000000000E+00 0.  1.
</event>
<event>
 8    1  0.9117959E-009  0.9118800E+02  0.7816164E-02  0.1184000E+00
        -11   -1    0    0    0    0  0.00000000000E+00  0.00000000000E+00  0.45593999997E+02  0.45594000000E+02  0.51100000000E-03 0. -1.
         11   -1    0    0    0    0 -0.00000000000E+00 -0.00000000000E+00 -0.45593999997E+02  0.45594000000E+02  0.51100000000E-03 0.  1.
         23    2    1    2    0    0  0.00000000000E+00  0.00000000000E+00  0.44408920985E-15  0.91188000000E+02  0.91188000000E+02 0.  0.
    9900012    2    3    3    0    0  0.41978185865E+02  0.16291624272E+02 -0.12361994055E+01  0.46142319864E+02  0.10000019180E+02 0.  0.
         12    1    3    3    0    0 -0.41978185865E+02 -0.16291624272E+02  0.12361994055E+01  0.45045680136E+02  0.00000000000E+00 0. -1.
         11    1    4    4    0    0  0.64813809953E+01  0.47549812272E+01  0.35271849696E+00  0.80462759508E+01  0.51100000000E-03 0. -1.
        -11    1    4    4    0    0  0.10263854965E+02  0.59545051026E+01  0.19047286961E+01  0.12017938318E+02  0.51100000000E-03 0.  1.
        -12    1    4    4    0    0  0.25232949904E+02  0.55821379419E+01 -0.34936465986E+01  0.26078105595E+02  0.00000000000E+00 0.  1.
</event>
<event>
 8    1  0.9117959E-009  0.9118800E+02  0.7816164E-02  0.1184000E+00
        -11   -1    0    0    0    0  0.00000000000E+00  0.00000000000E+00  0.45593999997E+02  0.45594000000E+02  0.51100000000E-03 0. -1.
         11   -1    0    0    0    0 -0.00000000000E+00 -0.00000000000E+00 -0.45593999997E+02  0.45594000000E+02  0.51100000000E-03 0.  1.
         23    2    1    2    0    0  0.35527136788E-14  0.35527136788E-14  0.71054273576E-14  0.91188000000E+02  0.91188000000E+02 0.  0.
    9900012    2    3    3    0    0  0.19598562317E+02  0.13991204364E+02  0.38069096101E+02  0.46142317383E+02  0.99999965543E+01 0.  0.
        -12    1    3    3    0    0 -0.19598562317E+02 -0.13991204364E+02 -0.38069096101E+02  0.45045682617E+02  0.00000000000E+00 0.  1.
         11    1    4    4    0    0  0.41693320285E+01  0.33055231025E+01  0.72032513533E+01  0.89552578335E+01  0.51100000000E-03 0. -1.
        -11    1    4    4    0    0  0.12631033089E+02  0.36677461781E+01  0.18586145310E+02  0.22769280987E+02  0.51100000000E-03 0.  1.
         12    1    4    4    0    0  0.27981972000E+01  0.70179350833E+01  0.12279699437E+02  0.14417778562E+02  0.00000000000E+00 0. -1.
</event>
<event>
 8    1  0.1035167E-008  0.9118800E+02  0.7816164E-02  0.1184000E+00
        -11   -1    0    0    0    0  0.00000000000E+00  0.00000000000E+00  0.45593999997E+02  0.45594000000E+02  0.51100000000E-03 0. -1.
         11   -1    0    0    0    0 -0.00000000000E+00 -0.00000000000E+00 -0.45593999997E+02  0.45594000000E+02  0.51100000000E-03 0.  1.
         23    2    1    2    0    0 -0.44408920985E-15 -0.44408920985E-15  0.00000000000E+00  0.91188000000E+02  0.91188000000E+02 0.  0.
    9900012    2    3    3    0    0 -0.23904514276E+01 -0.38780982248E+01  0.44814726226E+02  0.46142316627E+02  0.99999896575E+01 0.  0.
        -12    1    3    3    0    0  0.23904514276E+01  0.38780982248E+01 -0.44814726226E+02  0.45045683373E+02  0.00000000000E+00 0.  1.
         11    1    4    4    0    0  0.20474708008E+01  0.19615030734E+01  0.15841066526E+02  0.16092825108E+02  0.51100000000E-03 0. -1.
        -11    1    4    4    0    0 -0.88446521224E+00 -0.18201104278E+01  0.37458362906E+01  0.42575075406E+01  0.51100000000E-03 0.  1.
         12    1    4    4    0    0 -0.35534570162E+01 -0.40194908704E+01  0.25227823409E+02  0.25791983979E+02  0.00000000000E+00 0. -1.
</event>
<event>
 8    1  0.9117959E-009  0.9118800E+02  0.7816164E-02  0.1184000E+00
        -11   -1    0    0    0    0  0.00000000000E+00  0.00000000000E+00  0.45593999997E+02  0.45594000000E+02  0.51100000000E-03 0. -1.
         11   -1    0    0    0    0 -0.00000000000E+00 -0.00000000000E+00 -0.45593999997E+02  0.45594000000E+02  0.51100000000E-03 0.  1.
         23    2    1    2    0    0  0.00000000000E+00  0.00000000000E+00  0.00000000000E+00  0.91188000000E+02  0.91188000000E+02 0.  0.
    9900012    2    3    3    0    0 -0.27590294637E+02 -0.19784258148E+02 -0.29605274829E+02  0.46142317340E+02  0.99999961586E+01 0.  0.
         12    1    3    3    0    0  0.27590294637E+02  0.19784258148E+02  0.29605274829E+02  0.45045682660E+02  0.00000000000E+00 0. -1.
         11    1    4    4    0    0 -0.12761863905E+02 -0.11139081949E+02 -0.89679948504E+01  0.19166878955E+02  0.51100000000E-03 0. -1.
        -11    1    4    4    0    0 -0.14918845301E+01 -0.25498961530E+00 -0.10727469637E+01  0.18551348911E+01  0.51100000000E-03 0.  1.
         12    1    4    4    0    0 -0.13336546202E+02 -0.83901865835E+01 -0.19564533015E+02  0.25120303493E+02  0.00000000000E+00 0. -1.
</event>
<event>
 8    1  0.9117959E-009  0.9118800E+02  0.7816164E-02  0.1184000E+00
        -11   -1    0    0    0    0  0.00000000000E+00  0.00000000000E+00  0.45593999997E+02  0.45594000000E+02  0.51100000000E-03 0. -1.
         11   -1    0    0    0    0 -0.00000000000E+00 -0.00000000000E+00 -0.45593999997E+02  0.45594000000E+02  0.51100000000E-03 0.  1.
         23    2    1    2    0    0  0.00000000000E+00  0.88817841970E-15  0.00000000000E+00  0.91188000000E+02  0.91188000000E+02 0.  0.
    9900012    2    3    3    0    0 -0.22589150017E+02  0.68708173765E+01 -0.38361902685E+02  0.46142318658E+02  0.10000008182E+02 0.  0.
         12    1    3    3    0    0  0.22589150017E+02 -0.68708173765E+01  0.38361902685E+02  0.45045681342E+02  0.00000000000E+00 0. -1.
         11    1    4    4    0    0 -0.33874969339E+01  0.47321943566E+00 -0.38506139138E+01  0.51503689077E+01  0.51100000000E-03 0. -1.
        -11    1    4    4    0    0 -0.83819349964E+01  0.37075807377E+01 -0.77558547499E+01  0.12006509583E+02  0.51100000000E-03 0.  1.
         12    1    4    4    0    0 -0.10819718087E+02  0.26900172031E+01 -0.26755434021E+02  0.28985440167E+02  0.00000000000E+00 0. -1.
</event>
<event>
 8    1  0.9117959E-009  0.9118800E+02  0.7816164E-02  0.1184000E+00
        -11   -1    0    0    0    0  0.00000000000E+00  0.00000000000E+00  0.45593999997E+02  0.45594000000E+02  0.51100000000E-03 0. -1.
         11   -1    0    0    0    0 -0.00000000000E+00 -0.00000000000E+00 -0.45593999997E+02  0.45594000000E+02  0.51100000000E-03 0.  1.
         23    2    1    2    0    0  0.00000000000E+00 -0.17763568394E-14 -0.35527136788E-14  0.91188000000E+02  0.91188000000E+02 0.  0.
    9900012    2    3    3    0    0 -0.36131980878E+02 -0.13371018301E+02 -0.23341150402E+02  0.46142317913E+02  0.10000001387E+02 0.  0.
         12    1    3    3    0    0  0.36131980878E+02  0.13371018301E+02  0.23341150402E+02  0.45045682087E+02  0.00000000000E+00 0. -1.
         11    1    4    4    0    0 -0.13994776235E+02 -0.46016870600E+01 -0.10142015538E+02  0.17885462396E+02  0.51100000000E-03 0.  1.
        -11    1    4    4    0    0 -0.46525801211E+01  0.10438010299E+01 -0.38770272023E+01  0.61455156466E+01  0.51100000000E-03 0. -1.
         12    1    4    4    0    0 -0.17484624521E+02 -0.98131322713E+01 -0.93221076623E+01  0.22111339871E+02  0.00000000000E+00 0. -1.
</event>
<event>
 8    1  0.9117959E-009  0.9118800E+02  0.7816164E-02  0.1184000E+00
        -11   -1    0    0    0    0  0.00000000000E+00  0.00000000000E+00  0.45593999997E+02  0.45594000000E+02  0.51100000000E-03 0. -1.
         11   -1    0    0    0    0 -0.00000000000E+00 -0.00000000000E+00 -0.45593999997E+02  0.45594000000E+02  0.51100000000E-03 0.  1.
         23    2    1    2    0    0 -0.35527136788E-14 -0.35527136788E-14  0.00000000000E+00  0.91188000000E+02  0.91188000000E+02 0.  0.
    9900012    2    3    3    0    0 -0.20160272705E+02 -0.26273926392E+02  0.30534532710E+02  0.46142317727E+02  0.99999996871E+01 0.  0.
        -12    1    3    3    0    0  0.20160272705E+02  0.26273926392E+02 -0.30534532710E+02  0.45045682273E+02  0.00000000000E+00 0.  1.
         11    1    4    4    0    0 -0.65690711931E+01 -0.81509859515E+01  0.15409101703E+02  0.18628786430E+02  0.51100000000E-03 0. -1.
        -11    1    4    4    0    0 -0.99663521478E+00 -0.35648765663E+01  0.19237575464E+01  0.41716267861E+01  0.51100000000E-03 0.  1.
         12    1    4    4    0    0 -0.12594566297E+02 -0.14558063875E+02  0.13201673461E+02  0.23341904510E+02  0.00000000000E+00 0. -1.
</event>
<event>
 8    1  0.9117959E-009  0.9118800E+02  0.7816164E-02  0.1184000E+00
        -11   -1    0    0    0    0  0.00000000000E+00  0.00000000000E+00  0.45593999997E+02  0.45594000000E+02  0.51100000000E-03 0. -1.
         11   -1    0    0    0    0 -0.00000000000E+00 -0.00000000000E+00 -0.45593999997E+02  0.45594000000E+02  0.51100000000E-03 0.  1.
         23    2    1    2    0    0 -0.17763568394E-14  0.00000000000E+00  0.00000000000E+00  0.91188000000E+02  0.91188000000E+02 0.  0.
    9900012    2    3    3    0    0 -0.14020897659E+02 -0.13402131408E+02  0.40656006228E+02  0.46142317189E+02  0.99999947838E+01 0.  0.
        -12    1    3    3    0    0  0.14020897659E+02  0.13402131408E+02 -0.40656006228E+02  0.45045682811E+02  0.00000000000E+00 0.  1.
         11    1    4    4    0    0 -0.24288780517E+01 -0.39372646722E+01  0.12505339310E+02  0.13333604659E+02  0.51100000000E-03 0. -1.
        -11    1    4    4    0    0 -0.40508578602E+01 -0.33529182910E+01  0.18047772149E+02  0.18798233701E+02  0.51100000000E-03 0.  1.
        -12    1    4    4    0    0 -0.75411617470E+01 -0.61119484453E+01  0.10102894769E+02  0.14010478829E+02  0.00000000000E+00 0.  1.
</event>
<event>
 8    1  0.9117959E-009  0.9118800E+02  0.7816164E-02  0.1184000E+00
        -11   -1    0    0    0    0  0.00000000000E+00  0.00000000000E+00  0.45593999997E+02  0.45594000000E+02  0.51100000000E-03 0.  1.
         11   -1    0    0    0    0 -0.00000000000E+00 -0.00000000000E+00 -0.45593999997E+02  0.45594000000E+02  0.51100000000E-03 0. -1.
         23    2    1    2    0    0  0.35527136788E-14  0.71054273576E-14  0.35527136788E-14  0.91188000000E+02  0.91188000000E+02 0.  0.
    9900012    2    3    3    0    0 -0.25626769379E+02 -0.33077603745E+02 -0.16680956830E+02  0.46142317642E+02  0.99999989166E+01 0.  0.
         12    1    3    3    0    0  0.25626769379E+02  0.33077603745E+02  0.16680956830E+02  0.45045682358E+02  0.00000000000E+00 0. -1.
         11    1    4    4    0    0 -0.58670972358E+01 -0.12367520549E+02 -0.49584707502E+01  0.14559011881E+02  0.51100000000E-03 0.  1.
        -11    1    4    4    0    0 -0.11187968723E+02 -0.71999167740E+01 -0.59431221355E+01  0.14571552652E+02  0.51100000000E-03 0. -1.
         12    1    4    4    0    0 -0.85717034200E+01 -0.13510166422E+02 -0.57793639442E+01  0.17011753110E+02  0.00000000000E+00 0. -1.
</event>
<event>
 8    1  0.9117959E-009  0.9118800E+02  0.7816164E-02  0.1184000E+00
        -11   -1    0    0    0    0  0.00000000000E+00  0.00000000000E+00  0.45593999997E+02  0.45594000000E+02  0.51100000000E-03 0. -1.
         11   -1    0    0    0    0 -0.00000000000E+00 -0.00000000000E+00 -0.45593999997E+02  0.45594000000E+02  0.51100000000E-03 0.  1.
         23    2    1    2    0    0  0.00000000000E+00  0.00000000000E+00  0.35527136788E-14  0.91188000000E+02  0.91188000000E+02 0.  0.
    9900012    2    3    3    0    0  0.32266818123E+02  0.22474438950E+02  0.21974201605E+02  0.46142317698E+02  0.99999994242E+01 0.  0.
        -12    1    3    3    0    0 -0.32266818123E+02 -0.22474438950E+02 -0.21974201605E+02  0.45045682302E+02  0.00000000000E+00 0.  1.
         11    1    4    4    0    0  0.18238615771E+02  0.12774673439E+02  0.13567037810E+02  0.26074966959E+02  0.51100000000E-03 0. -1.
        -11    1    4    4    0    0  0.18448845796E+01  0.43397054542E+01  0.35346872653E+01  0.58932721697E+01  0.51100000000E-03 0.  1.
        -12    1    4    4    0    0  0.12183317773E+02  0.53600600560E+01  0.48724765291E+01  0.14174078569E+02  0.00000000000E+00 0.  1.
</event>
<event>
 8    1  0.9117959E-009  0.9118800E+02  0.7816164E-02  0.1184000E+00
        -11   -1    0    0    0    0  0.00000000000E+00  0.00000000000E+00  0.45593999997E+02  0.45594000000E+02  0.51100000000E-03 0. -1.
         11   -1    0    0    0    0 -0.00000000000E+00 -0.00000000000E+00 -0.45593999997E+02  0.45594000000E+02  0.51100000000E-03 0.  1.
         23    2    1    2    0    0  0.35527136788E-14 -0.44408920985E-15  0.00000000000E+00  0.91188000000E+02  0.91188000000E+02 0.  0.
    9900012    2    3    3    0    0 -0.21669252250E+02 -0.37934119780E+01  0.39308612554E+02  0.46142317760E+02  0.99999999929E+01 0.  0.
        -12    1    3    3    0    0  0.21669252250E+02  0.37934119780E+01 -0.39308612554E+02  0.45045682240E+02  0.00000000000E+00 0.  1.
         11    1    4    4    0    0 -0.33926623642E+01  0.11052787687E+01  0.10154046365E+02  0.10762734639E+02  0.51100000000E-03 0. -1.
        -11    1    4    4    0    0 -0.29563157625E+01 -0.29695153289E+01  0.36106990616E+01  0.55312722000E+01  0.51100000000E-03 0.  1.
         12    1    4    4    0    0 -0.15320274123E+02 -0.19291754178E+01  0.25543867128E+02  0.29848310921E+02  0.00000000000E+00 0. -1.
</event>
<event>
 8    1  0.9117959E-009  0.9118800E+02  0.7816164E-02  0.1184000E+00
        -11   -1    0    0    0    0  0.00000000000E+00  0.00000000000E+00  0.45593999997E+02  0.45594000000E+02  0.51100000000E-03 0. -1.
         11   -1    0    0    0    0 -0.00000000000E+00 -0.00000000000E+00 -0.45593999997E+02  0.45594000000E+02  0.51100000000E-03 0.  1.
         23    2    1    2    0    0  0.71054273576E-14  0.17763568394E-14 -0.35527136788E-14  0.91188000000E+02  0.91188000000E+02 0.  0.
    9900012    2    3    3    0    0 -0.34039003892E+02 -0.13845991792E+02  0.26052796858E+02  0.46142317646E+02  0.99999989502E+01 0.  0.
        -12    1    3    3    0    0  0.34039003892E+02  0.13845991792E+02 -0.26052796858E+02  0.45045682354E+02  0.00000000000E+00 0.  1.
         11    1    4    4    0    0 -0.53630465895E+01  0.36450933034E+00  0.36521902146E+01  0.64987406009E+01  0.51100000000E-03 0. -1.
        -11    1    4    4    0    0 -0.94762247995E+01 -0.16522708814E+01  0.83725767835E+01  0.12752602784E+02  0.51100000000E-03 0.  1.
        -12    1    4    4    0    0 -0.19199732502E+02 -0.12558230241E+02  0.14028029859E+02  0.26890974261E+02  0.00000000000E+00 0.  1.
</event>
<event>
 8    1  0.9117959E-009  0.9118800E+02  0.7816164E-02  0.1184000E+00
        -11   -1    0    0    0    0  0.00000000000E+00  0.00000000000E+00  0.45593999997E+02  0.45594000000E+02  0.51100000000E-03 0. -1.
         11   -1    0    0    0    0 -0.00000000000E+00 -0.00000000000E+00 -0.45593999997E+02  0.45594000000E+02  0.51100000000E-03 0.  1.
         23    2    1    2    0    0  0.00000000000E+00 -0.35527136788E-14  0.00000000000E+00  0.91188000000E+02  0.91188000000E+02 0.  0.
    9900012    2    3    3    0    0 -0.16709372582E+02 -0.26855832943E+02  0.32072956661E+02  0.46142318252E+02  0.10000004474E+02 0.  0.
        -12    1    3    3    0    0  0.16709372582E+02  0.26855832943E+02 -0.32072956661E+02  0.45045681748E+02  0.00000000000E+00 0.  1.
         11    1    4    4    0    0 -0.28169916130E+01 -0.56062125315E+01  0.63447321745E+01  0.89230424925E+01  0.51100000000E-03 0. -1.
        -11    1    4    4    0    0 -0.91046495782E+01 -0.69296769175E+01  0.14118986935E+02  0.18173080599E+02  0.51100000000E-03 0.  1.
        -12    1    4    4    0    0 -0.47877313910E+01 -0.14319943494E+02  0.11609237552E+02  0.19046195160E+02  0.00000000000E+00 0.  1.
</event>
<event>
 8    1  0.9117959E-009  0.9118800E+02  0.7816164E-02  0.1184000E+00
        -11   -1    0    0    0    0  0.00000000000E+00  0.00000000000E+00  0.45593999997E+02  0.45594000000E+02  0.51100000000E-03 0. -1.
         11   -1    0    0    0    0 -0.00000000000E+00 -0.00000000000E+00 -0.45593999997E+02  0.45594000000E+02  0.51100000000E-03 0.  1.
         23    2    1    2    0    0  0.00000000000E+00 -0.55511151231E-16 -0.35527136788E-14  0.91188000000E+02  0.91188000000E+02 0.  0.
    9900012    2    3    3    0    0 -0.40327870144E+02  0.33254312043E+00  0.20066535572E+02  0.46142317131E+02  0.99999942570E+01 0.  0.
        -12    1    3    3    0    0  0.40327870144E+02 -0.33254312043E+00 -0.20066535572E+02  0.45045682869E+02  0.00000000000E+00 0.  1.
         11    1    4    4    0    0 -0.14342603294E+02 -0.33190297170E+01  0.84975321399E+01  0.16998066956E+02  0.51100000000E-03 0.  1.
        -11    1    4    4    0    0 -0.21244403401E+02  0.29525013738E+01  0.71041538842E+01  0.22594489215E+02  0.51100000000E-03 0. -1.
        -12    1    4    4    0    0 -0.47408634490E+01  0.69907146360E+00  0.44648495478E+01  0.65497609603E+01  0.00000000000E+00 0.  1.
</event>
<event>
 8    1  0.9117959E-009  0.9118800E+02  0.7816164E-02  0.1184000E+00
        -11   -1    0    0    0    0  0.00000000000E+00  0.00000000000E+00  0.45593999997E+02  0.45594000000E+02  0.51100000000E-03 0. -1.
         11   -1    0    0    0    0 -0.00000000000E+00 -0.00000000000E+00 -0.45593999997E+02  0.45594000000E+02  0.51100000000E-03 0.  1.
         23    2    1    2    0    0  0.35527136788E-14  0.00000000000E+00  0.00000000000E+00  0.91188000000E+02  0.91188000000E+02 0.  0.
    9900012    2    3    3    0    0 -0.23394199972E+02 -0.29541128676E+02  0.24680895116E+02  0.46142318082E+02  0.10000002923E+02 0.  0.
        -12    1    3    3    0    0  0.23394199972E+02  0.29541128676E+02 -0.24680895116E+02  0.45045681918E+02  0.00000000000E+00 0.  1.
         11    1    4    4    0    0 -0.11674609607E+01 -0.69145794403E+00  0.27683036274E+01  0.30829506025E+01  0.51100000000E-03 0. -1.
        -11    1    4    4    0    0 -0.17490437001E+02 -0.26559211491E+02  0.18561196422E+02  0.36821530582E+02  0.51100000000E-03 0.  1.
         12    1    4    4    0    0 -0.47363020107E+01 -0.22904592410E+01  0.33513950659E+01  0.62378368974E+01  0.00000000000E+00 0. -1.
</event>
<event>
 8    1  0.9117959E-009  0.9118800E+02  0.7816164E-02  0.1184000E+00
        -11   -1    0    0    0    0  0.00000000000E+00  0.00000000000E+00  0.45593999997E+02  0.45594000000E+02  0.51100000000E-03 0. -1.
         11   -1    0    0    0    0 -0.00000000000E+00 -0.00000000000E+00 -0.45593999997E+02  0.45594000000E+02  0.51100000000E-03 0.  1.
         23    2    1    2    0    0  0.00000000000E+00  0.00000000000E+00  0.00000000000E+00  0.91188000000E+02  0.91188000000E+02 0.  0.
    9900012    2    3    3    0    0 -0.17080065387E+02 -0.23456852739E+02  0.34455202093E+02  0.46142317351E+02  0.99999962584E+01 0.  0.
        -12    1    3    3    0    0  0.17080065387E+02  0.23456852739E+02 -0.34455202093E+02  0.45045682649E+02  0.00000000000E+00 0.  1.
         11    1    4    4    0    0 -0.68236003625E+01 -0.51225536308E+01  0.12406356793E+02  0.15057216434E+02  0.51100000000E-03 0. -1.
        -11    1    4    4    0    0 -0.60840219416E+01 -0.48097740923E+01  0.80435372818E+01  0.11173528631E+02  0.51100000000E-03 0.  1.
         12    1    4    4    0    0 -0.41724430826E+01 -0.13524525016E+02  0.14005308018E+02  0.19911572285E+02  0.00000000000E+00 0. -1.
</event>
<event>
 8    1  0.9117959E-009  0.9118800E+02  0.7816164E-02  0.1184000E+00
        -11   -1    0    0    0    0  0.00000000000E+00  0.00000000000E+00  0.45593999997E+02  0.45594000000E+02  0.51100000000E-03 0. -1.
         11   -1    0    0    0    0 -0.00000000000E+00 -0.00000000000E+00 -0.45593999997E+02  0.45594000000E+02  0.51100000000E-03 0.  1.
         23    2    1    2    0    0 -0.35527136788E-14  0.00000000000E+00  0.00000000000E+00  0.91188000000E+02  0.91188000000E+02 0.  0.
    9900012    2    3    3    0    0 -0.24709612640E+02 -0.29847869619E+02  0.22970704165E+02  0.46142317327E+02  0.99999960459E+01 0.  0.
        -12    1    3    3    0    0  0.24709612640E+02  0.29847869619E+02 -0.22970704165E+02  0.45045682673E+02  0.00000000000E+00 0.  1.
         11    1    4    4    0    0  0.51299401932E+00 -0.99407793569E+00  0.11717606103E+01  0.16199928997E+01  0.51100000000E-03 0.  1.
        -11    1    4    4    0    0 -0.20515478595E+02 -0.24742713780E+02  0.15628608081E+02  0.35739895606E+02  0.51100000000E-03 0. -1.
        -12    1    4    4    0    0 -0.47071280648E+01 -0.41110779036E+01  0.61703354734E+01  0.87824288214E+01  0.00000000000E+00 0.  1.
</event>
<event>
 8    1  0.9117959E-009  0.9118800E+02  0.7816164E-02  0.1184000E+00
        -11   -1    0    0    0    0  0.00000000000E+00  0.00000000000E+00  0.45593999997E+02  0.45594000000E+02  0.51100000000E-03 0. -1.
         11   -1    0    0    0    0 -0.00000000000E+00 -0.00000000000E+00 -0.45593999997E+02  0.45594000000E+02  0.51100000000E-03 0.  1.
         23    2    1    2    0    0  0.00000000000E+00  0.00000000000E+00  0.00000000000E+00  0.91188000000E+02  0.91188000000E+02 0.  0.
    9900012    2    3    3    0    0 -0.23849489866E+02 -0.33996251602E+02  0.17451939499E+02  0.46142317831E+02  0.10000000635E+02 0.  0.
        -12    1    3    3    0    0  0.23849489866E+02  0.33996251602E+02 -0.17451939499E+02  0.45045682169E+02  0.00000000000E+00 0.  1.
         11    1    4    4    0    0 -0.13721314947E+02 -0.21976795138E+02  0.12724035246E+02  0.28864425884E+02  0.51100000000E-03 0. -1.
        -11    1    4    4    0    0 -0.32053766167E+01 -0.41553225566E+01  0.43124996006E+01  0.67925545909E+01  0.51100000000E-03 0.  1.
        -12    1    4    4    0    0 -0.69227983024E+01 -0.78641339074E+01  0.41540465263E+00  0.10485337356E+02  0.00000000000E+00 0.  1.
</event>
<event>
 8    1  0.9117959E-009  0.9118800E+02  0.7816164E-02  0.1184000E+00
        -11   -1    0    0    0    0  0.00000000000E+00  0.00000000000E+00  0.45593999997E+02  0.45594000000E+02  0.51100000000E-03 0. -1.
         11   -1    0    0    0    0 -0.00000000000E+00 -0.00000000000E+00 -0.45593999997E+02  0.45594000000E+02  0.51100000000E-03 0.  1.
         23    2    1    2    0    0  0.00000000000E+00  0.00000000000E+00  0.00000000000E+00  0.91188000000E+02  0.91188000000E+02 0.  0.
    9900012    2    3    3    0    0  0.29002157071E+02 -0.24963365069E+02  0.23765918302E+02  0.46142316710E+02  0.99999904140E+01 0.  0.
        -12    1    3    3    0    0 -0.29002157071E+02  0.24963365069E+02 -0.23765918302E+02  0.45045683290E+02  0.00000000000E+00 0.  1.
         11    1    4    4    0    0  0.14859886243E+02 -0.97700696800E+01  0.10645662181E+02  0.20726808829E+02  0.51100000000E-03 0. -1.
        -11    1    4    4    0    0  0.53379375731E+01 -0.21538795716E+01  0.17937894572E+01  0.60291339031E+01  0.51100000000E-03 0.  1.
         12    1    4    4    0    0  0.88043332555E+01 -0.13039415817E+02  0.11326466663E+02  0.19386373978E+02  0.00000000000E+00 0. -1.
</event>
<event>
 8    1  0.9117959E-009  0.9118800E+02  0.7816164E-02  0.1184000E+00
        -11   -1    0    0    0    0  0.00000000000E+00  0.00000000000E+00  0.45593999997E+02  0.45594000000E+02  0.51100000000E-03 0. -1.
         11   -1    0    0    0    0 -0.00000000000E+00 -0.00000000000E+00 -0.45593999997E+02  0.45594000000E+02  0.51100000000E-03 0.  1.
         23    2    1    2    0    0  0.00000000000E+00  0.17763568394E-14 -0.71054273576E-14  0.91188000000E+02  0.91188000000E+02 0.  0.
    9900012    2    3    3    0    0  0.32135405129E+02 -0.78964736079E+01  0.30562638925E+02  0.46142318117E+02  0.10000003243E+02 0.  0.
        -12    1    3    3    0    0 -0.32135405129E+02  0.78964736079E+01 -0.30562638925E+02  0.45045681883E+02  0.00000000000E+00 0.  1.
         11    1    4    4    0    0  0.21617424803E+00  0.39461490225E+00  0.71040063049E+00  0.84090519294E+00  0.51100000000E-03 0.  1.
        -11    1    4    4    0    0  0.26226407581E+02 -0.51978122386E+01  0.27639714488E+02  0.38455110505E+02  0.51100000000E-03 0. -1.
         12    1    4    4    0    0  0.56928233001E+01 -0.30932762715E+01  0.22125238063E+01  0.68463024189E+01  0.00000000000E+00 0. -1.
</event>
<event>
 8    1  0.9117959E-009  0.9118800E+02  0.7816164E-02  0.1184000E+00
        -11   -1    0    0    0    0  0.00000000000E+00  0.00000000000E+00  0.45593999997E+02  0.45594000000E+02  0.51100000000E-03 0. -1.
         11   -1    0    0    0    0 -0.00000000000E+00 -0.00000000000E+00 -0.45593999997E+02  0.45594000000E+02  0.51100000000E-03 0.  1.
         23    2    1    2    0    0  0.00000000000E+00  0.00000000000E+00  0.35527136788E-14  0.91188000000E+02  0.91188000000E+02 0.  0.
    9900012    2    3    3    0    0  0.30272313049E+02  0.11440888204E+02  0.31333789179E+02  0.46142320911E+02  0.10000028727E+02 0.  0.
        -12    1    3    3    0    0 -0.30272313049E+02 -0.11440888204E+02 -0.31333789179E+02  0.45045679089E+02  0.00000000000E+00 0.  1.
         11    1    4    4    0    0  0.11933538078E+02  0.70362313527E+01  0.16390126013E+02  0.21460524543E+02  0.51100000000E-03 0. -1.
        -11    1    4    4    0    0  0.10831027320E+02  0.12948087249E+01  0.54780853132E+01  0.12206436884E+02  0.51100000000E-03 0.  1.
        -12    1    4    4    0    0  0.75077476511E+01  0.31098481269E+01  0.94655778533E+01  0.12475359484E+02  0.00000000000E+00 0.  1.
</event>
<event>
 8    1  0.9117959E-009  0.9118800E+02  0.7816164E-02  0.1184000E+00
        -11   -1    0    0    0    0  0.00000000000E+00  0.00000000000E+00  0.45593999997E+02  0.45594000000E+02  0.51100000000E-03 0. -1.
         11   -1    0    0    0    0 -0.00000000000E+00 -0.00000000000E+00 -0.45593999997E+02  0.45594000000E+02  0.51100000000E-03 0.  1.
         23    2    1    2    0    0  0.00000000000E+00  0.00000000000E+00  0.00000000000E+00  0.91188000000E+02  0.91188000000E+02 0.  0.
    9900012    2    3    3    0    0  0.16417335439E+02 -0.35756815531E+02 -0.21932501633E+02  0.46142318878E+02  0.10000010188E+02 0.  0.
         12    1    3    3    0    0 -0.16417335439E+02  0.35756815531E+02  0.21932501633E+02  0.45045681122E+02  0.00000000000E+00 0. -1.
         11    1    4    4    0    0  0.53398342627E+01 -0.59012649077E+01 -0.64434068237E+01  0.10239934044E+02  0.51100000000E-03 0. -1.
        -11    1    4    4    0    0 -0.19039250872E+00 -0.59281783676E+00 -0.13864950961E+01  0.15198852613E+01  0.51100000000E-03 0.  1.
         12    1    4    4    0    0  0.11267893685E+02 -0.29262732787E+02 -0.14102599713E+02  0.34382499573E+02  0.00000000000E+00 0. -1.
</event>
<event>
 8    1  0.9117959E-009  0.9118800E+02  0.7816164E-02  0.1184000E+00
        -11   -1    0    0    0    0  0.00000000000E+00  0.00000000000E+00  0.45593999997E+02  0.45594000000E+02  0.51100000000E-03 0. -1.
         11   -1    0    0    0    0 -0.00000000000E+00 -0.00000000000E+00 -0.45593999997E+02  0.45594000000E+02  0.51100000000E-03 0.  1.
         23    2    1    2    0    0 -0.44408920985E-15  0.00000000000E+00 -0.71054273576E-14  0.91188000000E+02  0.91188000000E+02 0.  0.
    9900012    2    3    3    0    0  0.14693200833E+01  0.17071838472E+02  0.41659414804E+02  0.46142318607E+02  0.10000007718E+02 0.  0.
        -12    1    3    3    0    0 -0.14693200833E+01 -0.17071838472E+02 -0.41659414804E+02  0.45045681393E+02  0.00000000000E+00 0.  1.
         11    1    4    4    0    0 -0.93040063578E+00  0.20570441384E+01  0.31096268334E+01  0.38427666120E+01  0.51100000000E-03 0. -1.
        -11    1    4    4    0    0  0.20853502851E+00 -0.91185382576E+00  0.51223859891E+01  0.52070915817E+01  0.51100000000E-03 0.  1.
         12    1    4    4    0    0  0.21911856905E+01  0.15926648160E+02  0.33427401981E+02  0.37092460414E+02  0.00000000000E+00 0. -1.
</event>
<event>
 8    1  0.9117959E-009  0.9118800E+02  0.7816164E-02  0.1184000E+00
        -11   -1    0    0    0    0  0.00000000000E+00  0.00000000000E+00  0.45593999997E+02  0.45594000000E+02  0.51100000000E-03 0. -1.
         11   -1    0    0    0    0 -0.00000000000E+00 -0.00000000000E+00 -0.45593999997E+02  0.45594000000E+02  0.51100000000E-03 0.  1.
         23    2    1    2    0    0  0.00000000000E+00  0.00000000000E+00  0.00000000000E+00  0.91188000000E+02  0.91188000000E+02 0.  0.
    9900012    2    3    3    0    0 -0.26755895097E+02 -0.32281306606E+02  0.16466717848E+02  0.46142317906E+02  0.10000001318E+02 0.  0.
         12    1    3    3    0    0  0.26755895097E+02  0.32281306606E+02 -0.16466717848E+02  0.45045682094E+02  0.00000000000E+00 0. -1.
         11    1    4    4    0    0 -0.91625241712E+01 -0.10814683861E+02  0.97282816964E+01  0.17191529927E+02  0.51100000000E-03 0. -1.
        -11    1    4    4    0    0 -0.11477182720E+02 -0.15032608607E+02  0.67263979512E+01  0.20073601430E+02  0.51100000000E-03 0.  1.
         12    1    4    4    0    0 -0.61161882058E+01 -0.64340141383E+01  0.12038200870E-01  0.88771865486E+01  0.00000000000E+00 0. -1.
</event>
<event>
 8    1  0.9117959E-009  0.9118800E+02  0.7816164E-02  0.1184000E+00
        -11   -1    0    0    0    0  0.00000000000E+00  0.00000000000E+00  0.45593999997E+02  0.45594000000E+02  0.51100000000E-03 0. -1.
         11   -1    0    0    0    0 -0.00000000000E+00 -0.00000000000E+00 -0.45593999997E+02  0.45594000000E+02  0.51100000000E-03 0.  1.
         23    2    1    2    0    0  0.00000000000E+00  0.00000000000E+00  0.00000000000E+00  0.91188000000E+02  0.91188000000E+02 0.  0.
    9900012    2    3    3    0    0 -0.21162465314E+02  0.21450199454E+02  0.33483633770E+02  0.46142304032E+02  0.99998748072E+01 0.  0.
        -12    1    3    3    0    0  0.21162465314E+02 -0.21450199454E+02 -0.33483633770E+02  0.45045695968E+02  0.00000000000E+00 0.  1.
         11    1    4    4    0    0 -0.11523082069E+02  0.17196802388E+02  0.23408468776E+02  0.31248485458E+02  0.51100000000E-03 0. -1.
        -11    1    4    4    0    0 -0.68382950904E+01  0.30057989595E+01  0.88770726145E+01  0.11601703564E+02  0.51100000000E-03 0.  1.
         12    1    4    4    0    0 -0.28010881551E+01  0.12475981066E+01  0.11980923797E+01  0.32921150099E+01  0.00000000000E+00 0. -1.
</event>
<event>
 8    1  0.9117959E-009  0.9118800E+02  0.7816164E-02  0.1184000E+00
        -11   -1    0    0    0    0  0.00000000000E+00  0.00000000000E+00  0.45593999997E+02  0.45594000000E+02  0.51100000000E-03 0. -1.
         11   -1    0    0    0    0 -0.00000000000E+00 -0.00000000000E+00 -0.45593999997E+02  0.45594000000E+02  0.51100000000E-03 0.  1.
         23    2    1    2    0    0  0.00000000000E+00 -0.17763568394E-14 -0.35527136788E-14  0.91188000000E+02  0.91188000000E+02 0.  0.
    9900012    2    3    3    0    0 -0.32942779201E+02  0.94862402558E+01  0.29221533892E+02  0.46142317647E+02  0.99999989557E+01 0.  0.
        -12    1    3    3    0    0  0.32942779201E+02 -0.94862402558E+01 -0.29221533892E+02  0.45045682353E+02  0.00000000000E+00 0.  1.
         11    1    4    4    0    0 -0.15002774408E+02  0.11867308059E+01  0.10220061667E+02  0.18191790200E+02  0.51100000000E-03 0. -1.
        -11    1    4    4    0    0 -0.88669911944E+01  0.20289456124E+01  0.11263267422E+02  0.14477615357E+02  0.51100000000E-03 0.  1.
         12    1    4    4    0    0 -0.90730135990E+01  0.62705638375E+01  0.77382048018E+01  0.13472912089E+02  0.00000000000E+00 0. -1.
</event>
<event>
 8    1  0.9117959E-009  0.9118800E+02  0.7816164E-02  0.1184000E+00
        -11   -1    0    0    0    0  0.00000000000E+00  0.00000000000E+00  0.45593999997E+02  0.45594000000E+02  0.51100000000E-03 0. -1.
         11   -1    0    0    0    0 -0.00000000000E+00 -0.00000000000E+00 -0.45593999997E+02  0.45594000000E+02  0.51100000000E-03 0.  1.
         23    2    1    2    0    0 -0.44408920985E-15  0.00000000000E+00 -0.35527136788E-14  0.91188000000E+02  0.91188000000E+02 0.  0.
    9900012    2    3    3    0    0  0.36580486904E+01 -0.33909722965E+02  0.29425551059E+02  0.46142315557E+02  0.99999799040E+01 0.  0.
        -12    1    3    3    0    0 -0.36580486904E+01  0.33909722965E+02 -0.29425551059E+02  0.45045684443E+02  0.00000000000E+00 0.  1.
         11    1    4    4    0    0  0.40078659237E+01 -0.14426665854E+02  0.14086057419E+02  0.20557448548E+02  0.51100000000E-03 0. -1.
        -11    1    4    4    0    0  0.32363398796E+00 -0.58736383833E-01  0.19636118692E+01  0.19909698026E+01  0.51100000000E-03 0.  1.
        -12    1    4    4    0    0 -0.67345122125E+00 -0.19424320727E+02  0.13375881771E+02  0.23593897207E+02  0.00000000000E+00 0.  1.
</event>
<event>
 8    1  0.9117959E-009  0.9118800E+02  0.7816164E-02  0.1184000E+00
        -11   -1    0    0    0    0  0.00000000000E+00  0.00000000000E+00  0.45593999997E+02  0.45594000000E+02  0.51100000000E-03 0. -1.
         11   -1    0    0    0    0 -0.00000000000E+00 -0.00000000000E+00 -0.45593999997E+02  0.45594000000E+02  0.51100000000E-03 0.  1.
         23    2    1    2    0    0  0.00000000000E+00  0.00000000000E+00  0.00000000000E+00  0.91188000000E+02  0.91188000000E+02 0.  0.
    9900012    2    3    3    0    0  0.39563912460E+02 -0.18225386157E+02  0.11473696776E+02  0.46142316662E+02  0.99999899759E+01 0.  0.
         12    1    3    3    0    0 -0.39563912460E+02  0.18225386157E+02 -0.11473696776E+02  0.45045683338E+02  0.00000000000E+00 0. -1.
         11    1    4    4    0    0  0.15547662942E+02 -0.83857799555E+01  0.25377296679E+01  0.17846321765E+02  0.51100000000E-03 0. -1.
        -11    1    4    4    0    0  0.10253496919E+02 -0.51121184342E+01  0.74541963028E+01  0.13668686723E+02  0.51100000000E-03 0.  1.
        -12    1    4    4    0    0  0.13762752598E+02 -0.47274877670E+01  0.14817708054E+01  0.14627308173E+02  0.00000000000E+00 0.  1.
</event>
<event>
 8    1  0.9117959E-009  0.9118800E+02  0.7816164E-02  0.1184000E+00
        -11   -1    0    0    0    0  0.00000000000E+00  0.00000000000E+00  0.45593999997E+02  0.45594000000E+02  0.51100000000E-03 0. -1.
         11   -1    0    0    0    0 -0.00000000000E+00 -0.00000000000E+00 -0.45593999997E+02  0.45594000000E+02  0.51100000000E-03 0.  1.
         23    2    1    2    0    0  0.00000000000E+00  0.71054273576E-14  0.33306690739E-15  0.91188000000E+02  0.91188000000E+02 0.  0.
    9900012    2    3    3    0    0  0.20618910117E+02 -0.40046466138E+02 -0.50455656534E+00  0.46142317833E+02  0.10000000657E+02 0.  0.
         12    1    3    3    0    0 -0.20618910117E+02  0.40046466138E+02  0.50455656534E+00  0.45045682167E+02  0.00000000000E+00 0. -1.
         11    1    4    4    0    0  0.24501262459E+01 -0.26482756754E+01 -0.15502617317E+01  0.39268046006E+01  0.51100000000E-03 0. -1.
        -11    1    4    4    0    0  0.50264346446E+00 -0.31638558590E+01  0.18190545430E+01  0.36839644461E+01  0.51100000000E-03 0.  1.
        -12    1    4    4    0    0  0.17666140406E+02 -0.34234334604E+02 -0.77334937669E+00  0.38531548786E+02  0.00000000000E+00 0.  1.
</event>
<event>
 8    1  0.9117959E-009  0.9118800E+02  0.7816164E-02  0.1184000E+00
        -11   -1    0    0    0    0  0.00000000000E+00  0.00000000000E+00  0.45593999997E+02  0.45594000000E+02  0.51100000000E-03 0. -1.
         11   -1    0    0    0    0 -0.00000000000E+00 -0.00000000000E+00 -0.45593999997E+02  0.45594000000E+02  0.51100000000E-03 0.  1.
         23    2    1    2    0    0 -0.44408920985E-15 -0.35527136788E-14  0.00000000000E+00  0.91188000000E+02  0.91188000000E+02 0.  0.
    9900012    2    3    3    0    0  0.35097305957E+01 -0.25947227459E+02 -0.36654284845E+02  0.46142318529E+02  0.10000007000E+02 0.  0.
         12    1    3    3    0    0 -0.35097305957E+01  0.25947227459E+02  0.36654284845E+02  0.45045681471E+02  0.00000000000E+00 0. -1.
         11    1    4    4    0    0 -0.19221464970E+01 -0.49797741930E+01 -0.45335281762E+01  0.70032618225E+01  0.51100000000E-03 0.  1.
        -11    1    4    4    0    0  0.20188677424E+01 -0.42465166075E+01 -0.11156611501E+02  0.12106969510E+02  0.51100000000E-03 0. -1.
        -12    1    4    4    0    0  0.34130093503E+01 -0.16720936659E+02 -0.20964145168E+02  0.27032087196E+02  0.00000000000E+00 0.  1.
</event>
<event>
 8    1  0.9117959E-009  0.9118800E+02  0.7816164E-02  0.1184000E+00
        -11   -1    0    0    0    0  0.00000000000E+00  0.00000000000E+00  0.45593999997E+02  0.45594000000E+02  0.51100000000E-03 0. -1.
         11   -1    0    0    0    0 -0.00000000000E+00 -0.00000000000E+00 -0.45593999997E+02  0.45594000000E+02  0.51100000000E-03 0.  1.
         23    2    1    2    0    0 -0.35527136788E-14  0.71054273576E-14 -0.88817841970E-15  0.91188000000E+02  0.91188000000E+02 0.  0.
    9900012    2    3    3    0    0 -0.26187590262E+02  0.36203550776E+02  0.57119698885E+01  0.46142316827E+02  0.99999914805E+01 0.  0.
        -12    1    3    3    0    0  0.26187590262E+02 -0.36203550776E+02 -0.57119698885E+01  0.45045683173E+02  0.00000000000E+00 0.  1.
         11    1    4    4    0    0 -0.36587881044E+01  0.47144703617E+01 -0.60868726363E+00  0.59986216442E+01  0.51100000000E-03 0. -1.
        -11    1    4    4    0    0 -0.28110578084E+01  0.22965965414E+01 -0.17095334639E+01  0.40123442776E+01  0.51100000000E-03 0.  1.
         12    1    4    4    0    0 -0.19717744349E+02  0.29192483873E+02  0.80301906161E+01  0.36131350905E+02  0.00000000000E+00 0. -1.
</event>
<event>
 8    1  0.9117959E-009  0.9118800E+02  0.7816164E-02  0.1184000E+00
        -11   -1    0    0    0    0  0.00000000000E+00  0.00000000000E+00  0.45593999997E+02  0.45594000000E+02  0.51100000000E-03 0. -1.
         11   -1    0    0    0    0 -0.00000000000E+00 -0.00000000000E+00 -0.45593999997E+02  0.45594000000E+02  0.51100000000E-03 0.  1.
         23    2    1    2    0    0  0.00000000000E+00  0.00000000000E+00 -0.71054273576E-14  0.91188000000E+02  0.91188000000E+02 0.  0.
    9900012    2    3    3    0    0 -0.14977551004E+01  0.21604272179E+02 -0.39498425846E+02  0.46142317732E+02  0.99999997317E+01 0.  0.
         12    1    3    3    0    0  0.14977551004E+01 -0.21604272179E+02  0.39498425846E+02  0.45045682268E+02  0.00000000000E+00 0. -1.
         11    1    4    4    0    0 -0.37388501533E+00  0.61280918415E+00 -0.56910752633E+01  0.57361714597E+01  0.51100000000E-03 0.  1.
        -11    1    4    4    0    0 -0.93048395132E+00 -0.12969855078E+00 -0.88517229809E+00  0.12907952418E+01  0.51100000000E-03 0. -1.
        -12    1    4    4    0    0 -0.19338613379E+00  0.21121161546E+02 -0.32922178284E+02  0.39115351030E+02  0.00000000000E+00 0.  1.
</event>
<event>
 8    1  0.9117959E-009  0.9118800E+02  0.7816164E-02  0.1184000E+00
        -11   -1    0    0    0    0  0.00000000000E+00  0.00000000000E+00  0.45593999997E+02  0.45594000000E+02  0.51100000000E-03 0. -1.
         11   -1    0    0    0    0 -0.00000000000E+00 -0.00000000000E+00 -0.45593999997E+02  0.45594000000E+02  0.51100000000E-03 0.  1.
         23    2    1    2    0    0  0.71054273576E-14  0.00000000000E+00  0.35527136788E-14  0.91188000000E+02  0.91188000000E+02 0.  0.
    9900012    2    3    3    0    0 -0.30381397933E+02  0.18972775742E+02 -0.27315160011E+02  0.46142317342E+02  0.99999961746E+01 0.  0.
         12    1    3    3    0    0  0.30381397933E+02 -0.18972775742E+02  0.27315160011E+02  0.45045682658E+02  0.00000000000E+00 0. -1.
         11    1    4    4    0    0 -0.28591053467E+01 -0.46876843440E+00 -0.36666432673E+01  0.46731681266E+01  0.51100000000E-03 0. -1.
        -11    1    4    4    0    0 -0.16912601389E+01  0.29942597039E+01 -0.22098445497E+01  0.40877090438E+01  0.51100000000E-03 0.  1.
         12    1    4    4    0    0 -0.25831032448E+02  0.16447284473E+02 -0.21438672194E+02  0.37381440171E+02  0.00000000000E+00 0. -1.
</event>
<event>
 8    1  0.9117959E-009  0.9118800E+02  0.7816164E-02  0.1184000E+00
        -11   -1    0    0    0    0  0.00000000000E+00  0.00000000000E+00  0.45593999997E+02  0.45594000000E+02  0.51100000000E-03 0. -1.
         11   -1    0    0    0    0 -0.00000000000E+00 -0.00000000000E+00 -0.45593999997E+02  0.45594000000E+02  0.51100000000E-03 0.  1.
         23    2    1    2    0    0  0.22204460493E-15  0.00000000000E+00  0.00000000000E+00  0.91188000000E+02  0.91188000000E+02 0.  0.
    9900012    2    3    3    0    0 -0.19698688539E+01  0.11840534525E+02  0.43416986251E+02  0.46142319450E+02  0.10000015396E+02 0.  0.
        -12    1    3    3    0    0  0.19698688539E+01 -0.11840534525E+02 -0.43416986251E+02  0.45045680550E+02  0.00000000000E+00 0.  1.
         11    1    4    4    0    0  0.55582482749E-01  0.51981233711E+01  0.84792920056E+01  0.99459524014E+01  0.51100000000E-03 0. -1.
        -11    1    4    4    0    0  0.17426019895E+01 -0.89632102557E-01  0.61256823185E+01  0.63693547346E+01  0.51100000000E-03 0.  1.
        -12    1    4    4    0    0 -0.37680533261E+01  0.67320432565E+01  0.28812011927E+02  0.29827012314E+02  0.00000000000E+00 0.  1.
</event>
<event>
 8    1  0.9117959E-009  0.9118800E+02  0.7816164E-02  0.1184000E+00
        -11   -1    0    0    0    0  0.00000000000E+00  0.00000000000E+00  0.45593999997E+02  0.45594000000E+02  0.51100000000E-03 0. -1.
         11   -1    0    0    0    0 -0.00000000000E+00 -0.00000000000E+00 -0.45593999997E+02  0.45594000000E+02  0.51100000000E-03 0.  1.
         23    2    1    2    0    0 -0.35527136788E-14  0.35527136788E-14  0.00000000000E+00  0.91188000000E+02  0.91188000000E+02 0.  0.
    9900012    2    3    3    0    0  0.30972686268E+02 -0.29945319303E+02 -0.13156140145E+02  0.46142318006E+02  0.10000002230E+02 0.  0.
         12    1    3    3    0    0 -0.30972686268E+02  0.29945319303E+02  0.13156140145E+02  0.45045681994E+02  0.00000000000E+00 0. -1.
         11    1    4    4    0    0  0.21304639293E+02 -0.17991251204E+02 -0.11220614617E+02  0.30057860335E+02  0.51100000000E-03 0. -1.
        -11    1    4    4    0    0  0.25175621238E+01 -0.97364020096E+00 -0.12181893027E+01  0.29614320398E+01  0.51100000000E-03 0.  1.
         12    1    4    4    0    0  0.71504848508E+01 -0.10980427898E+02 -0.71733622516E+00  0.13123025630E+02  0.00000000000E+00 0. -1.
</event>
<event>
 8    1  0.9117959E-009  0.9118800E+02  0.7816164E-02  0.1184000E+00
        -11   -1    0    0    0    0  0.00000000000E+00  0.00000000000E+00  0.45593999997E+02  0.45594000000E+02  0.51100000000E-03 0. -1.
         11   -1    0    0    0    0 -0.00000000000E+00 -0.00000000000E+00 -0.45593999997E+02  0.45594000000E+02  0.51100000000E-03 0.  1.
         23    2    1    2    0    0 -0.71054273576E-14 -0.71054273576E-14 -0.17763568394E-14  0.91188000000E+02  0.91188000000E+02 0.  0.
    9900012    2    3    3    0    0 -0.34244178925E+02 -0.28803903625E+02 -0.51754087216E+01  0.46142317524E+02  0.99999978365E+01 0.  0.
        -12    1    3    3    0    0  0.34244178925E+02  0.28803903625E+02  0.51754087216E+01  0.45045682476E+02  0.00000000000E+00 0.  1.
         11    1    4    4    0    0 -0.30223075892E+01 -0.53947162273E+01  0.17736526629E+01  0.64329736800E+01  0.51100000000E-03 0. -1.
        -11    1    4    4    0    0 -0.11425480426E+02 -0.10024529889E+02 -0.26332010080E+01  0.15426164470E+02  0.51100000000E-03 0.  1.
         12    1    4    4    0    0 -0.19796390911E+02 -0.13384657509E+02 -0.43158603766E+01  0.24283179374E+02  0.00000000000E+00 0. -1.
</event>
<event>
 8    1  0.1325750E-008  0.9118800E+02  0.7816164E-02  0.1184000E+00
        -11   -1    0    0    0    0  0.00000000000E+00  0.00000000000E+00  0.45593999997E+02  0.45594000000E+02  0.51100000000E-03 0. -1.
         11   -1    0    0    0    0 -0.00000000000E+00 -0.00000000000E+00 -0.45593999997E+02  0.45594000000E+02  0.51100000000E-03 0.  1.
         23    2    1    2    0    0 -0.35527136788E-14  0.00000000000E+00 -0.71054273576E-14  0.91188000000E+02  0.91188000000E+02 0.  0.
    9900012    2    3    3    0    0  0.17719934129E+02 -0.61924631736E+01  0.40948392206E+02  0.46142317744E+02  0.99999998424E+01 0.  0.
        -12    1    3    3    0    0 -0.17719934129E+02  0.61924631736E+01 -0.40948392206E+02  0.45045682256E+02  0.00000000000E+00 0.  1.
         11    1    4    4    0    0  0.21806724115E+01  0.36254522450E+00  0.13751428133E+01  0.26034187570E+01  0.51100000000E-03 0. -1.
        -11    1    4    4    0    0 -0.66765197642E+00 -0.81824209775E-01  0.10500591899E+01  0.12470280375E+01  0.51100000000E-03 0.  1.
         12    1    4    4    0    0  0.16206913694E+02 -0.64731841883E+01  0.38523190202E+02  0.42291870949E+02  0.00000000000E+00 0. -1.
</event>
<event>
 8    1  0.9117959E-009  0.9118800E+02  0.7816164E-02  0.1184000E+00
        -11   -1    0    0    0    0  0.00000000000E+00  0.00000000000E+00  0.45593999997E+02  0.45594000000E+02  0.51100000000E-03 0.  1.
         11   -1    0    0    0    0 -0.00000000000E+00 -0.00000000000E+00 -0.45593999997E+02  0.45594000000E+02  0.51100000000E-03 0. -1.
         23    2    1    2    0    0 -0.55511151231E-16  0.00000000000E+00 -0.35527136788E-14  0.91188000000E+02  0.91188000000E+02 0.  0.
    9900012    2    3    3    0    0 -0.15881013983E+00 -0.38803096544E+02 -0.22878111254E+02  0.46142317669E+02  0.99999991644E+01 0.  0.
         12    1    3    3    0    0  0.15881013983E+00  0.38803096544E+02  0.22878111254E+02  0.45045682331E+02  0.00000000000E+00 0. -1.
         11    1    4    4    0    0  0.89137849304E+00 -0.26321706260E+02 -0.18228146685E+02  0.32029550541E+02  0.51100000000E-03 0. -1.
        -11    1    4    4    0    0 -0.11661293839E+00 -0.28567155228E+01 -0.32721217154E+01  0.43452506185E+01  0.51100000000E-03 0.  1.
        -12    1    4    4    0    0 -0.93357569447E+00 -0.96246747612E+01 -0.13778428538E+01  0.97675165097E+01  0.00000000000E+00 0.  1.
</event>
<event>
 8    1  0.9117959E-009  0.9118800E+02  0.7816164E-02  0.1184000E+00
        -11   -1    0    0    0    0  0.00000000000E+00  0.00000000000E+00  0.45593999997E+02  0.45594000000E+02  0.51100000000E-03 0. -1.
         11   -1    0    0    0    0 -0.00000000000E+00 -0.00000000000E+00 -0.45593999997E+02  0.45594000000E+02  0.51100000000E-03 0.  1.
         23    2    1    2    0    0  0.00000000000E+00  0.00000000000E+00  0.00000000000E+00  0.91188000000E+02  0.91188000000E+02 0.  0.
    9900012    2    3    3    0    0 -0.14200396155E+02  0.97359417391E+01  0.41625397417E+02  0.46142317381E+02  0.99999965375E+01 0.  0.
        -12    1    3    3    0    0  0.14200396155E+02 -0.97359417391E+01 -0.41625397417E+02  0.45045682619E+02  0.00000000000E+00 0.  1.
         11    1    4    4    0    0 -0.37541498248E+01  0.10557872155E+01  0.14416378975E+02  0.14934534159E+02  0.51100000000E-03 0. -1.
        -11    1    4    4    0    0 -0.10153140547E+02  0.65949627692E+01  0.17543699685E+02  0.21315749947E+02  0.51100000000E-03 0.  1.
        -12    1    4    4    0    0 -0.29310578296E+00  0.20851917543E+01  0.96653187565E+01  0.98920332752E+01  0.00000000000E+00 0.  1.
</event>
<event>
 8    1  0.9117959E-009  0.9118800E+02  0.7816164E-02  0.1184000E+00
        -11   -1    0    0    0    0  0.00000000000E+00  0.00000000000E+00  0.45593999997E+02  0.45594000000E+02  0.51100000000E-03 0. -1.
         11   -1    0    0    0    0 -0.00000000000E+00 -0.00000000000E+00 -0.45593999997E+02  0.45594000000E+02  0.51100000000E-03 0.  1.
         23    2    1    2    0    0  0.00000000000E+00  0.17763568394E-14  0.00000000000E+00  0.91188000000E+02  0.91188000000E+02 0.  0.
    9900012    2    3    3    0    0  0.33044449478E+02 -0.11787298405E+02 -0.28253101461E+02  0.46142314444E+02  0.99999697528E+01 0.  0.
         12    1    3    3    0    0 -0.33044449478E+02  0.11787298405E+02  0.28253101461E+02  0.45045685556E+02  0.00000000000E+00 0. -1.
         11    1    4    4    0    0  0.13934001390E+01 -0.16805022001E+01 -0.77333297319E+00  0.23159654014E+01  0.51100000000E-03 0. -1.
        -11    1    4    4    0    0  0.41524210426E+01  0.11325361000E+01 -0.22787265484E+01  0.48700958385E+01  0.51100000000E-03 0.  1.
        -12    1    4    4    0    0  0.27498628297E+02 -0.11239332305E+02 -0.25201041940E+02  0.38956253204E+02  0.00000000000E+00 0.  1.
</event>
<event>
 8    1  0.9117959E-009  0.9118800E+02  0.7816164E-02  0.1184000E+00
        -11   -1    0    0    0    0  0.00000000000E+00  0.00000000000E+00  0.45593999997E+02  0.45594000000E+02  0.51100000000E-03 0. -1.
         11   -1    0    0    0    0 -0.00000000000E+00 -0.00000000000E+00 -0.45593999997E+02  0.45594000000E+02  0.51100000000E-03 0.  1.
         23    2    1    2    0    0  0.00000000000E+00  0.00000000000E+00  0.00000000000E+00  0.91188000000E+02  0.91188000000E+02 0.  0.
    9900012    2    3    3    0    0 -0.19341010431E+02  0.13621060256E+02 -0.38334141657E+02  0.46142307825E+02  0.99999093913E+01 0.  0.
         12    1    3    3    0    0  0.19341010431E+02 -0.13621060256E+02  0.38334141657E+02  0.45045692175E+02  0.00000000000E+00 0. -1.
         11    1    4    4    0    0 -0.22934171670E+01 -0.11145282146E+01 -0.34988894375E+01  0.43294529678E+01  0.51100000000E-03 0. -1.
        -11    1    4    4    0    0 -0.16632156934E+02  0.12435804128E+02 -0.31835264035E+02  0.38010023744E+02  0.51100000000E-03 0.  1.
         12    1    4    4    0    0 -0.41543632943E+00  0.22997843422E+01 -0.29999881847E+01  0.38028311128E+01  0.00000000000E+00 0. -1.
</event>
<event>
 8    1  0.9117959E-009  0.9118800E+02  0.7816164E-02  0.1184000E+00
        -11   -1    0    0    0    0  0.00000000000E+00  0.00000000000E+00  0.45593999997E+02  0.45594000000E+02  0.51100000000E-03 0. -1.
         11   -1    0    0    0    0 -0.00000000000E+00 -0.00000000000E+00 -0.45593999997E+02  0.45594000000E+02  0.51100000000E-03 0.  1.
         23    2    1    2    0    0  0.35527136788E-14  0.00000000000E+00  0.00000000000E+00  0.91188000000E+02  0.91188000000E+02 0.  0.
    9900012    2    3    3    0    0  0.26238514955E+02  0.34461461252E+01 -0.36452405000E+02  0.46142318515E+02  0.10000006875E+02 0.  0.
         12    1    3    3    0    0 -0.26238514955E+02 -0.34461461252E+01  0.36452405000E+02  0.45045681485E+02  0.00000000000E+00 0. -1.
         11    1    4    4    0    0  0.87817142827E+00 -0.19718943907E+01 -0.24693105996E+01  0.32797938416E+01  0.51100000000E-03 0. -1.
        -11    1    4    4    0    0  0.18974492201E+02  0.48015520066E+01 -0.27376291856E+02  0.33653344737E+02  0.51100000000E-03 0.  1.
         12    1    4    4    0    0  0.63858513259E+01  0.61648850935E+00 -0.66068025447E+01  0.92091799366E+01  0.00000000000E+00 0. -1.
</event>
<event>
 8    1  0.9117959E-009  0.9118800E+02  0.7816164E-02  0.1184000E+00
        -11   -1    0    0    0    0  0.00000000000E+00  0.00000000000E+00  0.45593999997E+02  0.45594000000E+02  0.51100000000E-03 0. -1.
         11   -1    0    0    0    0 -0.00000000000E+00 -0.00000000000E+00 -0.45593999997E+02  0.45594000000E+02  0.51100000000E-03 0.  1.
         23    2    1    2    0    0  0.00000000000E+00 -0.17763568394E-14  0.71054273576E-14  0.91188000000E+02  0.91188000000E+02 0.  0.
    9900012    2    3    3    0    0 -0.71920990128E+01  0.12863394760E+02 -0.42566657173E+02  0.46142317456E+02  0.99999972194E+01 0.  0.
         12    1    3    3    0    0  0.71920990128E+01 -0.12863394760E+02  0.42566657173E+02  0.45045682544E+02  0.00000000000E+00 0. -1.
         11    1    4    4    0    0  0.91728840243E+00  0.17845947436E+01 -0.12403989931E+01  0.23589799353E+01  0.51100000000E-03 0. -1.
        -11    1    4    4    0    0 -0.18965810186E+01  0.23509996964E+01 -0.16028201922E+02  0.16310348747E+02  0.51100000000E-03 0.  1.
        -12    1    4    4    0    0 -0.62128063967E+01  0.87278003196E+01 -0.25298056258E+02  0.27472988774E+02  0.00000000000E+00 0.  1.
</event>
<event>
 8    1  0.9117959E-009  0.9118800E+02  0.7816164E-02  0.1184000E+00
        -11   -1    0    0    0    0  0.00000000000E+00  0.00000000000E+00  0.45593999997E+02  0.45594000000E+02  0.51100000000E-03 0. -1.
         11   -1    0    0    0    0 -0.00000000000E+00 -0.00000000000E+00 -0.45593999997E+02  0.45594000000E+02  0.51100000000E-03 0.  1.
         23    2    1    2    0    0  0.00000000000E+00  0.00000000000E+00  0.00000000000E+00  0.91188000000E+02  0.91188000000E+02 0.  0.
    9900012    2    3    3    0    0 -0.17966455150E+02  0.29150797198E+02 -0.29266894744E+02  0.46142316346E+02  0.99999870964E+01 0.  0.
         12    1    3    3    0    0  0.17966455150E+02 -0.29150797198E+02  0.29266894744E+02  0.45045683654E+02  0.00000000000E+00 0. -1.
         11    1    4    4    0    0 -0.65373527741E+01  0.12867668092E+02 -0.69566451587E+01  0.16022133926E+02  0.51100000000E-03 0. -1.
        -11    1    4    4    0    0 -0.84324847297E+01  0.13329218421E+02 -0.15493484086E+02  0.22109339922E+02  0.51100000000E-03 0.  1.
         12    1    4    4    0    0 -0.29966176464E+01  0.29539106849E+01 -0.68167654991E+01  0.80108424977E+01  0.00000000000E+00 0. -1.
</event>
<event>
 8    1  0.9117959E-009  0.9118800E+02  0.7816164E-02  0.1184000E+00
        -11   -1    0    0    0    0  0.00000000000E+00  0.00000000000E+00  0.45593999997E+02  0.45594000000E+02  0.51100000000E-03 0. -1.
         11   -1    0    0    0    0 -0.00000000000E+00 -0.00000000000E+00 -0.45593999997E+02  0.45594000000E+02  0.51100000000E-03 0.  1.
         23    2    1    2    0    0 -0.17763568394E-14 -0.71054273576E-14  0.35527136788E-14  0.91188000000E+02  0.91188000000E+02 0.  0.
    9900012    2    3    3    0    0  0.48092647585E+01  0.34686178043E+02 -0.28334665785E+02  0.46142320297E+02  0.10000023125E+02 0.  0.
         12    1    3    3    0    0 -0.48092647585E+01 -0.34686178043E+02  0.28334665785E+02  0.45045679703E+02  0.00000000000E+00 0. -1.
         11    1    4    4    0    0 -0.19132295238E+01  0.59777125897E+01 -0.72293240157E+01  0.95737464454E+01  0.51100000000E-03 0.  1.
        -11    1    4    4    0    0 -0.70961097602E+00  0.16697976134E+01 -0.10898111292E+01  0.21164735684E+01  0.51100000000E-03 0. -1.
        -12    1    4    4    0    0  0.74321052582E+01  0.27038667840E+02 -0.20015530640E+02  0.34452100283E+02  0.00000000000E+00 0.  1.
</event>
<event>
 8    1  0.9117959E-009  0.9118800E+02  0.7816164E-02  0.1184000E+00
        -11   -1    0    0    0    0  0.00000000000E+00  0.00000000000E+00  0.45593999997E+02  0.45594000000E+02  0.51100000000E-03 0. -1.
         11   -1    0    0    0    0 -0.00000000000E+00 -0.00000000000E+00 -0.45593999997E+02  0.45594000000E+02  0.51100000000E-03 0.  1.
         23    2    1    2    0    0  0.00000000000E+00  0.00000000000E+00 -0.35527136788E-14  0.91188000000E+02  0.91188000000E+02 0.  0.
    9900012    2    3    3    0    0  0.19146148400E+02  0.34496389545E+02 -0.21737928435E+02  0.46142318488E+02  0.10000006628E+02 0.  0.
         12    1    3    3    0    0 -0.19146148400E+02 -0.34496389545E+02  0.21737928435E+02  0.45045681512E+02  0.00000000000E+00 0. -1.
         11    1    4    4    0    0  0.50120701212E+01  0.13668576101E+02 -0.46870289466E+01  0.15294412709E+02  0.51100000000E-03 0. -1.
        -11    1    4    4    0    0  0.67360199854E+01  0.96287438942E+01 -0.11104073111E+02  0.16167470864E+02  0.51100000000E-03 0.  1.
        -12    1    4    4    0    0  0.73980582939E+01  0.11199069550E+02 -0.59468263779E+01  0.14680434915E+02  0.00000000000E+00 0.  1.
</event>
<event>
 8    1  0.9117959E-009  0.9118800E+02  0.7816164E-02  0.1184000E+00
        -11   -1    0    0    0    0  0.00000000000E+00  0.00000000000E+00  0.45593999997E+02  0.45594000000E+02  0.51100000000E-03 0. -1.
         11   -1    0    0    0    0 -0.00000000000E+00 -0.00000000000E+00 -0.45593999997E+02  0.45594000000E+02  0.51100000000E-03 0.  1.
         23    2    1    2    0    0 -0.35527136788E-14  0.53290705182E-14  0.00000000000E+00  0.91188000000E+02  0.91188000000E+02 0.  0.
    9900012    2    3    3    0    0 -0.19734308794E+02  0.15436734544E+02 -0.37434981581E+02  0.46142316934E+02  0.99999924550E+01 0.  0.
         12    1    3    3    0    0  0.19734308794E+02 -0.15436734544E+02  0.37434981581E+02  0.45045683066E+02  0.00000000000E+00 0. -1.
         11    1    4    4    0    0 -0.24140997216E+01 -0.40243497482E+00 -0.37406657952E+01  0.44701691497E+01  0.51100000000E-03 0. -1.
        -11    1    4    4    0    0 -0.80481932255E+01  0.50285324486E+01 -0.85452077634E+01  0.12770283034E+02  0.51100000000E-03 0.  1.
         12    1    4    4    0    0 -0.92720158469E+01  0.10810637070E+02 -0.25149108022E+02  0.28901864750E+02  0.00000000000E+00 0. -1.
</event>
<event>
 8    1  0.9117959E-009  0.9118800E+02  0.7816164E-02  0.1184000E+00
        -11   -1    0    0    0    0  0.00000000000E+00  0.00000000000E+00  0.45593999997E+02  0.45594000000E+02  0.51100000000E-03 0. -1.
         11   -1    0    0    0    0 -0.00000000000E+00 -0.00000000000E+00 -0.45593999997E+02  0.45594000000E+02  0.51100000000E-03 0.  1.
         23    2    1    2    0    0  0.00000000000E+00 -0.71054273576E-14  0.00000000000E+00  0.91188000000E+02  0.91188000000E+02 0.  0.
    9900012    2    3    3    0    0  0.61669004039E+00  0.36913363135E+02 -0.25809626507E+02  0.46142317577E+02  0.99999983185E+01 0.  0.
         12    1    3    3    0    0 -0.61669004039E+00 -0.36913363135E+02  0.25809626507E+02  0.45045682423E+02  0.00000000000E+00 0. -1.
         11    1    4    4    0    0  0.64689225137E+00  0.64817785541E+01 -0.20173395945E+01  0.68192068534E+01  0.51100000000E-03 0. -1.
        -11    1    4    4    0    0  0.11507569291E+01  0.16413497573E+02 -0.17148329617E+02  0.23765360359E+02  0.51100000000E-03 0.  1.
        -12    1    4    4    0    0 -0.11809591401E+01  0.14018087007E+02 -0.66439572962E+01  0.15557750364E+02  0.00000000000E+00 0.  1.
</event>
<event>
 8    1  0.9117959E-009  0.9118800E+02  0.7816164E-02  0.1184000E+00
        -11   -1    0    0    0    0  0.00000000000E+00  0.00000000000E+00  0.45593999997E+02  0.45594000000E+02  0.51100000000E-03 0. -1.
         11   -1    0    0    0    0 -0.00000000000E+00 -0.00000000000E+00 -0.45593999997E+02  0.45594000000E+02  0.51100000000E-03 0.  1.
         23    2    1    2    0    0  0.00000000000E+00  0.26645352591E-14 -0.71054273576E-14  0.91188000000E+02  0.91188000000E+02 0.  0.
    9900012    2    3    3    0    0 -0.65499835388E+01  0.64167228093E+01 -0.44102570304E+02  0.46142319592E+02  0.10000016697E+02 0.  0.
         12    1    3    3    0    0  0.65499835388E+01 -0.64167228093E+01  0.44102570304E+02  0.45045680408E+02  0.00000000000E+00 0. -1.
         11    1    4    4    0    0  0.52676300541E+00  0.15260178307E+00 -0.81415609479E+00  0.98163994207E+00  0.51100000000E-03 0. -1.
        -11    1    4    4    0    0 -0.48056276161E+00 -0.18163323383E+01 -0.12803125639E+02  0.12940248457E+02  0.51100000000E-03 0.  1.
        -12    1    4    4    0    0 -0.65961837826E+01  0.80804533645E+01 -0.30485288570E+02  0.32220431193E+02  0.00000000000E+00 0.  1.
</event>
<event>
 8    1  0.1072289E-008  0.9118800E+02  0.7816164E-02  0.1184000E+00
        -11   -1    0    0    0    0  0.00000000000E+00  0.00000000000E+00  0.45593999997E+02  0.45594000000E+02  0.51100000000E-03 0. -1.
         11   -1    0    0    0    0 -0.00000000000E+00 -0.00000000000E+00 -0.45593999997E+02  0.45594000000E+02  0.51100000000E-03 0.  1.
         23    2    1    2    0    0  0.00000000000E+00  0.00000000000E+00  0.71054273576E-14  0.91188000000E+02  0.91188000000E+02 0.  0.
    9900012    2    3    3    0    0  0.16210765692E+02 -0.21238916769E+02  0.36266141744E+02  0.46142317112E+02  0.99999940823E+01 0.  0.
        -12    1    3    3    0    0 -0.16210765692E+02  0.21238916769E+02 -0.36266141744E+02  0.45045682888E+02  0.00000000000E+00 0.  1.
         11    1    4    4    0    0  0.95315286910E+01 -0.65951240424E+01  0.11460101814E+02  0.16299682027E+02  0.51100000000E-03 0. -1.
        -11    1    4    4    0    0  0.12414343625E+01 -0.48729665221E+01  0.49600821147E+01  0.70632412423E+01  0.51100000000E-03 0.  1.
         12    1    4    4    0    0  0.54378026382E+01 -0.97708262047E+01  0.19845957815E+02  0.22779393843E+02  0.00000000000E+00 0. -1.
</event>
<event>
 8    1  0.9117959E-009  0.9118800E+02  0.7816164E-02  0.1184000E+00
        -11   -1    0    0    0    0  0.00000000000E+00  0.00000000000E+00  0.45593999997E+02  0.45594000000E+02  0.51100000000E-03 0. -1.
         11   -1    0    0    0    0 -0.00000000000E+00 -0.00000000000E+00 -0.45593999997E+02  0.45594000000E+02  0.51100000000E-03 0.  1.
         23    2    1    2    0    0  0.00000000000E+00  0.00000000000E+00  0.00000000000E+00  0.91188000000E+02  0.91188000000E+02 0.  0.
    9900012    2    3    3    0    0 -0.97971226965E+01 -0.55613711608E+01 -0.43614229971E+02  0.46142317429E+02  0.99999969700E+01 0.  0.
         12    1    3    3    0    0  0.97971226965E+01  0.55613711608E+01  0.43614229971E+02  0.45045682571E+02  0.00000000000E+00 0. -1.
         11    1    4    4    0    0 -0.83578536842E+01 -0.22054421852E+01 -0.31763043382E+02  0.32918211048E+02  0.51100000000E-03 0.  1.
        -11    1    4    4    0    0 -0.11858336766E+01 -0.44701274390E+01 -0.10360614041E+02  0.11345949251E+02  0.51100000000E-03 0. -1.
        -12    1    4    4    0    0 -0.25343533583E+00  0.11141984634E+01 -0.14905725483E+01  0.18781571305E+01  0.00000000000E+00 0.  1.
</event>
<event>
 8    1  0.9117959E-009  0.9118800E+02  0.7816164E-02  0.1184000E+00
        -11   -1    0    0    0    0  0.00000000000E+00  0.00000000000E+00  0.45593999997E+02  0.45594000000E+02  0.51100000000E-03 0. -1.
         11   -1    0    0    0    0 -0.00000000000E+00 -0.00000000000E+00 -0.45593999997E+02  0.45594000000E+02  0.51100000000E-03 0.  1.
         23    2    1    2    0    0  0.00000000000E+00  0.17763568394E-14  0.44408920985E-15  0.91188000000E+02  0.91188000000E+02 0.  0.
    9900012    2    3    3    0    0  0.43829660894E+02  0.99623157674E+01 -0.29709435490E+01  0.46142318574E+02  0.10000007416E+02 0.  0.
        -12    1    3    3    0    0 -0.43829660894E+02 -0.99623157674E+01  0.29709435490E+01  0.45045681426E+02  0.00000000000E+00 0.  1.
         11    1    4    4    0    0  0.16399159636E+02  0.51537967021E+01 -0.43813649082E+00  0.17195523285E+02  0.51100000000E-03 0. -1.
        -11    1    4    4    0    0  0.19600217174E+02  0.20396742925E+01  0.14031504036E+01  0.19755951403E+02  0.51100000000E-03 0.  1.
         12    1    4    4    0    0  0.78302840835E+01  0.27688447728E+01 -0.39359574618E+01  0.91908438865E+01  0.00000000000E+00 0. -1.
</event>
<event>
 8    1  0.9429324E-009  0.9118800E+02  0.7816164E-02  0.1184000E+00
        -11   -1    0    0    0    0  0.00000000000E+00  0.00000000000E+00  0.45593999997E+02  0.45594000000E+02  0.51100000000E-03 0. -1.
         11   -1    0    0    0    0 -0.00000000000E+00 -0.00000000000E+00 -0.45593999997E+02  0.45594000000E+02  0.51100000000E-03 0.  1.
         23    2    1    2    0    0  0.00000000000E+00  0.17763568394E-14 -0.71054273576E-14  0.91188000000E+02  0.91188000000E+02 0.  0.
    9900012    2    3    3    0    0 -0.87661554615E+01  0.12057360281E+02  0.42507507241E+02  0.46142316629E+02  0.99999896758E+01 0.  0.
        -12    1    3    3    0    0  0.87661554615E+01 -0.12057360281E+02 -0.42507507241E+02  0.45045683371E+02  0.00000000000E+00 0.  1.
         11    1    4    4    0    0 -0.84853956182E+01  0.12824687219E+02  0.39384684737E+02  0.42280349256E+02  0.51100000000E-03 0. -1.
        -11    1    4    4    0    0 -0.31863091515E+00  0.22159751357E+00 -0.16994842522E+00  0.42369074390E+00  0.51100000000E-03 0.  1.
         12    1    4    4    0    0  0.37871071863E-01 -0.98892445169E+00  0.32927709288E+01  0.34382766292E+01  0.00000000000E+00 0. -1.
</event>
<event>
 8    1  0.9117959E-009  0.9118800E+02  0.7816164E-02  0.1184000E+00
        -11   -1    0    0    0    0  0.00000000000E+00  0.00000000000E+00  0.45593999997E+02  0.45594000000E+02  0.51100000000E-03 0. -1.
         11   -1    0    0    0    0 -0.00000000000E+00 -0.00000000000E+00 -0.45593999997E+02  0.45594000000E+02  0.51100000000E-03 0.  1.
         23    2    1    2    0    0  0.88817841970E-15 -0.71054273576E-14  0.00000000000E+00  0.91188000000E+02  0.91188000000E+02 0.  0.
    9900012    2    3    3    0    0 -0.63031077119E+01  0.39616989073E+02 -0.20490939422E+02  0.46142316650E+02  0.99999898720E+01 0.  0.
         12    1    3    3    0    0  0.63031077119E+01 -0.39616989073E+02  0.20490939422E+02  0.45045683350E+02  0.00000000000E+00 0. -1.
         11    1    4    4    0    0 -0.75129581440E+01  0.17114665264E+02 -0.97099081837E+01  0.21062730696E+02  0.51100000000E-03 0. -1.
        -11    1    4    4    0    0  0.57268581373E+00  0.67194190856E+01 -0.21423220817E+01  0.70758819981E+01  0.51100000000E-03 0.  1.
         12    1    4    4    0    0  0.63716461828E+00  0.15782904723E+02 -0.86387091564E+01  0.18003703956E+02  0.00000000000E+00 0. -1.
</event>
<event>
 8    1  0.9117959E-009  0.9118800E+02  0.7816164E-02  0.1184000E+00
        -11   -1    0    0    0    0  0.00000000000E+00  0.00000000000E+00  0.45593999997E+02  0.45594000000E+02  0.51100000000E-03 0. -1.
         11   -1    0    0    0    0 -0.00000000000E+00 -0.00000000000E+00 -0.45593999997E+02  0.45594000000E+02  0.51100000000E-03 0.  1.
         23    2    1    2    0    0  0.35527136788E-14  0.00000000000E+00  0.00000000000E+00  0.91188000000E+02  0.91188000000E+02 0.  0.
    9900012    2    3    3    0    0  0.29082499033E+02 -0.95134790733E+01  0.33057760330E+02  0.46142317053E+02  0.99999935440E+01 0.  0.
        -12    1    3    3    0    0 -0.29082499033E+02  0.95134790733E+01 -0.33057760330E+02  0.45045682947E+02  0.00000000000E+00 0.  1.
         11    1    4    4    0    0  0.13894882783E+02 -0.45932477034E+01  0.14299531816E+02  0.20460750290E+02  0.51100000000E-03 0. -1.
        -11    1    4    4    0    0  0.12204763387E+02 -0.61964963169E+01  0.12075757963E+02  0.18253129775E+02  0.51100000000E-03 0.  1.
        -12    1    4    4    0    0  0.29828528637E+01  0.12762649470E+01  0.66824705513E+01  0.74284369884E+01  0.00000000000E+00 0.  1.
</event>
<event>
 8    1  0.9117959E-009  0.9118800E+02  0.7816164E-02  0.1184000E+00
        -11   -1    0    0    0    0  0.00000000000E+00  0.00000000000E+00  0.45593999997E+02  0.45594000000E+02  0.51100000000E-03 0. -1.
         11   -1    0    0    0    0 -0.00000000000E+00 -0.00000000000E+00 -0.45593999997E+02  0.45594000000E+02  0.51100000000E-03 0.  1.
         23    2    1    2    0    0  0.00000000000E+00  0.35527136788E-14 -0.35527136788E-14  0.91188000000E+02  0.91188000000E+02 0.  0.
    9900012    2    3    3    0    0  0.17568381809E+02  0.30766208907E+02  0.27819162977E+02  0.46142317869E+02  0.10000000983E+02 0.  0.
        -12    1    3    3    0    0 -0.17568381809E+02 -0.30766208907E+02 -0.27819162977E+02  0.45045682131E+02  0.00000000000E+00 0.  1.
         11    1    4    4    0    0  0.10897026250E+02  0.18928132701E+02  0.20843878918E+02  0.30190837637E+02  0.51100000000E-03 0. -1.
        -11    1    4    4    0    0  0.54441247482E+01  0.51765245099E+01  0.43917397002E+01  0.87018548673E+01  0.51100000000E-03 0.  1.
        -12    1    4    4    0    0  0.12272308110E+01  0.66615516967E+01  0.25835443585E+01  0.72496253644E+01  0.00000000000E+00 0.  1.
</event>
<event>
 8    1  0.9117959E-009  0.9118800E+02  0.7816164E-02  0.1184000E+00
        -11   -1    0    0    0    0  0.00000000000E+00  0.00000000000E+00  0.45593999997E+02  0.45594000000E+02  0.51100000000E-03 0. -1.
         11   -1    0    0    0    0 -0.00000000000E+00 -0.00000000000E+00 -0.45593999997E+02  0.45594000000E+02  0.51100000000E-03 0.  1.
         23    2    1    2    0    0 -0.17763568394E-14 -0.17763568394E-14  0.71054273576E-14  0.91188000000E+02  0.91188000000E+02 0.  0.
    9900012    2    3    3    0    0  0.11297087225E+02  0.11122196354E+02 -0.42163800471E+02  0.46142317613E+02  0.99999986535E+01 0.  0.
         12    1    3    3    0    0 -0.11297087225E+02 -0.11122196354E+02  0.42163800471E+02  0.45045682387E+02  0.00000000000E+00 0. -1.
         11    1    4    4    0    0  0.24035934015E+01  0.51457628687E+01 -0.64334949548E+01  0.85817244383E+01  0.51100000000E-03 0. -1.
        -11    1    4    4    0    0  0.52304338410E+01  0.28210885050E+01 -0.26301700051E+02  0.26964706643E+02  0.51100000000E-03 0.  1.
        -12    1    4    4    0    0  0.36630599821E+01  0.31553449801E+01 -0.94286054654E+01  0.10595886532E+02  0.00000000000E+00 0.  1.
</event>
<event>
 8    1  0.9117959E-009  0.9118800E+02  0.7816164E-02  0.1184000E+00
        -11   -1    0    0    0    0  0.00000000000E+00  0.00000000000E+00  0.45593999997E+02  0.45594000000E+02  0.51100000000E-03 0. -1.
         11   -1    0    0    0    0 -0.00000000000E+00 -0.00000000000E+00 -0.45593999997E+02  0.45594000000E+02  0.51100000000E-03 0.  1.
         23    2    1    2    0    0  0.00000000000E+00  0.00000000000E+00  0.00000000000E+00  0.91188000000E+02  0.91188000000E+02 0.  0.
    9900012    2    3    3    0    0 -0.18682629244E+02  0.32921192566E+02 -0.24418598530E+02  0.46142317526E+02  0.99999978523E+01 0.  0.
         12    1    3    3    0    0  0.18682629244E+02 -0.32921192566E+02  0.24418598530E+02  0.45045682474E+02  0.00000000000E+00 0. -1.
         11    1    4    4    0    0 -0.33660028206E+01  0.22088853978E+01 -0.27214758364E+01  0.48595864719E+01  0.51100000000E-03 0. -1.
        -11    1    4    4    0    0 -0.35119701769E+01  0.41003897835E+01 -0.64757115918E+01  0.84310125004E+01  0.51100000000E-03 0.  1.
        -12    1    4    4    0    0 -0.11804656247E+02  0.26611917384E+02 -0.15221411102E+02  0.32851718553E+02  0.00000000000E+00 0.  1.
</event>
<event>
 8    1  0.9117959E-009  0.9118800E+02  0.7816164E-02  0.1184000E+00
        -11   -1    0    0    0    0  0.00000000000E+00  0.00000000000E+00  0.45593999997E+02  0.45594000000E+02  0.51100000000E-03 0. -1.
         11   -1    0    0    0    0 -0.00000000000E+00 -0.00000000000E+00 -0.45593999997E+02  0.45594000000E+02  0.51100000000E-03 0.  1.
         23    2    1    2    0    0  0.35527136788E-14  0.35527136788E-14 -0.17763568394E-14  0.91188000000E+02  0.91188000000E+02 0.  0.
    9900012    2    3    3    0    0  0.31679498086E+02  0.28943816017E+02 -0.13703225950E+02  0.46142317787E+02  0.10000000236E+02 0.  0.
         12    1    3    3    0    0 -0.31679498086E+02 -0.28943816017E+02  0.13703225950E+02  0.45045682213E+02  0.00000000000E+00 0. -1.
         11    1    4    4    0    0  0.54348446918E+01  0.49523983907E+01 -0.16374557515E+01  0.75329309199E+01  0.51100000000E-03 0. -1.
        -11    1    4    4    0    0  0.23465163331E+02  0.22782880701E+02 -0.13339697430E+02  0.35321679900E+02  0.51100000000E-03 0.  1.
         12    1    4    4    0    0  0.27794900627E+01  0.12085369254E+01  0.12739272313E+01  0.32877069668E+01  0.00000000000E+00 0. -1.
</event>
<event>
 8    1  0.9117959E-009  0.9118800E+02  0.7816164E-02  0.1184000E+00
        -11   -1    0    0    0    0  0.00000000000E+00  0.00000000000E+00  0.45593999997E+02  0.45594000000E+02  0.51100000000E-03 0. -1.
         11   -1    0    0    0    0 -0.00000000000E+00 -0.00000000000E+00 -0.45593999997E+02  0.45594000000E+02  0.51100000000E-03 0.  1.
         23    2    1    2    0    0  0.71054273576E-14  0.00000000000E+00  0.00000000000E+00  0.91188000000E+02  0.91188000000E+02 0.  0.
    9900012    2    3    3    0    0  0.33602764436E+02  0.29480699168E+02 -0.55548216839E+01  0.46142318241E+02  0.10000004376E+02 0.  0.
         12    1    3    3    0    0 -0.33602764436E+02 -0.29480699168E+02  0.55548216839E+01  0.45045681759E+02  0.00000000000E+00 0. -1.
         11    1    4    4    0    0  0.20309837685E+02  0.22385083587E+02 -0.41546233781E+01  0.30509709433E+02  0.51100000000E-03 0. -1.
        -11    1    4    4    0    0  0.41697828750E+01  0.32255053695E+01 -0.21520510080E+01  0.56940581237E+01  0.51100000000E-03 0.  1.
         12    1    4    4    0    0  0.91231438755E+01  0.38701102123E+01  0.75185270226E+00  0.99385506848E+01  0.00000000000E+00 0. -1.
</event>
<event>
 8    1  0.9117959E-009  0.9118800E+02  0.7816164E-02  0.1184000E+00
        -11   -1    0    0    0    0  0.00000000000E+00  0.00000000000E+00  0.45593999997E+02  0.45594000000E+02  0.51100000000E-03 0. -1.
         11   -1    0    0    0    0 -0.00000000000E+00 -0.00000000000E+00 -0.45593999997E+02  0.45594000000E+02  0.51100000000E-03 0.  1.
         23    2    1    2    0    0  0.00000000000E+00  0.00000000000E+00  0.00000000000E+00  0.91188000000E+02  0.91188000000E+02 0.  0.
    9900012    2    3    3    0    0 -0.20010748091E+02  0.19093752494E+02 -0.35554351105E+02  0.46142319785E+02  0.10000018459E+02 0.  0.
         12    1    3    3    0    0  0.20010748091E+02 -0.19093752494E+02  0.35554351105E+02  0.45045680215E+02  0.00000000000E+00 0. -1.
         11    1    4    4    0    0 -0.37475560465E+01  0.42153147864E+01 -0.24618990423E+01  0.61541857483E+01  0.51100000000E-03 0. -1.
        -11    1    4    4    0    0 -0.88457676082E+01  0.86219781122E+01 -0.14768683343E+02  0.19253574190E+02  0.51100000000E-03 0.  1.
         12    1    4    4    0    0 -0.74174244364E+01  0.62564595954E+01 -0.18323768720E+02  0.20734559847E+02  0.00000000000E+00 0. -1.
</event>
<event>
 8    1  0.9117959E-009  0.9118800E+02  0.7816164E-02  0.1184000E+00
        -11   -1    0    0    0    0  0.00000000000E+00  0.00000000000E+00  0.45593999997E+02  0.45594000000E+02  0.51100000000E-03 0. -1.
         11   -1    0    0    0    0 -0.00000000000E+00 -0.00000000000E+00 -0.45593999997E+02  0.45594000000E+02  0.51100000000E-03 0.  1.
         23    2    1    2    0    0  0.00000000000E+00  0.00000000000E+00  0.00000000000E+00  0.91188000000E+02  0.91188000000E+02 0.  0.
    9900012    2    3    3    0    0 -0.11104962049E+02 -0.26525738401E+02 -0.34672441058E+02  0.46142321531E+02  0.10000034377E+02 0.  0.
         12    1    3    3    0    0  0.11104962049E+02  0.26525738401E+02  0.34672441058E+02  0.45045678469E+02  0.00000000000E+00 0. -1.
         11    1    4    4    0    0 -0.17635530085E+01 -0.66388855813E+01 -0.42570650152E+01  0.80813070589E+01  0.51100000000E-03 0. -1.
        -11    1    4    4    0    0 -0.42169547923E+01 -0.35945408141E+01 -0.51520564933E+01  0.75661825087E+01  0.51100000000E-03 0.  1.
        -12    1    4    4    0    0 -0.51244542479E+01 -0.16292312006E+02 -0.25263319549E+02  0.30494831963E+02  0.00000000000E+00 0.  1.
</event>
<event>
 8    1  0.9117959E-009  0.9118800E+02  0.7816164E-02  0.1184000E+00
        -11   -1    0    0    0    0  0.00000000000E+00  0.00000000000E+00  0.45593999997E+02  0.45594000000E+02  0.51100000000E-03 0.  1.
         11   -1    0    0    0    0 -0.00000000000E+00 -0.00000000000E+00 -0.45593999997E+02  0.45594000000E+02  0.51100000000E-03 0. -1.
         23    2    1    2    0    0  0.00000000000E+00  0.71054273576E-14  0.35527136788E-14  0.91188000000E+02  0.91188000000E+02 0.  0.
    9900012    2    3    3    0    0 -0.10704851407E+02  0.39826458814E+02  0.18121057177E+02  0.46142318980E+02  0.10000011117E+02 0.  0.
        -12    1    3    3    0    0  0.10704851407E+02 -0.39826458814E+02 -0.18121057177E+02  0.45045681020E+02  0.00000000000E+00 0.  1.
         11    1    4    4    0    0 -0.13406804210E+01  0.10660121654E+01  0.11388182323E+01  0.20568697468E+01  0.51100000000E-03 0. -1.
        -11    1    4    4    0    0 -0.42615746723E+01  0.52126496302E+01  0.23466282514E+01  0.71301752619E+01  0.51100000000E-03 0.  1.
         12    1    4    4    0    0 -0.51025963135E+01  0.33547797018E+02  0.14635610694E+02  0.36955273972E+02  0.00000000000E+00 0. -1.
</event>
<event>
 8    1  0.9117959E-009  0.9118800E+02  0.7816164E-02  0.1184000E+00
        -11   -1    0    0    0    0  0.00000000000E+00  0.00000000000E+00  0.45593999997E+02  0.45594000000E+02  0.51100000000E-03 0. -1.
         11   -1    0    0    0    0 -0.00000000000E+00 -0.00000000000E+00 -0.45593999997E+02  0.45594000000E+02  0.51100000000E-03 0.  1.
         23    2    1    2    0    0  0.00000000000E+00  0.35527136788E-14  0.00000000000E+00  0.91188000000E+02  0.91188000000E+02 0.  0.
    9900012    2    3    3    0    0  0.31773411817E+02 -0.22967068232E+02 -0.22182814371E+02  0.46142321238E+02  0.10000031709E+02 0.  0.
         12    1    3    3    0    0 -0.31773411817E+02  0.22967068232E+02  0.22182814371E+02  0.45045678762E+02  0.00000000000E+00 0. -1.
         11    1    4    4    0    0  0.89717352498E+01 -0.10728318057E+02 -0.96161996693E+01  0.16972334490E+02  0.51100000000E-03 0. -1.
        -11    1    4    4    0    0  0.13018007473E+02 -0.45725733865E+01 -0.78589367106E+01  0.15878911563E+02  0.51100000000E-03 0.  1.
        -12    1    4    4    0    0  0.97836690941E+01 -0.76661767893E+01 -0.47076779911E+01  0.13291075185E+02  0.00000000000E+00 0.  1.
</event>
<event>
 8    1  0.9117959E-009  0.9118800E+02  0.7816164E-02  0.1184000E+00
        -11   -1    0    0    0    0  0.00000000000E+00  0.00000000000E+00  0.45593999997E+02  0.45594000000E+02  0.51100000000E-03 0.  1.
         11   -1    0    0    0    0 -0.00000000000E+00 -0.00000000000E+00 -0.45593999997E+02  0.45594000000E+02  0.51100000000E-03 0. -1.
         23    2    1    2    0    0  0.00000000000E+00  0.00000000000E+00  0.00000000000E+00  0.91188000000E+02  0.91188000000E+02 0.  0.
    9900012    2    3    3    0    0 -0.22936417509E+02 -0.36971716326E+02 -0.11667336009E+02  0.46142314460E+02  0.99999698951E+01 0.  0.
        -12    1    3    3    0    0  0.22936417509E+02  0.36971716326E+02  0.11667336009E+02  0.45045685540E+02  0.00000000000E+00 0.  1.
         11    1    4    4    0    0 -0.26937086389E+01 -0.62480537809E+01 -0.20921440360E+01  0.71183782710E+01  0.51100000000E-03 0. -1.
        -11    1    4    4    0    0 -0.14933192708E+02 -0.27624163524E+02 -0.97267646485E+01  0.32874071936E+02  0.51100000000E-03 0.  1.
        -12    1    4    4    0    0 -0.53095161614E+01 -0.30994990219E+01  0.15157267559E+00  0.61498642530E+01  0.00000000000E+00 0.  1.
</event>
<event>
 8    1  0.9117959E-009  0.9118800E+02  0.7816164E-02  0.1184000E+00
        -11   -1    0    0    0    0  0.00000000000E+00  0.00000000000E+00  0.45593999997E+02  0.45594000000E+02  0.51100000000E-03 0. -1.
         11   -1    0    0    0    0 -0.00000000000E+00 -0.00000000000E+00 -0.45593999997E+02  0.45594000000E+02  0.51100000000E-03 0.  1.
         23    2    1    2    0    0  0.00000000000E+00  0.00000000000E+00  0.71054273576E-14  0.91188000000E+02  0.91188000000E+02 0.  0.
    9900012    2    3    3    0    0 -0.18102590611E+02 -0.22585862837E+02 -0.34515048538E+02  0.46142316938E+02  0.99999924965E+01 0.  0.
         12    1    3    3    0    0  0.18102590611E+02  0.22585862837E+02  0.34515048538E+02  0.45045683062E+02  0.00000000000E+00 0. -1.
         11    1    4    4    0    0 -0.24614245549E+01 -0.20101899301E+01 -0.22731654568E+01  0.39072696157E+01  0.51100000000E-03 0.  1.
        -11    1    4    4    0    0 -0.72510416363E+01 -0.32572680545E+01 -0.11014074203E+02  0.13582975772E+02  0.51100000000E-03 0. -1.
         12    1    4    4    0    0 -0.83901244196E+01 -0.17318404853E+02 -0.21227808878E+02  0.28652071551E+02  0.00000000000E+00 0. -1.
</event>
<event>
 8    1  0.9117959E-009  0.9118800E+02  0.7816164E-02  0.1184000E+00
        -11   -1    0    0    0    0  0.00000000000E+00  0.00000000000E+00  0.45593999997E+02  0.45594000000E+02  0.51100000000E-03 0. -1.
         11   -1    0    0    0    0 -0.00000000000E+00 -0.00000000000E+00 -0.45593999997E+02  0.45594000000E+02  0.51100000000E-03 0.  1.
         23    2    1    2    0    0 -0.44408920985E-15 -0.88817841970E-15  0.00000000000E+00  0.91188000000E+02  0.91188000000E+02 0.  0.
    9900012    2    3    3    0    0  0.21160410420E+01  0.58895723738E+01 -0.44608840635E+02  0.46142319239E+02  0.10000013479E+02 0.  0.
         12    1    3    3    0    0 -0.21160410420E+01 -0.58895723738E+01  0.44608840635E+02  0.45045680761E+02  0.00000000000E+00 0. -1.
         11    1    4    4    0    0  0.41452358320E+01  0.61624456113E+01 -0.33483635876E+02  0.34297413718E+02  0.51100000000E-03 0. -1.
        -11    1    4    4    0    0  0.63660993680E+00 -0.68208890598E+00 -0.58115720925E+01  0.58859908202E+01  0.51100000000E-03 0.  1.
         12    1    4    4    0    0 -0.26658047268E+01  0.40921566845E+00 -0.53136326660E+01  0.59589147010E+01  0.00000000000E+00 0. -1.
</event>
<event>
 8    1  0.9117959E-009  0.9118800E+02  0.7816164E-02  0.1184000E+00
        -11   -1    0    0    0    0  0.00000000000E+00  0.00000000000E+00  0.45593999997E+02  0.45594000000E+02  0.51100000000E-03 0. -1.
         11   -1    0    0    0    0 -0.00000000000E+00 -0.00000000000E+00 -0.45593999997E+02  0.45594000000E+02  0.51100000000E-03 0.  1.
         23    2    1    2    0    0  0.00000000000E+00  0.00000000000E+00 -0.35527136788E-14  0.91188000000E+02  0.91188000000E+02 0.  0.
    9900012    2    3    3    0    0  0.91810679156E+01 -0.33279045338E+02  0.28936594727E+02  0.46142318952E+02  0.10000010862E+02 0.  0.
        -12    1    3    3    0    0 -0.91810679156E+01  0.33279045338E+02 -0.28936594727E+02  0.45045681048E+02  0.00000000000E+00 0.  1.
         11    1    4    4    0    0  0.35809772792E+01 -0.22658241220E+02  0.16896868444E+02  0.28490760905E+02  0.51100000000E-03 0. -1.
        -11    1    4    4    0    0  0.64239330515E+01 -0.87649348007E+01  0.98747980178E+01  0.14683413570E+02  0.51100000000E-03 0.  1.
         12    1    4    4    0    0 -0.82384241503E+00 -0.18558693173E+01  0.21649282651E+01  0.29681444777E+01  0.00000000000E+00 0. -1.
</event>
<event>
 8    1  0.9117959E-009  0.9118800E+02  0.7816164E-02  0.1184000E+00
        -11   -1    0    0    0    0  0.00000000000E+00  0.00000000000E+00  0.45593999997E+02  0.45594000000E+02  0.51100000000E-03 0. -1.
         11   -1    0    0    0    0 -0.00000000000E+00 -0.00000000000E+00 -0.45593999997E+02  0.45594000000E+02  0.51100000000E-03 0.  1.
         23    2    1    2    0    0 -0.35527136788E-14 -0.71054273576E-14  0.00000000000E+00  0.91188000000E+02  0.91188000000E+02 0.  0.
    9900012    2    3    3    0    0  0.19168481187E+02  0.40501273325E+02  0.46184106204E+01  0.46142317315E+02  0.99999959275E+01 0.  0.
         12    1    3    3    0    0 -0.19168481187E+02 -0.40501273325E+02 -0.46184106204E+01  0.45045682685E+02  0.00000000000E+00 0. -1.
         11    1    4    4    0    0  0.72013954624E+01  0.21188833406E+02  0.20428807352E+01  0.22472207717E+02  0.51100000000E-03 0. -1.
        -11    1    4    4    0    0  0.11899071650E+02  0.15135263553E+02  0.12757760527E+01  0.19294862366E+02  0.51100000000E-03 0.  1.
         12    1    4    4    0    0  0.68014074179E-01  0.41771763658E+01  0.12997538325E+01  0.43752472307E+01  0.00000000000E+00 0. -1.
</event>
<event>
 8    1  0.9117959E-009  0.9118800E+02  0.7816164E-02  0.1184000E+00
        -11   -1    0    0    0    0  0.00000000000E+00  0.00000000000E+00  0.45593999997E+02  0.45594000000E+02  0.51100000000E-03 0. -1.
         11   -1    0    0    0    0 -0.00000000000E+00 -0.00000000000E+00 -0.45593999997E+02  0.45594000000E+02  0.51100000000E-03 0.  1.
         23    2    1    2    0    0 -0.17763568394E-14  0.17763568394E-14  0.00000000000E+00  0.91188000000E+02  0.91188000000E+02 0.  0.
    9900012    2    3    3    0    0 -0.11570321140E+02  0.11530557522E+02  0.41979607037E+02  0.46142317687E+02  0.99999993278E+01 0.  0.
        -12    1    3    3    0    0  0.11570321140E+02 -0.11530557522E+02 -0.41979607037E+02  0.45045682313E+02  0.00000000000E+00 0.  1.
         11    1    4    4    0    0 -0.52030421953E+01  0.53069114113E+01  0.12422836872E+02  0.14476250654E+02  0.51100000000E-03 0.  1.
        -11    1    4    4    0    0 -0.59451618863E+01  0.18820446000E+01  0.11415306450E+02  0.13007546400E+02  0.51100000000E-03 0. -1.
        -12    1    4    4    0    0 -0.42211705806E+00  0.43416015105E+01  0.18141463715E+02  0.18658520633E+02  0.00000000000E+00 0.  1.
</event>
<event>
 8    1  0.9117959E-009  0.9118800E+02  0.7816164E-02  0.1184000E+00
        -11   -1    0    0    0    0  0.00000000000E+00  0.00000000000E+00  0.45593999997E+02  0.45594000000E+02  0.51100000000E-03 0. -1.
         11   -1    0    0    0    0 -0.00000000000E+00 -0.00000000000E+00 -0.45593999997E+02  0.45594000000E+02  0.51100000000E-03 0.  1.
         23    2    1    2    0    0  0.00000000000E+00 -0.35527136788E-14  0.00000000000E+00  0.91188000000E+02  0.91188000000E+02 0.  0.
    9900012    2    3    3    0    0  0.18614970518E+02 -0.29170071272E+02 -0.28839266793E+02  0.46142317692E+02  0.99999993720E+01 0.  0.
         12    1    3    3    0    0 -0.18614970518E+02  0.29170071272E+02  0.28839266793E+02  0.45045682308E+02  0.00000000000E+00 0. -1.
         11    1    4    4    0    0  0.20607952156E+00 -0.25081404986E+01 -0.28033845451E+01  0.37672539997E+01  0.51100000000E-03 0. -1.
        -11    1    4    4    0    0  0.71626662544E+01 -0.16279031609E+02 -0.10959701704E+02  0.20890804669E+02  0.51100000000E-03 0.  1.
         12    1    4    4    0    0  0.11246224742E+02 -0.10382899164E+02 -0.15076180544E+02  0.21484259024E+02  0.00000000000E+00 0. -1.
</event>
<event>
 8    1  0.9117959E-009  0.9118800E+02  0.7816164E-02  0.1184000E+00
        -11   -1    0    0    0    0  0.00000000000E+00  0.00000000000E+00  0.45593999997E+02  0.45594000000E+02  0.51100000000E-03 0. -1.
         11   -1    0    0    0    0 -0.00000000000E+00 -0.00000000000E+00 -0.45593999997E+02  0.45594000000E+02  0.51100000000E-03 0.  1.
         23    2    1    2    0    0 -0.17763568394E-14 -0.17763568394E-14 -0.71054273576E-14  0.91188000000E+02  0.91188000000E+02 0.  0.
    9900012    2    3    3    0    0  0.14796783563E+02  0.93664752905E+01  0.41502263663E+02  0.46142317051E+02  0.99999935236E+01 0.  0.
        -12    1    3    3    0    0 -0.14796783563E+02 -0.93664752905E+01 -0.41502263663E+02  0.45045682949E+02  0.00000000000E+00 0.  1.
         11    1    4    4    0    0  0.30308720279E+01  0.27711483067E+01  0.13001436040E+02  0.13634617250E+02  0.51100000000E-03 0. -1.
        -11    1    4    4    0    0  0.81871745414E+01  0.30665122274E+00  0.12483818559E+02  0.14932166220E+02  0.51100000000E-03 0.  1.
        -12    1    4    4    0    0  0.35787369939E+01  0.62886757610E+01  0.16017009064E+02  0.17575533581E+02  0.00000000000E+00 0.  1.
</event>
<event>
 8    1  0.9536481E-009  0.9118800E+02  0.7816164E-02  0.1184000E+00
        -11   -1    0    0    0    0  0.00000000000E+00  0.00000000000E+00  0.45593999997E+02  0.45594000000E+02  0.51100000000E-03 0. -1.
         11   -1    0    0    0    0 -0.00000000000E+00 -0.00000000000E+00 -0.45593999997E+02  0.45594000000E+02  0.51100000000E-03 0.  1.
         23    2    1    2    0    0  0.00000000000E+00  0.00000000000E+00  0.00000000000E+00  0.91188000000E+02  0.91188000000E+02 0.  0.
    9900012    2    3    3    0    0 -0.11913503445E+02  0.25993755307E+02  0.34806704365E+02  0.46142317099E+02  0.99999939583E+01 0.  0.
        -12    1    3    3    0    0  0.11913503445E+02 -0.25993755307E+02 -0.34806704365E+02  0.45045682901E+02  0.00000000000E+00 0.  1.
         11    1    4    4    0    0 -0.72805376932E+01  0.12341226154E+02  0.15960043014E+02  0.21448428039E+02  0.51100000000E-03 0. -1.
        -11    1    4    4    0    0 -0.12773906113E+01  0.84076834464E+00 -0.14967331319E+00  0.15365612728E+01  0.51100000000E-03 0.  1.
         12    1    4    4    0    0 -0.33555751409E+01  0.12811760809E+02  0.18996334664E+02  0.23157327787E+02  0.00000000000E+00 0. -1.
</event>
<event>
 8    1  0.9117959E-009  0.9118800E+02  0.7816164E-02  0.1184000E+00
        -11   -1    0    0    0    0  0.00000000000E+00  0.00000000000E+00  0.45593999997E+02  0.45594000000E+02  0.51100000000E-03 0.  1.
         11   -1    0    0    0    0 -0.00000000000E+00 -0.00000000000E+00 -0.45593999997E+02  0.45594000000E+02  0.51100000000E-03 0. -1.
         23    2    1    2    0    0  0.22204460493E-15  0.00000000000E+00  0.00000000000E+00  0.91188000000E+02  0.91188000000E+02 0.  0.
    9900012    2    3    3    0    0  0.59605634454E+00 -0.37363562464E+02 -0.25153973892E+02  0.46142317791E+02  0.10000000270E+02 0.  0.
         12    1    3    3    0    0 -0.59605634454E+00  0.37363562464E+02  0.25153973892E+02  0.45045682209E+02  0.00000000000E+00 0. -1.
         11    1    4    4    0    0  0.86960493919E+00 -0.18632664765E+02 -0.13592439086E+02  0.23080008872E+02  0.51100000000E-03 0. -1.
        -11    1    4    4    0    0 -0.34539813189E+01 -0.12293054090E+02 -0.71440027769E+01  0.14631675972E+02  0.51100000000E-03 0.  1.
         12    1    4    4    0    0  0.31804327243E+01 -0.64378436093E+01 -0.44175320287E+01  0.84306329464E+01  0.00000000000E+00 0. -1.
</event>
<event>
 8    1  0.9117959E-009  0.9118800E+02  0.7816164E-02  0.1184000E+00
        -11   -1    0    0    0    0  0.00000000000E+00  0.00000000000E+00  0.45593999997E+02  0.45594000000E+02  0.51100000000E-03 0. -1.
         11   -1    0    0    0    0 -0.00000000000E+00 -0.00000000000E+00 -0.45593999997E+02  0.45594000000E+02  0.51100000000E-03 0.  1.
         23    2    1    2    0    0  0.00000000000E+00  0.13322676296E-14  0.00000000000E+00  0.91188000000E+02  0.91188000000E+02 0.  0.
    9900012    2    3    3    0    0  0.37491839216E+02 -0.37606359065E+01 -0.24684687218E+02  0.46142310159E+02  0.99999306751E+01 0.  0.
         12    1    3    3    0    0 -0.37491839216E+02  0.37606359065E+01  0.24684687218E+02  0.45045689841E+02  0.00000000000E+00 0. -1.
         11    1    4    4    0    0  0.10642176410E+02  0.90532229708E+00 -0.92840148741E+01  0.14151623923E+02  0.51100000000E-03 0. -1.
        -11    1    4    4    0    0 -0.37347352203E+00  0.10411560764E+00 -0.33996466227E+00  0.51565372502E+00  0.51100000000E-03 0.  1.
         12    1    4    4    0    0  0.27223136328E+02 -0.47700738112E+01 -0.15060707682E+02  0.31475032511E+02  0.00000000000E+00 0. -1.
</event>
<event>
 8    1  0.9117959E-009  0.9118800E+02  0.7816164E-02  0.1184000E+00
        -11   -1    0    0    0    0  0.00000000000E+00  0.00000000000E+00  0.45593999997E+02  0.45594000000E+02  0.51100000000E-03 0. -1.
         11   -1    0    0    0    0 -0.00000000000E+00 -0.00000000000E+00 -0.45593999997E+02  0.45594000000E+02  0.51100000000E-03 0.  1.
         23    2    1    2    0    0 -0.44408920985E-15 -0.44408920985E-15 -0.71054273576E-14  0.91188000000E+02  0.91188000000E+02 0.  0.
    9900012    2    3    3    0    0  0.12011738102E+01 -0.21816577881E+01 -0.44976783100E+02  0.46142317995E+02  0.10000002136E+02 0.  0.
         12    1    3    3    0    0 -0.12011738102E+01  0.21816577881E+01  0.44976783100E+02  0.45045682005E+02  0.00000000000E+00 0. -1.
         11    1    4    4    0    0 -0.82426616348E+00 -0.46089912571E+00 -0.21080059623E+01  0.23098770770E+01  0.51100000000E-03 0. -1.
        -11    1    4    4    0    0  0.82966826687E+00 -0.52987514299E+01 -0.25860834909E+02  0.26411132097E+02  0.51100000000E-03 0.  1.
         12    1    4    4    0    0  0.11957717068E+01  0.35779927675E+01 -0.17007942228E+02  0.17421308822E+02  0.00000000000E+00 0. -1.
</event>
<event>
 8    1  0.9117959E-009  0.9118800E+02  0.7816164E-02  0.1184000E+00
        -11   -1    0    0    0    0  0.00000000000E+00  0.00000000000E+00  0.45593999997E+02  0.45594000000E+02  0.51100000000E-03 0. -1.
         11   -1    0    0    0    0 -0.00000000000E+00 -0.00000000000E+00 -0.45593999997E+02  0.45594000000E+02  0.51100000000E-03 0.  1.
         23    2    1    2    0    0 -0.17763568394E-14  0.00000000000E+00  0.00000000000E+00  0.91188000000E+02  0.91188000000E+02 0.  0.
    9900012    2    3    3    0    0 -0.14267341760E+02 -0.19587067321E+02 -0.37972400474E+02  0.46142318244E+02  0.10000004403E+02 0.  0.
         12    1    3    3    0    0  0.14267341760E+02  0.19587067321E+02  0.37972400474E+02  0.45045681756E+02  0.00000000000E+00 0. -1.
         11    1    4    4    0    0 -0.59542276184E+00 -0.48793584951E+01 -0.12610932723E+02  0.13535076357E+02  0.51100000000E-03 0. -1.
        -11    1    4    4    0    0 -0.48107274663E+01 -0.75437552102E+01 -0.92059905876E+01  0.12837507717E+02  0.51100000000E-03 0.  1.
        -12    1    4    4    0    0 -0.88611915319E+01 -0.71639536160E+01 -0.16155477163E+02  0.19769734170E+02  0.00000000000E+00 0.  1.
</event>
<event>
 8    1  0.9117959E-009  0.9118800E+02  0.7816164E-02  0.1184000E+00
        -11   -1    0    0    0    0  0.00000000000E+00  0.00000000000E+00  0.45593999997E+02  0.45594000000E+02  0.51100000000E-03 0. -1.
         11   -1    0    0    0    0 -0.00000000000E+00 -0.00000000000E+00 -0.45593999997E+02  0.45594000000E+02  0.51100000000E-03 0.  1.
         23    2    1    2    0    0  0.17763568394E-14  0.00000000000E+00  0.00000000000E+00  0.91188000000E+02  0.91188000000E+02 0.  0.
    9900012    2    3    3    0    0  0.14109525732E+02  0.12123595121E+02  0.41025031288E+02  0.46142317995E+02  0.10000002135E+02 0.  0.
        -12    1    3    3    0    0 -0.14109525732E+02 -0.12123595121E+02 -0.41025031288E+02  0.45045682005E+02  0.00000000000E+00 0.  1.
         11    1    4    4    0    0 -0.72144838821E+00 -0.29208172264E+00  0.35084282747E+01  0.35937263014E+01  0.51100000000E-03 0. -1.
        -11    1    4    4    0    0  0.86987729394E+01  0.55249939670E+01  0.24648099098E+02  0.26715594667E+02  0.51100000000E-03 0.  1.
        -12    1    4    4    0    0  0.61322011809E+01  0.68906828770E+01  0.12868503916E+02  0.15832997027E+02  0.00000000000E+00 0.  1.
</event>
<event>
 8    1  0.9117959E-009  0.9118800E+02  0.7816164E-02  0.1184000E+00
        -11   -1    0    0    0    0  0.00000000000E+00  0.00000000000E+00  0.45593999997E+02  0.45594000000E+02  0.51100000000E-03 0. -1.
         11   -1    0    0    0    0 -0.00000000000E+00 -0.00000000000E+00 -0.45593999997E+02  0.45594000000E+02  0.51100000000E-03 0.  1.
         23    2    1    2    0    0  0.00000000000E+00 -0.35527136788E-14  0.00000000000E+00  0.91188000000E+02  0.91188000000E+02 0.  0.
    9900012    2    3    3    0    0 -0.13806452172E+02 -0.23636630176E+02  0.35774362977E+02  0.46142318142E+02  0.10000003475E+02 0.  0.
        -12    1    3    3    0    0  0.13806452172E+02  0.23636630176E+02 -0.35774362977E+02  0.45045681858E+02  0.00000000000E+00 0.  1.
         11    1    4    4    0    0 -0.30042363499E+01 -0.18393566090E+01  0.10680852043E+01  0.36809611579E+01  0.51100000000E-03 0.  1.
        -11    1    4    4    0    0 -0.18058065992E+01 -0.20987518586E+01  0.32179206428E+01  0.42450807251E+01  0.51100000000E-03 0. -1.
        -12    1    4    4    0    0 -0.89964092230E+01 -0.19698521708E+02  0.31488357130E+02  0.38216276259E+02  0.00000000000E+00 0.  1.
</event>
<event>
 8    1  0.9117959E-009  0.9118800E+02  0.7816164E-02  0.1184000E+00
        -11   -1    0    0    0    0  0.00000000000E+00  0.00000000000E+00  0.45593999997E+02  0.45594000000E+02  0.51100000000E-03 0. -1.
         11   -1    0    0    0    0 -0.00000000000E+00 -0.00000000000E+00 -0.45593999997E+02  0.45594000000E+02  0.51100000000E-03 0.  1.
         23    2    1    2    0    0  0.00000000000E+00 -0.88817841970E-15  0.00000000000E+00  0.91188000000E+02  0.91188000000E+02 0.  0.
    9900012    2    3    3    0    0 -0.12725055131E+02  0.55478518102E+01 -0.42853328717E+02  0.46142317965E+02  0.10000001863E+02 0.  0.
         12    1    3    3    0    0  0.12725055131E+02 -0.55478518102E+01  0.42853328717E+02  0.45045682035E+02  0.00000000000E+00 0. -1.
         11    1    4    4    0    0 -0.90345653853E+01  0.37487775140E+01 -0.31672342126E+02  0.33148362864E+02  0.51100000000E-03 0. -1.
        -11    1    4    4    0    0 -0.45535931426E+01  0.26197502133E+01 -0.10104535102E+02  0.11388587778E+02  0.51100000000E-03 0.  1.
         12    1    4    4    0    0  0.86310339655E+00 -0.82067591716E+00 -0.10764514887E+01  0.16053673230E+01  0.00000000000E+00 0. -1.
</event>
<event>
 8    1  0.9117959E-009  0.9118800E+02  0.7816164E-02  0.1184000E+00
        -11   -1    0    0    0    0  0.00000000000E+00  0.00000000000E+00  0.45593999997E+02  0.45594000000E+02  0.51100000000E-03 0. -1.
         11   -1    0    0    0    0 -0.00000000000E+00 -0.00000000000E+00 -0.45593999997E+02  0.45594000000E+02  0.51100000000E-03 0.  1.
         23    2    1    2    0    0  0.17763568394E-14  0.00000000000E+00 -0.71054273576E-14  0.91188000000E+02  0.91188000000E+02 0.  0.
    9900012    2    3    3    0    0 -0.14000001548E+02 -0.25792808626E+02  0.34173739310E+02  0.46142317869E+02  0.10000000987E+02 0.  0.
        -12    1    3    3    0    0  0.14000001548E+02  0.25792808626E+02 -0.34173739310E+02  0.45045682131E+02  0.00000000000E+00 0.  1.
         11    1    4    4    0    0 -0.10595610353E+02 -0.14456493148E+02  0.20168203059E+02  0.26981726553E+02  0.51100000000E-03 0. -1.
        -11    1    4    4    0    0 -0.40100854945E+01 -0.10813534847E+02  0.10606971969E+02  0.15669115360E+02  0.51100000000E-03 0.  1.
        -12    1    4    4    0    0  0.60569429952E+00 -0.52278063174E+00  0.33985642818E+01  0.34914759559E+01  0.00000000000E+00 0.  1.
</event>
<event>
 8    1  0.9117959E-009  0.9118800E+02  0.7816164E-02  0.1184000E+00
        -11   -1    0    0    0    0  0.00000000000E+00  0.00000000000E+00  0.45593999997E+02  0.45594000000E+02  0.51100000000E-03 0. -1.
         11   -1    0    0    0    0 -0.00000000000E+00 -0.00000000000E+00 -0.45593999997E+02  0.45594000000E+02  0.51100000000E-03 0.  1.
         23    2    1    2    0    0  0.00000000000E+00  0.00000000000E+00  0.00000000000E+00  0.91188000000E+02  0.91188000000E+02 0.  0.
    9900012    2    3    3    0    0  0.18161347429E+02 -0.16552868978E+02  0.37752902446E+02  0.46142315912E+02  0.99999831353E+01 0.  0.
        -12    1    3    3    0    0 -0.18161347429E+02  0.16552868978E+02 -0.37752902446E+02  0.45045684088E+02  0.00000000000E+00 0.  1.
         11    1    4    4    0    0  0.13163391986E+02 -0.13318472396E+02  0.22101013781E+02  0.28967419733E+02  0.51100000000E-03 0. -1.
        -11    1    4    4    0    0  0.94555211683E+00  0.83873188823E-01  0.36736919364E+00  0.10178722430E+01  0.51100000000E-03 0.  1.
        -12    1    4    4    0    0  0.40524033259E+01 -0.33182697708E+01  0.15284519472E+02  0.16157023936E+02  0.00000000000E+00 0.  1.
</event>
<event>
 8    1  0.9117959E-009  0.9118800E+02  0.7816164E-02  0.1184000E+00
        -11   -1    0    0    0    0  0.00000000000E+00  0.00000000000E+00  0.45593999997E+02  0.45594000000E+02  0.51100000000E-03 0. -1.
         11   -1    0    0    0    0 -0.00000000000E+00 -0.00000000000E+00 -0.45593999997E+02  0.45594000000E+02  0.51100000000E-03 0.  1.
         23    2    1    2    0    0  0.00000000000E+00  0.00000000000E+00 -0.22204460493E-15  0.91188000000E+02  0.91188000000E+02 0.  0.
    9900012    2    3    3    0    0 -0.11288546776E+01 -0.45015144182E+02  0.12148941936E+01  0.46142317781E+02  0.10000000185E+02 0.  0.
        -12    1    3    3    0    0  0.11288546776E+01  0.45015144182E+02 -0.12148941936E+01  0.45045682219E+02  0.00000000000E+00 0.  1.
         11    1    4    4    0    0 -0.27642772612E+01 -0.11895162031E+02  0.35664594861E+01  0.12722253812E+02  0.51100000000E-03 0.  1.
        -11    1    4    4    0    0 -0.75312144174E+00 -0.45002535874E+01  0.33700814171E+00  0.45752649110E+01  0.51100000000E-03 0. -1.
        -12    1    4    4    0    0  0.23885440253E+01 -0.28619728563E+02 -0.26885734342E+01  0.28844799058E+02  0.00000000000E+00 0.  1.
</event>
<event>
 8    1  0.9117959E-009  0.9118800E+02  0.7816164E-02  0.1184000E+00
        -11   -1    0    0    0    0  0.00000000000E+00  0.00000000000E+00  0.45593999997E+02  0.45594000000E+02  0.51100000000E-03 0. -1.
         11   -1    0    0    0    0 -0.00000000000E+00 -0.00000000000E+00 -0.45593999997E+02  0.45594000000E+02  0.51100000000E-03 0.  1.
         23    2    1    2    0    0  0.00000000000E+00 -0.35527136788E-14  0.00000000000E+00  0.91188000000E+02  0.91188000000E+02 0.  0.
    9900012    2    3    3    0    0 -0.16570431740E+01  0.26609562701E+02 -0.36308385219E+02  0.46142318115E+02  0.10000003231E+02 0.  0.
         12    1    3    3    0    0  0.16570431740E+01 -0.26609562701E+02  0.36308385219E+02  0.45045681885E+02  0.00000000000E+00 0. -1.
         11    1    4    4    0    0  0.34648299692E+01  0.79508701337E+01 -0.14797446717E+02  0.17151845737E+02  0.51100000000E-03 0. -1.
        -11    1    4    4    0    0 -0.17299417652E+01  0.70313465531E+01 -0.93603266208E+01  0.11834198222E+02  0.51100000000E-03 0.  1.
         12    1    4    4    0    0 -0.33919313781E+01  0.11627346014E+02 -0.12150611882E+02  0.17156274156E+02  0.00000000000E+00 0. -1.
</event>
<event>
 8    1  0.9117959E-009  0.9118800E+02  0.7816164E-02  0.1184000E+00
        -11   -1    0    0    0    0  0.00000000000E+00  0.00000000000E+00  0.45593999997E+02  0.45594000000E+02  0.51100000000E-03 0. -1.
         11   -1    0    0    0    0 -0.00000000000E+00 -0.00000000000E+00 -0.45593999997E+02  0.45594000000E+02  0.51100000000E-03 0.  1.
         23    2    1    2    0    0  0.00000000000E+00 -0.71054273576E-14  0.00000000000E+00  0.91188000000E+02  0.91188000000E+02 0.  0.
    9900012    2    3    3    0    0  0.13708704707E+02  0.42551807266E+02  0.55252160880E+01  0.46142324301E+02  0.10000059637E+02 0.  0.
        -12    1    3    3    0    0 -0.13708704707E+02 -0.42551807266E+02 -0.55252160880E+01  0.45045675699E+02  0.00000000000E+00 0.  1.
         11    1    4    4    0    0  0.83434379611E+01  0.23701536778E+02  0.86122523705E+00  0.25141947256E+02  0.51100000000E-03 0. -1.
        -11    1    4    4    0    0 -0.83105865104E+00  0.98667101190E+00  0.12317454687E+01  0.17836410311E+01  0.51100000000E-03 0.  1.
        -12    1    4    4    0    0  0.61963253973E+01  0.17863599476E+02  0.34322453823E+01  0.19216736014E+02  0.00000000000E+00 0.  1.
</event>
<event>
 8    1  0.9117959E-009  0.9118800E+02  0.7816164E-02  0.1184000E+00
        -11   -1    0    0    0    0  0.00000000000E+00  0.00000000000E+00  0.45593999997E+02  0.45594000000E+02  0.51100000000E-03 0. -1.
         11   -1    0    0    0    0 -0.00000000000E+00 -0.00000000000E+00 -0.45593999997E+02  0.45594000000E+02  0.51100000000E-03 0.  1.
         23    2    1    2    0    0 -0.17763568394E-14  0.00000000000E+00  0.71054273576E-14  0.91188000000E+02  0.91188000000E+02 0.  0.
    9900012    2    3    3    0    0 -0.11953619024E+02  0.18079232992E+02  0.39488805649E+02  0.46142318243E+02  0.10000004398E+02 0.  0.
        -12    1    3    3    0    0  0.11953619024E+02 -0.18079232992E+02 -0.39488805649E+02  0.45045681757E+02  0.00000000000E+00 0.  1.
         11    1    4    4    0    0 -0.31504922544E+01  0.85134532700E+01  0.12046609095E+02  0.15083941095E+02  0.51100000000E-03 0. -1.
        -11    1    4    4    0    0 -0.21499210964E+01  0.35475000620E+00  0.12603802401E+01  0.25172538406E+01  0.51100000000E-03 0.  1.
        -12    1    4    4    0    0 -0.66532056737E+01  0.92110297159E+01  0.26181816314E+02  0.28541123307E+02  0.00000000000E+00 0.  1.
</event>
<event>
 8    1  0.9117959E-009  0.9118800E+02  0.7816164E-02  0.1184000E+00
        -11   -1    0    0    0    0  0.00000000000E+00  0.00000000000E+00  0.45593999997E+02  0.45594000000E+02  0.51100000000E-03 0.  1.
         11   -1    0    0    0    0 -0.00000000000E+00 -0.00000000000E+00 -0.45593999997E+02  0.45594000000E+02  0.51100000000E-03 0. -1.
         23    2    1    2    0    0  0.35527136788E-14  0.00000000000E+00  0.00000000000E+00  0.91188000000E+02  0.91188000000E+02 0.  0.
    9900012    2    3    3    0    0 -0.23960614015E+02  0.37854346888E+02 -0.46958326023E+01  0.46142318229E+02  0.10000004271E+02 0.  0.
        -12    1    3    3    0    0  0.23960614015E+02 -0.37854346888E+02  0.46958326023E+01  0.45045681771E+02  0.00000000000E+00 0.  1.
         11    1    4    4    0    0 -0.73617453333E+01  0.10690060508E+02 -0.29519361168E+01  0.13311146274E+02  0.51100000000E-03 0. -1.
        -11    1    4    4    0    0 -0.15300543219E+01  0.29905779849E+01  0.22838464778E+01  0.40620903371E+01  0.51100000000E-03 0.  1.
        -12    1    4    4    0    0 -0.15068814360E+02  0.24173708395E+02 -0.40277429633E+01  0.28769081619E+02  0.00000000000E+00 0.  1.
</event>
<event>
 8    1  0.9117959E-009  0.9118800E+02  0.7816164E-02  0.1184000E+00
        -11   -1    0    0    0    0  0.00000000000E+00  0.00000000000E+00  0.45593999997E+02  0.45594000000E+02  0.51100000000E-03 0. -1.
         11   -1    0    0    0    0 -0.00000000000E+00 -0.00000000000E+00 -0.45593999997E+02  0.45594000000E+02  0.51100000000E-03 0.  1.
         23    2    1    2    0    0  0.00000000000E+00  0.00000000000E+00  0.00000000000E+00  0.91188000000E+02  0.91188000000E+02 0.  0.
    9900012    2    3    3    0    0 -0.19062339124E+02 -0.24578831547E+02  0.32582536876E+02  0.46142318272E+02  0.10000004655E+02 0.  0.
        -12    1    3    3    0    0  0.19062339124E+02  0.24578831547E+02 -0.32582536876E+02  0.45045681728E+02  0.00000000000E+00 0.  1.
         11    1    4    4    0    0 -0.44399689736E+01 -0.74819373308E+01  0.88283197975E+01  0.12394835272E+02  0.51100000000E-03 0. -1.
        -11    1    4    4    0    0 -0.61897615040E+00 -0.17225865758E+01 -0.40085297907E+00  0.18737981102E+01  0.51100000000E-03 0.  1.
         12    1    4    4    0    0 -0.14003394000E+02 -0.15374307641E+02  0.24155070058E+02  0.31873684890E+02  0.00000000000E+00 0. -1.
</event>
<event>
 8    1  0.9117959E-009  0.9118800E+02  0.7816164E-02  0.1184000E+00
        -11   -1    0    0    0    0  0.00000000000E+00  0.00000000000E+00  0.45593999997E+02  0.45594000000E+02  0.51100000000E-03 0. -1.
         11   -1    0    0    0    0 -0.00000000000E+00 -0.00000000000E+00 -0.45593999997E+02  0.45594000000E+02  0.51100000000E-03 0.  1.
         23    2    1    2    0    0  0.00000000000E+00  0.00000000000E+00 -0.71054273576E-14  0.91188000000E+02  0.91188000000E+02 0.  0.
    9900012    2    3    3    0    0 -0.20110186417E+02 -0.20835146702E+02 -0.34504923421E+02  0.46142326777E+02  0.10000082212E+02 0.  0.
         12    1    3    3    0    0  0.20110186417E+02  0.20835146702E+02  0.34504923421E+02  0.45045673223E+02  0.00000000000E+00 0. -1.
         11    1    4    4    0    0 -0.69680338218E+01 -0.10424805157E+02 -0.10967237329E+02  0.16658641985E+02  0.51100000000E-03 0. -1.
        -11    1    4    4    0    0 -0.45255030341E+01 -0.73115678818E+01 -0.11399634652E+02  0.14279036139E+02  0.51100000000E-03 0.  1.
         12    1    4    4    0    0 -0.86166495616E+01 -0.30987736636E+01 -0.12138051440E+02  0.15204648653E+02  0.00000000000E+00 0. -1.
</event>
<event>
 8    1  0.9117959E-009  0.9118800E+02  0.7816164E-02  0.1184000E+00
        -11   -1    0    0    0    0  0.00000000000E+00  0.00000000000E+00  0.45593999997E+02  0.45594000000E+02  0.51100000000E-03 0.  1.
         11   -1    0    0    0    0 -0.00000000000E+00 -0.00000000000E+00 -0.45593999997E+02  0.45594000000E+02  0.51100000000E-03 0. -1.
         23    2    1    2    0    0  0.00000000000E+00  0.00000000000E+00  0.35527136788E-14  0.91188000000E+02  0.91188000000E+02 0.  0.
    9900012    2    3    3    0    0 -0.19362799068E+02  0.35881181726E+02 -0.19150375733E+02  0.46142311189E+02  0.99999400677E+01 0.  0.
         12    1    3    3    0    0  0.19362799068E+02 -0.35881181726E+02  0.19150375733E+02  0.45045688811E+02  0.00000000000E+00 0. -1.
         11    1    4    4    0    0 -0.48882460086E+01  0.57831356817E+01 -0.47882704001E+01  0.89591931020E+01  0.51100000000E-03 0. -1.
        -11    1    4    4    0    0 -0.15389479173E+02  0.28597088999E+02 -0.13093245696E+02  0.35015177446E+02  0.51100000000E-03 0.  1.
         12    1    4    4    0    0  0.91492611401E+00  0.15009570449E+01 -0.12688596368E+01  0.21679406409E+01  0.00000000000E+00 0. -1.
</event>
<event>
 8    1  0.9117959E-009  0.9118800E+02  0.7816164E-02  0.1184000E+00
        -11   -1    0    0    0    0  0.00000000000E+00  0.00000000000E+00  0.45593999997E+02  0.45594000000E+02  0.51100000000E-03 0. -1.
         11   -1    0    0    0    0 -0.00000000000E+00 -0.00000000000E+00 -0.45593999997E+02  0.45594000000E+02  0.51100000000E-03 0.  1.
         23    2    1    2    0    0  0.00000000000E+00  0.00000000000E+00  0.00000000000E+00  0.91188000000E+02  0.91188000000E+02 0.  0.
    9900012    2    3    3    0    0 -0.35243400494E+02  0.63859656578E+01  0.27317313883E+02  0.46142317926E+02  0.10000001503E+02 0.  0.
        -12    1    3    3    0    0  0.35243400494E+02 -0.63859656578E+01 -0.27317313883E+02  0.45045682074E+02  0.00000000000E+00 0.  1.
         11    1    4    4    0    0 -0.17350204658E+02  0.22763066499E+01  0.14421429095E+02  0.22675731323E+02  0.51100000000E-03 0.  1.
        -11    1    4    4    0    0 -0.89926705162E+01  0.23076818206E+01  0.10617414496E+02  0.14104006850E+02  0.51100000000E-03 0. -1.
        -12    1    4    4    0    0 -0.89005253197E+01  0.18019771873E+01  0.22784702921E+01  0.93625797526E+01  0.00000000000E+00 0.  1.
</event>
<event>
 8    1  0.9117959E-009  0.9118800E+02  0.7816164E-02  0.1184000E+00
        -11   -1    0    0    0    0  0.00000000000E+00  0.00000000000E+00  0.45593999997E+02  0.45594000000E+02  0.51100000000E-03 0. -1.
         11   -1    0    0    0    0 -0.00000000000E+00 -0.00000000000E+00 -0.45593999997E+02  0.45594000000E+02  0.51100000000E-03 0.  1.
         23    2    1    2    0    0  0.17763568394E-14 -0.35527136788E-14  0.71054273576E-14  0.91188000000E+02  0.91188000000E+02 0.  0.
    9900012    2    3    3    0    0  0.14723891029E+02 -0.24542074262E+02  0.34785159103E+02  0.46142315746E+02  0.99999816231E+01 0.  0.
        -12    1    3    3    0    0 -0.14723891029E+02  0.24542074262E+02 -0.34785159103E+02  0.45045684254E+02  0.00000000000E+00 0.  1.
         11    1    4    4    0    0  0.14705052156E+02 -0.19194525817E+02  0.27820796823E+02  0.36860074828E+02  0.51100000000E-03 0. -1.
        -11    1    4    4    0    0 -0.10822370594E+01 -0.17784382994E+01  0.40166113815E+01  0.45240741692E+01  0.51100000000E-03 0.  1.
         12    1    4    4    0    0  0.11010759320E+01 -0.35691101462E+01  0.29477508985E+01  0.47581667481E+01  0.00000000000E+00 0. -1.
</event>
<event>
 8    1  0.9117959E-009  0.9118800E+02  0.7816164E-02  0.1184000E+00
        -11   -1    0    0    0    0  0.00000000000E+00  0.00000000000E+00  0.45593999997E+02  0.45594000000E+02  0.51100000000E-03 0. -1.
         11   -1    0    0    0    0 -0.00000000000E+00 -0.00000000000E+00 -0.45593999997E+02  0.45594000000E+02  0.51100000000E-03 0.  1.
         23    2    1    2    0    0 -0.35527136788E-14  0.61062266354E-15  0.00000000000E+00  0.91188000000E+02  0.91188000000E+02 0.  0.
    9900012    2    3    3    0    0  0.24047546735E+02 -0.38245713225E+00 -0.38087822480E+02  0.46142323197E+02  0.10000049566E+02 0.  0.
         12    1    3    3    0    0 -0.24047546735E+02  0.38245713225E+00  0.38087822480E+02  0.45045676803E+02  0.00000000000E+00 0. -1.
         11    1    4    4    0    0  0.12886770483E+02  0.25493769082E+01 -0.24105323130E+02  0.27452409358E+02  0.51100000000E-03 0. -1.
        -11    1    4    4    0    0  0.86810986766E+01 -0.30184541892E+01 -0.13207128062E+02  0.16090393775E+02  0.51100000000E-03 0.  1.
         12    1    4    4    0    0  0.24796775751E+01  0.86620148752E-01 -0.77537128754E+00  0.25995200634E+01  0.00000000000E+00 0. -1.
</event>
<event>
 8    1  0.9117959E-009  0.9118800E+02  0.7816164E-02  0.1184000E+00
        -11   -1    0    0    0    0  0.00000000000E+00  0.00000000000E+00  0.45593999997E+02  0.45594000000E+02  0.51100000000E-03 0. -1.
         11   -1    0    0    0    0 -0.00000000000E+00 -0.00000000000E+00 -0.45593999997E+02  0.45594000000E+02  0.51100000000E-03 0.  1.
         23    2    1    2    0    0  0.00000000000E+00 -0.35527136788E-14 -0.35527136788E-14  0.91188000000E+02  0.91188000000E+02 0.  0.
    9900012    2    3    3    0    0  0.17199870661E+02  0.29074514459E+02  0.29798498643E+02  0.46142318041E+02  0.10000002551E+02 0.  0.
        -12    1    3    3    0    0 -0.17199870661E+02 -0.29074514459E+02 -0.29798498643E+02  0.45045681959E+02  0.00000000000E+00 0.  1.
         11    1    4    4    0    0  0.59066481475E+01  0.57890844770E+01  0.73754945547E+01  0.11081512153E+02  0.51100000000E-03 0. -1.
        -11    1    4    4    0    0  0.10214025386E+02  0.13055059539E+02  0.12426458463E+02  0.20716606004E+02  0.51100000000E-03 0.  1.
        -12    1    4    4    0    0  0.10791971278E+01  0.10230370443E+02  0.99965456251E+01  0.14344199883E+02  0.00000000000E+00 0.  1.
</event>
<event>
 8    1  0.9117959E-009  0.9118800E+02  0.7816164E-02  0.1184000E+00
        -11   -1    0    0    0    0  0.00000000000E+00  0.00000000000E+00  0.45593999997E+02  0.45594000000E+02  0.51100000000E-03 0. -1.
         11   -1    0    0    0    0 -0.00000000000E+00 -0.00000000000E+00 -0.45593999997E+02  0.45594000000E+02  0.51100000000E-03 0.  1.
         23    2    1    2    0    0  0.00000000000E+00  0.35527136788E-14 -0.35527136788E-14  0.91188000000E+02  0.91188000000E+02 0.  0.
    9900012    2    3    3    0    0  0.18877116349E+02 -0.27584291025E+02 -0.30197264805E+02  0.46142318356E+02  0.10000005429E+02 0.  0.
         12    1    3    3    0    0 -0.18877116349E+02  0.27584291025E+02  0.30197264805E+02  0.45045681644E+02  0.00000000000E+00 0. -1.
         11    1    4    4    0    0  0.38585268457E+01 -0.59682018879E+01 -0.35636489218E+01  0.79502991826E+01  0.51100000000E-03 0. -1.
        -11    1    4    4    0    0  0.11700919251E+02 -0.10331293763E+02 -0.15380457810E+02  0.21913594521E+02  0.51100000000E-03 0.  1.
         12    1    4    4    0    0  0.33176702524E+01 -0.11284795374E+02 -0.11253158074E+02  0.16278424653E+02  0.00000000000E+00 0. -1.
</event>
<event>
 8    1  0.9117959E-009  0.9118800E+02  0.7816164E-02  0.1184000E+00
        -11   -1    0    0    0    0  0.00000000000E+00  0.00000000000E+00  0.45593999997E+02  0.45594000000E+02  0.51100000000E-03 0. -1.
         11   -1    0    0    0    0 -0.00000000000E+00 -0.00000000000E+00 -0.45593999997E+02  0.45594000000E+02  0.51100000000E-03 0.  1.
         23    2    1    2    0    0 -0.11102230246E-15  0.00000000000E+00 -0.71054273576E-14  0.91188000000E+02  0.91188000000E+02 0.  0.
    9900012    2    3    3    0    0 -0.55092348278E+00  0.10736863636E+02  0.43743922018E+02  0.46142306854E+02  0.99999005425E+01 0.  0.
        -12    1    3    3    0    0  0.55092348278E+00 -0.10736863636E+02 -0.43743922018E+02  0.45045693146E+02  0.00000000000E+00 0.  1.
         11    1    4    4    0    0 -0.18742802254E+01  0.18486342834E+01  0.21725396277E+02  0.21884314445E+02  0.51100000000E-03 0. -1.
        -11    1    4    4    0    0  0.27338282247E-02 -0.41249869909E+00  0.31853107395E+01  0.32119102446E+01  0.51100000000E-03 0.  1.
        -12    1    4    4    0    0  0.13206229144E+01  0.93007280519E+01  0.18833215002E+02  0.21046082165E+02  0.00000000000E+00 0.  1.
</event>
<event>
 8    1  0.9117959E-009  0.9118800E+02  0.7816164E-02  0.1184000E+00
        -11   -1    0    0    0    0  0.00000000000E+00  0.00000000000E+00  0.45593999997E+02  0.45594000000E+02  0.51100000000E-03 0. -1.
         11   -1    0    0    0    0 -0.00000000000E+00 -0.00000000000E+00 -0.45593999997E+02  0.45594000000E+02  0.51100000000E-03 0.  1.
         23    2    1    2    0    0  0.00000000000E+00 -0.71054273576E-14 -0.17763568394E-14  0.91188000000E+02  0.91188000000E+02 0.  0.
    9900012    2    3    3    0    0  0.18486245878E+02 -0.39146520151E+02 -0.12446768982E+02  0.46142318912E+02  0.10000010498E+02 0.  0.
         12    1    3    3    0    0 -0.18486245878E+02  0.39146520151E+02  0.12446768982E+02  0.45045681088E+02  0.00000000000E+00 0. -1.
         11    1    4    4    0    0  0.33823286631E+01 -0.22307742088E+01 -0.13010121407E+01  0.42554827702E+01  0.51100000000E-03 0. -1.
        -11    1    4    4    0    0  0.14054089200E+01 -0.56686587537E+00 -0.65342075834E+00  0.16502939440E+01  0.51100000000E-03 0.  1.
        -12    1    4    4    0    0  0.13698508295E+02 -0.36348880066E+02 -0.10492336083E+02  0.40236542198E+02  0.00000000000E+00 0.  1.
</event>
<event>
 8    1  0.9117959E-009  0.9118800E+02  0.7816164E-02  0.1184000E+00
        -11   -1    0    0    0    0  0.00000000000E+00  0.00000000000E+00  0.45593999997E+02  0.45594000000E+02  0.51100000000E-03 0. -1.
         11   -1    0    0    0    0 -0.00000000000E+00 -0.00000000000E+00 -0.45593999997E+02  0.45594000000E+02  0.51100000000E-03 0.  1.
         23    2    1    2    0    0  0.00000000000E+00  0.00000000000E+00  0.00000000000E+00  0.91188000000E+02  0.91188000000E+02 0.  0.
    9900012    2    3    3    0    0  0.22056572271E+02  0.74700990059E+01  0.38559290507E+02  0.46142316035E+02  0.99999842598E+01 0.  0.
        -12    1    3    3    0    0 -0.22056572271E+02 -0.74700990059E+01 -0.38559290507E+02  0.45045683965E+02  0.00000000000E+00 0.  1.
         11    1    4    4    0    0  0.32030940207E+01  0.24467983436E+01  0.13163480146E+02  0.13766765897E+02  0.51100000000E-03 0. -1.
        -11    1    4    4    0    0  0.68979812205E+01  0.32700182029E+01  0.12924558327E+02  0.15010641965E+02  0.51100000000E-03 0.  1.
        -12    1    4    4    0    0  0.11955497030E+02  0.17532824594E+01  0.12471252033E+02  0.17364908174E+02  0.00000000000E+00 0.  1.
</event>
<event>
 8    1  0.9117959E-009  0.9118800E+02  0.7816164E-02  0.1184000E+00
        -11   -1    0    0    0    0  0.00000000000E+00  0.00000000000E+00  0.45593999997E+02  0.45594000000E+02  0.51100000000E-03 0. -1.
         11   -1    0    0    0    0 -0.00000000000E+00 -0.00000000000E+00 -0.45593999997E+02  0.45594000000E+02  0.51100000000E-03 0.  1.
         23    2    1    2    0    0  0.00000000000E+00 -0.17763568394E-14  0.00000000000E+00  0.91188000000E+02  0.91188000000E+02 0.  0.
    9900012    2    3    3    0    0 -0.27687449535E+02 -0.15719906009E+02 -0.31865391113E+02  0.46142318104E+02  0.10000003125E+02 0.  0.
         12    1    3    3    0    0  0.27687449535E+02  0.15719906009E+02  0.31865391113E+02  0.45045681896E+02  0.00000000000E+00 0. -1.
         11    1    4    4    0    0 -0.84138258640E+01 -0.32715825262E+01 -0.15323916613E+02  0.17785334928E+02  0.51100000000E-03 0. -1.
        -11    1    4    4    0    0 -0.20056692209E+01 -0.64600387024E+00 -0.17539413081E+01  0.27415944991E+01  0.51100000000E-03 0.  1.
        -12    1    4    4    0    0 -0.17267954450E+02 -0.11802319613E+02 -0.14787533193E+02  0.25615388677E+02  0.00000000000E+00 0.  1.
</event>
<event>
 8    1  0.9117959E-009  0.9118800E+02  0.7816164E-02  0.1184000E+00
        -11   -1    0    0    0    0  0.00000000000E+00  0.00000000000E+00  0.45593999997E+02  0.45594000000E+02  0.51100000000E-03 0. -1.
         11   -1    0    0    0    0 -0.00000000000E+00 -0.00000000000E+00 -0.45593999997E+02  0.45594000000E+02  0.51100000000E-03 0.  1.
         23    2    1    2    0    0  0.88817841970E-15  0.17763568394E-14  0.00000000000E+00  0.91188000000E+02  0.91188000000E+02 0.  0.
    9900012    2    3    3    0    0  0.52300970863E+01  0.10740494392E+02  0.43432723169E+02  0.46142316775E+02  0.99999910078E+01 0.  0.
        -12    1    3    3    0    0 -0.52300970863E+01 -0.10740494392E+02 -0.43432723169E+02  0.45045683225E+02  0.00000000000E+00 0.  1.
         11    1    4    4    0    0  0.11635597881E+01  0.52196141516E+01  0.11072620528E+02  0.12296388449E+02  0.51100000000E-03 0. -1.
        -11    1    4    4    0    0  0.58584228572E+01  0.56020288502E+01  0.25657000140E+02  0.26906978687E+02  0.51100000000E-03 0.  1.
        -12    1    4    4    0    0 -0.17918855590E+01 -0.81148609402E-01  0.67031025009E+01  0.69389496389E+01  0.00000000000E+00 0.  1.
</event>
<event>
 8    1  0.9117959E-009  0.9118800E+02  0.7816164E-02  0.1184000E+00
        -11   -1    0    0    0    0  0.00000000000E+00  0.00000000000E+00  0.45593999997E+02  0.45594000000E+02  0.51100000000E-03 0. -1.
         11   -1    0    0    0    0 -0.00000000000E+00 -0.00000000000E+00 -0.45593999997E+02  0.45594000000E+02  0.51100000000E-03 0.  1.
         23    2    1    2    0    0  0.17763568394E-14  0.00000000000E+00  0.00000000000E+00  0.91188000000E+02  0.91188000000E+02 0.  0.
    9900012    2    3    3    0    0  0.10449113303E+02  0.16495160990E+02  0.40593584422E+02  0.46142318730E+02  0.10000008831E+02 0.  0.
        -12    1    3    3    0    0 -0.10449113303E+02 -0.16495160990E+02 -0.40593584422E+02  0.45045681270E+02  0.00000000000E+00 0.  1.
         11    1    4    4    0    0  0.31552481443E+01  0.11007576770E+02  0.17955380143E+02  0.21295962376E+02  0.51100000000E-03 0. -1.
        -11    1    4    4    0    0  0.76731061881E+01  0.57835392060E+01  0.20300333166E+02  0.22459506033E+02  0.51100000000E-03 0.  1.
        -12    1    4    4    0    0 -0.37924102947E+00 -0.29595498581E+00  0.23378711128E+01  0.23868503204E+01  0.00000000000E+00 0.  1.
</event>
<event>
 8    1  0.9117959E-009  0.9118800E+02  0.7816164E-02  0.1184000E+00
        -11   -1    0    0    0    0  0.00000000000E+00  0.00000000000E+00  0.45593999997E+02  0.45594000000E+02  0.51100000000E-03 0. -1.
         11   -1    0    0    0    0 -0.00000000000E+00 -0.00000000000E+00 -0.45593999997E+02  0.45594000000E+02  0.51100000000E-03 0.  1.
         23    2    1    2    0    0 -0.17763568394E-14 -0.71054273576E-14  0.35527136788E-14  0.91188000000E+02  0.91188000000E+02 0.  0.
    9900012    2    3    3    0    0  0.10246555688E+02  0.39809034760E+02 -0.18421783462E+02  0.46142320319E+02  0.10000023323E+02 0.  0.
         12    1    3    3    0    0 -0.10246555688E+02 -0.39809034760E+02  0.18421783462E+02  0.45045679681E+02  0.00000000000E+00 0. -1.
         11    1    4    4    0    0  0.10499224235E+01  0.13520632613E+01 -0.32330051844E+00  0.17421066684E+01  0.51100000000E-03 0. -1.
        -11    1    4    4    0    0  0.34451632691E-01  0.40472132613E+01  0.74147649029E+00  0.41147186714E+01  0.51100000000E-03 0.  1.
        -12    1    4    4    0    0  0.91621816323E+01  0.34409758238E+02 -0.18839959433E+02  0.40285494979E+02  0.00000000000E+00 0.  1.
</event>
<event>
 8    1  0.9117959E-009  0.9118800E+02  0.7816164E-02  0.1184000E+00
        -11   -1    0    0    0    0  0.00000000000E+00  0.00000000000E+00  0.45593999997E+02  0.45594000000E+02  0.51100000000E-03 0. -1.
         11   -1    0    0    0    0 -0.00000000000E+00 -0.00000000000E+00 -0.45593999997E+02  0.45594000000E+02  0.51100000000E-03 0.  1.
         23    2    1    2    0    0  0.00000000000E+00 -0.35527136788E-14  0.00000000000E+00  0.91188000000E+02  0.91188000000E+02 0.  0.
    9900012    2    3    3    0    0  0.19396783634E+02 -0.29636636846E+02  0.27830702637E+02  0.46142317985E+02  0.10000002045E+02 0.  0.
        -12    1    3    3    0    0 -0.19396783634E+02  0.29636636846E+02 -0.27830702637E+02  0.45045682015E+02  0.00000000000E+00 0.  1.
         11    1    4    4    0    0  0.71530263916E+01 -0.11359454911E+02  0.11960220881E+02  0.17979151432E+02  0.51100000000E-03 0. -1.
        -11    1    4    4    0    0  0.11312143212E+02 -0.16090722638E+02  0.10513593004E+02  0.22302725779E+02  0.51100000000E-03 0.  1.
        -12    1    4    4    0    0  0.93161402989E+00 -0.21864592965E+01  0.53568887527E+01  0.58604407739E+01  0.00000000000E+00 0.  1.
</event>
<event>
 8    1  0.9117959E-009  0.9118800E+02  0.7816164E-02  0.1184000E+00
        -11   -1    0    0    0    0  0.00000000000E+00  0.00000000000E+00  0.45593999997E+02  0.45594000000E+02  0.51100000000E-03 0.  1.
         11   -1    0    0    0    0 -0.00000000000E+00 -0.00000000000E+00 -0.45593999997E+02  0.45594000000E+02  0.51100000000E-03 0. -1.
         23    2    1    2    0    0  0.71054273576E-14 -0.35527136788E-14  0.00000000000E+00  0.91188000000E+02  0.91188000000E+02 0.  0.
    9900012    2    3    3    0    0  0.35537324176E+02 -0.21396112257E+02 -0.17561852185E+02  0.46142315618E+02  0.99999804548E+01 0.  0.
         12    1    3    3    0    0 -0.35537324176E+02  0.21396112257E+02  0.17561852185E+02  0.45045684382E+02  0.00000000000E+00 0. -1.
         11    1    4    4    0    0  0.21671773082E+01  0.55184061436E+00 -0.11674770293E+01  0.25227343150E+01  0.51100000000E-03 0. -1.
        -11    1    4    4    0    0  0.11975861202E+02 -0.90048065020E+01 -0.92712197380E+01  0.17619968994E+02  0.51100000000E-03 0.  1.
        -12    1    4    4    0    0  0.21394285666E+02 -0.12943146370E+02 -0.71231554177E+01  0.25999612308E+02  0.00000000000E+00 0.  1.
</event>
<event>
 8    1  0.9117959E-009  0.9118800E+02  0.7816164E-02  0.1184000E+00
        -11   -1    0    0    0    0  0.00000000000E+00  0.00000000000E+00  0.45593999997E+02  0.45594000000E+02  0.51100000000E-03 0. -1.
         11   -1    0    0    0    0 -0.00000000000E+00 -0.00000000000E+00 -0.45593999997E+02  0.45594000000E+02  0.51100000000E-03 0.  1.
         23    2    1    2    0    0 -0.35527136788E-14  0.35527136788E-14  0.00000000000E+00  0.91188000000E+02  0.91188000000E+02 0.  0.
    9900012    2    3    3    0    0  0.30581579211E+02 -0.29388453448E+02  0.15172316504E+02  0.46142319061E+02  0.10000011858E+02 0.  0.
        -12    1    3    3    0    0 -0.30581579211E+02  0.29388453448E+02 -0.15172316504E+02  0.45045680939E+02  0.00000000000E+00 0.  1.
         11    1    4    4    0    0  0.10735281869E+02 -0.11574745688E+02  0.42787317943E+01  0.16356300333E+02  0.51100000000E-03 0. -1.
        -11    1    4    4    0    0  0.17205137259E+02 -0.17923286145E+02  0.10929139368E+02  0.27142347392E+02  0.51100000000E-03 0.  1.
        -12    1    4    4    0    0  0.26411600824E+01  0.10957838488E+00 -0.35554657994E-01  0.26436713368E+01  0.00000000000E+00 0.  1.
</event>
<event>
 8    1  0.9117959E-009  0.9118800E+02  0.7816164E-02  0.1184000E+00
        -11   -1    0    0    0    0  0.00000000000E+00  0.00000000000E+00  0.45593999997E+02  0.45594000000E+02  0.51100000000E-03 0. -1.
         11   -1    0    0    0    0 -0.00000000000E+00 -0.00000000000E+00 -0.45593999997E+02  0.45594000000E+02  0.51100000000E-03 0.  1.
         23    2    1    2    0    0 -0.66613381478E-15  0.00000000000E+00  0.35527136788E-14  0.91188000000E+02  0.91188000000E+02 0.  0.
    9900012    2    3    3    0    0 -0.19323980022E+01  0.33193322889E+02 -0.30390502230E+02  0.46142317940E+02  0.10000001632E+02 0.  0.
         12    1    3    3    0    0  0.19323980022E+01 -0.33193322889E+02  0.30390502230E+02  0.45045682060E+02  0.00000000000E+00 0. -1.
         11    1    4    4    0    0  0.14967176639E+01  0.22741607929E+01 -0.13864370033E+01  0.30551888489E+01  0.51100000000E-03 0. -1.
        -11    1    4    4    0    0 -0.53595911912E+01  0.23063667925E+02 -0.23031545308E+02  0.33031955368E+02  0.51100000000E-03 0.  1.
        -12    1    4    4    0    0  0.19304755251E+01  0.78554941716E+01 -0.59725199185E+01  0.10055173724E+02  0.00000000000E+00 0.  1.
</event>
<event>
 8    1  0.9117959E-009  0.9118800E+02  0.7816164E-02  0.1184000E+00
        -11   -1    0    0    0    0  0.00000000000E+00  0.00000000000E+00  0.45593999997E+02  0.45594000000E+02  0.51100000000E-03 0. -1.
         11   -1    0    0    0    0 -0.00000000000E+00 -0.00000000000E+00 -0.45593999997E+02  0.45594000000E+02  0.51100000000E-03 0.  1.
         23    2    1    2    0    0  0.00000000000E+00  0.35527136788E-14  0.00000000000E+00  0.91188000000E+02  0.91188000000E+02 0.  0.
    9900012    2    3    3    0    0 -0.18450610055E+02  0.28133818650E+02 -0.29952907710E+02  0.46142318259E+02  0.10000004539E+02 0.  0.
         12    1    3    3    0    0  0.18450610055E+02 -0.28133818650E+02  0.29952907710E+02  0.45045681741E+02  0.00000000000E+00 0. -1.
         11    1    4    4    0    0 -0.12887688431E+01  0.62926387607E+01 -0.78827634093E+01  0.10168391561E+02  0.51100000000E-03 0. -1.
        -11    1    4    4    0    0 -0.10834044059E+02  0.15950280782E+02 -0.18153131567E+02  0.26482525439E+02  0.51100000000E-03 0.  1.
        -12    1    4    4    0    0 -0.63277971529E+01  0.58908991070E+01 -0.39170127343E+01  0.94914012589E+01  0.00000000000E+00 0.  1.
</event>
<event>
 8    1  0.9117959E-009  0.9118800E+02  0.7816164E-02  0.1184000E+00
        -11   -1    0    0    0    0  0.00000000000E+00  0.00000000000E+00  0.45593999997E+02  0.45594000000E+02  0.51100000000E-03 0. -1.
         11   -1    0    0    0    0 -0.00000000000E+00 -0.00000000000E+00 -0.45593999997E+02  0.45594000000E+02  0.51100000000E-03 0.  1.
         23    2    1    2    0    0 -0.35527136788E-14  0.00000000000E+00  0.00000000000E+00  0.91188000000E+02  0.91188000000E+02 0.  0.
    9900012    2    3    3    0    0  0.18064385916E+02  0.29471990576E+02 -0.28882401223E+02  0.46142319104E+02  0.10000012242E+02 0.  0.
         12    1    3    3    0    0 -0.18064385916E+02 -0.29471990576E+02  0.28882401223E+02  0.45045680896E+02  0.00000000000E+00 0. -1.
         11    1    4    4    0    0  0.80678126501E+00  0.68436401278E+01 -0.41988145855E+01  0.80694702672E+01  0.51100000000E-03 0. -1.
        -11    1    4    4    0    0 -0.35403764685E+00  0.28989784998E+00 -0.83527033185E-01  0.46514561720E+00  0.51100000000E-03 0.  1.
        -12    1    4    4    0    0  0.17611642297E+02  0.22338452598E+02 -0.24600059604E+02  0.37607703219E+02  0.00000000000E+00 0.  1.
</event>
<event>
 8    1  0.9117959E-009  0.9118800E+02  0.7816164E-02  0.1184000E+00
        -11   -1    0    0    0    0  0.00000000000E+00  0.00000000000E+00  0.45593999997E+02  0.45594000000E+02  0.51100000000E-03 0. -1.
         11   -1    0    0    0    0 -0.00000000000E+00 -0.00000000000E+00 -0.45593999997E+02  0.45594000000E+02  0.51100000000E-03 0.  1.
         23    2    1    2    0    0  0.35527136788E-14 -0.35527136788E-14  0.35527136788E-14  0.91188000000E+02  0.91188000000E+02 0.  0.
    9900012    2    3    3    0    0  0.31107707165E+02 -0.29625413020E+02  0.13555770630E+02  0.46142318087E+02  0.10000002971E+02 0.  0.
        -12    1    3    3    0    0 -0.31107707165E+02  0.29625413020E+02 -0.13555770630E+02  0.45045681913E+02  0.00000000000E+00 0.  1.
         11    1    4    4    0    0  0.18334316790E+02 -0.22666603746E+02  0.69012203055E+01  0.29959121140E+02  0.51100000000E-03 0. -1.
        -11    1    4    4    0    0  0.24745180036E+01 -0.33004246184E+00  0.93503342292E+00  0.26657935291E+01  0.51100000000E-03 0.  1.
        -12    1    4    4    0    0  0.10298872371E+02 -0.66287668121E+01  0.57195169018E+01  0.13517403418E+02  0.00000000000E+00 0.  1.
</event>
<event>
 8    1  0.9117959E-009  0.9118800E+02  0.7816164E-02  0.1184000E+00
        -11   -1    0    0    0    0  0.00000000000E+00  0.00000000000E+00  0.45593999997E+02  0.45594000000E+02  0.51100000000E-03 0. -1.
         11   -1    0    0    0    0 -0.00000000000E+00 -0.00000000000E+00 -0.45593999997E+02  0.45594000000E+02  0.51100000000E-03 0.  1.
         23    2    1    2    0    0  0.35527136788E-14  0.00000000000E+00  0.00000000000E+00  0.91188000000E+02  0.91188000000E+02 0.  0.
    9900012    2    3    3    0    0 -0.22317661956E+02 -0.31914446625E+01 -0.38998080555E+02  0.46142316065E+02  0.99999845356E+01 0.  0.
         12    1    3    3    0    0  0.22317661956E+02  0.31914446625E+01  0.38998080555E+02  0.45045683935E+02  0.00000000000E+00 0. -1.
         11    1    4    4    0    0 -0.16499037536E+02 -0.44374577673E+00 -0.26208381008E+02  0.30972477867E+02  0.51100000000E-03 0. -1.
        -11    1    4    4    0    0 -0.42364332918E+01  0.75242056804E+00 -0.71967542991E+01  0.83849136221E+01  0.51100000000E-03 0.  1.
         12    1    4    4    0    0 -0.15821911282E+01 -0.35001194539E+01 -0.55929452477E+01  0.67849245759E+01  0.00000000000E+00 0. -1.
</event>
<event>
 8    1  0.9117959E-009  0.9118800E+02  0.7816164E-02  0.1184000E+00
        -11   -1    0    0    0    0  0.00000000000E+00  0.00000000000E+00  0.45593999997E+02  0.45594000000E+02  0.51100000000E-03 0. -1.
         11   -1    0    0    0    0 -0.00000000000E+00 -0.00000000000E+00 -0.45593999997E+02  0.45594000000E+02  0.51100000000E-03 0.  1.
         23    2    1    2    0    0  0.00000000000E+00  0.00000000000E+00  0.17763568394E-14  0.91188000000E+02  0.91188000000E+02 0.  0.
    9900012    2    3    3    0    0 -0.52365373846E+01 -0.42709779619E+02  0.13325424130E+02  0.46142317331E+02  0.99999960749E+01 0.  0.
        -12    1    3    3    0    0  0.52365373846E+01  0.42709779619E+02 -0.13325424130E+02  0.45045682669E+02  0.00000000000E+00 0.  1.
         11    1    4    4    0    0 -0.41100578938E+01 -0.24314459173E+02  0.57564124422E+01  0.25322357418E+02  0.51100000000E-03 0. -1.
        -11    1    4    4    0    0 -0.20064440690E+01 -0.47446149439E+01 -0.71111297858E-01  0.51519167157E+01  0.51100000000E-03 0.  1.
         12    1    4    4    0    0  0.87996457823E+00 -0.13650705503E+02  0.76401229857E+01  0.15668043197E+02  0.00000000000E+00 0. -1.
</event>
<event>
 8    1  0.9117959E-009  0.9118800E+02  0.7816164E-02  0.1184000E+00
        -11   -1    0    0    0    0  0.00000000000E+00  0.00000000000E+00  0.45593999997E+02  0.45594000000E+02  0.51100000000E-03 0. -1.
         11   -1    0    0    0    0 -0.00000000000E+00 -0.00000000000E+00 -0.45593999997E+02  0.45594000000E+02  0.51100000000E-03 0.  1.
         23    2    1    2    0    0  0.44408920985E-15  0.00000000000E+00  0.00000000000E+00  0.91188000000E+02  0.91188000000E+02 0.  0.
    9900012    2    3    3    0    0  0.21092869876E+01  0.32296104288E+02  0.31330926697E+02  0.46142307515E+02  0.99999065711E+01 0.  0.
        -12    1    3    3    0    0 -0.21092869876E+01 -0.32296104288E+02 -0.31330926697E+02  0.45045692485E+02  0.00000000000E+00 0.  1.
         11    1    4    4    0    0  0.24623097334E+00  0.80069892216E+01  0.30254820285E+01  0.85630629948E+01  0.51100000000E-03 0. -1.
        -11    1    4    4    0    0 -0.61975719377E+00  0.12106688345E+02  0.11821817568E+02  0.16932553633E+02  0.51100000000E-03 0.  1.
         12    1    4    4    0    0  0.24828132080E+01  0.12182426721E+02  0.16483627100E+02  0.20646690888E+02  0.00000000000E+00 0. -1.
</event>
<event>
 8    1  0.9117959E-009  0.9118800E+02  0.7816164E-02  0.1184000E+00
        -11   -1    0    0    0    0  0.00000000000E+00  0.00000000000E+00  0.45593999997E+02  0.45594000000E+02  0.51100000000E-03 0. -1.
         11   -1    0    0    0    0 -0.00000000000E+00 -0.00000000000E+00 -0.45593999997E+02  0.45594000000E+02  0.51100000000E-03 0.  1.
         23    2    1    2    0    0  0.00000000000E+00  0.35527136788E-14  0.00000000000E+00  0.91188000000E+02  0.91188000000E+02 0.  0.
    9900012    2    3    3    0    0 -0.75715771046E+01 -0.20210453966E+02  0.39538871171E+02  0.46142316935E+02  0.99999924666E+01 0.  0.
        -12    1    3    3    0    0  0.75715771046E+01  0.20210453966E+02 -0.39538871171E+02  0.45045683065E+02  0.00000000000E+00 0.  1.
         11    1    4    4    0    0 -0.52804010017E+01 -0.92147701555E+01  0.16166866263E+02  0.19343272442E+02  0.51100000000E-03 0. -1.
        -11    1    4    4    0    0 -0.84873821761E+00  0.54894922480E+00  0.47735466439E+00  0.11178414692E+01  0.51100000000E-03 0.  1.
         12    1    4    4    0    0 -0.14424378852E+01 -0.11544633035E+02  0.22894650243E+02  0.25681203023E+02  0.00000000000E+00 0. -1.
</event>
<event>
 8    1  0.9117959E-009  0.9118800E+02  0.7816164E-02  0.1184000E+00
        -11   -1    0    0    0    0  0.00000000000E+00  0.00000000000E+00  0.45593999997E+02  0.45594000000E+02  0.51100000000E-03 0. -1.
         11   -1    0    0    0    0 -0.00000000000E+00 -0.00000000000E+00 -0.45593999997E+02  0.45594000000E+02  0.51100000000E-03 0.  1.
         23    2    1    2    0    0  0.00000000000E+00  0.00000000000E+00  0.00000000000E+00  0.91188000000E+02  0.91188000000E+02 0.  0.
    9900012    2    3    3    0    0 -0.16781071263E+02 -0.39538010157E+01  0.41615822493E+02  0.46142316777E+02  0.99999910306E+01 0.  0.
        -12    1    3    3    0    0  0.16781071263E+02  0.39538010157E+01 -0.41615822493E+02  0.45045683223E+02  0.00000000000E+00 0.  1.
         11    1    4    4    0    0 -0.12125602201E+02 -0.17389456577E+01  0.29547870458E+02  0.31986416017E+02  0.51100000000E-03 0. -1.
        -11    1    4    4    0    0 -0.52597232469E+00  0.49428387924E+00  0.71490985208E+01  0.71854417652E+01  0.51100000000E-03 0.  1.
        -12    1    4    4    0    0 -0.41294967377E+01 -0.27091392373E+01  0.49188535139E+01  0.69704589953E+01  0.00000000000E+00 0.  1.
</event>
<event>
 8    1  0.9117959E-009  0.9118800E+02  0.7816164E-02  0.1184000E+00
        -11   -1    0    0    0    0  0.00000000000E+00  0.00000000000E+00  0.45593999997E+02  0.45594000000E+02  0.51100000000E-03 0. -1.
         11   -1    0    0    0    0 -0.00000000000E+00 -0.00000000000E+00 -0.45593999997E+02  0.45594000000E+02  0.51100000000E-03 0.  1.
         23    2    1    2    0    0  0.00000000000E+00  0.00000000000E+00  0.35527136788E-14  0.91188000000E+02  0.91188000000E+02 0.  0.
    9900012    2    3    3    0    0  0.18006919078E+02  0.30000621789E+02  0.28369474738E+02  0.46142317196E+02  0.99999948436E+01 0.  0.
        -12    1    3    3    0    0 -0.18006919078E+02 -0.30000621789E+02 -0.28369474738E+02  0.45045682804E+02  0.00000000000E+00 0.  1.
         11    1    4    4    0    0  0.36422793043E+01  0.75404105598E+01  0.85740134729E+01  0.11984894544E+02  0.51100000000E-03 0. -1.
        -11    1    4    4    0    0  0.38927499346E+00  0.41291636324E+01  0.59996352748E+01  0.72936377080E+01  0.51100000000E-03 0.  1.
         12    1    4    4    0    0  0.13975364780E+02  0.18331047596E+02  0.13795825990E+02  0.26863784943E+02  0.00000000000E+00 0. -1.
</event>
<event>
 8    1  0.9117959E-009  0.9118800E+02  0.7816164E-02  0.1184000E+00
        -11   -1    0    0    0    0  0.00000000000E+00  0.00000000000E+00  0.45593999997E+02  0.45594000000E+02  0.51100000000E-03 0.  1.
         11   -1    0    0    0    0 -0.00000000000E+00 -0.00000000000E+00 -0.45593999997E+02  0.45594000000E+02  0.51100000000E-03 0. -1.
         23    2    1    2    0    0  0.00000000000E+00  0.00000000000E+00  0.00000000000E+00  0.91188000000E+02  0.91188000000E+02 0.  0.
    9900012    2    3    3    0    0  0.25628713869E+01  0.44729959521E+02  0.46664621031E+01  0.46142318108E+02  0.10000003166E+02 0.  0.
        -12    1    3    3    0    0 -0.25628713869E+01 -0.44729959521E+02 -0.46664621031E+01  0.45045681892E+02  0.00000000000E+00 0.  1.
         11    1    4    4    0    0  0.13576399788E+01  0.18227957178E+02 -0.85540234596E-01  0.18278646738E+02  0.51100000000E-03 0. -1.
        -11    1    4    4    0    0  0.22580609899E+00  0.19617626598E+02  0.32742573227E+00  0.19621658176E+02  0.51100000000E-03 0.  1.
         12    1    4    4    0    0  0.97942530915E+00  0.68843757457E+01  0.44245766054E+01  0.82420131935E+01  0.00000000000E+00 0. -1.
</event>
<event>
 8    1  0.9117959E-009  0.9118800E+02  0.7816164E-02  0.1184000E+00
        -11   -1    0    0    0    0  0.00000000000E+00  0.00000000000E+00  0.45593999997E+02  0.45594000000E+02  0.51100000000E-03 0. -1.
         11   -1    0    0    0    0 -0.00000000000E+00 -0.00000000000E+00 -0.45593999997E+02  0.45594000000E+02  0.51100000000E-03 0.  1.
         23    2    1    2    0    0  0.00000000000E+00  0.35527136788E-14  0.00000000000E+00  0.91188000000E+02  0.91188000000E+02 0.  0.
    9900012    2    3    3    0    0  0.20289564354E+02  0.20246523317E+02 -0.34749464797E+02  0.46142318389E+02  0.10000005728E+02 0.  0.
         12    1    3    3    0    0 -0.20289564354E+02 -0.20246523317E+02  0.34749464797E+02  0.45045681611E+02  0.00000000000E+00 0. -1.
         11    1    4    4    0    0  0.80102803271E+01  0.72836646113E+01 -0.12091170933E+02  0.16229996176E+02  0.51100000000E-03 0. -1.
        -11    1    4    4    0    0  0.12997629770E+02  0.12634949487E+02 -0.19362801668E+02  0.26523544576E+02  0.51100000000E-03 0.  1.
         12    1    4    4    0    0 -0.71834574265E+00  0.32790921886E+00 -0.32954921961E+01  0.33887776375E+01  0.00000000000E+00 0. -1.
</event>
<event>
 8    1  0.9117959E-009  0.9118800E+02  0.7816164E-02  0.1184000E+00
        -11   -1    0    0    0    0  0.00000000000E+00  0.00000000000E+00  0.45593999997E+02  0.45594000000E+02  0.51100000000E-03 0. -1.
         11   -1    0    0    0    0 -0.00000000000E+00 -0.00000000000E+00 -0.45593999997E+02  0.45594000000E+02  0.51100000000E-03 0.  1.
         23    2    1    2    0    0  0.22204460493E-15  0.00000000000E+00 -0.17763568394E-14  0.91188000000E+02  0.91188000000E+02 0.  0.
    9900012    2    3    3    0    0  0.15813000119E+01  0.43205934299E+02 -0.12643584488E+02  0.46142317665E+02  0.99999991220E+01 0.  0.
         12    1    3    3    0    0 -0.15813000119E+01 -0.43205934299E+02  0.12643584488E+02  0.45045682335E+02  0.00000000000E+00 0. -1.
         11    1    4    4    0    0  0.10947685577E+01  0.11801951279E+02  0.28075308637E+00  0.11855943436E+02  0.51100000000E-03 0. -1.
        -11    1    4    4    0    0 -0.94783465217E+00  0.14529286732E+02 -0.37937385175E+01  0.15046295746E+02  0.51100000000E-03 0.  1.
         12    1    4    4    0    0  0.14343661064E+01  0.16874696287E+02 -0.91305990564E+01  0.19240078483E+02  0.00000000000E+00 0. -1.
</event>
<event>
 8    1  0.9117959E-009  0.9118800E+02  0.7816164E-02  0.1184000E+00
        -11   -1    0    0    0    0  0.00000000000E+00  0.00000000000E+00  0.45593999997E+02  0.45594000000E+02  0.51100000000E-03 0. -1.
         11   -1    0    0    0    0 -0.00000000000E+00 -0.00000000000E+00 -0.45593999997E+02  0.45594000000E+02  0.51100000000E-03 0.  1.
         23    2    1    2    0    0  0.00000000000E+00 -0.88817841970E-15  0.00000000000E+00  0.91188000000E+02  0.91188000000E+02 0.  0.
    9900012    2    3    3    0    0 -0.21594749605E+02 -0.47181823610E+01  0.39249446785E+02  0.46142317318E+02  0.99999959638E+01 0.  0.
        -12    1    3    3    0    0  0.21594749605E+02  0.47181823610E+01 -0.39249446785E+02  0.45045682682E+02  0.00000000000E+00 0.  1.
         11    1    4    4    0    0 -0.10425302639E+02 -0.74829077209E+00  0.12784679682E+02  0.16513476588E+02  0.51100000000E-03 0. -1.
        -11    1    4    4    0    0 -0.19431647431E+01 -0.15994709548E+01  0.15517022958E+01  0.29566834173E+01  0.51100000000E-03 0.  1.
        -12    1    4    4    0    0 -0.92262822235E+01 -0.23704206341E+01  0.24913064807E+02  0.26672157313E+02  0.00000000000E+00 0.  1.
</event>
<event>
 8    1  0.9117959E-009  0.9118800E+02  0.7816164E-02  0.1184000E+00
        -11   -1    0    0    0    0  0.00000000000E+00  0.00000000000E+00  0.45593999997E+02  0.45594000000E+02  0.51100000000E-03 0. -1.
         11   -1    0    0    0    0 -0.00000000000E+00 -0.00000000000E+00 -0.45593999997E+02  0.45594000000E+02  0.51100000000E-03 0.  1.
         23    2    1    2    0    0  0.00000000000E+00 -0.88817841970E-15  0.00000000000E+00  0.91188000000E+02  0.91188000000E+02 0.  0.
    9900012    2    3    3    0    0  0.15027800267E+02 -0.69736739970E+01  0.41888501569E+02  0.46142317926E+02  0.10000001501E+02 0.  0.
        -12    1    3    3    0    0 -0.15027800267E+02  0.69736739970E+01 -0.41888501569E+02  0.45045682074E+02  0.00000000000E+00 0.  1.
         11    1    4    4    0    0  0.27472763026E+01  0.64222268848E+00  0.65973758392E+01  0.71753289324E+01  0.51100000000E-03 0. -1.
        -11    1    4    4    0    0  0.93836523036E+01 -0.13921598603E+01  0.17661392737E+02  0.20047838620E+02  0.51100000000E-03 0.  1.
        -12    1    4    4    0    0  0.28968716603E+01 -0.62237368251E+01  0.17629732992E+02  0.18919150374E+02  0.00000000000E+00 0.  1.
</event>
<event>
 8    1  0.9117959E-009  0.9118800E+02  0.7816164E-02  0.1184000E+00
        -11   -1    0    0    0    0  0.00000000000E+00  0.00000000000E+00  0.45593999997E+02  0.45594000000E+02  0.51100000000E-03 0. -1.
         11   -1    0    0    0    0 -0.00000000000E+00 -0.00000000000E+00 -0.45593999997E+02  0.45594000000E+02  0.51100000000E-03 0.  1.
         23    2    1    2    0    0  0.00000000000E+00  0.17763568394E-14  0.00000000000E+00  0.91188000000E+02  0.91188000000E+02 0.  0.
    9900012    2    3    3    0    0  0.32926726617E+02  0.15837670635E+02 -0.26346012276E+02  0.46142317635E+02  0.99999988484E+01 0.  0.
         12    1    3    3    0    0 -0.32926726617E+02 -0.15837670635E+02  0.26346012276E+02  0.45045682365E+02  0.00000000000E+00 0. -1.
         11    1    4    4    0    0 -0.13013568847E+00 -0.33237664913E+00 -0.70167181844E-01  0.36377634452E+00  0.51100000000E-03 0. -1.
        -11    1    4    4    0    0  0.19437992599E+02  0.89503877822E+01 -0.19460011139E+02  0.28924678589E+02  0.51100000000E-03 0.  1.
        -12    1    4    4    0    0  0.13618869707E+02  0.72196595021E+01 -0.68158339554E+01  0.16853862701E+02  0.00000000000E+00 0.  1.
</event>
<event>
 8    1  0.9117959E-009  0.9118800E+02  0.7816164E-02  0.1184000E+00
        -11   -1    0    0    0    0  0.00000000000E+00  0.00000000000E+00  0.45593999997E+02  0.45594000000E+02  0.51100000000E-03 0.  1.
         11   -1    0    0    0    0 -0.00000000000E+00 -0.00000000000E+00 -0.45593999997E+02  0.45594000000E+02  0.51100000000E-03 0. -1.
         23    2    1    2    0    0 -0.71054273576E-14 -0.17763568394E-14  0.35527136788E-14  0.91188000000E+02  0.91188000000E+02 0.  0.
    9900012    2    3    3    0    0 -0.40928166900E+02 -0.14324522154E+02  0.12198635486E+02  0.46142317760E+02  0.99999999938E+01 0.  0.
         12    1    3    3    0    0  0.40928166900E+02  0.14324522154E+02 -0.12198635486E+02  0.45045682240E+02  0.00000000000E+00 0. -1.
         11    1    4    4    0    0 -0.79162659307E+01 -0.59938047763E+01  0.11396661495E+01  0.99945885946E+01  0.51100000000E-03 0.  1.
        -11    1    4    4    0    0 -0.32788577947E+02 -0.87420013654E+01  0.11018335811E+02  0.35677964571E+02  0.51100000000E-03 0. -1.
         12    1    4    4    0    0 -0.22332302226E+00  0.41128398781E+00  0.40633525472E-01  0.46976459455E+00  0.00000000000E+00 0. -1.
</event>
<event>
 8    1  0.9117959E-009  0.9118800E+02  0.7816164E-02  0.1184000E+00
        -11   -1    0    0    0    0  0.00000000000E+00  0.00000000000E+00  0.45593999997E+02  0.45594000000E+02  0.51100000000E-03 0. -1.
         11   -1    0    0    0    0 -0.00000000000E+00 -0.00000000000E+00 -0.45593999997E+02  0.45594000000E+02  0.51100000000E-03 0.  1.
         23    2    1    2    0    0  0.00000000000E+00  0.00000000000E+00  0.00000000000E+00  0.91188000000E+02  0.91188000000E+02 0.  0.
    9900012    2    3    3    0    0 -0.31586591969E+02  0.51697062211E+01 -0.31696607105E+02  0.46142317003E+02  0.99999930911E+01 0.  0.
         12    1    3    3    0    0  0.31586591969E+02 -0.51697062211E+01  0.31696607105E+02  0.45045682997E+02  0.00000000000E+00 0. -1.
         11    1    4    4    0    0 -0.11602303895E+02  0.11639024483E+01 -0.14252396651E+02  0.18414639153E+02  0.51100000000E-03 0. -1.
        -11    1    4    4    0    0 -0.52487131569E+01 -0.19601527763E+01 -0.54161703310E+01  0.77926946576E+01  0.51100000000E-03 0.  1.
         12    1    4    4    0    0 -0.14735574918E+02  0.59659565491E+01 -0.12028040123E+02  0.19934983193E+02  0.00000000000E+00 0. -1.
</event>
<event>
 8    1  0.9117959E-009  0.9118800E+02  0.7816164E-02  0.1184000E+00
        -11   -1    0    0    0    0  0.00000000000E+00  0.00000000000E+00  0.45593999997E+02  0.45594000000E+02  0.51100000000E-03 0. -1.
         11   -1    0    0    0    0 -0.00000000000E+00 -0.00000000000E+00 -0.45593999997E+02  0.45594000000E+02  0.51100000000E-03 0.  1.
         23    2    1    2    0    0 -0.17763568394E-14  0.00000000000E+00 -0.35527136788E-14  0.91188000000E+02  0.91188000000E+02 0.  0.
    9900012    2    3    3    0    0  0.67701088714E+01  0.41043752205E+02  0.17282634617E+02  0.46142318426E+02  0.10000006061E+02 0.  0.
        -12    1    3    3    0    0 -0.67701088714E+01 -0.41043752205E+02 -0.17282634617E+02  0.45045681574E+02  0.00000000000E+00 0.  1.
         11    1    4    4    0    0  0.17541039921E+01  0.24172165417E+01  0.28712308627E+01  0.41429196894E+01  0.51100000000E-03 0. -1.
        -11    1    4    4    0    0 -0.29231922219E+00  0.10408656976E+02  0.62694682878E+01  0.12154498074E+02  0.51100000000E-03 0.  1.
        -12    1    4    4    0    0  0.53083241015E+01  0.28217878687E+02  0.81419354663E+01  0.29844900662E+02  0.00000000000E+00 0.  1.
</event>
<event>
 8    1  0.9117959E-009  0.9118800E+02  0.7816164E-02  0.1184000E+00
        -11   -1    0    0    0    0  0.00000000000E+00  0.00000000000E+00  0.45593999997E+02  0.45594000000E+02  0.51100000000E-03 0. -1.
         11   -1    0    0    0    0 -0.00000000000E+00 -0.00000000000E+00 -0.45593999997E+02  0.45594000000E+02  0.51100000000E-03 0.  1.
         23    2    1    2    0    0  0.00000000000E+00 -0.35527136788E-14  0.00000000000E+00  0.91188000000E+02  0.91188000000E+02 0.  0.
    9900012    2    3    3    0    0  0.40560247737E+02  0.19172766495E+02 -0.40478152880E+01  0.46142317852E+02  0.10000000829E+02 0.  0.
         12    1    3    3    0    0 -0.40560247737E+02 -0.19172766495E+02  0.40478152880E+01  0.45045682148E+02  0.00000000000E+00 0. -1.
         11    1    4    4    0    0  0.17333555213E+02  0.48725274942E+01 -0.61727276904E+00  0.18015956440E+02  0.51100000000E-03 0. -1.
        -11    1    4    4    0    0  0.21435747615E+02  0.10982781396E+02 -0.23244374734E+01  0.24197433187E+02  0.51100000000E-03 0.  1.
         12    1    4    4    0    0  0.17909449089E+01  0.33174576050E+01 -0.11061050456E+01  0.39289282253E+01  0.00000000000E+00 0. -1.
</event>
<event>
 8    1  0.9117959E-009  0.9118800E+02  0.7816164E-02  0.1184000E+00
        -11   -1    0    0    0    0  0.00000000000E+00  0.00000000000E+00  0.45593999997E+02  0.45594000000E+02  0.51100000000E-03 0. -1.
         11   -1    0    0    0    0 -0.00000000000E+00 -0.00000000000E+00 -0.45593999997E+02  0.45594000000E+02  0.51100000000E-03 0.  1.
         23    2    1    2    0    0  0.00000000000E+00  0.00000000000E+00  0.00000000000E+00  0.91188000000E+02  0.91188000000E+02 0.  0.
    9900012    2    3    3    0    0  0.18367408213E+02  0.33215173864E+02 -0.24259096604E+02  0.46142320659E+02  0.10000026426E+02 0.  0.
         12    1    3    3    0    0 -0.18367408213E+02 -0.33215173864E+02  0.24259096604E+02  0.45045679341E+02  0.00000000000E+00 0. -1.
         11    1    4    4    0    0  0.68421391185E+01  0.10667784848E+02 -0.10888594689E+02  0.16708620405E+02  0.51100000000E-03 0. -1.
        -11    1    4    4    0    0  0.31671945534E+01  0.80709122994E+01 -0.82068321308E+01  0.11938293034E+02  0.51100000000E-03 0.  1.
         12    1    4    4    0    0  0.83580745408E+01  0.14476476716E+02 -0.51636697841E+01  0.17495407220E+02  0.00000000000E+00 0. -1.
</event>
<event>
 8    1  0.9117959E-009  0.9118800E+02  0.7816164E-02  0.1184000E+00
        -11   -1    0    0    0    0  0.00000000000E+00  0.00000000000E+00  0.45593999997E+02  0.45594000000E+02  0.51100000000E-03 0. -1.
         11   -1    0    0    0    0 -0.00000000000E+00 -0.00000000000E+00 -0.45593999997E+02  0.45594000000E+02  0.51100000000E-03 0.  1.
         23    2    1    2    0    0  0.00000000000E+00  0.00000000000E+00  0.35527136788E-14  0.91188000000E+02  0.91188000000E+02 0.  0.
    9900012    2    3    3    0    0 -0.88324118187E+01 -0.32229706254E+02 -0.30205099677E+02  0.46142317518E+02  0.99999977873E+01 0.  0.
         12    1    3    3    0    0  0.88324118187E+01  0.32229706254E+02  0.30205099677E+02  0.45045682482E+02  0.00000000000E+00 0. -1.
         11    1    4    4    0    0 -0.63362528662E+00 -0.87249121809E+01 -0.11461599719E+02  0.14418524264E+02  0.51100000000E-03 0. -1.
        -11    1    4    4    0    0 -0.13413536045E+01 -0.56419934013E+01 -0.76734071931E+01  0.96183417098E+01  0.51100000000E-03 0.  1.
        -12    1    4    4    0    0 -0.68574329276E+01 -0.17862800671E+02 -0.11070092765E+02  0.22105451545E+02  0.00000000000E+00 0.  1.
</event>
<event>
 8    1  0.9117959E-009  0.9118800E+02  0.7816164E-02  0.1184000E+00
        -11   -1    0    0    0    0  0.00000000000E+00  0.00000000000E+00  0.45593999997E+02  0.45594000000E+02  0.51100000000E-03 0. -1.
         11   -1    0    0    0    0 -0.00000000000E+00 -0.00000000000E+00 -0.45593999997E+02  0.45594000000E+02  0.51100000000E-03 0.  1.
         23    2    1    2    0    0  0.35527136788E-14 -0.17763568394E-14  0.00000000000E+00  0.91188000000E+02  0.91188000000E+02 0.  0.
    9900012    2    3    3    0    0 -0.21564444113E+02  0.15807408954E+02 -0.36252091875E+02  0.46142316599E+02  0.99999894057E+01 0.  0.
         12    1    3    3    0    0  0.21564444113E+02 -0.15807408954E+02  0.36252091875E+02  0.45045683401E+02  0.00000000000E+00 0. -1.
         11    1    4    4    0    0 -0.76815269563E+01  0.70724130005E+01 -0.18759177845E+02  0.21469318473E+02  0.51100000000E-03 0. -1.
        -11    1    4    4    0    0 -0.34467971697E+01  0.29297110061E+01 -0.16105368118E+01  0.48018169886E+01  0.51100000000E-03 0.  1.
        -12    1    4    4    0    0 -0.10436119987E+02  0.58052849477E+01 -0.15882377218E+02  0.19871181138E+02  0.00000000000E+00 0.  1.
</event>
<event>
 8    1  0.9117959E-009  0.9118800E+02  0.7816164E-02  0.1184000E+00
        -11   -1    0    0    0    0  0.00000000000E+00  0.00000000000E+00  0.45593999997E+02  0.45594000000E+02  0.51100000000E-03 0. -1.
         11   -1    0    0    0    0 -0.00000000000E+00 -0.00000000000E+00 -0.45593999997E+02  0.45594000000E+02  0.51100000000E-03 0.  1.
         23    2    1    2    0    0  0.00000000000E+00  0.00000000000E+00  0.00000000000E+00  0.91188000000E+02  0.91188000000E+02 0.  0.
    9900012    2    3    3    0    0 -0.33182619424E+02  0.12322072942E+02 -0.27860254292E+02  0.46142317824E+02  0.10000000576E+02 0.  0.
         12    1    3    3    0    0  0.33182619424E+02 -0.12322072942E+02  0.27860254292E+02  0.45045682176E+02  0.00000000000E+00 0. -1.
         11    1    4    4    0    0 -0.33291067398E+01  0.27980024412E+01 -0.17347029307E+01  0.46819828988E+01  0.51100000000E-03 0. -1.
        -11    1    4    4    0    0 -0.24394450311E+02  0.98197785280E+01 -0.18828172449E+02  0.32342191242E+02  0.51100000000E-03 0.  1.
         12    1    4    4    0    0 -0.54590623738E+01 -0.29570802720E+00 -0.72973789127E+01  0.91181436836E+01  0.00000000000E+00 0. -1.
</event>
<event>
 8    1  0.9117959E-009  0.9118800E+02  0.7816164E-02  0.1184000E+00
        -11   -1    0    0    0    0  0.00000000000E+00  0.00000000000E+00  0.45593999997E+02  0.45594000000E+02  0.51100000000E-03 0. -1.
         11   -1    0    0    0    0 -0.00000000000E+00 -0.00000000000E+00 -0.45593999997E+02  0.45594000000E+02  0.51100000000E-03 0.  1.
         23    2    1    2    0    0 -0.71054273576E-14  0.00000000000E+00  0.44408920985E-15  0.91188000000E+02  0.91188000000E+02 0.  0.
    9900012    2    3    3    0    0 -0.38237621291E+02  0.23695302165E+02  0.23516922354E+01  0.46142317820E+02  0.10000000536E+02 0.  0.
        -12    1    3    3    0    0  0.38237621291E+02 -0.23695302165E+02 -0.23516922354E+01  0.45045682180E+02  0.00000000000E+00 0.  1.
         11    1    4    4    0    0 -0.89778788282E+01  0.50738985333E+01 -0.12190490232E+01  0.10384259018E+02  0.51100000000E-03 0. -1.
        -11    1    4    4    0    0 -0.58315803984E+01  0.17097382506E+01  0.31850746922E+01  0.68611395471E+01  0.51100000000E-03 0.  1.
         12    1    4    4    0    0 -0.23428162065E+02  0.16911665381E+02  0.38566656632E+00  0.28896919254E+02  0.00000000000E+00 0. -1.
</event>
<event>
 8    1  0.9117959E-009  0.9118800E+02  0.7816164E-02  0.1184000E+00
        -11   -1    0    0    0    0  0.00000000000E+00  0.00000000000E+00  0.45593999997E+02  0.45594000000E+02  0.51100000000E-03 0. -1.
         11   -1    0    0    0    0 -0.00000000000E+00 -0.00000000000E+00 -0.45593999997E+02  0.45594000000E+02  0.51100000000E-03 0.  1.
         23    2    1    2    0    0 -0.88817841970E-15  0.00000000000E+00  0.00000000000E+00  0.91188000000E+02  0.91188000000E+02 0.  0.
    9900012    2    3    3    0    0  0.72121552632E+01  0.30306234612E+02  0.32536599873E+02  0.46142319061E+02  0.10000011857E+02 0.  0.
        -12    1    3    3    0    0 -0.72121552632E+01 -0.30306234612E+02 -0.32536599873E+02  0.45045680939E+02  0.00000000000E+00 0.  1.
         11    1    4    4    0    0  0.14449741504E+01 -0.15008541896E-01  0.30932656030E+01  0.34141569829E+01  0.51100000000E-03 0. -1.
        -11    1    4    4    0    0  0.18758878826E+01  0.15850329872E+02  0.15920300549E+02  0.22543466509E+02  0.51100000000E-03 0.  1.
         12    1    4    4    0    0  0.38912932302E+01  0.14470913282E+02  0.13523033721E+02  0.20184695570E+02  0.00000000000E+00 0. -1.
</event>
<event>
 8    1  0.9117959E-009  0.9118800E+02  0.7816164E-02  0.1184000E+00
        -11   -1    0    0    0    0  0.00000000000E+00  0.00000000000E+00  0.45593999997E+02  0.45594000000E+02  0.51100000000E-03 0. -1.
         11   -1    0    0    0    0 -0.00000000000E+00 -0.00000000000E+00 -0.45593999997E+02  0.45594000000E+02  0.51100000000E-03 0.  1.
         23    2    1    2    0    0  0.00000000000E+00  0.00000000000E+00  0.00000000000E+00  0.91188000000E+02  0.91188000000E+02 0.  0.
    9900012    2    3    3    0    0  0.47638683817E+01  0.10032860205E+02  0.43655020775E+02  0.46142316913E+02  0.99999922702E+01 0.  0.
        -12    1    3    3    0    0 -0.47638683817E+01 -0.10032860205E+02 -0.43655020775E+02  0.45045683087E+02  0.00000000000E+00 0.  1.
         11    1    4    4    0    0  0.47467687791E+01  0.58012329919E+01  0.15210045643E+02  0.16956756966E+02  0.51100000000E-03 0. -1.
        -11    1    4    4    0    0 -0.17111185270E+01  0.36331966657E+01  0.12339320443E+02  0.12976396799E+02  0.51100000000E-03 0.  1.
        -12    1    4    4    0    0  0.17282181297E+01  0.59843054772E+00  0.16105654689E+02  0.16209163149E+02  0.00000000000E+00 0.  1.
</event>
<event>
 8    1  0.9117959E-009  0.9118800E+02  0.7816164E-02  0.1184000E+00
        -11   -1    0    0    0    0  0.00000000000E+00  0.00000000000E+00  0.45593999997E+02  0.45594000000E+02  0.51100000000E-03 0. -1.
         11   -1    0    0    0    0 -0.00000000000E+00 -0.00000000000E+00 -0.45593999997E+02  0.45594000000E+02  0.51100000000E-03 0.  1.
         23    2    1    2    0    0  0.00000000000E+00  0.00000000000E+00 -0.71054273576E-14  0.91188000000E+02  0.91188000000E+02 0.  0.
    9900012    2    3    3    0    0 -0.11120306808E+01  0.83636640922E+01 -0.44248457483E+02  0.46142317866E+02  0.10000000955E+02 0.  0.
         12    1    3    3    0    0  0.11120306808E+01 -0.83636640922E+01  0.44248457483E+02  0.45045682134E+02  0.00000000000E+00 0. -1.
         11    1    4    4    0    0  0.28656659013E+00  0.15003781526E+01 -0.16282325599E+01  0.22325762118E+01  0.51100000000E-03 0. -1.
        -11    1    4    4    0    0  0.87906045762E+00  0.64761274135E+01 -0.39446090774E+02  0.39983834873E+02  0.51100000000E-03 0.  1.
        -12    1    4    4    0    0 -0.22776577286E+01  0.38715852620E+00 -0.31741341495E+01  0.39259067809E+01  0.00000000000E+00 0.  1.
</event>
<event>
 8    1  0.9117959E-009  0.9118800E+02  0.7816164E-02  0.1184000E+00
        -11   -1    0    0    0    0  0.00000000000E+00  0.00000000000E+00  0.45593999997E+02  0.45594000000E+02  0.51100000000E-03 0. -1.
         11   -1    0    0    0    0 -0.00000000000E+00 -0.00000000000E+00 -0.45593999997E+02  0.45594000000E+02  0.51100000000E-03 0.  1.
         23    2    1    2    0    0 -0.71054273576E-14 -0.35527136788E-14  0.35527136788E-14  0.91188000000E+02  0.91188000000E+02 0.  0.
    9900012    2    3    3    0    0 -0.32159473216E+02 -0.26489515590E+02  0.17122712296E+02  0.46142318408E+02  0.10000005898E+02 0.  0.
        -12    1    3    3    0    0  0.32159473216E+02  0.26489515590E+02 -0.17122712296E+02  0.45045681592E+02  0.00000000000E+00 0.  1.
         11    1    4    4    0    0 -0.12423190127E+02 -0.49209401297E+01  0.60664720563E+01  0.14674923787E+02  0.51100000000E-03 0. -1.
        -11    1    4    4    0    0 -0.21574616513E+01 -0.22339142771E+01  0.24489455741E+01  0.39550408924E+01  0.51100000000E-03 0.  1.
        -12    1    4    4    0    0 -0.17578821438E+02 -0.19334661183E+02  0.86072946657E+01  0.27512353728E+02  0.00000000000E+00 0.  1.
</event>
<event>
 8    1  0.9255028E-009  0.9118800E+02  0.7816164E-02  0.1184000E+00
        -11   -1    0    0    0    0  0.00000000000E+00  0.00000000000E+00  0.45593999997E+02  0.45594000000E+02  0.51100000000E-03 0. -1.
         11   -1    0    0    0    0 -0.00000000000E+00 -0.00000000000E+00 -0.45593999997E+02  0.45594000000E+02  0.51100000000E-03 0.  1.
         23    2    1    2    0    0 -0.35527136788E-14 -0.35527136788E-14  0.00000000000E+00  0.91188000000E+02  0.91188000000E+02 0.  0.
    9900012    2    3    3    0    0 -0.19599900816E+02 -0.20493966658E+02  0.34999352807E+02  0.46142317873E+02  0.10000001017E+02 0.  0.
        -12    1    3    3    0    0  0.19599900816E+02  0.20493966658E+02 -0.34999352807E+02  0.45045682127E+02  0.00000000000E+00 0.  1.
         11    1    4    4    0    0 -0.84017847433E+00 -0.36979520072E+01  0.56476731328E+01  0.68027171771E+01  0.51100000000E-03 0. -1.
        -11    1    4    4    0    0 -0.27288729602E+01 -0.37260335032E+01  0.19630489990E+01  0.50183298949E+01  0.51100000000E-03 0.  1.
         12    1    4    4    0    0 -0.16030849381E+02 -0.13069981148E+02  0.27388630676E+02  0.34321270801E+02  0.00000000000E+00 0. -1.
</event>
<event>
 8    1  0.9117959E-009  0.9118800E+02  0.7816164E-02  0.1184000E+00
        -11   -1    0    0    0    0  0.00000000000E+00  0.00000000000E+00  0.45593999997E+02  0.45594000000E+02  0.51100000000E-03 0. -1.
         11   -1    0    0    0    0 -0.00000000000E+00 -0.00000000000E+00 -0.45593999997E+02  0.45594000000E+02  0.51100000000E-03 0.  1.
         23    2    1    2    0    0 -0.17763568394E-14  0.88817841970E-15  0.00000000000E+00  0.91188000000E+02  0.91188000000E+02 0.  0.
    9900012    2    3    3    0    0  0.14812654383E+02 -0.53868273431E+01 -0.42198114755E+02  0.46142317326E+02  0.99999960287E+01 0.  0.
         12    1    3    3    0    0 -0.14812654383E+02  0.53868273431E+01  0.42198114755E+02  0.45045682674E+02  0.00000000000E+00 0. -1.
         11    1    4    4    0    0  0.57390468941E+00 -0.61307638414E+00 -0.81937747095E+00  0.11732897964E+01  0.51100000000E-03 0. -1.
        -11    1    4    4    0    0  0.83013791876E+01 -0.61024259618E+01 -0.33287363778E+02  0.34845388312E+02  0.51100000000E-03 0.  1.
         12    1    4    4    0    0  0.59373705058E+01  0.13286750029E+01 -0.80913735062E+01  0.10123639217E+02  0.00000000000E+00 0. -1.
</event>
<event>
 8    1  0.9117959E-009  0.9118800E+02  0.7816164E-02  0.1184000E+00
        -11   -1    0    0    0    0  0.00000000000E+00  0.00000000000E+00  0.45593999997E+02  0.45594000000E+02  0.51100000000E-03 0. -1.
         11   -1    0    0    0    0 -0.00000000000E+00 -0.00000000000E+00 -0.45593999997E+02  0.45594000000E+02  0.51100000000E-03 0.  1.
         23    2    1    2    0    0  0.17763568394E-14  0.35527136788E-14 -0.71054273576E-14  0.91188000000E+02  0.91188000000E+02 0.  0.
    9900012    2    3    3    0    0  0.65790177804E+01  0.20336301941E+02 -0.39651794592E+02  0.46142318009E+02  0.10000002264E+02 0.  0.
         12    1    3    3    0    0 -0.65790177804E+01 -0.20336301941E+02  0.39651794592E+02  0.45045681991E+02  0.00000000000E+00 0. -1.
         11    1    4    4    0    0  0.20494871459E-01  0.18922622302E+01 -0.75826602802E+00  0.20386377849E+01  0.51100000000E-03 0. -1.
        -11    1    4    4    0    0 -0.15079743130E+01  0.33357965666E+01 -0.73031490726E+01  0.81693030241E+01  0.51100000000E-03 0.  1.
         12    1    4    4    0    0  0.80664972219E+01  0.15108243144E+02 -0.31590379492E+02  0.35934377200E+02  0.00000000000E+00 0. -1.
</event>
<event>
 8    1  0.9117959E-009  0.9118800E+02  0.7816164E-02  0.1184000E+00
        -11   -1    0    0    0    0  0.00000000000E+00  0.00000000000E+00  0.45593999997E+02  0.45594000000E+02  0.51100000000E-03 0. -1.
         11   -1    0    0    0    0 -0.00000000000E+00 -0.00000000000E+00 -0.45593999997E+02  0.45594000000E+02  0.51100000000E-03 0.  1.
         23    2    1    2    0    0 -0.17763568394E-14  0.17763568394E-14  0.00000000000E+00  0.91188000000E+02  0.91188000000E+02 0.  0.
    9900012    2    3    3    0    0 -0.12260420318E+02  0.15754199287E+02 -0.40380692822E+02  0.46142322579E+02  0.10000043933E+02 0.  0.
         12    1    3    3    0    0  0.12260420318E+02 -0.15754199287E+02  0.40380692822E+02  0.45045677421E+02  0.00000000000E+00 0. -1.
         11    1    4    4    0    0 -0.31185083355E+00  0.13545395314E+01 -0.61098665206E+00  0.15183323861E+01  0.51100000000E-03 0. -1.
        -11    1    4    4    0    0 -0.42748226565E+01  0.17105171881E+01 -0.15623072958E+02  0.16287430329E+02  0.51100000000E-03 0.  1.
        -12    1    4    4    0    0 -0.76737468277E+01  0.12689142568E+02 -0.24146633211E+02  0.28336559864E+02  0.00000000000E+00 0.  1.
</event>
<event>
 8    1  0.9117959E-009  0.9118800E+02  0.7816164E-02  0.1184000E+00
        -11   -1    0    0    0    0  0.00000000000E+00  0.00000000000E+00  0.45593999997E+02  0.45594000000E+02  0.51100000000E-03 0. -1.
         11   -1    0    0    0    0 -0.00000000000E+00 -0.00000000000E+00 -0.45593999997E+02  0.45594000000E+02  0.51100000000E-03 0.  1.
         23    2    1    2    0    0  0.00000000000E+00  0.00000000000E+00  0.00000000000E+00  0.91188000000E+02  0.91188000000E+02 0.  0.
    9900012    2    3    3    0    0 -0.33554315561E+01  0.10575079998E+02 -0.43658013745E+02  0.46142318720E+02  0.10000008740E+02 0.  0.
         12    1    3    3    0    0  0.33554315561E+01 -0.10575079998E+02  0.43658013745E+02  0.45045681280E+02  0.00000000000E+00 0. -1.
         11    1    4    4    0    0 -0.29392113933E+01  0.15085387350E+01 -0.67559721171E+01  0.75204928188E+01  0.51100000000E-03 0. -1.
        -11    1    4    4    0    0 -0.15997359755E+01  0.73478774326E+01 -0.34998533566E+02  0.35797315681E+02  0.51100000000E-03 0.  1.
         12    1    4    4    0    0  0.11835158127E+01  0.17186638301E+01 -0.19035080617E+01  0.28245102196E+01  0.00000000000E+00 0. -1.
</event>
<event>
 8    1  0.9117959E-009  0.9118800E+02  0.7816164E-02  0.1184000E+00
        -11   -1    0    0    0    0  0.00000000000E+00  0.00000000000E+00  0.45593999997E+02  0.45594000000E+02  0.51100000000E-03 0. -1.
         11   -1    0    0    0    0 -0.00000000000E+00 -0.00000000000E+00 -0.45593999997E+02  0.45594000000E+02  0.51100000000E-03 0.  1.
         23    2    1    2    0    0  0.00000000000E+00  0.00000000000E+00  0.00000000000E+00  0.91188000000E+02  0.91188000000E+02 0.  0.
    9900012    2    3    3    0    0  0.30300820418E+02  0.23139155965E+02 -0.23990689959E+02  0.46142318059E+02  0.10000002719E+02 0.  0.
         12    1    3    3    0    0 -0.30300820418E+02 -0.23139155965E+02  0.23990689959E+02  0.45045681941E+02  0.00000000000E+00 0. -1.
         11    1    4    4    0    0  0.98679287177E+01  0.12895336889E+02 -0.11546831881E+02  0.19924734814E+02  0.51100000000E-03 0.  1.
        -11    1    4    4    0    0  0.10431254552E+02  0.46248144239E+01 -0.45104296312E+01  0.12269635516E+02  0.51100000000E-03 0. -1.
        -12    1    4    4    0    0  0.10001637149E+02  0.56190046527E+01 -0.79334284465E+01  0.13947947729E+02  0.00000000000E+00 0.  1.
</event>
<event>
 8    1  0.9117959E-009  0.9118800E+02  0.7816164E-02  0.1184000E+00
        -11   -1    0    0    0    0  0.00000000000E+00  0.00000000000E+00  0.45593999997E+02  0.45594000000E+02  0.51100000000E-03 0. -1.
         11   -1    0    0    0    0 -0.00000000000E+00 -0.00000000000E+00 -0.45593999997E+02  0.45594000000E+02  0.51100000000E-03 0.  1.
         23    2    1    2    0    0  0.00000000000E+00  0.00000000000E+00  0.00000000000E+00  0.91188000000E+02  0.91188000000E+02 0.  0.
    9900012    2    3    3    0    0  0.22642120556E+02  0.31494421579E+02 -0.22903040155E+02  0.46142318052E+02  0.10000002650E+02 0.  0.
         12    1    3    3    0    0 -0.22642120556E+02 -0.31494421579E+02  0.22903040155E+02  0.45045681948E+02  0.00000000000E+00 0. -1.
         11    1    4    4    0    0  0.21056495025E+01  0.12514414354E+01 -0.10443719341E+01  0.26628140175E+01  0.51100000000E-03 0. -1.
        -11    1    4    4    0    0  0.10266443788E+02  0.17335905875E+02 -0.71481443997E+01  0.21378247570E+02  0.51100000000E-03 0.  1.
         12    1    4    4    0    0  0.10270027266E+02  0.12907074269E+02 -0.14710523821E+02  0.22101256464E+02  0.00000000000E+00 0. -1.
</event>
<event>
 8    1  0.9220317E-009  0.9118800E+02  0.7816164E-02  0.1184000E+00
        -11   -1    0    0    0    0  0.00000000000E+00  0.00000000000E+00  0.45593999997E+02  0.45594000000E+02  0.51100000000E-03 0. -1.
         11   -1    0    0    0    0 -0.00000000000E+00 -0.00000000000E+00 -0.45593999997E+02  0.45594000000E+02  0.51100000000E-03 0.  1.
         23    2    1    2    0    0  0.35527136788E-14 -0.17763568394E-14  0.14210854715E-13  0.91188000000E+02  0.91188000000E+02 0.  0.
    9900012    2    3    3    0    0  0.22387390175E+02 -0.85442642837E+01  0.38143319769E+02  0.46142328354E+02  0.10000096598E+02 0.  0.
        -12    1    3    3    0    0 -0.22387390175E+02  0.85442642837E+01 -0.38143319769E+02  0.45045671646E+02  0.00000000000E+00 0.  1.
         11    1    4    4    0    0  0.72966715984E+01 -0.46391412816E+01  0.10830227938E+02  0.13858458994E+02  0.51100000000E-03 0. -1.
        -11    1    4    4    0    0  0.63897115174E+01 -0.21333580472E+01  0.53787697328E+01  0.86203708698E+01  0.51100000000E-03 0.  1.
         12    1    4    4    0    0  0.87010070594E+01 -0.17717649549E+01  0.21934322098E+02  0.23663498490E+02  0.00000000000E+00 0. -1.
</event>
<event>
 8    1  0.9117959E-009  0.9118800E+02  0.7816164E-02  0.1184000E+00
        -11   -1    0    0    0    0  0.00000000000E+00  0.00000000000E+00  0.45593999997E+02  0.45594000000E+02  0.51100000000E-03 0. -1.
         11   -1    0    0    0    0 -0.00000000000E+00 -0.00000000000E+00 -0.45593999997E+02  0.45594000000E+02  0.51100000000E-03 0.  1.
         23    2    1    2    0    0  0.00000000000E+00  0.00000000000E+00  0.00000000000E+00  0.91188000000E+02  0.91188000000E+02 0.  0.
    9900012    2    3    3    0    0  0.12986227226E+02  0.10740129781E+02  0.41774649844E+02  0.46142313693E+02  0.99999629022E+01 0.  0.
        -12    1    3    3    0    0 -0.12986227226E+02 -0.10740129781E+02 -0.41774649844E+02  0.45045686307E+02  0.00000000000E+00 0.  1.
         11    1    4    4    0    0  0.12930581757E+02  0.62571273215E+01  0.29076770158E+02  0.32431622685E+02  0.51100000000E-03 0. -1.
        -11    1    4    4    0    0  0.93759445813E+00  0.11382316487E+01  0.21266634396E+01  0.25879243228E+01  0.51100000000E-03 0.  1.
         12    1    4    4    0    0 -0.88194898963E+00  0.33447708110E+01  0.10571216246E+02  0.11122766685E+02  0.00000000000E+00 0. -1.
</event>
<event>
 8    1  0.9117959E-009  0.9118800E+02  0.7816164E-02  0.1184000E+00
        -11   -1    0    0    0    0  0.00000000000E+00  0.00000000000E+00  0.45593999997E+02  0.45594000000E+02  0.51100000000E-03 0. -1.
         11   -1    0    0    0    0 -0.00000000000E+00 -0.00000000000E+00 -0.45593999997E+02  0.45594000000E+02  0.51100000000E-03 0.  1.
         23    2    1    2    0    0  0.00000000000E+00  0.00000000000E+00  0.00000000000E+00  0.91188000000E+02  0.91188000000E+02 0.  0.
    9900012    2    3    3    0    0  0.36997156789E+02  0.50543492995E+00  0.25691798060E+02  0.46142316938E+02  0.99999924930E+01 0.  0.
        -12    1    3    3    0    0 -0.36997156789E+02 -0.50543492995E+00 -0.25691798060E+02  0.45045683062E+02  0.00000000000E+00 0.  1.
         11    1    4    4    0    0  0.12897810734E+01  0.40192029808E+00 -0.38550174862E+00  0.14048797111E+01  0.51100000000E-03 0.  1.
        -11    1    4    4    0    0  0.32303039509E+01  0.10423609498E+01  0.48768682423E+01  0.59418199299E+01  0.51100000000E-03 0. -1.
         12    1    4    4    0    0  0.32477071765E+02 -0.93884631791E+00  0.21200431567E+02  0.38795617297E+02  0.00000000000E+00 0. -1.
</event>
<event>
 8    1  0.9117959E-009  0.9118800E+02  0.7816164E-02  0.1184000E+00
        -11   -1    0    0    0    0  0.00000000000E+00  0.00000000000E+00  0.45593999997E+02  0.45594000000E+02  0.51100000000E-03 0. -1.
         11   -1    0    0    0    0 -0.00000000000E+00 -0.00000000000E+00 -0.45593999997E+02  0.45594000000E+02  0.51100000000E-03 0.  1.
         23    2    1    2    0    0  0.00000000000E+00 -0.35527136788E-14  0.00000000000E+00  0.91188000000E+02  0.91188000000E+02 0.  0.
    9900012    2    3    3    0    0 -0.17396061062E+02 -0.24437825343E+02  0.33604808350E+02  0.46142318828E+02  0.10000009732E+02 0.  0.
        -12    1    3    3    0    0  0.17396061062E+02  0.24437825343E+02 -0.33604808350E+02  0.45045681172E+02  0.00000000000E+00 0.  1.
         11    1    4    4    0    0 -0.67534698591E+01 -0.10926232128E+02  0.20142881226E+02  0.23889905149E+02  0.51100000000E-03 0. -1.
        -11    1    4    4    0    0 -0.10048704192E+02 -0.10733314464E+02  0.12349588780E+02  0.19201375956E+02  0.51100000000E-03 0.  1.
        -12    1    4    4    0    0 -0.59388701105E+00 -0.27782787508E+01  0.11123383442E+01  0.30510377236E+01  0.00000000000E+00 0.  1.
</event>
<event>
 8    1  0.9117959E-009  0.9118800E+02  0.7816164E-02  0.1184000E+00
        -11   -1    0    0    0    0  0.00000000000E+00  0.00000000000E+00  0.45593999997E+02  0.45594000000E+02  0.51100000000E-03 0.  1.
         11   -1    0    0    0    0 -0.00000000000E+00 -0.00000000000E+00 -0.45593999997E+02  0.45594000000E+02  0.51100000000E-03 0. -1.
         23    2    1    2    0    0 -0.71054273576E-14  0.00000000000E+00  0.00000000000E+00  0.91188000000E+02  0.91188000000E+02 0.  0.
    9900012    2    3    3    0    0  0.44239267883E+02 -0.73810607656E+01 -0.41857615690E+01  0.46142317846E+02  0.10000000772E+02 0.  0.
        -12    1    3    3    0    0 -0.44239267883E+02  0.73810607656E+01  0.41857615690E+01  0.45045682154E+02  0.00000000000E+00 0.  1.
         11    1    4    4    0    0  0.12529994844E+02 -0.38447385081E+01  0.23899784651E+01  0.13322716777E+02  0.51100000000E-03 0. -1.
        -11    1    4    4    0    0  0.33046678393E+01 -0.30393590515E+00 -0.19806238348E+01  0.38647221891E+01  0.51100000000E-03 0.  1.
        -12    1    4    4    0    0  0.28404605199E+02 -0.32323863523E+01 -0.45951161993E+01  0.28954878879E+02  0.00000000000E+00 0.  1.
</event>
<event>
 8    1  0.9117959E-009  0.9118800E+02  0.7816164E-02  0.1184000E+00
        -11   -1    0    0    0    0  0.00000000000E+00  0.00000000000E+00  0.45593999997E+02  0.45594000000E+02  0.51100000000E-03 0. -1.
         11   -1    0    0    0    0 -0.00000000000E+00 -0.00000000000E+00 -0.45593999997E+02  0.45594000000E+02  0.51100000000E-03 0.  1.
         23    2    1    2    0    0 -0.35527136788E-14  0.00000000000E+00  0.00000000000E+00  0.91188000000E+02  0.91188000000E+02 0.  0.
    9900012    2    3    3    0    0 -0.20773504374E+02  0.23672493250E+02  0.32205404011E+02  0.46142317985E+02  0.10000002046E+02 0.  0.
        -12    1    3    3    0    0  0.20773504374E+02 -0.23672493250E+02 -0.32205404011E+02  0.45045682015E+02  0.00000000000E+00 0.  1.
         11    1    4    4    0    0 -0.28572144389E+01  0.87207774447E+01  0.55947346349E+01  0.10747869067E+02  0.51100000000E-03 0.  1.
        -11    1    4    4    0    0 -0.76698297774E+01  0.65926577840E+01  0.11577472380E+02  0.15372940267E+02  0.51100000000E-03 0. -1.
        -12    1    4    4    0    0 -0.10246460157E+02  0.83590580216E+01  0.15033196996E+02  0.20021508652E+02  0.00000000000E+00 0.  1.
</event>
<event>
 8    1  0.9117959E-009  0.9118800E+02  0.7816164E-02  0.1184000E+00
        -11   -1    0    0    0    0  0.00000000000E+00  0.00000000000E+00  0.45593999997E+02  0.45594000000E+02  0.51100000000E-03 0. -1.
         11   -1    0    0    0    0 -0.00000000000E+00 -0.00000000000E+00 -0.45593999997E+02  0.45594000000E+02  0.51100000000E-03 0.  1.
         23    2    1    2    0    0 -0.35527136788E-14  0.35527136788E-14  0.00000000000E+00  0.91188000000E+02  0.91188000000E+02 0.  0.
    9900012    2    3    3    0    0  0.26298393164E+02 -0.30202008673E+02  0.20623938457E+02  0.46142315985E+02  0.99999838065E+01 0.  0.
        -12    1    3    3    0    0 -0.26298393164E+02  0.30202008673E+02 -0.20623938457E+02  0.45045684015E+02  0.00000000000E+00 0.  1.
         11    1    4    4    0    0  0.80847856310E+01 -0.60558689522E+01  0.32576377707E+01  0.10613647421E+02  0.51100000000E-03 0. -1.
        -11    1    4    4    0    0  0.23683039835E+01 -0.57421684139E+01  0.11237338954E+01  0.63122214775E+01  0.51100000000E-03 0.  1.
        -12    1    4    4    0    0  0.15845303549E+02 -0.18403971307E+02  0.16242566791E+02  0.29216447087E+02  0.00000000000E+00 0.  1.
</event>
<event>
 8    1  0.1296214E-008  0.9118800E+02  0.7816164E-02  0.1184000E+00
        -11   -1    0    0    0    0  0.00000000000E+00  0.00000000000E+00  0.45593999997E+02  0.45594000000E+02  0.51100000000E-03 0. -1.
         11   -1    0    0    0    0 -0.00000000000E+00 -0.00000000000E+00 -0.45593999997E+02  0.45594000000E+02  0.51100000000E-03 0.  1.
         23    2    1    2    0    0  0.88817841970E-15  0.00000000000E+00  0.00000000000E+00  0.91188000000E+02  0.91188000000E+02 0.  0.
    9900012    2    3    3    0    0 -0.59639586006E+01  0.18340237032E+02  0.40708478443E+02  0.46142319699E+02  0.10000017675E+02 0.  0.
        -12    1    3    3    0    0  0.59639586006E+01 -0.18340237032E+02 -0.40708478443E+02  0.45045680301E+02  0.00000000000E+00 0.  1.
         11    1    4    4    0    0  0.18358339788E+00  0.47348969319E+01  0.52646596432E+01  0.70830497132E+01  0.51100000000E-03 0. -1.
        -11    1    4    4    0    0  0.40724815457E+00 -0.40683878092E+00  0.27379955766E+00  0.63744435989E+00  0.51100000000E-03 0.  1.
         12    1    4    4    0    0 -0.65547901531E+01  0.14012178881E+02  0.35170019242E+02  0.38421825626E+02  0.00000000000E+00 0. -1.
</event>
<event>
 8    1  0.9117959E-009  0.9118800E+02  0.7816164E-02  0.1184000E+00
        -11   -1    0    0    0    0  0.00000000000E+00  0.00000000000E+00  0.45593999997E+02  0.45594000000E+02  0.51100000000E-03 0. -1.
         11   -1    0    0    0    0 -0.00000000000E+00 -0.00000000000E+00 -0.45593999997E+02  0.45594000000E+02  0.51100000000E-03 0.  1.
         23    2    1    2    0    0  0.00000000000E+00  0.00000000000E+00  0.00000000000E+00  0.91188000000E+02  0.91188000000E+02 0.  0.
    9900012    2    3    3    0    0 -0.19440613983E+02 -0.66673282617E+01 -0.40083940084E+02  0.46142323284E+02  0.10000050361E+02 0.  0.
         12    1    3    3    0    0  0.19440613983E+02  0.66673282617E+01  0.40083940084E+02  0.45045676716E+02  0.00000000000E+00 0. -1.
         11    1    4    4    0    0 -0.66012378649E+01 -0.30993624243E+01 -0.22386077507E+02  0.23543977048E+02  0.51100000000E-03 0. -1.
        -11    1    4    4    0    0 -0.40919478204E+01 -0.99259456631E+00 -0.92700159850E+01  0.10181477180E+02  0.51100000000E-03 0.  1.
        -12    1    4    4    0    0 -0.87474282975E+01 -0.25753712711E+01 -0.84278465912E+01  0.12416869057E+02  0.00000000000E+00 0.  1.
</event>
<event>
 8    1  0.9117959E-009  0.9118800E+02  0.7816164E-02  0.1184000E+00
        -11   -1    0    0    0    0  0.00000000000E+00  0.00000000000E+00  0.45593999997E+02  0.45594000000E+02  0.51100000000E-03 0. -1.
         11   -1    0    0    0    0 -0.00000000000E+00 -0.00000000000E+00 -0.45593999997E+02  0.45594000000E+02  0.51100000000E-03 0.  1.
         23    2    1    2    0    0  0.00000000000E+00  0.00000000000E+00  0.00000000000E+00  0.91188000000E+02  0.91188000000E+02 0.  0.
    9900012    2    3    3    0    0 -0.30277523332E+01  0.97779830274E+01  0.43867268672E+02  0.46142317665E+02  0.99999991253E+01 0.  0.
        -12    1    3    3    0    0  0.30277523332E+01 -0.97779830274E+01 -0.43867268672E+02  0.45045682335E+02  0.00000000000E+00 0.  1.
         11    1    4    4    0    0 -0.54196181076E+01  0.88764468888E+01  0.24978372304E+02  0.27057025945E+02  0.51100000000E-03 0. -1.
        -11    1    4    4    0    0  0.70020018122E+00  0.69280894905E+00  0.53969598505E+01  0.54861134168E+01  0.51100000000E-03 0.  1.
         12    1    4    4    0    0  0.16916655932E+01  0.20872718955E+00  0.13491936518E+02  0.13599178303E+02  0.00000000000E+00 0. -1.
</event>
<event>
 8    1  0.1134861E-008  0.9118800E+02  0.7816164E-02  0.1184000E+00
        -11   -1    0    0    0    0  0.00000000000E+00  0.00000000000E+00  0.45593999997E+02  0.45594000000E+02  0.51100000000E-03 0. -1.
         11   -1    0    0    0    0 -0.00000000000E+00 -0.00000000000E+00 -0.45593999997E+02  0.45594000000E+02  0.51100000000E-03 0.  1.
         23    2    1    2    0    0 -0.17763568394E-14 -0.17763568394E-14  0.00000000000E+00  0.91188000000E+02  0.91188000000E+02 0.  0.
    9900012    2    3    3    0    0  0.87549556102E+01  0.60272680620E+01  0.43773694105E+02  0.46142317592E+02  0.99999984560E+01 0.  0.
        -12    1    3    3    0    0 -0.87549556102E+01 -0.60272680620E+01 -0.43773694105E+02  0.45045682408E+02  0.00000000000E+00 0.  1.
         11    1    4    4    0    0  0.26859735746E+00  0.20507902371E+01  0.40131258771E+01  0.45147607582E+01  0.51100000000E-03 0. -1.
        -11    1    4    4    0    0  0.26617630422E+01  0.47348445974E-01  0.23131810987E+01  0.35267593375E+01  0.51100000000E-03 0.  1.
         12    1    4    4    0    0  0.58245952105E+01  0.39291293789E+01  0.37447387129E+02  0.38100797496E+02  0.00000000000E+00 0. -1.
</event>
<event>
 8    1  0.9729989E-009  0.9118800E+02  0.7816164E-02  0.1184000E+00
        -11   -1    0    0    0    0  0.00000000000E+00  0.00000000000E+00  0.45593999997E+02  0.45594000000E+02  0.51100000000E-03 0. -1.
         11   -1    0    0    0    0 -0.00000000000E+00 -0.00000000000E+00 -0.45593999997E+02  0.45594000000E+02  0.51100000000E-03 0.  1.
         23    2    1    2    0    0 -0.35527136788E-14  0.00000000000E+00 -0.35527136788E-14  0.91188000000E+02  0.91188000000E+02 0.  0.
    9900012    2    3    3    0    0  0.19654389866E+02  0.25357730228E+02  0.31619677946E+02  0.46142317003E+02  0.99999930835E+01 0.  0.
        -12    1    3    3    0    0 -0.19654389866E+02 -0.25357730228E+02 -0.31619677946E+02  0.45045682997E+02  0.00000000000E+00 0.  1.
         11    1    4    4    0    0  0.52683766336E+01  0.64384231795E+01  0.53416336045E+01  0.98864622195E+01  0.51100000000E-03 0. -1.
        -11    1    4    4    0    0  0.57108694104E+00  0.22431171172E+01  0.14891393404E+00  0.23194590569E+01  0.51100000000E-03 0.  1.
         12    1    4    4    0    0  0.13814926291E+02  0.16676189931E+02  0.26129130407E+02  0.33936395726E+02  0.00000000000E+00 0. -1.
</event>
<event>
 8    1  0.9117959E-009  0.9118800E+02  0.7816164E-02  0.1184000E+00
        -11   -1    0    0    0    0  0.00000000000E+00  0.00000000000E+00  0.45593999997E+02  0.45594000000E+02  0.51100000000E-03 0. -1.
         11   -1    0    0    0    0 -0.00000000000E+00 -0.00000000000E+00 -0.45593999997E+02  0.45594000000E+02  0.51100000000E-03 0.  1.
         23    2    1    2    0    0  0.00000000000E+00  0.00000000000E+00  0.35527136788E-14  0.91188000000E+02  0.91188000000E+02 0.  0.
    9900012    2    3    3    0    0  0.11529277361E+02  0.36688660364E+02 -0.23454883663E+02  0.46142316484E+02  0.99999883576E+01 0.  0.
         12    1    3    3    0    0 -0.11529277361E+02 -0.36688660364E+02  0.23454883663E+02  0.45045683516E+02  0.00000000000E+00 0. -1.
         11    1    4    4    0    0  0.61501353088E+01  0.90574465279E+01 -0.57285179729E+01  0.12356270487E+02  0.51100000000E-03 0. -1.
        -11    1    4    4    0    0  0.37573276733E+01  0.11796193360E+02 -0.10790951003E+02  0.16422920351E+02  0.51100000000E-03 0.  1.
        -12    1    4    4    0    0  0.16218143790E+01  0.15835020475E+02 -0.69354146872E+01  0.17363125647E+02  0.00000000000E+00 0.  1.
</event>
<event>
 8    1  0.9117959E-009  0.9118800E+02  0.7816164E-02  0.1184000E+00
        -11   -1    0    0    0    0  0.00000000000E+00  0.00000000000E+00  0.45593999997E+02  0.45594000000E+02  0.51100000000E-03 0. -1.
         11   -1    0    0    0    0 -0.00000000000E+00 -0.00000000000E+00 -0.45593999997E+02  0.45594000000E+02  0.51100000000E-03 0.  1.
         23    2    1    2    0    0 -0.17763568394E-14 -0.17763568394E-14  0.71054273576E-14  0.91188000000E+02  0.91188000000E+02 0.  0.
    9900012    2    3    3    0    0  0.15907191942E+02  0.14531168572E+02 -0.39559055030E+02  0.46142329282E+02  0.10000105056E+02 0.  0.
         12    1    3    3    0    0 -0.15907191942E+02 -0.14531168572E+02  0.39559055030E+02  0.45045670718E+02  0.00000000000E+00 0. -1.
         11    1    4    4    0    0 -0.11908689163E+00  0.28316747347E+01 -0.81246363947E+01  0.86047824085E+01  0.51100000000E-03 0. -1.
        -11    1    4    4    0    0  0.88688273983E+01  0.62748158072E+01 -0.12368790480E+02  0.16462575467E+02  0.51100000000E-03 0.  1.
         12    1    4    4    0    0  0.71574514349E+01  0.54246780302E+01 -0.19065628156E+02  0.21074971406E+02  0.00000000000E+00 0. -1.
</event>
<event>
 8    1  0.9117959E-009  0.9118800E+02  0.7816164E-02  0.1184000E+00
        -11   -1    0    0    0    0  0.00000000000E+00  0.00000000000E+00  0.45593999997E+02  0.45594000000E+02  0.51100000000E-03 0.  1.
         11   -1    0    0    0    0 -0.00000000000E+00 -0.00000000000E+00 -0.45593999997E+02  0.45594000000E+02  0.51100000000E-03 0. -1.
         23    2    1    2    0    0  0.00000000000E+00  0.00000000000E+00  0.17763568394E-14  0.91188000000E+02  0.91188000000E+02 0.  0.
    9900012    2    3    3    0    0 -0.30685334016E+01 -0.44590990116E+02  0.55982802312E+01  0.46142322756E+02  0.10000045552E+02 0.  0.
         12    1    3    3    0    0  0.30685334016E+01  0.44590990116E+02 -0.55982802312E+01  0.45045677244E+02  0.00000000000E+00 0. -1.
         11    1    4    4    0    0 -0.74628015074E-01 -0.93996567967E+01 -0.26330743190E+01  0.97617722708E+01  0.51100000000E-03 0. -1.
        -11    1    4    4    0    0 -0.10213208754E+01 -0.36912180245E+01  0.32600126642E+00  0.38437564857E+01  0.51100000000E-03 0.  1.
         12    1    4    4    0    0 -0.19725845112E+01 -0.31500115295E+02  0.79053532838E+01  0.32536794000E+02  0.00000000000E+00 0. -1.
</event>
<event>
 8    1  0.9117959E-009  0.9118800E+02  0.7816164E-02  0.1184000E+00
        -11   -1    0    0    0    0  0.00000000000E+00  0.00000000000E+00  0.45593999997E+02  0.45594000000E+02  0.51100000000E-03 0. -1.
         11   -1    0    0    0    0 -0.00000000000E+00 -0.00000000000E+00 -0.45593999997E+02  0.45594000000E+02  0.51100000000E-03 0.  1.
         23    2    1    2    0    0 -0.17763568394E-14  0.00000000000E+00  0.00000000000E+00  0.91188000000E+02  0.91188000000E+02 0.  0.
    9900012    2    3    3    0    0 -0.12935886142E+02 -0.20551719601E+02 -0.37939466257E+02  0.46142318423E+02  0.10000006040E+02 0.  0.
         12    1    3    3    0    0  0.12935886142E+02  0.20551719601E+02  0.37939466257E+02  0.45045681577E+02  0.00000000000E+00 0. -1.
         11    1    4    4    0    0 -0.10484496652E+02 -0.17973319194E+02 -0.27975121752E+02  0.34865058586E+02  0.51100000000E-03 0.  1.
        -11    1    4    4    0    0 -0.19678799136E+01 -0.35818125392E+01 -0.69345911045E+01  0.80492537833E+01  0.51100000000E-03 0. -1.
         12    1    4    4    0    0 -0.48350957589E+00  0.10034121323E+01 -0.30297534007E+01  0.32280060542E+01  0.00000000000E+00 0. -1.
</event>
<event>
 8    1  0.9117959E-009  0.9118800E+02  0.7816164E-02  0.1184000E+00
        -11   -1    0    0    0    0  0.00000000000E+00  0.00000000000E+00  0.45593999997E+02  0.45594000000E+02  0.51100000000E-03 0. -1.
         11   -1    0    0    0    0 -0.00000000000E+00 -0.00000000000E+00 -0.45593999997E+02  0.45594000000E+02  0.51100000000E-03 0.  1.
         23    2    1    2    0    0 -0.17763568394E-14  0.35527136788E-14  0.00000000000E+00  0.91188000000E+02  0.91188000000E+02 0.  0.
    9900012    2    3    3    0    0 -0.14722203475E+02  0.20232064992E+02 -0.37457091943E+02  0.46142318011E+02  0.10000002278E+02 0.  0.
         12    1    3    3    0    0  0.14722203475E+02 -0.20232064992E+02  0.37457091943E+02  0.45045681989E+02  0.00000000000E+00 0. -1.
         11    1    4    4    0    0 -0.13464119425E+02  0.16683420755E+02 -0.29977278027E+02  0.36854528055E+02  0.51100000000E-03 0. -1.
        -11    1    4    4    0    0 -0.24196216010E+01  0.24863447133E+01 -0.31699250579E+01  0.46994578261E+01  0.51100000000E-03 0.  1.
         12    1    4    4    0    0  0.11615375511E+01  0.10622995236E+01 -0.43098888588E+01  0.45883321301E+01  0.00000000000E+00 0. -1.
</event>
<event>
 8    1  0.9117959E-009  0.9118800E+02  0.7816164E-02  0.1184000E+00
        -11   -1    0    0    0    0  0.00000000000E+00  0.00000000000E+00  0.45593999997E+02  0.45594000000E+02  0.51100000000E-03 0. -1.
         11   -1    0    0    0    0 -0.00000000000E+00 -0.00000000000E+00 -0.45593999997E+02  0.45594000000E+02  0.51100000000E-03 0.  1.
         23    2    1    2    0    0  0.00000000000E+00  0.00000000000E+00  0.35527136788E-14  0.91188000000E+02  0.91188000000E+02 0.  0.
    9900012    2    3    3    0    0  0.33177822369E+02  0.12213013159E+02 -0.27913937326E+02  0.46142317803E+02  0.10000000383E+02 0.  0.
         12    1    3    3    0    0 -0.33177822369E+02 -0.12213013159E+02  0.27913937326E+02  0.45045682197E+02  0.00000000000E+00 0. -1.
         11    1    4    4    0    0  0.34818022459E+01 -0.10824092240E+01 -0.74917632308E+00  0.37223409344E+01  0.51100000000E-03 0. -1.
        -11    1    4    4    0    0  0.17123323060E+02  0.70405045193E+01 -0.14635109129E+02  0.23600070254E+02  0.51100000000E-03 0.  1.
         12    1    4    4    0    0  0.12572697063E+02  0.62549178642E+01 -0.12529651873E+02  0.18819906615E+02  0.00000000000E+00 0. -1.
</event>
<event>
 8    1  0.9117959E-009  0.9118800E+02  0.7816164E-02  0.1184000E+00
        -11   -1    0    0    0    0  0.00000000000E+00  0.00000000000E+00  0.45593999997E+02  0.45594000000E+02  0.51100000000E-03 0. -1.
         11   -1    0    0    0    0 -0.00000000000E+00 -0.00000000000E+00 -0.45593999997E+02  0.45594000000E+02  0.51100000000E-03 0.  1.
         23    2    1    2    0    0 -0.35527136788E-14 -0.44408920985E-15  0.00000000000E+00  0.91188000000E+02  0.91188000000E+02 0.  0.
    9900012    2    3    3    0    0 -0.28792482081E+02 -0.18059755785E+01  0.34595447430E+02  0.46142317021E+02  0.99999932475E+01 0.  0.
        -12    1    3    3    0    0  0.28792482081E+02  0.18059755785E+01 -0.34595447430E+02  0.45045682979E+02  0.00000000000E+00 0.  1.
         11    1    4    4    0    0 -0.80211989678E+01 -0.57591240021E+00  0.13652190888E+02  0.15844671794E+02  0.51100000000E-03 0. -1.
        -11    1    4    4    0    0 -0.15006734845E+02 -0.36620382275E+01  0.13022317535E+02  0.20203795904E+02  0.51100000000E-03 0.  1.
        -12    1    4    4    0    0 -0.57645482681E+01  0.24319750493E+01  0.79209390076E+01  0.10093849322E+02  0.00000000000E+00 0.  1.
</event>
<event>
 8    1  0.9117959E-009  0.9118800E+02  0.7816164E-02  0.1184000E+00
        -11   -1    0    0    0    0  0.00000000000E+00  0.00000000000E+00  0.45593999997E+02  0.45594000000E+02  0.51100000000E-03 0.  1.
         11   -1    0    0    0    0 -0.00000000000E+00 -0.00000000000E+00 -0.45593999997E+02  0.45594000000E+02  0.51100000000E-03 0. -1.
         23    2    1    2    0    0  0.00000000000E+00  0.00000000000E+00  0.88817841970E-15  0.91188000000E+02  0.91188000000E+02 0.  0.
    9900012    2    3    3    0    0  0.40569072842E+02  0.18991821497E+02 -0.47512458265E+01  0.46142319941E+02  0.10000019878E+02 0.  0.
        -12    1    3    3    0    0 -0.40569072842E+02 -0.18991821497E+02  0.47512458265E+01  0.45045680059E+02  0.00000000000E+00 0.  1.
         11    1    4    4    0    0  0.14630666677E+02  0.98889044197E+01 -0.31773577932E+01  0.17942754550E+02  0.51100000000E-03 0. -1.
        -11    1    4    4    0    0  0.50797590057E+01  0.25288719028E+01 -0.27339926366E+01  0.62987189693E+01  0.51100000000E-03 0.  1.
         12    1    4    4    0    0  0.20858647159E+02  0.65740451745E+01  0.11601046032E+01  0.21900846421E+02  0.00000000000E+00 0. -1.
</event>
<event>
 8    1  0.9117959E-009  0.9118800E+02  0.7816164E-02  0.1184000E+00
        -11   -1    0    0    0    0  0.00000000000E+00  0.00000000000E+00  0.45593999997E+02  0.45594000000E+02  0.51100000000E-03 0. -1.
         11   -1    0    0    0    0 -0.00000000000E+00 -0.00000000000E+00 -0.45593999997E+02  0.45594000000E+02  0.51100000000E-03 0.  1.
         23    2    1    2    0    0 -0.11102230246E-15  0.35527136788E-14  0.00000000000E+00  0.91188000000E+02  0.91188000000E+02 0.  0.
    9900012    2    3    3    0    0 -0.17115810469E+00  0.28190730926E+02 -0.35133557366E+02  0.46142318093E+02  0.10000003028E+02 0.  0.
         12    1    3    3    0    0  0.17115810469E+00 -0.28190730926E+02  0.35133557366E+02  0.45045681907E+02  0.00000000000E+00 0. -1.
         11    1    4    4    0    0 -0.10259154226E+00  0.37639455645E-01 -0.40507007011E+00  0.41955187520E+00  0.51100000000E-03 0. -1.
        -11    1    4    4    0    0 -0.12412551503E+01  0.10583356930E+02 -0.20421422690E+02  0.23034380026E+02  0.51100000000E-03 0.  1.
        -12    1    4    4    0    0  0.11726885878E+01  0.17569734540E+02 -0.14307064607E+02  0.22688386192E+02  0.00000000000E+00 0.  1.
</event>
<event>
 8    1  0.9117959E-009  0.9118800E+02  0.7816164E-02  0.1184000E+00
        -11   -1    0    0    0    0  0.00000000000E+00  0.00000000000E+00  0.45593999997E+02  0.45594000000E+02  0.51100000000E-03 0. -1.
         11   -1    0    0    0    0 -0.00000000000E+00 -0.00000000000E+00 -0.45593999997E+02  0.45594000000E+02  0.51100000000E-03 0.  1.
         23    2    1    2    0    0  0.00000000000E+00  0.00000000000E+00  0.00000000000E+00  0.91188000000E+02  0.91188000000E+02 0.  0.
    9900012    2    3    3    0    0  0.10765027745E+02  0.27359648359E+02 -0.34127368288E+02  0.46142318221E+02  0.10000004196E+02 0.  0.
         12    1    3    3    0    0 -0.10765027745E+02 -0.27359648359E+02  0.34127368288E+02  0.45045681779E+02  0.00000000000E+00 0. -1.
         11    1    4    4    0    0  0.60619006923E+01  0.89118190554E+01 -0.92216669594E+01  0.14184720676E+02  0.51100000000E-03 0. -1.
        -11    1    4    4    0    0  0.57890827684E+01  0.11367198719E+02 -0.17481713518E+02  0.21641095023E+02  0.51100000000E-03 0.  1.
        -12    1    4    4    0    0 -0.10859557153E+01  0.70806305840E+01 -0.74239878108E+01  0.10316502523E+02  0.00000000000E+00 0.  1.
</event>
<event>
 8    1  0.9117959E-009  0.9118800E+02  0.7816164E-02  0.1184000E+00
        -11   -1    0    0    0    0  0.00000000000E+00  0.00000000000E+00  0.45593999997E+02  0.45594000000E+02  0.51100000000E-03 0. -1.
         11   -1    0    0    0    0 -0.00000000000E+00 -0.00000000000E+00 -0.45593999997E+02  0.45594000000E+02  0.51100000000E-03 0.  1.
         23    2    1    2    0    0 -0.66613381478E-15  0.00000000000E+00  0.71054273576E-14  0.91188000000E+02  0.91188000000E+02 0.  0.
    9900012    2    3    3    0    0 -0.11392457913E+01  0.14521283798E+02 -0.42625671661E+02  0.46142318202E+02  0.10000004017E+02 0.  0.
         12    1    3    3    0    0  0.11392457913E+01 -0.14521283798E+02  0.42625671661E+02  0.45045681798E+02  0.00000000000E+00 0. -1.
         11    1    4    4    0    0  0.32948504781E+01  0.65032454792E+01 -0.14756501711E+02  0.16459118580E+02  0.51100000000E-03 0. -1.
        -11    1    4    4    0    0  0.68297434116E+00  0.13380870262E+01 -0.21528679926E+01  0.26252184090E+01  0.51100000000E-03 0.  1.
        -12    1    4    4    0    0 -0.51170706105E+01  0.66799512922E+01 -0.25716301958E+02  0.27057981212E+02  0.00000000000E+00 0.  1.
</event>
<event>
 8    1  0.9117959E-009  0.9118800E+02  0.7816164E-02  0.1184000E+00
        -11   -1    0    0    0    0  0.00000000000E+00  0.00000000000E+00  0.45593999997E+02  0.45594000000E+02  0.51100000000E-03 0. -1.
         11   -1    0    0    0    0 -0.00000000000E+00 -0.00000000000E+00 -0.45593999997E+02  0.45594000000E+02  0.51100000000E-03 0.  1.
         23    2    1    2    0    0  0.00000000000E+00 -0.71054273576E-14 -0.35527136788E-14  0.91188000000E+02  0.91188000000E+02 0.  0.
    9900012    2    3    3    0    0  0.39893619437E+01 -0.41714819554E+02  0.16524899284E+02  0.46142317904E+02  0.10000001304E+02 0.  0.
        -12    1    3    3    0    0 -0.39893619437E+01  0.41714819554E+02 -0.16524899284E+02  0.45045682096E+02  0.00000000000E+00 0.  1.
         11    1    4    4    0    0  0.42725278742E-02  0.24675768006E+00 -0.34178659363E+00  0.42157554943E+00  0.51100000000E-03 0. -1.
        -11    1    4    4    0    0 -0.61772471510E+00 -0.21722702442E+02  0.90904382144E+01  0.23556176523E+02  0.51100000000E-03 0.  1.
         12    1    4    4    0    0  0.46028141309E+01 -0.20238874793E+02  0.77762476628E+01  0.22164565832E+02  0.00000000000E+00 0. -1.
</event>
<event>
 8    1  0.9117959E-009  0.9118800E+02  0.7816164E-02  0.1184000E+00
        -11   -1    0    0    0    0  0.00000000000E+00  0.00000000000E+00  0.45593999997E+02  0.45594000000E+02  0.51100000000E-03 0. -1.
         11   -1    0    0    0    0 -0.00000000000E+00 -0.00000000000E+00 -0.45593999997E+02  0.45594000000E+02  0.51100000000E-03 0.  1.
         23    2    1    2    0    0  0.00000000000E+00  0.00000000000E+00 -0.71054273576E-14  0.91188000000E+02  0.91188000000E+02 0.  0.
    9900012    2    3    3    0    0 -0.20499294059E+02 -0.22577939169E+02  0.33153116090E+02  0.46142317626E+02  0.99999987715E+01 0.  0.
        -12    1    3    3    0    0  0.20499294059E+02  0.22577939169E+02 -0.33153116090E+02  0.45045682374E+02  0.00000000000E+00 0.  1.
         11    1    4    4    0    0 -0.10814896464E+02 -0.11076724763E+02  0.10747237749E+02  0.18845660946E+02  0.51100000000E-03 0. -1.
        -11    1    4    4    0    0 -0.86911340435E+01 -0.97071010520E+01  0.16371992075E+02  0.20923808128E+02  0.51100000000E-03 0.  1.
        -12    1    4    4    0    0 -0.99326355219E+00 -0.17941133538E+01  0.60338862655E+01  0.63728485527E+01  0.00000000000E+00 0.  1.
</event>
<event>
 8    1  0.9117959E-009  0.9118800E+02  0.7816164E-02  0.1184000E+00
        -11   -1    0    0    0    0  0.00000000000E+00  0.00000000000E+00  0.45593999997E+02  0.45594000000E+02  0.51100000000E-03 0. -1.
         11   -1    0    0    0    0 -0.00000000000E+00 -0.00000000000E+00 -0.45593999997E+02  0.45594000000E+02  0.51100000000E-03 0.  1.
         23    2    1    2    0    0  0.71054273576E-14 -0.17763568394E-14  0.00000000000E+00  0.91188000000E+02  0.91188000000E+02 0.  0.
    9900012    2    3    3    0    0 -0.32581710474E+02  0.74594184187E+01  0.30197731583E+02  0.46142314599E+02  0.99999711615E+01 0.  0.
        -12    1    3    3    0    0  0.32581710474E+02 -0.74594184187E+01 -0.30197731583E+02  0.45045685401E+02  0.00000000000E+00 0.  1.
         11    1    4    4    0    0 -0.20651234526E+02  0.32328713084E+01  0.18006395018E+02  0.27589041414E+02  0.51100000000E-03 0. -1.
        -11    1    4    4    0    0 -0.51408420986E+01 -0.97115554763E+00  0.31401486600E+01  0.61017976408E+01  0.51100000000E-03 0.  1.
        -12    1    4    4    0    0 -0.67896338487E+01  0.51977026580E+01  0.90511879052E+01  0.12451475544E+02  0.00000000000E+00 0.  1.
</event>
<event>
 8    1  0.9117959E-009  0.9118800E+02  0.7816164E-02  0.1184000E+00
        -11   -1    0    0    0    0  0.00000000000E+00  0.00000000000E+00  0.45593999997E+02  0.45594000000E+02  0.51100000000E-03 0. -1.
         11   -1    0    0    0    0 -0.00000000000E+00 -0.00000000000E+00 -0.45593999997E+02  0.45594000000E+02  0.51100000000E-03 0.  1.
         23    2    1    2    0    0  0.00000000000E+00  0.00000000000E+00  0.00000000000E+00  0.91188000000E+02  0.91188000000E+02 0.  0.
    9900012    2    3    3    0    0  0.36098896818E+02  0.20220602699E+02 -0.17807595724E+02  0.46142316628E+02  0.99999896671E+01 0.  0.
         12    1    3    3    0    0 -0.36098896818E+02 -0.20220602699E+02  0.17807595724E+02  0.45045683372E+02  0.00000000000E+00 0. -1.
         11    1    4    4    0    0 -0.24710548357E+00 -0.19717050081E+00  0.29350949801E+00  0.43137618495E+00  0.51100000000E-03 0. -1.
        -11    1    4    4    0    0  0.98834116768E+01  0.31724661940E+01 -0.48707862401E+01  0.11466077227E+02  0.51100000000E-03 0.  1.
        -12    1    4    4    0    0  0.26462590625E+02  0.17245307006E+02 -0.13230318982E+02  0.34244863216E+02  0.00000000000E+00 0.  1.
</event>
<event>
 8    1  0.9117959E-009  0.9118800E+02  0.7816164E-02  0.1184000E+00
        -11   -1    0    0    0    0  0.00000000000E+00  0.00000000000E+00  0.45593999997E+02  0.45594000000E+02  0.51100000000E-03 0. -1.
         11   -1    0    0    0    0 -0.00000000000E+00 -0.00000000000E+00 -0.45593999997E+02  0.45594000000E+02  0.51100000000E-03 0.  1.
         23    2    1    2    0    0  0.00000000000E+00  0.00000000000E+00  0.35527136788E-14  0.91188000000E+02  0.91188000000E+02 0.  0.
    9900012    2    3    3    0    0  0.21175488114E+02 -0.33378784777E+02  0.21600206277E+02  0.46142317840E+02  0.10000000718E+02 0.  0.
        -12    1    3    3    0    0 -0.21175488114E+02  0.33378784777E+02 -0.21600206277E+02  0.45045682160E+02  0.00000000000E+00 0.  1.
         11    1    4    4    0    0  0.10867159122E+01 -0.24839537322E+01  0.29649095181E+01  0.40176692658E+01  0.51100000000E-03 0. -1.
        -11    1    4    4    0    0  0.94435184817E+01 -0.74641062098E+01  0.55979026598E+01  0.13275143588E+02  0.51100000000E-03 0.  1.
        -12    1    4    4    0    0  0.10645253720E+02 -0.23430724835E+02  0.13037394099E+02  0.28849504986E+02  0.00000000000E+00 0.  1.
</event>
<event>
 8    1  0.9117959E-009  0.9118800E+02  0.7816164E-02  0.1184000E+00
        -11   -1    0    0    0    0  0.00000000000E+00  0.00000000000E+00  0.45593999997E+02  0.45594000000E+02  0.51100000000E-03 0. -1.
         11   -1    0    0    0    0 -0.00000000000E+00 -0.00000000000E+00 -0.45593999997E+02  0.45594000000E+02  0.51100000000E-03 0.  1.
         23    2    1    2    0    0 -0.88817841970E-15  0.00000000000E+00  0.71054273576E-14  0.91188000000E+02  0.91188000000E+02 0.  0.
    9900012    2    3    3    0    0  0.45891352956E+01 -0.98173108160E+01  0.43722693581E+02  0.46142315540E+02  0.99999797497E+01 0.  0.
        -12    1    3    3    0    0 -0.45891352956E+01  0.98173108160E+01 -0.43722693581E+02  0.45045684460E+02  0.00000000000E+00 0.  1.
         11    1    4    4    0    0  0.24794197645E+01 -0.36306743660E+01  0.16374680406E+02  0.16954629968E+02  0.51100000000E-03 0. -1.
        -11    1    4    4    0    0 -0.10688643198E+01 -0.44225954451E+01  0.59878264026E+01  0.75203647979E+01  0.51100000000E-03 0.  1.
         12    1    4    4    0    0  0.31785798509E+01 -0.17640410048E+01  0.21360186773E+02  0.21667320774E+02  0.00000000000E+00 0. -1.
</event>
<event>
 8    1  0.9117959E-009  0.9118800E+02  0.7816164E-02  0.1184000E+00
        -11   -1    0    0    0    0  0.00000000000E+00  0.00000000000E+00  0.45593999997E+02  0.45594000000E+02  0.51100000000E-03 0.  1.
         11   -1    0    0    0    0 -0.00000000000E+00 -0.00000000000E+00 -0.45593999997E+02  0.45594000000E+02  0.51100000000E-03 0. -1.
         23    2    1    2    0    0  0.00000000000E+00 -0.88817841970E-15  0.27755575616E-16  0.91188000000E+02  0.91188000000E+02 0.  0.
    9900012    2    3    3    0    0  0.44538865020E+02 -0.67366567822E+01 -0.14303923028E+00  0.46142317608E+02  0.99999986083E+01 0.  0.
        -12    1    3    3    0    0 -0.44538865020E+02  0.67366567822E+01  0.14303923028E+00  0.45045682392E+02  0.00000000000E+00 0.  1.
         11    1    4    4    0    0  0.31568162500E+02 -0.22987906516E+01  0.85063110290E+00  0.31663178862E+02  0.51100000000E-03 0. -1.
        -11    1    4    4    0    0  0.73207331750E+01 -0.16815417571E+00 -0.10466810251E+01  0.73970907441E+01  0.51100000000E-03 0.  1.
         12    1    4    4    0    0  0.56499693450E+01 -0.42697119549E+01  0.53010691941E-01  0.70820480026E+01  0.00000000000E+00 0. -1.
</event>
<event>
 8    1  0.9117959E-009  0.9118800E+02  0.7816164E-02  0.1184000E+00
        -11   -1    0    0    0    0  0.00000000000E+00  0.00000000000E+00  0.45593999997E+02  0.45594000000E+02  0.51100000000E-03 0. -1.
         11   -1    0    0    0    0 -0.00000000000E+00 -0.00000000000E+00 -0.45593999997E+02  0.45594000000E+02  0.51100000000E-03 0.  1.
         23    2    1    2    0    0  0.17763568394E-14  0.00000000000E+00  0.00000000000E+00  0.91188000000E+02  0.91188000000E+02 0.  0.
    9900012    2    3    3    0    0 -0.10405946624E+02  0.37201238695E+02  0.23171051230E+02  0.46142317625E+02  0.99999987566E+01 0.  0.
        -12    1    3    3    0    0  0.10405946624E+02 -0.37201238695E+02 -0.23171051230E+02  0.45045682375E+02  0.00000000000E+00 0.  1.
         11    1    4    4    0    0 -0.56789339063E+01  0.98228389161E+01  0.47756865375E+01  0.12310387356E+02  0.51100000000E-03 0. -1.
        -11    1    4    4    0    0  0.13515370381E+01  0.48019742708E+01  0.37845389827E+01  0.62616567165E+01  0.51100000000E-03 0.  1.
         12    1    4    4    0    0 -0.60785497555E+01  0.22576425508E+02  0.14610825710E+02  0.27570273552E+02  0.00000000000E+00 0. -1.
</event>
<event>
 8    1  0.9117959E-009  0.9118800E+02  0.7816164E-02  0.1184000E+00
        -11   -1    0    0    0    0  0.00000000000E+00  0.00000000000E+00  0.45593999997E+02  0.45594000000E+02  0.51100000000E-03 0. -1.
         11   -1    0    0    0    0 -0.00000000000E+00 -0.00000000000E+00 -0.45593999997E+02  0.45594000000E+02  0.51100000000E-03 0.  1.
         23    2    1    2    0    0  0.00000000000E+00 -0.17763568394E-14  0.00000000000E+00  0.91188000000E+02  0.91188000000E+02 0.  0.
    9900012    2    3    3    0    0  0.92683365020E+01  0.12561284167E+02 -0.42254294321E+02  0.46142319741E+02  0.10000018053E+02 0.  0.
         12    1    3    3    0    0 -0.92683365020E+01 -0.12561284167E+02  0.42254294321E+02  0.45045680259E+02  0.00000000000E+00 0. -1.
         11    1    4    4    0    0  0.46180983415E+01  0.23692093851E+01 -0.83890378289E+01  0.98648842547E+01  0.51100000000E-03 0. -1.
        -11    1    4    4    0    0  0.30015486950E+01  0.97560991499E+01 -0.21556099194E+02  0.23850706026E+02  0.51100000000E-03 0.  1.
         12    1    4    4    0    0  0.16486894656E+01  0.43597563235E+00 -0.12309157298E+02  0.12426729460E+02  0.00000000000E+00 0. -1.
</event>
<event>
 8    1  0.9117959E-009  0.9118800E+02  0.7816164E-02  0.1184000E+00
        -11   -1    0    0    0    0  0.00000000000E+00  0.00000000000E+00  0.45593999997E+02  0.45594000000E+02  0.51100000000E-03 0. -1.
         11   -1    0    0    0    0 -0.00000000000E+00 -0.00000000000E+00 -0.45593999997E+02  0.45594000000E+02  0.51100000000E-03 0.  1.
         23    2    1    2    0    0  0.00000000000E+00 -0.88817841970E-15  0.35527136788E-14  0.91188000000E+02  0.91188000000E+02 0.  0.
    9900012    2    3    3    0    0  0.35873333436E+02 -0.37830748053E+01  0.26979729170E+02  0.46142317711E+02  0.99999995432E+01 0.  0.
        -12    1    3    3    0    0 -0.35873333436E+02  0.37830748053E+01 -0.26979729170E+02  0.45045682289E+02  0.00000000000E+00 0.  1.
         11    1    4    4    0    0  0.14278920154E+02 -0.19798418188E+01  0.14992626879E+02  0.20798706580E+02  0.51100000000E-03 0. -1.
        -11    1    4    4    0    0  0.11890207005E+02 -0.30576075140E+01  0.85979380917E+01  0.14988346340E+02  0.51100000000E-03 0.  1.
        -12    1    4    4    0    0  0.97042062769E+01  0.12543745274E+01  0.33891641994E+01  0.10355264791E+02  0.00000000000E+00 0.  1.
</event>
<event>
 8    1  0.9117959E-009  0.9118800E+02  0.7816164E-02  0.1184000E+00
        -11   -1    0    0    0    0  0.00000000000E+00  0.00000000000E+00  0.45593999997E+02  0.45594000000E+02  0.51100000000E-03 0. -1.
         11   -1    0    0    0    0 -0.00000000000E+00 -0.00000000000E+00 -0.45593999997E+02  0.45594000000E+02  0.51100000000E-03 0.  1.
         23    2    1    2    0    0 -0.17763568394E-14 -0.17763568394E-14  0.71054273576E-14  0.91188000000E+02  0.91188000000E+02 0.  0.
    9900012    2    3    3    0    0  0.10935759487E+02  0.88772636267E+01 -0.42786876765E+02  0.46142317984E+02  0.10000002029E+02 0.  0.
         12    1    3    3    0    0 -0.10935759487E+02 -0.88772636267E+01  0.42786876765E+02  0.45045682016E+02  0.00000000000E+00 0. -1.
         11    1    4    4    0    0  0.35993849439E+01  0.60095557465E+01 -0.17771805720E+02  0.19102549858E+02  0.51100000000E-03 0. -1.
        -11    1    4    4    0    0 -0.10140467719E+01  0.13761034351E+01 -0.55350203742E+01  0.57929614467E+01  0.51100000000E-03 0.  1.
         12    1    4    4    0    0  0.83504213147E+01  0.14916044450E+01 -0.19480050670E+02  0.21246806679E+02  0.00000000000E+00 0. -1.
</event>
<event>
 8    1  0.9117959E-009  0.9118800E+02  0.7816164E-02  0.1184000E+00
        -11   -1    0    0    0    0  0.00000000000E+00  0.00000000000E+00  0.45593999997E+02  0.45594000000E+02  0.51100000000E-03 0. -1.
         11   -1    0    0    0    0 -0.00000000000E+00 -0.00000000000E+00 -0.45593999997E+02  0.45594000000E+02  0.51100000000E-03 0.  1.
         23    2    1    2    0    0  0.00000000000E+00  0.00000000000E+00  0.00000000000E+00  0.91188000000E+02  0.91188000000E+02 0.  0.
    9900012    2    3    3    0    0 -0.80655010349E+01  0.40995692584E+01 -0.44127709183E+02  0.46142317712E+02  0.99999995553E+01 0.  0.
         12    1    3    3    0    0  0.80655010349E+01 -0.40995692584E+01  0.44127709183E+02  0.45045682288E+02  0.00000000000E+00 0. -1.
         11    1    4    4    0    0 -0.27279280942E+01  0.30780331409E+00 -0.26578756468E+01  0.38210780916E+01  0.51100000000E-03 0. -1.
        -11    1    4    4    0    0 -0.73792463074E+00  0.37290694054E+01 -0.16616377038E+02  0.17045658612E+02  0.51100000000E-03 0.  1.
         12    1    4    4    0    0 -0.45996483100E+01  0.62696538993E-01 -0.24853456498E+02  0.25275581008E+02  0.00000000000E+00 0. -1.
</event>
<event>
 8    1  0.9117959E-009  0.9118800E+02  0.7816164E-02  0.1184000E+00
        -11   -1    0    0    0    0  0.00000000000E+00  0.00000000000E+00  0.45593999997E+02  0.45594000000E+02  0.51100000000E-03 0. -1.
         11   -1    0    0    0    0 -0.00000000000E+00 -0.00000000000E+00 -0.45593999997E+02  0.45594000000E+02  0.51100000000E-03 0.  1.
         23    2    1    2    0    0  0.00000000000E+00  0.00000000000E+00  0.00000000000E+00  0.91188000000E+02  0.91188000000E+02 0.  0.
    9900012    2    3    3    0    0 -0.10097350599E+02 -0.28672397487E+02  0.33242303445E+02  0.46142316465E+02  0.99999881815E+01 0.  0.
        -12    1    3    3    0    0  0.10097350599E+02  0.28672397487E+02 -0.33242303445E+02  0.45045683535E+02  0.00000000000E+00 0.  1.
         11    1    4    4    0    0 -0.20361029718E+01 -0.13713586580E+01  0.37019406615E+01  0.44419257989E+01  0.51100000000E-03 0. -1.
        -11    1    4    4    0    0  0.96621143255E+00 -0.71184241681E+01  0.90632165717E+01  0.11564922051E+02  0.51100000000E-03 0.  1.
        -12    1    4    4    0    0 -0.90274590601E+01 -0.20182614661E+02  0.20477146212E+02  0.30135468615E+02  0.00000000000E+00 0.  1.
</event>
<event>
 8    1  0.9117959E-009  0.9118800E+02  0.7816164E-02  0.1184000E+00
        -11   -1    0    0    0    0  0.00000000000E+00  0.00000000000E+00  0.45593999997E+02  0.45594000000E+02  0.51100000000E-03 0. -1.
         11   -1    0    0    0    0 -0.00000000000E+00 -0.00000000000E+00 -0.45593999997E+02  0.45594000000E+02  0.51100000000E-03 0.  1.
         23    2    1    2    0    0  0.35527136788E-14  0.00000000000E+00  0.00000000000E+00  0.91188000000E+02  0.91188000000E+02 0.  0.
    9900012    2    3    3    0    0 -0.19032683116E+02 -0.32044727263E+02 -0.25298310805E+02  0.46142333155E+02  0.10000140374E+02 0.  0.
         12    1    3    3    0    0  0.19032683116E+02  0.32044727263E+02  0.25298310805E+02  0.45045666845E+02  0.00000000000E+00 0. -1.
         11    1    4    4    0    0 -0.10415968446E+02 -0.16679927673E+02 -0.13432067338E+02  0.23814550575E+02  0.51100000000E-03 0. -1.
        -11    1    4    4    0    0 -0.95655066200E+01 -0.14224157911E+02 -0.11859634456E+02  0.20844100241E+02  0.51100000000E-03 0.  1.
         12    1    4    4    0    0  0.94879195010E+00 -0.11406416785E+01 -0.66090103365E-02  0.14836823388E+01  0.00000000000E+00 0. -1.
</event>
<event>
 8    1  0.9117959E-009  0.9118800E+02  0.7816164E-02  0.1184000E+00
        -11   -1    0    0    0    0  0.00000000000E+00  0.00000000000E+00  0.45593999997E+02  0.45594000000E+02  0.51100000000E-03 0. -1.
         11   -1    0    0    0    0 -0.00000000000E+00 -0.00000000000E+00 -0.45593999997E+02  0.45594000000E+02  0.51100000000E-03 0.  1.
         23    2    1    2    0    0  0.00000000000E+00  0.00000000000E+00 -0.71054273576E-14  0.91188000000E+02  0.91188000000E+02 0.  0.
    9900012    2    3    3    0    0  0.44348773059E+01  0.27335550188E+01 -0.44743413849E+02  0.46142317159E+02  0.99999945065E+01 0.  0.
         12    1    3    3    0    0 -0.44348773059E+01 -0.27335550188E+01  0.44743413849E+02  0.45045682841E+02  0.00000000000E+00 0. -1.
         11    1    4    4    0    0 -0.22132273329E+01  0.23884755754E+01 -0.19441915929E+02  0.19712718890E+02  0.51100000000E-03 0. -1.
        -11    1    4    4    0    0  0.12404479006E+01  0.11237051131E+01 -0.10878426564E+02  0.11006433979E+02  0.51100000000E-03 0.  1.
        -12    1    4    4    0    0  0.54076567383E+01 -0.77862566978E+00 -0.14423071357E+02  0.15423164289E+02  0.00000000000E+00 0.  1.
</event>
<event>
 8    1  0.9117959E-009  0.9118800E+02  0.7816164E-02  0.1184000E+00
        -11   -1    0    0    0    0  0.00000000000E+00  0.00000000000E+00  0.45593999997E+02  0.45594000000E+02  0.51100000000E-03 0. -1.
         11   -1    0    0    0    0 -0.00000000000E+00 -0.00000000000E+00 -0.45593999997E+02  0.45594000000E+02  0.51100000000E-03 0.  1.
         23    2    1    2    0    0  0.00000000000E+00  0.00000000000E+00  0.00000000000E+00  0.91188000000E+02  0.91188000000E+02 0.  0.
    9900012    2    3    3    0    0  0.64508017367E+01 -0.19266386588E+01 -0.44539742063E+02  0.46142318713E+02  0.10000008676E+02 0.  0.
         12    1    3    3    0    0 -0.64508017367E+01  0.19266386588E+01  0.44539742063E+02  0.45045681287E+02  0.00000000000E+00 0. -1.
         11    1    4    4    0    0  0.23671986935E+01 -0.28919497111E+01 -0.45778550950E+01  0.59096328412E+01  0.51100000000E-03 0. -1.
        -11    1    4    4    0    0  0.23459348633E+01  0.61428880330E+00 -0.13850694020E+02  0.14061382798E+02  0.51100000000E-03 0.  1.
         12    1    4    4    0    0  0.17376681798E+01  0.35102224896E+00 -0.26111192949E+02  0.26171303073E+02  0.00000000000E+00 0. -1.
</event>
<event>
 8    1  0.9117959E-009  0.9118800E+02  0.7816164E-02  0.1184000E+00
        -11   -1    0    0    0    0  0.00000000000E+00  0.00000000000E+00  0.45593999997E+02  0.45594000000E+02  0.51100000000E-03 0. -1.
         11   -1    0    0    0    0 -0.00000000000E+00 -0.00000000000E+00 -0.45593999997E+02  0.45594000000E+02  0.51100000000E-03 0.  1.
         23    2    1    2    0    0 -0.88817841970E-15  0.71054273576E-14 -0.35527136788E-14  0.91188000000E+02  0.91188000000E+02 0.  0.
    9900012    2    3    3    0    0 -0.73174733338E+01 -0.37159605426E+02 -0.24387125429E+02  0.46142316765E+02  0.99999909196E+01 0.  0.
         12    1    3    3    0    0  0.73174733338E+01  0.37159605426E+02  0.24387125429E+02  0.45045683235E+02  0.00000000000E+00 0. -1.
         11    1    4    4    0    0  0.98993965836E+00 -0.14561206119E+01 -0.32666157893E+01  0.37109361002E+01  0.51100000000E-03 0. -1.
        -11    1    4    4    0    0 -0.39516736559E-01 -0.50282759433E+01 -0.26978698102E+01  0.57064544429E+01  0.51100000000E-03 0.  1.
        -12    1    4    4    0    0 -0.82678962556E+01 -0.30675208871E+02 -0.18422639829E+02  0.36724926222E+02  0.00000000000E+00 0.  1.
</event>
<event>
 8    1  0.9117959E-009  0.9118800E+02  0.7816164E-02  0.1184000E+00
        -11   -1    0    0    0    0  0.00000000000E+00  0.00000000000E+00  0.45593999997E+02  0.45594000000E+02  0.51100000000E-03 0. -1.
         11   -1    0    0    0    0 -0.00000000000E+00 -0.00000000000E+00 -0.45593999997E+02  0.45594000000E+02  0.51100000000E-03 0.  1.
         23    2    1    2    0    0  0.88817841970E-15 -0.88817841970E-15 -0.71054273576E-14  0.91188000000E+02  0.91188000000E+02 0.  0.
    9900012    2    3    3    0    0 -0.55671849582E+01  0.71568743214E+01  0.44123675887E+02  0.46142321271E+02  0.10000032002E+02 0.  0.
        -12    1    3    3    0    0  0.55671849582E+01 -0.71568743214E+01 -0.44123675887E+02  0.45045678729E+02  0.00000000000E+00 0.  1.
         11    1    4    4    0    0  0.20428883667E+01  0.69753150296E+00  0.10314242062E+02  0.10537719518E+02  0.51100000000E-03 0. -1.
        -11    1    4    4    0    0 -0.64629991379E+01  0.33584704228E+01  0.17357178253E+02  0.18823424731E+02  0.51100000000E-03 0.  1.
        -12    1    4    4    0    0 -0.11470741870E+01  0.31008723957E+01  0.16452255572E+02  0.16781177021E+02  0.00000000000E+00 0.  1.
</event>
<event>
 8    1  0.9117959E-009  0.9118800E+02  0.7816164E-02  0.1184000E+00
        -11   -1    0    0    0    0  0.00000000000E+00  0.00000000000E+00  0.45593999997E+02  0.45594000000E+02  0.51100000000E-03 0. -1.
         11   -1    0    0    0    0 -0.00000000000E+00 -0.00000000000E+00 -0.45593999997E+02  0.45594000000E+02  0.51100000000E-03 0.  1.
         23    2    1    2    0    0  0.00000000000E+00  0.00000000000E+00  0.00000000000E+00  0.91188000000E+02  0.91188000000E+02 0.  0.
    9900012    2    3    3    0    0  0.73570919687E+01 -0.18371233854E+02  0.40465844985E+02  0.46142316013E+02  0.99999840555E+01 0.  0.
        -12    1    3    3    0    0 -0.73570919687E+01  0.18371233854E+02 -0.40465844985E+02  0.45045683987E+02  0.00000000000E+00 0.  1.
         11    1    4    4    0    0  0.38712819495E+01 -0.12815552112E+02  0.23074336453E+02  0.26676772723E+02  0.51100000000E-03 0. -1.
        -11    1    4    4    0    0  0.11680929800E+01 -0.56575218754E+01  0.85063895427E+01  0.10282541432E+02  0.51100000000E-03 0.  1.
        -12    1    4    4    0    0  0.23177170392E+01  0.10184013320E+00  0.88851189886E+01  0.91830018582E+01  0.00000000000E+00 0.  1.
</event>
<event>
 8    1  0.9117959E-009  0.9118800E+02  0.7816164E-02  0.1184000E+00
        -11   -1    0    0    0    0  0.00000000000E+00  0.00000000000E+00  0.45593999997E+02  0.45594000000E+02  0.51100000000E-03 0. -1.
         11   -1    0    0    0    0 -0.00000000000E+00 -0.00000000000E+00 -0.45593999997E+02  0.45594000000E+02  0.51100000000E-03 0.  1.
         23    2    1    2    0    0  0.00000000000E+00 -0.71054273576E-14  0.00000000000E+00  0.91188000000E+02  0.91188000000E+02 0.  0.
    9900012    2    3    3    0    0 -0.28782304397E+02  0.31275621908E+02  0.14917372536E+02  0.46142316794E+02  0.99999911767E+01 0.  0.
        -12    1    3    3    0    0  0.28782304397E+02 -0.31275621908E+02 -0.14917372536E+02  0.45045683206E+02  0.00000000000E+00 0.  1.
         11    1    4    4    0    0 -0.51224124973E+01  0.57587669680E+01  0.17319922830E+01  0.78995129162E+01  0.51100000000E-03 0. -1.
        -11    1    4    4    0    0 -0.86133090398E+00 -0.70260630186E+00  0.10335830243E+00  0.11163466045E+01  0.51100000000E-03 0.  1.
         12    1    4    4    0    0 -0.22798560996E+02  0.26219461242E+02  0.13082021951E+02  0.37126457273E+02  0.00000000000E+00 0. -1.
</event>
<event>
 8    1  0.9117959E-009  0.9118800E+02  0.7816164E-02  0.1184000E+00
        -11   -1    0    0    0    0  0.00000000000E+00  0.00000000000E+00  0.45593999997E+02  0.45594000000E+02  0.51100000000E-03 0. -1.
         11   -1    0    0    0    0 -0.00000000000E+00 -0.00000000000E+00 -0.45593999997E+02  0.45594000000E+02  0.51100000000E-03 0.  1.
         23    2    1    2    0    0  0.00000000000E+00  0.00000000000E+00  0.00000000000E+00  0.91188000000E+02  0.91188000000E+02 0.  0.
    9900012    2    3    3    0    0 -0.12939875465E+02 -0.28567282887E+02 -0.32335483343E+02  0.46142317503E+02  0.99999976432E+01 0.  0.
         12    1    3    3    0    0  0.12939875465E+02  0.28567282887E+02  0.32335483343E+02  0.45045682497E+02  0.00000000000E+00 0. -1.
         11    1    4    4    0    0 -0.91084638169E+01 -0.17363427839E+02 -0.18742422961E+02  0.27124364659E+02  0.51100000000E-03 0. -1.
        -11    1    4    4    0    0 -0.36248620387E+01 -0.10116378926E+02 -0.82133018715E+01  0.13525497228E+02  0.51100000000E-03 0.  1.
        -12    1    4    4    0    0 -0.20654960920E+00 -0.10874761221E+01 -0.53797585107E+01  0.54924556157E+01  0.00000000000E+00 0.  1.
</event>
<event>
 8    1  0.9117959E-009  0.9118800E+02  0.7816164E-02  0.1184000E+00
        -11   -1    0    0    0    0  0.00000000000E+00  0.00000000000E+00  0.45593999997E+02  0.45594000000E+02  0.51100000000E-03 0. -1.
         11   -1    0    0    0    0 -0.00000000000E+00 -0.00000000000E+00 -0.45593999997E+02  0.45594000000E+02  0.51100000000E-03 0.  1.
         23    2    1    2    0    0  0.35527136788E-14  0.17763568394E-14 -0.71054273576E-14  0.91188000000E+02  0.91188000000E+02 0.  0.
    9900012    2    3    3    0    0  0.18443012652E+02  0.13786575922E+02 -0.38715617337E+02  0.46142318552E+02  0.10000007208E+02 0.  0.
         12    1    3    3    0    0 -0.18443012652E+02 -0.13786575922E+02  0.38715617337E+02  0.45045681448E+02  0.00000000000E+00 0. -1.
         11    1    4    4    0    0  0.10588145837E+02  0.53185451810E+01 -0.13571065482E+02  0.18015814544E+02  0.51100000000E-03 0. -1.
        -11    1    4    4    0    0  0.33024536640E+01  0.69374182065E+01 -0.13554151497E+02  0.15580404187E+02  0.51100000000E-03 0.  1.
         12    1    4    4    0    0  0.45524131507E+01  0.15306125347E+01 -0.11590400359E+02  0.12546099821E+02  0.00000000000E+00 0. -1.
</event>
<event>
 8    1  0.9117959E-009  0.9118800E+02  0.7816164E-02  0.1184000E+00
        -11   -1    0    0    0    0  0.00000000000E+00  0.00000000000E+00  0.45593999997E+02  0.45594000000E+02  0.51100000000E-03 0. -1.
         11   -1    0    0    0    0 -0.00000000000E+00 -0.00000000000E+00 -0.45593999997E+02  0.45594000000E+02  0.51100000000E-03 0.  1.
         23    2    1    2    0    0  0.00000000000E+00  0.00000000000E+00  0.00000000000E+00  0.91188000000E+02  0.91188000000E+02 0.  0.
    9900012    2    3    3    0    0 -0.38699120349E+02  0.15581792820E+02 -0.16991150559E+02  0.46142318958E+02  0.10000010914E+02 0.  0.
         12    1    3    3    0    0  0.38699120349E+02 -0.15581792820E+02  0.16991150559E+02  0.45045681042E+02  0.00000000000E+00 0. -1.
         11    1    4    4    0    0 -0.60373098895E+01  0.20910076275E+01 -0.47978572975E+01  0.79900474660E+01  0.51100000000E-03 0. -1.
        -11    1    4    4    0    0 -0.39420929402E+01  0.46270235639E+01 -0.16259506633E+01  0.62923095625E+01  0.51100000000E-03 0.  1.
        -12    1    4    4    0    0 -0.28719717519E+02  0.88637616283E+01 -0.10567342598E+02  0.31859961929E+02  0.00000000000E+00 0.  1.
</event>
<event>
 8    1  0.9117959E-009  0.9118800E+02  0.7816164E-02  0.1184000E+00
        -11   -1    0    0    0    0  0.00000000000E+00  0.00000000000E+00  0.45593999997E+02  0.45594000000E+02  0.51100000000E-03 0. -1.
         11   -1    0    0    0    0 -0.00000000000E+00 -0.00000000000E+00 -0.45593999997E+02  0.45594000000E+02  0.51100000000E-03 0.  1.
         23    2    1    2    0    0  0.17763568394E-14  0.00000000000E+00  0.35527136788E-14  0.91188000000E+02  0.91188000000E+02 0.  0.
    9900012    2    3    3    0    0 -0.15964640796E+02 -0.28082843315E+02  0.31394227639E+02  0.46142319037E+02  0.10000011631E+02 0.  0.
        -12    1    3    3    0    0  0.15964640796E+02  0.28082843315E+02 -0.31394227639E+02  0.45045680963E+02  0.00000000000E+00 0.  1.
         11    1    4    4    0    0 -0.15679518724E+02 -0.20873998608E+02  0.25492403601E+02  0.36488817012E+02  0.51100000000E-03 0. -1.
        -11    1    4    4    0    0  0.66841340896E+00 -0.23429029152E+01  0.31510730570E+01  0.39831184049E+01  0.51100000000E-03 0.  1.
         12    1    4    4    0    0 -0.95353548084E+00 -0.48659417922E+01  0.27507509809E+01  0.56703836199E+01  0.00000000000E+00 0. -1.
</event>
<event>
 8    1  0.1120056E-008  0.9118800E+02  0.7816164E-02  0.1184000E+00
        -11   -1    0    0    0    0  0.00000000000E+00  0.00000000000E+00  0.45593999997E+02  0.45594000000E+02  0.51100000000E-03 0. -1.
         11   -1    0    0    0    0 -0.00000000000E+00 -0.00000000000E+00 -0.45593999997E+02  0.45594000000E+02  0.51100000000E-03 0.  1.
         23    2    1    2    0    0  0.00000000000E+00  0.00000000000E+00  0.00000000000E+00  0.91188000000E+02  0.91188000000E+02 0.  0.
    9900012    2    3    3    0    0  0.17641714193E+02 -0.15411650832E+02  0.38475504823E+02  0.46142317272E+02  0.99999955444E+01 0.  0.
        -12    1    3    3    0    0 -0.17641714193E+02  0.15411650832E+02 -0.38475504823E+02  0.45045682728E+02  0.00000000000E+00 0.  1.
         11    1    4    4    0    0  0.91048890460E+01 -0.92434747296E+01  0.27915543326E+02  0.30783410940E+02  0.51100000000E-03 0. -1.
        -11    1    4    4    0    0  0.18743922276E+00 -0.16287833587E+01  0.13343249733E+01  0.21138808120E+01  0.51100000000E-03 0.  1.
         12    1    4    4    0    0  0.83493859243E+01 -0.45393927438E+01  0.92256365229E+01  0.13245025521E+02  0.00000000000E+00 0. -1.
</event>
<event>
 8    1  0.9117959E-009  0.9118800E+02  0.7816164E-02  0.1184000E+00
        -11   -1    0    0    0    0  0.00000000000E+00  0.00000000000E+00  0.45593999997E+02  0.45594000000E+02  0.51100000000E-03 0. -1.
         11   -1    0    0    0    0 -0.00000000000E+00 -0.00000000000E+00 -0.45593999997E+02  0.45594000000E+02  0.51100000000E-03 0.  1.
         23    2    1    2    0    0 -0.44408920985E-15 -0.35527136788E-14  0.00000000000E+00  0.91188000000E+02  0.91188000000E+02 0.  0.
    9900012    2    3    3    0    0 -0.31440986959E+01 -0.18804987879E+02 -0.40811770413E+02  0.46142317299E+02  0.99999957890E+01 0.  0.
         12    1    3    3    0    0  0.31440986959E+01  0.18804987879E+02  0.40811770413E+02  0.45045682701E+02  0.00000000000E+00 0. -1.
         11    1    4    4    0    0 -0.27002230428E+01 -0.10301440126E+02 -0.14600541653E+02  0.18071709658E+02  0.51100000000E-03 0. -1.
        -11    1    4    4    0    0 -0.27173900409E+01 -0.63382511487E+01 -0.18597789793E+02  0.19835206621E+02  0.51100000000E-03 0.  1.
        -12    1    4    4    0    0  0.22735143879E+01 -0.21652966041E+01 -0.76134389672E+01  0.82354010201E+01  0.00000000000E+00 0.  1.
</event>
<event>
 8    1  0.9117959E-009  0.9118800E+02  0.7816164E-02  0.1184000E+00
        -11   -1    0    0    0    0  0.00000000000E+00  0.00000000000E+00  0.45593999997E+02  0.45594000000E+02  0.51100000000E-03 0. -1.
         11   -1    0    0    0    0 -0.00000000000E+00 -0.00000000000E+00 -0.45593999997E+02  0.45594000000E+02  0.51100000000E-03 0.  1.
         23    2    1    2    0    0 -0.35527136788E-14 -0.44408920985E-15  0.14210854715E-13  0.91188000000E+02  0.91188000000E+02 0.  0.
    9900012    2    3    3    0    0  0.18475912304E+02  0.22212019129E+01 -0.41022194392E+02  0.46142317564E+02  0.99999982018E+01 0.  0.
         12    1    3    3    0    0 -0.18475912304E+02 -0.22212019129E+01  0.41022194392E+02  0.45045682436E+02  0.00000000000E+00 0. -1.
         11    1    4    4    0    0  0.32068785820E+00  0.11393772563E+01 -0.15120620049E+01  0.19202481617E+01  0.51100000000E-03 0. -1.
        -11    1    4    4    0    0  0.25545012918E+01  0.30546093275E+01 -0.59362523947E+01  0.71480911961E+01  0.51100000000E-03 0.  1.
        -12    1    4    4    0    0  0.15600723154E+02 -0.19727846710E+01 -0.33573879992E+02  0.37073978206E+02  0.00000000000E+00 0.  1.
</event>
<event>
 8    1  0.9117959E-009  0.9118800E+02  0.7816164E-02  0.1184000E+00
        -11   -1    0    0    0    0  0.00000000000E+00  0.00000000000E+00  0.45593999997E+02  0.45594000000E+02  0.51100000000E-03 0. -1.
         11   -1    0    0    0    0 -0.00000000000E+00 -0.00000000000E+00 -0.45593999997E+02  0.45594000000E+02  0.51100000000E-03 0.  1.
         23    2    1    2    0    0  0.00000000000E+00  0.00000000000E+00  0.00000000000E+00  0.91188000000E+02  0.91188000000E+02 0.  0.
    9900012    2    3    3    0    0  0.21814298076E+02  0.32524059276E+01 -0.39276854711E+02  0.46142322507E+02  0.10000043274E+02 0.  0.
         12    1    3    3    0    0 -0.21814298076E+02 -0.32524059276E+01  0.39276854711E+02  0.45045677493E+02  0.00000000000E+00 0. -1.
         11    1    4    4    0    0  0.10511800595E+02  0.17535653202E+01 -0.14786407220E+02  0.18226650318E+02  0.51100000000E-03 0. -1.
        -11    1    4    4    0    0  0.11931082800E+02  0.19380337455E+01 -0.24276963180E+02  0.27119691242E+02  0.51100000000E-03 0.  1.
         12    1    4    4    0    0 -0.62858531904E+00 -0.43919313811E+00 -0.21348431071E+00  0.79598094625E+00  0.00000000000E+00 0. -1.
</event>
<event>
 8    1  0.9117959E-009  0.9118800E+02  0.7816164E-02  0.1184000E+00
        -11   -1    0    0    0    0  0.00000000000E+00  0.00000000000E+00  0.45593999997E+02  0.45594000000E+02  0.51100000000E-03 0.  1.
         11   -1    0    0    0    0 -0.00000000000E+00 -0.00000000000E+00 -0.45593999997E+02  0.45594000000E+02  0.51100000000E-03 0. -1.
         23    2    1    2    0    0 -0.35527136788E-14 -0.17763568394E-14 -0.35527136788E-14  0.91188000000E+02  0.91188000000E+02 0.  0.
    9900012    2    3    3    0    0  0.29105410698E+02  0.15299705944E+02  0.30788101506E+02  0.46142321759E+02  0.10000036452E+02 0.  0.
        -12    1    3    3    0    0 -0.29105410698E+02 -0.15299705944E+02 -0.30788101506E+02  0.45045678241E+02  0.00000000000E+00 0.  1.
         11    1    4    4    0    0  0.18662000874E+02  0.11406620184E+02  0.14331850212E+02  0.26149248391E+02  0.51100000000E-03 0. -1.
        -11    1    4    4    0    0  0.93500870611E+01  0.28176596020E+01  0.13487457535E+02  0.16651571839E+02  0.51100000000E-03 0.  1.
         12    1    4    4    0    0  0.10933227632E+01  0.10754261584E+01  0.29687937588E+01  0.33415015291E+01  0.00000000000E+00 0. -1.
</event>
<event>
 8    1  0.9117959E-009  0.9118800E+02  0.7816164E-02  0.1184000E+00
        -11   -1    0    0    0    0  0.00000000000E+00  0.00000000000E+00  0.45593999997E+02  0.45594000000E+02  0.51100000000E-03 0. -1.
         11   -1    0    0    0    0 -0.00000000000E+00 -0.00000000000E+00 -0.45593999997E+02  0.45594000000E+02  0.51100000000E-03 0.  1.
         23    2    1    2    0    0  0.00000000000E+00  0.35527136788E-14  0.00000000000E+00  0.91188000000E+02  0.91188000000E+02 0.  0.
    9900012    2    3    3    0    0 -0.34003183699E+02 -0.21495042089E+02  0.20269685128E+02  0.46142317951E+02  0.10000001731E+02 0.  0.
        -12    1    3    3    0    0  0.34003183699E+02  0.21495042089E+02 -0.20269685128E+02  0.45045682049E+02  0.00000000000E+00 0.  1.
         11    1    4    4    0    0 -0.31821969913E+02 -0.21549580363E+02  0.18030225056E+02  0.42451280296E+02  0.51100000000E-03 0. -1.
        -11    1    4    4    0    0 -0.38803232868E+00 -0.42428779966E+00  0.16443161114E+01  0.17419428694E+01  0.51100000000E-03 0.  1.
         12    1    4    4    0    0 -0.17931814574E+01  0.47882607389E+00  0.59514396138E+00  0.19490947855E+01  0.00000000000E+00 0. -1.
</event>
<event>
 8    1  0.9117959E-009  0.9118800E+02  0.7816164E-02  0.1184000E+00
        -11   -1    0    0    0    0  0.00000000000E+00  0.00000000000E+00  0.45593999997E+02  0.45594000000E+02  0.51100000000E-03 0. -1.
         11   -1    0    0    0    0 -0.00000000000E+00 -0.00000000000E+00 -0.45593999997E+02  0.45594000000E+02  0.51100000000E-03 0.  1.
         23    2    1    2    0    0 -0.44408920985E-15  0.71054273576E-14  0.00000000000E+00  0.91188000000E+02  0.91188000000E+02 0.  0.
    9900012    2    3    3    0    0  0.35315441082E+01  0.44598809341E+02 -0.52524217165E+01  0.46142317273E+02  0.99999955520E+01 0.  0.
         12    1    3    3    0    0 -0.35315441082E+01 -0.44598809341E+02  0.52524217165E+01  0.45045682727E+02  0.00000000000E+00 0. -1.
         11    1    4    4    0    0 -0.28570446064E+01  0.99260105227E+01 -0.12962813503E+01  0.10410030470E+02  0.51100000000E-03 0. -1.
        -11    1    4    4    0    0  0.30456379184E+01  0.25686806422E+02 -0.19746084714E+01  0.25941993242E+02  0.51100000000E-03 0.  1.
         12    1    4    4    0    0  0.33429507963E+01  0.89859923958E+01 -0.19815318947E+01  0.97902935612E+01  0.00000000000E+00 0. -1.
</event>
<event>
 8    1  0.9117959E-009  0.9118800E+02  0.7816164E-02  0.1184000E+00
        -11   -1    0    0    0    0  0.00000000000E+00  0.00000000000E+00  0.45593999997E+02  0.45594000000E+02  0.51100000000E-03 0. -1.
         11   -1    0    0    0    0 -0.00000000000E+00 -0.00000000000E+00 -0.45593999997E+02  0.45594000000E+02  0.51100000000E-03 0.  1.
         23    2    1    2    0    0  0.00000000000E+00  0.00000000000E+00  0.00000000000E+00  0.91188000000E+02  0.91188000000E+02 0.  0.
    9900012    2    3    3    0    0  0.60448486866E+01 -0.18903228705E+02 -0.40438115763E+02  0.46142318103E+02  0.10000003117E+02 0.  0.
         12    1    3    3    0    0 -0.60448486866E+01  0.18903228705E+02  0.40438115763E+02  0.45045681897E+02  0.00000000000E+00 0. -1.
         11    1    4    4    0    0 -0.10005909925E+00  0.76491353997E+00 -0.76048927089E+00  0.10832583899E+01  0.51100000000E-03 0. -1.
        -11    1    4    4    0    0  0.13850914221E+01 -0.12493548202E+02 -0.20665400899E+02  0.24188137992E+02  0.51100000000E-03 0.  1.
         12    1    4    4    0    0  0.47598163637E+01 -0.71745940424E+01 -0.19012225593E+02  0.20870921721E+02  0.00000000000E+00 0. -1.
</event>
<event>
 8    1  0.9117959E-009  0.9118800E+02  0.7816164E-02  0.1184000E+00
        -11   -1    0    0    0    0  0.00000000000E+00  0.00000000000E+00  0.45593999997E+02  0.45594000000E+02  0.51100000000E-03 0.  1.
         11   -1    0    0    0    0 -0.00000000000E+00 -0.00000000000E+00 -0.45593999997E+02  0.45594000000E+02  0.51100000000E-03 0. -1.
         23    2    1    2    0    0  0.71054273576E-14  0.00000000000E+00  0.00000000000E+00  0.91188000000E+02  0.91188000000E+02 0.  0.
    9900012    2    3    3    0    0 -0.38510514979E+02 -0.23344779302E+02 -0.10368187184E+01  0.46142317880E+02  0.10000001087E+02 0.  0.
         12    1    3    3    0    0  0.38510514979E+02  0.23344779302E+02  0.10368187184E+01  0.45045682120E+02  0.00000000000E+00 0. -1.
         11    1    4    4    0    0 -0.20514935187E+02 -0.93852919536E+01 -0.39582278580E+00  0.22563309747E+02  0.51100000000E-03 0. -1.
        -11    1    4    4    0    0 -0.12970539898E+02 -0.63312029322E+01 -0.55601848924E+00  0.14443967344E+02  0.51100000000E-03 0.  1.
        -12    1    4    4    0    0 -0.50250398936E+01 -0.76282844160E+01 -0.84977443378E-01  0.91350407898E+01  0.00000000000E+00 0.  1.
</event>
<event>
 8    1  0.9117959E-009  0.9118800E+02  0.7816164E-02  0.1184000E+00
        -11   -1    0    0    0    0  0.00000000000E+00  0.00000000000E+00  0.45593999997E+02  0.45594000000E+02  0.51100000000E-03 0. -1.
         11   -1    0    0    0    0 -0.00000000000E+00 -0.00000000000E+00 -0.45593999997E+02  0.45594000000E+02  0.51100000000E-03 0.  1.
         23    2    1    2    0    0  0.00000000000E+00  0.71054273576E-14  0.00000000000E+00  0.91188000000E+02  0.91188000000E+02 0.  0.
    9900012    2    3    3    0    0  0.10615243687E+02  0.32028141676E+02  0.29843397051E+02  0.46142316463E+02  0.99999881654E+01 0.  0.
        -12    1    3    3    0    0 -0.10615243687E+02 -0.32028141676E+02 -0.29843397051E+02  0.45045683537E+02  0.00000000000E+00 0.  1.
         11    1    4    4    0    0  0.26320673840E+01  0.47389081073E+01  0.44526746318E+01  0.70150795007E+01  0.51100000000E-03 0. -1.
        -11    1    4    4    0    0  0.75029401197E+01  0.20259099271E+02  0.23305911347E+02  0.31778777787E+02  0.51100000000E-03 0.  1.
         12    1    4    4    0    0  0.48023618380E+00  0.70301342983E+01  0.20848110720E+01  0.73484591752E+01  0.00000000000E+00 0. -1.
</event>
<event>
 8    1  0.9117959E-009  0.9118800E+02  0.7816164E-02  0.1184000E+00
        -11   -1    0    0    0    0  0.00000000000E+00  0.00000000000E+00  0.45593999997E+02  0.45594000000E+02  0.51100000000E-03 0. -1.
         11   -1    0    0    0    0 -0.00000000000E+00 -0.00000000000E+00 -0.45593999997E+02  0.45594000000E+02  0.51100000000E-03 0.  1.
         23    2    1    2    0    0  0.17763568394E-14  0.00000000000E+00 -0.17763568394E-14  0.91188000000E+02  0.91188000000E+02 0.  0.
    9900012    2    3    3    0    0 -0.98014421506E+01  0.43769040887E+02  0.41612765187E+01  0.46142318401E+02  0.10000005838E+02 0.  0.
        -12    1    3    3    0    0  0.98014421506E+01 -0.43769040887E+02 -0.41612765187E+01  0.45045681599E+02  0.00000000000E+00 0.  1.
         11    1    4    4    0    0 -0.11707600561E+01  0.61753504125E+01 -0.16235503720E+01  0.64916521701E+01  0.51100000000E-03 0.  1.
        -11    1    4    4    0    0 -0.89978167821E+01  0.33046626469E+02  0.69379530809E+01  0.34945320445E+02  0.51100000000E-03 0. -1.
         12    1    4    4    0    0  0.36713468767E+00  0.45470640063E+01 -0.11531261902E+01  0.47053457861E+01  0.00000000000E+00 0. -1.
</event>
<event>
 8    1  0.9117959E-009  0.9118800E+02  0.7816164E-02  0.1184000E+00
        -11   -1    0    0    0    0  0.00000000000E+00  0.00000000000E+00  0.45593999997E+02  0.45594000000E+02  0.51100000000E-03 0.  1.
         11   -1    0    0    0    0 -0.00000000000E+00 -0.00000000000E+00 -0.45593999997E+02  0.45594000000E+02  0.51100000000E-03 0. -1.
         23    2    1    2    0    0  0.71054273576E-14  0.00000000000E+00  0.00000000000E+00  0.91188000000E+02  0.91188000000E+02 0.  0.
    9900012    2    3    3    0    0 -0.42323891742E+02 -0.13849663347E+02 -0.67814751726E+01  0.46142318825E+02  0.10000009703E+02 0.  0.
         12    1    3    3    0    0  0.42323891742E+02  0.13849663347E+02  0.67814751726E+01  0.45045681175E+02  0.00000000000E+00 0. -1.
         11    1    4    4    0    0 -0.28922794652E+02 -0.10471365404E+02 -0.49050026909E+01  0.31148621086E+02  0.51100000000E-03 0. -1.
        -11    1    4    4    0    0 -0.13259873006E+02 -0.43016925042E+01 -0.18100591450E+01  0.14057208290E+02  0.51100000000E-03 0.  1.
         12    1    4    4    0    0 -0.14122408334E+00  0.92339456087E+00 -0.66413336688E-01  0.93648944898E+00  0.00000000000E+00 0. -1.
</event>
<event>
 8    1  0.9117959E-009  0.9118800E+02  0.7816164E-02  0.1184000E+00
        -11   -1    0    0    0    0  0.00000000000E+00  0.00000000000E+00  0.45593999997E+02  0.45594000000E+02  0.51100000000E-03 0. -1.
         11   -1    0    0    0    0 -0.00000000000E+00 -0.00000000000E+00 -0.45593999997E+02  0.45594000000E+02  0.51100000000E-03 0.  1.
         23    2    1    2    0    0  0.22204460493E-15  0.00000000000E+00  0.14210854715E-13  0.91188000000E+02  0.91188000000E+02 0.  0.
    9900012    2    3    3    0    0  0.80564617537E+00 -0.67784613735E+01  0.44525462845E+02  0.46142318232E+02  0.10000004297E+02 0.  0.
        -12    1    3    3    0    0 -0.80564617537E+00  0.67784613735E+01 -0.44525462845E+02  0.45045681768E+02  0.00000000000E+00 0.  1.
         11    1    4    4    0    0  0.63345550596E+00  0.19881278719E+01  0.62063421107E+01  0.65477172334E+01  0.51100000000E-03 0. -1.
        -11    1    4    4    0    0 -0.19800779583E+01 -0.55308072035E+01  0.18958625783E+02  0.19847922534E+02  0.51100000000E-03 0.  1.
         12    1    4    4    0    0  0.21522686277E+01 -0.32357820418E+01  0.19360494951E+02  0.19746678465E+02  0.00000000000E+00 0. -1.
</event>
<event>
 8    1  0.9117959E-009  0.9118800E+02  0.7816164E-02  0.1184000E+00
        -11   -1    0    0    0    0  0.00000000000E+00  0.00000000000E+00  0.45593999997E+02  0.45594000000E+02  0.51100000000E-03 0. -1.
         11   -1    0    0    0    0 -0.00000000000E+00 -0.00000000000E+00 -0.45593999997E+02  0.45594000000E+02  0.51100000000E-03 0.  1.
         23    2    1    2    0    0  0.17763568394E-14  0.00000000000E+00  0.00000000000E+00  0.91188000000E+02  0.91188000000E+02 0.  0.
    9900012    2    3    3    0    0  0.13669326074E+02  0.41929682495E+02 -0.91741526781E+01  0.46142314004E+02  0.99999657431E+01 0.  0.
         12    1    3    3    0    0 -0.13669326074E+02 -0.41929682495E+02  0.91741526781E+01  0.45045685996E+02  0.00000000000E+00 0. -1.
         11    1    4    4    0    0  0.12516572541E+01  0.83708547467E+01  0.24154323631E+00  0.84673607734E+01  0.51100000000E-03 0. -1.
        -11    1    4    4    0    0  0.24064393939E+01  0.15625061431E+02 -0.25165775197E+01  0.16008330892E+02  0.51100000000E-03 0.  1.
         12    1    4    4    0    0  0.10011229426E+02  0.17933766318E+02 -0.68991183947E+01  0.21666622339E+02  0.00000000000E+00 0. -1.
</event>
<event>
 8    1  0.9117959E-009  0.9118800E+02  0.7816164E-02  0.1184000E+00
        -11   -1    0    0    0    0  0.00000000000E+00  0.00000000000E+00  0.45593999997E+02  0.45594000000E+02  0.51100000000E-03 0. -1.
         11   -1    0    0    0    0 -0.00000000000E+00 -0.00000000000E+00 -0.45593999997E+02  0.45594000000E+02  0.51100000000E-03 0.  1.
         23    2    1    2    0    0  0.00000000000E+00 -0.35527136788E-14 -0.35527136788E-14  0.91188000000E+02  0.91188000000E+02 0.  0.
    9900012    2    3    3    0    0 -0.12420810957E+02  0.31541921845E+02  0.29663852363E+02  0.46142317460E+02  0.99999972571E+01 0.  0.
        -12    1    3    3    0    0  0.12420810957E+02 -0.31541921845E+02 -0.29663852363E+02  0.45045682540E+02  0.00000000000E+00 0.  1.
         11    1    4    4    0    0 -0.50162122433E+01  0.13499219479E+02  0.92567635675E+01  0.17119549755E+02  0.51100000000E-03 0. -1.
        -11    1    4    4    0    0 -0.50136064195E+01  0.53339298286E+01  0.47972619562E+01  0.87521871143E+01  0.51100000000E-03 0.  1.
        -12    1    4    4    0    0 -0.23909922939E+01  0.12708772537E+02  0.15609826839E+02  0.20270580591E+02  0.00000000000E+00 0.  1.
</event>
<event>
 8    1  0.9117959E-009  0.9118800E+02  0.7816164E-02  0.1184000E+00
        -11   -1    0    0    0    0  0.00000000000E+00  0.00000000000E+00  0.45593999997E+02  0.45594000000E+02  0.51100000000E-03 0. -1.
         11   -1    0    0    0    0 -0.00000000000E+00 -0.00000000000E+00 -0.45593999997E+02  0.45594000000E+02  0.51100000000E-03 0.  1.
         23    2    1    2    0    0  0.00000000000E+00  0.71054273576E-14 -0.35527136788E-14  0.91188000000E+02  0.91188000000E+02 0.  0.
    9900012    2    3    3    0    0  0.16627042480E+02 -0.36400339539E+02  0.20680188008E+02  0.46142318340E+02  0.10000005278E+02 0.  0.
        -12    1    3    3    0    0 -0.16627042480E+02  0.36400339539E+02 -0.20680188008E+02  0.45045681660E+02  0.00000000000E+00 0.  1.
         11    1    4    4    0    0  0.15480541568E+02 -0.24090570612E+02  0.14327069113E+02  0.32019801206E+02  0.51100000000E-03 0. -1.
        -11    1    4    4    0    0 -0.29519647838E+00 -0.50610523604E+01  0.36750230349E+01  0.62615642234E+01  0.51100000000E-03 0.  1.
        -12    1    4    4    0    0  0.14416973908E+01 -0.72487165659E+01  0.26780958602E+01  0.78609529102E+01  0.00000000000E+00 0.  1.
</event>
<event>
 8    1  0.9117959E-009  0.9118800E+02  0.7816164E-02  0.1184000E+00
        -11   -1    0    0    0    0  0.00000000000E+00  0.00000000000E+00  0.45593999997E+02  0.45594000000E+02  0.51100000000E-03 0. -1.
         11   -1    0    0    0    0 -0.00000000000E+00 -0.00000000000E+00 -0.45593999997E+02  0.45594000000E+02  0.51100000000E-03 0.  1.
         23    2    1    2    0    0  0.00000000000E+00  0.00000000000E+00  0.35527136788E-14  0.91188000000E+02  0.91188000000E+02 0.  0.
    9900012    2    3    3    0    0  0.14175876969E+02 -0.36034026533E+02  0.23015362820E+02  0.46142317834E+02  0.10000000665E+02 0.  0.
        -12    1    3    3    0    0 -0.14175876969E+02  0.36034026533E+02 -0.23015362820E+02  0.45045682166E+02  0.00000000000E+00 0.  1.
         11    1    4    4    0    0  0.89465282510E+01 -0.16081202530E+02  0.12129314599E+02  0.22040093363E+02  0.51100000000E-03 0. -1.
        -11    1    4    4    0    0 -0.12053062939E+01 -0.57872610256E+01  0.24016037040E+01  0.63806625089E+01  0.51100000000E-03 0.  1.
        -12    1    4    4    0    0  0.64346550118E+01 -0.14165562978E+02  0.84844445174E+01  0.17721561962E+02  0.00000000000E+00 0.  1.
</event>
<event>
 8    1  0.9117959E-009  0.9118800E+02  0.7816164E-02  0.1184000E+00
        -11   -1    0    0    0    0  0.00000000000E+00  0.00000000000E+00  0.45593999997E+02  0.45594000000E+02  0.51100000000E-03 0. -1.
         11   -1    0    0    0    0 -0.00000000000E+00 -0.00000000000E+00 -0.45593999997E+02  0.45594000000E+02  0.51100000000E-03 0.  1.
         23    2    1    2    0    0  0.35527136788E-14  0.00000000000E+00 -0.35527136788E-14  0.91188000000E+02  0.91188000000E+02 0.  0.
    9900012    2    3    3    0    0  0.28129760934E+02 -0.28097418451E+02  0.21174631402E+02  0.46142318866E+02  0.10000010074E+02 0.  0.
        -12    1    3    3    0    0 -0.28129760934E+02  0.28097418451E+02 -0.21174631402E+02  0.45045681134E+02  0.00000000000E+00 0.  1.
         11    1    4    4    0    0  0.87613042888E+01 -0.13141431515E+02  0.74942609165E+01  0.17482037125E+02  0.51100000000E-03 0. -1.
        -11    1    4    4    0    0  0.39119378756E+00 -0.16382942566E+01  0.22529455379E+01  0.28129707621E+01  0.51100000000E-03 0.  1.
         12    1    4    4    0    0  0.18977262858E+02 -0.13317692679E+02  0.11427424948E+02  0.25847310978E+02  0.00000000000E+00 0. -1.
</event>
<event>
 8    1  0.9117959E-009  0.9118800E+02  0.7816164E-02  0.1184000E+00
        -11   -1    0    0    0    0  0.00000000000E+00  0.00000000000E+00  0.45593999997E+02  0.45594000000E+02  0.51100000000E-03 0. -1.
         11   -1    0    0    0    0 -0.00000000000E+00 -0.00000000000E+00 -0.45593999997E+02  0.45594000000E+02  0.51100000000E-03 0.  1.
         23    2    1    2    0    0  0.35527136788E-14  0.71054273576E-14 -0.10658141036E-13  0.91188000000E+02  0.91188000000E+02 0.  0.
    9900012    2    3    3    0    0  0.13528702131E+02  0.29255030790E+02 -0.31467934611E+02  0.46142317448E+02  0.99999971429E+01 0.  0.
         12    1    3    3    0    0 -0.13528702131E+02 -0.29255030790E+02  0.31467934611E+02  0.45045682552E+02  0.00000000000E+00 0. -1.
         11    1    4    4    0    0  0.27408120987E+01  0.58742965220E+01 -0.21255954307E+01  0.68218448227E+01  0.51100000000E-03 0. -1.
        -11    1    4    4    0    0  0.66047314965E+00  0.60951435340E+01 -0.73470313572E+01  0.95690056697E+01  0.51100000000E-03 0.  1.
         12    1    4    4    0    0  0.10127416883E+02  0.17285590734E+02 -0.21995307824E+02  0.29751466955E+02  0.00000000000E+00 0. -1.
</event>
<event>
 8    1  0.9117959E-009  0.9118800E+02  0.7816164E-02  0.1184000E+00
        -11   -1    0    0    0    0  0.00000000000E+00  0.00000000000E+00  0.45593999997E+02  0.45594000000E+02  0.51100000000E-03 0. -1.
         11   -1    0    0    0    0 -0.00000000000E+00 -0.00000000000E+00 -0.45593999997E+02  0.45594000000E+02  0.51100000000E-03 0.  1.
         23    2    1    2    0    0  0.00000000000E+00  0.00000000000E+00  0.00000000000E+00  0.91188000000E+02  0.91188000000E+02 0.  0.
    9900012    2    3    3    0    0 -0.23528973886E+02  0.10500258484E+02  0.36949227435E+02  0.46142318205E+02  0.10000004044E+02 0.  0.
        -12    1    3    3    0    0  0.23528973886E+02 -0.10500258484E+02 -0.36949227435E+02  0.45045681795E+02  0.00000000000E+00 0.  1.
         11    1    4    4    0    0 -0.17641359462E+02  0.60547593739E+01  0.24176473540E+02  0.30534890664E+02  0.51100000000E-03 0. -1.
        -11    1    4    4    0    0 -0.14376271977E+01  0.34450808192E+01  0.87990367238E+01  0.95581588885E+01  0.51100000000E-03 0.  1.
         12    1    4    4    0    0 -0.44499872266E+01  0.10004182909E+01  0.39737171708E+01  0.60492686522E+01  0.00000000000E+00 0. -1.
</event>
<event>
 8    1  0.9117959E-009  0.9118800E+02  0.7816164E-02  0.1184000E+00
        -11   -1    0    0    0    0  0.00000000000E+00  0.00000000000E+00  0.45593999997E+02  0.45594000000E+02  0.51100000000E-03 0. -1.
         11   -1    0    0    0    0 -0.00000000000E+00 -0.00000000000E+00 -0.45593999997E+02  0.45594000000E+02  0.51100000000E-03 0.  1.
         23    2    1    2    0    0  0.00000000000E+00  0.00000000000E+00  0.00000000000E+00  0.91188000000E+02  0.91188000000E+02 0.  0.
    9900012    2    3    3    0    0  0.26173908056E+02  0.12466481542E+02  0.34476467659E+02  0.46142318218E+02  0.10000004165E+02 0.  0.
        -12    1    3    3    0    0 -0.26173908056E+02 -0.12466481542E+02 -0.34476467659E+02  0.45045681782E+02  0.00000000000E+00 0.  1.
         11    1    4    4    0    0  0.89043910186E+01  0.18717127951E+01  0.89851552258E+01  0.12787669956E+02  0.51100000000E-03 0. -1.
        -11    1    4    4    0    0  0.64695229018E+01  0.69757749713E+01  0.15583702410E+02  0.18258366414E+02  0.51100000000E-03 0.  1.
        -12    1    4    4    0    0  0.10799994136E+02  0.36189937753E+01  0.99076100228E+01  0.15096281848E+02  0.00000000000E+00 0.  1.
</event>
<event>
 8    1  0.9117959E-009  0.9118800E+02  0.7816164E-02  0.1184000E+00
        -11   -1    0    0    0    0  0.00000000000E+00  0.00000000000E+00  0.45593999997E+02  0.45594000000E+02  0.51100000000E-03 0. -1.
         11   -1    0    0    0    0 -0.00000000000E+00 -0.00000000000E+00 -0.45593999997E+02  0.45594000000E+02  0.51100000000E-03 0.  1.
         23    2    1    2    0    0  0.00000000000E+00  0.00000000000E+00  0.00000000000E+00  0.91188000000E+02  0.91188000000E+02 0.  0.
    9900012    2    3    3    0    0 -0.40051475245E+02 -0.11602906889E+02 -0.17040112189E+02  0.46142317177E+02  0.99999946753E+01 0.  0.
         12    1    3    3    0    0  0.40051475245E+02  0.11602906889E+02  0.17040112189E+02  0.45045682823E+02  0.00000000000E+00 0. -1.
         11    1    4    4    0    0 -0.55537229165E+01  0.68422699356E+00 -0.14058253181E+01  0.57696056969E+01  0.51100000000E-03 0.  1.
        -11    1    4    4    0    0 -0.19771989947E+02 -0.10424581725E+02 -0.10156084878E+02  0.24550958249E+02  0.51100000000E-03 0. -1.
        -12    1    4    4    0    0 -0.14725762381E+02 -0.18625521576E+01 -0.54782019922E+01  0.15821753232E+02  0.00000000000E+00 0.  1.
</event>
<event>
 8    1  0.9117959E-009  0.9118800E+02  0.7816164E-02  0.1184000E+00
        -11   -1    0    0    0    0  0.00000000000E+00  0.00000000000E+00  0.45593999997E+02  0.45594000000E+02  0.51100000000E-03 0. -1.
         11   -1    0    0    0    0 -0.00000000000E+00 -0.00000000000E+00 -0.45593999997E+02  0.45594000000E+02  0.51100000000E-03 0.  1.
         23    2    1    2    0    0  0.00000000000E+00  0.35527136788E-14  0.00000000000E+00  0.91188000000E+02  0.91188000000E+02 0.  0.
    9900012    2    3    3    0    0  0.12826880218E+02 -0.29426369298E+02  0.31601797138E+02  0.46142315984E+02  0.99999837911E+01 0.  0.
        -12    1    3    3    0    0 -0.12826880218E+02  0.29426369298E+02 -0.31601797138E+02  0.45045684016E+02  0.00000000000E+00 0.  1.
         11    1    4    4    0    0  0.14809473632E+01 -0.42105798226E+01  0.62453553239E+01  0.76763696445E+01  0.51100000000E-03 0. -1.
        -11    1    4    4    0    0  0.25033100685E+01 -0.38405261340E+00  0.27726542529E+01  0.37552189784E+01  0.51100000000E-03 0.  1.
        -12    1    4    4    0    0  0.88426227861E+01 -0.24831736862E+02  0.22583787561E+02  0.34710727361E+02  0.00000000000E+00 0.  1.
</event>
<event>
 8    1  0.9117959E-009  0.9118800E+02  0.7816164E-02  0.1184000E+00
        -11   -1    0    0    0    0  0.00000000000E+00  0.00000000000E+00  0.45593999997E+02  0.45594000000E+02  0.51100000000E-03 0. -1.
         11   -1    0    0    0    0 -0.00000000000E+00 -0.00000000000E+00 -0.45593999997E+02  0.45594000000E+02  0.51100000000E-03 0.  1.
         23    2    1    2    0    0  0.00000000000E+00  0.00000000000E+00  0.00000000000E+00  0.91188000000E+02  0.91188000000E+02 0.  0.
    9900012    2    3    3    0    0  0.21582220539E+02 -0.39258316538E+02 -0.47016803036E+01  0.46142318093E+02  0.10000003024E+02 0.  0.
         12    1    3    3    0    0 -0.21582220539E+02  0.39258316538E+02  0.47016803036E+01  0.45045681907E+02  0.00000000000E+00 0. -1.
         11    1    4    4    0    0  0.92316071486E+00 -0.82034015145E+01 -0.28070368289E+01  0.87193737237E+01  0.51100000000E-03 0. -1.
        -11    1    4    4    0    0  0.23586037125E+01 -0.50339023575E+01 -0.88469662857E-01  0.55597672217E+01  0.51100000000E-03 0.  1.
        -12    1    4    4    0    0  0.18300456112E+02 -0.26021012666E+02 -0.18061738118E+01  0.31863177147E+02  0.00000000000E+00 0.  1.
</event>
<event>
 8    1  0.9117959E-009  0.9118800E+02  0.7816164E-02  0.1184000E+00
        -11   -1    0    0    0    0  0.00000000000E+00  0.00000000000E+00  0.45593999997E+02  0.45594000000E+02  0.51100000000E-03 0. -1.
         11   -1    0    0    0    0 -0.00000000000E+00 -0.00000000000E+00 -0.45593999997E+02  0.45594000000E+02  0.51100000000E-03 0.  1.
         23    2    1    2    0    0  0.00000000000E+00  0.44408920985E-15  0.00000000000E+00  0.91188000000E+02  0.91188000000E+02 0.  0.
    9900012    2    3    3    0    0 -0.36467925338E+01 -0.24464143873E+01  0.44831121841E+02  0.46142317359E+02  0.99999963297E+01 0.  0.
        -12    1    3    3    0    0  0.36467925338E+01  0.24464143873E+01 -0.44831121841E+02  0.45045682641E+02  0.00000000000E+00 0.  1.
         11    1    4    4    0    0 -0.83637729942E+00  0.10716951185E+01  0.10660938470E+02  0.10747263221E+02  0.51100000000E-03 0. -1.
        -11    1    4    4    0    0 -0.38179354755E+01 -0.43112539129E+01  0.13396433328E+02  0.14581768335E+02  0.51100000000E-03 0.  1.
        -12    1    4    4    0    0  0.10075202411E+01  0.79314440707E+00  0.20773750043E+02  0.20813285803E+02  0.00000000000E+00 0.  1.
</event>
<event>
 8    1  0.9117959E-009  0.9118800E+02  0.7816164E-02  0.1184000E+00
        -11   -1    0    0    0    0  0.00000000000E+00  0.00000000000E+00  0.45593999997E+02  0.45594000000E+02  0.51100000000E-03 0. -1.
         11   -1    0    0    0    0 -0.00000000000E+00 -0.00000000000E+00 -0.45593999997E+02  0.45594000000E+02  0.51100000000E-03 0.  1.
         23    2    1    2    0    0 -0.22204460493E-15  0.00000000000E+00  0.00000000000E+00  0.91188000000E+02  0.91188000000E+02 0.  0.
    9900012    2    3    3    0    0  0.13327668225E+01  0.44643623971E+02 -0.58552634315E+01  0.46142317205E+02  0.99999949279E+01 0.  0.
         12    1    3    3    0    0 -0.13327668225E+01 -0.44643623971E+02  0.58552634315E+01  0.45045682795E+02  0.00000000000E+00 0. -1.
         11    1    4    4    0    0  0.32768881805E+01  0.13378400190E+02 -0.53444649939E+00  0.13784238141E+02  0.51100000000E-03 0. -1.
        -11    1    4    4    0    0  0.14547617269E+01  0.12366035157E+02 -0.73043194467E-01  0.12451525720E+02  0.51100000000E-03 0.  1.
         12    1    4    4    0    0 -0.33988830848E+01  0.18899188623E+02 -0.52477737376E+01  0.19906553344E+02  0.00000000000E+00 0. -1.
</event>
<event>
 8    1  0.9117959E-009  0.9118800E+02  0.7816164E-02  0.1184000E+00
        -11   -1    0    0    0    0  0.00000000000E+00  0.00000000000E+00  0.45593999997E+02  0.45594000000E+02  0.51100000000E-03 0. -1.
         11   -1    0    0    0    0 -0.00000000000E+00 -0.00000000000E+00 -0.45593999997E+02  0.45594000000E+02  0.51100000000E-03 0.  1.
         23    2    1    2    0    0  0.00000000000E+00  0.00000000000E+00  0.00000000000E+00  0.91188000000E+02  0.91188000000E+02 0.  0.
    9900012    2    3    3    0    0  0.96261900238E+01 -0.89223906085E+01  0.43091074674E+02  0.46142319796E+02  0.10000018554E+02 0.  0.
        -12    1    3    3    0    0 -0.96261900238E+01  0.89223906085E+01 -0.43091074674E+02  0.45045680204E+02  0.00000000000E+00 0.  1.
         11    1    4    4    0    0  0.71121856423E+01 -0.66792218826E+01  0.22030062711E+02  0.24093958846E+02  0.51100000000E-03 0. -1.
        -11    1    4    4    0    0  0.25870792000E+01  0.13511938076E+01  0.10056958319E+02  0.10471920282E+02  0.51100000000E-03 0.  1.
        -12    1    4    4    0    0 -0.73074818476E-01 -0.35943625335E+01  0.11004053643E+02  0.11576440667E+02  0.00000000000E+00 0.  1.
</event>
<event>
 8    1  0.9117959E-009  0.9118800E+02  0.7816164E-02  0.1184000E+00
        -11   -1    0    0    0    0  0.00000000000E+00  0.00000000000E+00  0.45593999997E+02  0.45594000000E+02  0.51100000000E-03 0. -1.
         11   -1    0    0    0    0 -0.00000000000E+00 -0.00000000000E+00 -0.45593999997E+02  0.45594000000E+02  0.51100000000E-03 0.  1.
         23    2    1    2    0    0  0.00000000000E+00  0.71054273576E-14  0.00000000000E+00  0.91188000000E+02  0.91188000000E+02 0.  0.
    9900012    2    3    3    0    0 -0.12509920990E+02 -0.32168450572E+02  0.28944881569E+02  0.46142317583E+02  0.99999983739E+01 0.  0.
        -12    1    3    3    0    0  0.12509920990E+02  0.32168450572E+02 -0.28944881569E+02  0.45045682417E+02  0.00000000000E+00 0.  1.
         11    1    4    4    0    0 -0.29834781467E+01 -0.12337053449E+02  0.88357566169E+01  0.15465271576E+02  0.51100000000E-03 0. -1.
        -11    1    4    4    0    0 -0.39965766759E+01 -0.23896390753E+01  0.25114991454E+01  0.52906170014E+01  0.51100000000E-03 0.  1.
        -12    1    4    4    0    0 -0.55298661676E+01 -0.17441758047E+02  0.17597625807E+02  0.25386429006E+02  0.00000000000E+00 0.  1.
</event>
<event>
 8    1  0.9117959E-009  0.9118800E+02  0.7816164E-02  0.1184000E+00
        -11   -1    0    0    0    0  0.00000000000E+00  0.00000000000E+00  0.45593999997E+02  0.45594000000E+02  0.51100000000E-03 0. -1.
         11   -1    0    0    0    0 -0.00000000000E+00 -0.00000000000E+00 -0.45593999997E+02  0.45594000000E+02  0.51100000000E-03 0.  1.
         23    2    1    2    0    0 -0.17763568394E-14  0.17763568394E-14  0.00000000000E+00  0.91188000000E+02  0.91188000000E+02 0.  0.
    9900012    2    3    3    0    0 -0.15432995615E+02  0.11805533059E+02 -0.40639456930E+02  0.46142318475E+02  0.10000006514E+02 0.  0.
         12    1    3    3    0    0  0.15432995615E+02 -0.11805533059E+02  0.40639456930E+02  0.45045681525E+02  0.00000000000E+00 0. -1.
         11    1    4    4    0    0 -0.43626710870E+00  0.36515054465E+00 -0.50891971749E+00  0.76332394850E+00  0.51100000000E-03 0.  1.
        -11    1    4    4    0    0 -0.72664745364E+01  0.16309046726E+01 -0.81183491235E+01  0.11016764270E+02  0.51100000000E-03 0. -1.
        -12    1    4    4    0    0 -0.77302539701E+01  0.98094778417E+01 -0.32012188089E+02  0.34362230256E+02  0.00000000000E+00 0.  1.
</event>
<event>
 8    1  0.9117959E-009  0.9118800E+02  0.7816164E-02  0.1184000E+00
        -11   -1    0    0    0    0  0.00000000000E+00  0.00000000000E+00  0.45593999997E+02  0.45594000000E+02  0.51100000000E-03 0. -1.
         11   -1    0    0    0    0 -0.00000000000E+00 -0.00000000000E+00 -0.45593999997E+02  0.45594000000E+02  0.51100000000E-03 0.  1.
         23    2    1    2    0    0  0.00000000000E+00  0.17763568394E-14  0.00000000000E+00  0.91188000000E+02  0.91188000000E+02 0.  0.
    9900012    2    3    3    0    0  0.19713071117E+02 -0.14460798514E+02 -0.37833758732E+02  0.46142321336E+02  0.10000032596E+02 0.  0.
         12    1    3    3    0    0 -0.19713071117E+02  0.14460798514E+02  0.37833758732E+02  0.45045678664E+02  0.00000000000E+00 0. -1.
         11    1    4    4    0    0  0.86104058924E+01 -0.10245960834E+02 -0.23595195528E+02  0.27126593138E+02  0.51100000000E-03 0. -1.
        -11    1    4    4    0    0  0.65686117098E+00 -0.81083787002E+00 -0.35022217731E+01  0.36543785051E+01  0.51100000000E-03 0.  1.
         12    1    4    4    0    0  0.10445804054E+02 -0.34039998105E+01 -0.10736341431E+02  0.15361349692E+02  0.00000000000E+00 0. -1.
</event>
<event>
 8    1  0.9117959E-009  0.9118800E+02  0.7816164E-02  0.1184000E+00
        -11   -1    0    0    0    0  0.00000000000E+00  0.00000000000E+00  0.45593999997E+02  0.45594000000E+02  0.51100000000E-03 0. -1.
         11   -1    0    0    0    0 -0.00000000000E+00 -0.00000000000E+00 -0.45593999997E+02  0.45594000000E+02  0.51100000000E-03 0.  1.
         23    2    1    2    0    0  0.00000000000E+00  0.00000000000E+00  0.00000000000E+00  0.91188000000E+02  0.91188000000E+02 0.  0.
    9900012    2    3    3    0    0 -0.95284374503E+01 -0.28832463256E+02 -0.33271785181E+02  0.46142314892E+02  0.99999738394E+01 0.  0.
         12    1    3    3    0    0  0.95284374503E+01  0.28832463256E+02  0.33271785181E+02  0.45045685108E+02  0.00000000000E+00 0. -1.
         11    1    4    4    0    0 -0.39168073794E+00  0.36968924670E+00  0.11299066459E+00  0.55031908109E+00  0.51100000000E-03 0. -1.
        -11    1    4    4    0    0 -0.36636293304E+01 -0.55118697208E+01 -0.55897514947E+01  0.86630369803E+01  0.51100000000E-03 0.  1.
         12    1    4    4    0    0 -0.54731273820E+01 -0.23690282782E+02 -0.27795024351E+02  0.36928958831E+02  0.00000000000E+00 0. -1.
</event>
<event>
 8    1  0.9117959E-009  0.9118800E+02  0.7816164E-02  0.1184000E+00
        -11   -1    0    0    0    0  0.00000000000E+00  0.00000000000E+00  0.45593999997E+02  0.45594000000E+02  0.51100000000E-03 0.  1.
         11   -1    0    0    0    0 -0.00000000000E+00 -0.00000000000E+00 -0.45593999997E+02  0.45594000000E+02  0.51100000000E-03 0. -1.
         23    2    1    2    0    0  0.00000000000E+00  0.35527136788E-14 -0.17763568394E-14  0.91188000000E+02  0.91188000000E+02 0.  0.
    9900012    2    3    3    0    0  0.35391082376E+02  0.26308766000E+02  0.91887657579E+01  0.46142319893E+02  0.10000019438E+02 0.  0.
         12    1    3    3    0    0 -0.35391082376E+02 -0.26308766000E+02 -0.91887657579E+01  0.45045680107E+02  0.00000000000E+00 0. -1.
         11    1    4    4    0    0  0.36344001444E+01  0.14158149603E+01 -0.12696412182E+01  0.41018758508E+01  0.51100000000E-03 0. -1.
        -11    1    4    4    0    0  0.11612188292E+02  0.10311479999E+02  0.14749463196E+01  0.15599519339E+02  0.51100000000E-03 0.  1.
        -12    1    4    4    0    0  0.20144493940E+02  0.14581471041E+02  0.89834606565E+01  0.26440924703E+02  0.00000000000E+00 0.  1.
</event>
<event>
 8    1  0.9117959E-009  0.9118800E+02  0.7816164E-02  0.1184000E+00
        -11   -1    0    0    0    0  0.00000000000E+00  0.00000000000E+00  0.45593999997E+02  0.45594000000E+02  0.51100000000E-03 0. -1.
         11   -1    0    0    0    0 -0.00000000000E+00 -0.00000000000E+00 -0.45593999997E+02  0.45594000000E+02  0.51100000000E-03 0.  1.
         23    2    1    2    0    0  0.00000000000E+00 -0.35527136788E-14  0.00000000000E+00  0.91188000000E+02  0.91188000000E+02 0.  0.
    9900012    2    3    3    0    0  0.11016963502E+02  0.23330743194E+02  0.36924469671E+02  0.46142317374E+02  0.99999964668E+01 0.  0.
        -12    1    3    3    0    0 -0.11016963502E+02 -0.23330743194E+02 -0.36924469671E+02  0.45045682626E+02  0.00000000000E+00 0.  1.
         11    1    4    4    0    0  0.17501471801E+01  0.16464959101E+01  0.71392087025E+01  0.75327461853E+01  0.51100000000E-03 0. -1.
        -11    1    4    4    0    0  0.44732468291E+01  0.72347441935E+01  0.61528215801E+01  0.10498031930E+02  0.51100000000E-03 0.  1.
        -12    1    4    4    0    0  0.47935694931E+01  0.14449503090E+02  0.23632439389E+02  0.28111539259E+02  0.00000000000E+00 0.  1.
</event>
<event>
 8    1  0.9117959E-009  0.9118800E+02  0.7816164E-02  0.1184000E+00
        -11   -1    0    0    0    0  0.00000000000E+00  0.00000000000E+00  0.45593999997E+02  0.45594000000E+02  0.51100000000E-03 0. -1.
         11   -1    0    0    0    0 -0.00000000000E+00 -0.00000000000E+00 -0.45593999997E+02  0.45594000000E+02  0.51100000000E-03 0.  1.
         23    2    1    2    0    0 -0.35527136788E-14  0.00000000000E+00  0.00000000000E+00  0.91188000000E+02  0.91188000000E+02 0.  0.
    9900012    2    3    3    0    0  0.25124580258E+02  0.32146839200E+02 -0.19090563540E+02  0.46142318520E+02  0.10000006922E+02 0.  0.
         12    1    3    3    0    0 -0.25124580258E+02 -0.32146839200E+02  0.19090563540E+02  0.45045681480E+02  0.00000000000E+00 0. -1.
         11    1    4    4    0    0 -0.39769915719E+00  0.30788113553E+01 -0.64453135364E+00  0.31705937785E+01  0.51100000000E-03 0. -1.
        -11    1    4    4    0    0  0.26299494645E+01  0.44704403660E+01 -0.29726350361E+01  0.59781293538E+01  0.51100000000E-03 0.  1.
        -12    1    4    4    0    0  0.22892329951E+02  0.24597587479E+02 -0.15473397151E+02  0.36993595388E+02  0.00000000000E+00 0.  1.
</event>
<event>
 8    1  0.9117959E-009  0.9118800E+02  0.7816164E-02  0.1184000E+00
        -11   -1    0    0    0    0  0.00000000000E+00  0.00000000000E+00  0.45593999997E+02  0.45594000000E+02  0.51100000000E-03 0. -1.
         11   -1    0    0    0    0 -0.00000000000E+00 -0.00000000000E+00 -0.45593999997E+02  0.45594000000E+02  0.51100000000E-03 0.  1.
         23    2    1    2    0    0  0.00000000000E+00  0.35527136788E-14  0.35527136788E-14  0.91188000000E+02  0.91188000000E+02 0.  0.
    9900012    2    3    3    0    0  0.11823633157E+02  0.31402924236E+02  0.30052812124E+02  0.46142317985E+02  0.10000002044E+02 0.  0.
        -12    1    3    3    0    0 -0.11823633157E+02 -0.31402924236E+02 -0.30052812124E+02  0.45045682015E+02  0.00000000000E+00 0.  1.
         11    1    4    4    0    0  0.13436205798E+02  0.29136624456E+02  0.27082516590E+02  0.41987345904E+02  0.51100000000E-03 0. -1.
        -11    1    4    4    0    0 -0.53990456042E+00  0.29497100919E+00  0.97001361018E+00  0.11486650929E+01  0.51100000000E-03 0.  1.
         12    1    4    4    0    0 -0.10726680805E+01  0.19713287705E+01  0.20002819238E+01  0.30063069882E+01  0.00000000000E+00 0. -1.
</event>
<event>
 8    1  0.9117959E-009  0.9118800E+02  0.7816164E-02  0.1184000E+00
        -11   -1    0    0    0    0  0.00000000000E+00  0.00000000000E+00  0.45593999997E+02  0.45594000000E+02  0.51100000000E-03 0. -1.
         11   -1    0    0    0    0 -0.00000000000E+00 -0.00000000000E+00 -0.45593999997E+02  0.45594000000E+02  0.51100000000E-03 0.  1.
         23    2    1    2    0    0  0.00000000000E+00  0.00000000000E+00  0.00000000000E+00  0.91188000000E+02  0.91188000000E+02 0.  0.
    9900012    2    3    3    0    0 -0.15385927509E+02  0.33055779749E+02  0.26451886770E+02  0.46142315925E+02  0.99999832545E+01 0.  0.
        -12    1    3    3    0    0  0.15385927509E+02 -0.33055779749E+02 -0.26451886770E+02  0.45045684075E+02  0.00000000000E+00 0.  1.
         11    1    4    4    0    0 -0.61138524345E+01  0.13844270544E+02  0.52338219408E+01  0.16013616420E+02  0.51100000000E-03 0.  1.
        -11    1    4    4    0    0 -0.31664626128E+01  0.71234792536E+01  0.67546352077E+01  0.10314821337E+02  0.51100000000E-03 0. -1.
        -12    1    4    4    0    0 -0.61056124614E+01  0.12088029951E+02  0.14463429622E+02  0.19813878168E+02  0.00000000000E+00 0.  1.
</event>
<event>
 8    1  0.9117959E-009  0.9118800E+02  0.7816164E-02  0.1184000E+00
        -11   -1    0    0    0    0  0.00000000000E+00  0.00000000000E+00  0.45593999997E+02  0.45594000000E+02  0.51100000000E-03 0. -1.
         11   -1    0    0    0    0 -0.00000000000E+00 -0.00000000000E+00 -0.45593999997E+02  0.45594000000E+02  0.51100000000E-03 0.  1.
         23    2    1    2    0    0  0.00000000000E+00  0.44408920985E-15  0.00000000000E+00  0.91188000000E+02  0.91188000000E+02 0.  0.
    9900012    2    3    3    0    0 -0.31093686149E+02 -0.24600917800E+01 -0.32499908469E+02  0.46142318515E+02  0.10000006879E+02 0.  0.
         12    1    3    3    0    0  0.31093686149E+02  0.24600917800E+01  0.32499908469E+02  0.45045681485E+02  0.00000000000E+00 0. -1.
         11    1    4    4    0    0 -0.15651919472E+02  0.14006383878E+01 -0.10186318608E+02  0.18727131604E+02  0.51100000000E-03 0. -1.
        -11    1    4    4    0    0 -0.34855235397E+01 -0.67606477625E+00 -0.47149645091E+01  0.59022731648E+01  0.51100000000E-03 0.  1.
         12    1    4    4    0    0 -0.11956243137E+02 -0.31846653916E+01 -0.17598625352E+02  0.21512913747E+02  0.00000000000E+00 0. -1.
</event>
<event>
 8    1  0.1239306E-008  0.9118800E+02  0.7816164E-02  0.1184000E+00
        -11   -1    0    0    0    0  0.00000000000E+00  0.00000000000E+00  0.45593999997E+02  0.45594000000E+02  0.51100000000E-03 0. -1.
         11   -1    0    0    0    0 -0.00000000000E+00 -0.00000000000E+00 -0.45593999997E+02  0.45594000000E+02  0.51100000000E-03 0.  1.
         23    2    1    2    0    0  0.00000000000E+00  0.88817841970E-15  0.00000000000E+00  0.91188000000E+02  0.91188000000E+02 0.  0.
    9900012    2    3    3    0    0 -0.10426213292E+01  0.54762960485E+01  0.44699403072E+02  0.46142317491E+02  0.99999975395E+01 0.  0.
        -12    1    3    3    0    0  0.10426213292E+01 -0.54762960485E+01 -0.44699403072E+02  0.45045682509E+02  0.00000000000E+00 0.  1.
         11    1    4    4    0    0 -0.53097007131E-01  0.46143662831E+01  0.14793055405E+02  0.15496118351E+02  0.51100000000E-03 0. -1.
        -11    1    4    4    0    0 -0.29953429441E+00  0.29353570444E+01  0.65033336692E+01  0.71413857791E+01  0.51100000000E-03 0.  1.
         12    1    4    4    0    0 -0.68999002761E+00 -0.20734272791E+01  0.23403013998E+02  0.23504813361E+02  0.00000000000E+00 0. -1.
</event>
<event>
 8    1  0.9117959E-009  0.9118800E+02  0.7816164E-02  0.1184000E+00
        -11   -1    0    0    0    0  0.00000000000E+00  0.00000000000E+00  0.45593999997E+02  0.45594000000E+02  0.51100000000E-03 0. -1.
         11   -1    0    0    0    0 -0.00000000000E+00 -0.00000000000E+00 -0.45593999997E+02  0.45594000000E+02  0.51100000000E-03 0.  1.
         23    2    1    2    0    0 -0.17763568394E-14 -0.35527136788E-14  0.71054273576E-14  0.91188000000E+02  0.91188000000E+02 0.  0.
    9900012    2    3    3    0    0  0.77935616033E+01  0.27868407714E+02 -0.34521378753E+02  0.46142319386E+02  0.10000014818E+02 0.  0.
         12    1    3    3    0    0 -0.77935616033E+01 -0.27868407714E+02  0.34521378753E+02  0.45045680614E+02  0.00000000000E+00 0. -1.
         11    1    4    4    0    0 -0.91033478249E-01 -0.32067595616E+00 -0.19722202910E+01  0.20001933157E+01  0.51100000000E-03 0. -1.
        -11    1    4    4    0    0  0.18284309640E+01  0.12594644225E+02 -0.10720482398E+02  0.16640221334E+02  0.51100000000E-03 0.  1.
        -12    1    4    4    0    0  0.60561641176E+01  0.15594439445E+02 -0.21828676064E+02  0.27501904736E+02  0.00000000000E+00 0.  1.
</event>
<event>
 8    1  0.9117959E-009  0.9118800E+02  0.7816164E-02  0.1184000E+00
        -11   -1    0    0    0    0  0.00000000000E+00  0.00000000000E+00  0.45593999997E+02  0.45594000000E+02  0.51100000000E-03 0. -1.
         11   -1    0    0    0    0 -0.00000000000E+00 -0.00000000000E+00 -0.45593999997E+02  0.45594000000E+02  0.51100000000E-03 0.  1.
         23    2    1    2    0    0  0.00000000000E+00 -0.55511151231E-15 -0.71054273576E-14  0.91188000000E+02  0.91188000000E+02 0.  0.
    9900012    2    3    3    0    0 -0.22404181815E+02  0.72972831300E+00  0.39072159409E+02  0.46142317554E+02  0.99999981078E+01 0.  0.
        -12    1    3    3    0    0  0.22404181815E+02 -0.72972831300E+00 -0.39072159409E+02  0.45045682446E+02  0.00000000000E+00 0.  1.
         11    1    4    4    0    0 -0.74183470888E+01  0.40495762311E+01  0.88796248351E+01  0.12258820443E+02  0.51100000000E-03 0.  1.
        -11    1    4    4    0    0 -0.35279740335E+01 -0.11424947955E+01  0.77402057548E+01  0.85826965766E+01  0.51100000000E-03 0. -1.
        -12    1    4    4    0    0 -0.11457860693E+02 -0.21773531226E+01  0.22452328819E+02  0.25300800534E+02  0.00000000000E+00 0.  1.
</event>
<event>
 8    1  0.9117959E-009  0.9118800E+02  0.7816164E-02  0.1184000E+00
        -11   -1    0    0    0    0  0.00000000000E+00  0.00000000000E+00  0.45593999997E+02  0.45594000000E+02  0.51100000000E-03 0. -1.
         11   -1    0    0    0    0 -0.00000000000E+00 -0.00000000000E+00 -0.45593999997E+02  0.45594000000E+02  0.51100000000E-03 0.  1.
         23    2    1    2    0    0  0.00000000000E+00  0.00000000000E+00  0.00000000000E+00  0.91188000000E+02  0.91188000000E+02 0.  0.
    9900012    2    3    3    0    0 -0.30406749123E+02 -0.65518320016E+01 -0.32582458697E+02  0.46142317526E+02  0.99999978563E+01 0.  0.
         12    1    3    3    0    0  0.30406749123E+02  0.65518320016E+01  0.32582458697E+02  0.45045682474E+02  0.00000000000E+00 0. -1.
         11    1    4    4    0    0 -0.18829273873E+02 -0.44082716839E+01 -0.16708610414E+02  0.25556840103E+02  0.51100000000E-03 0. -1.
        -11    1    4    4    0    0 -0.89326844666E+01  0.62531589834E+00 -0.13054390403E+02  0.15830381575E+02  0.51100000000E-03 0.  1.
         12    1    4    4    0    0 -0.26447907832E+01 -0.27688762161E+01 -0.28194578801E+01  0.47550958481E+01  0.00000000000E+00 0. -1.
</event>
<event>
 8    1  0.9117959E-009  0.9118800E+02  0.7816164E-02  0.1184000E+00
        -11   -1    0    0    0    0  0.00000000000E+00  0.00000000000E+00  0.45593999997E+02  0.45594000000E+02  0.51100000000E-03 0. -1.
         11   -1    0    0    0    0 -0.00000000000E+00 -0.00000000000E+00 -0.45593999997E+02  0.45594000000E+02  0.51100000000E-03 0.  1.
         23    2    1    2    0    0 -0.88817841970E-15  0.00000000000E+00  0.00000000000E+00  0.91188000000E+02  0.91188000000E+02 0.  0.
    9900012    2    3    3    0    0 -0.68653651435E+01  0.44015104154E+02  0.66821267520E+01  0.46142318185E+02  0.10000003869E+02 0.  0.
        -12    1    3    3    0    0  0.68653651435E+01 -0.44015104154E+02 -0.66821267520E+01  0.45045681815E+02  0.00000000000E+00 0.  1.
         11    1    4    4    0    0 -0.54696833010E+01  0.19830652398E+02  0.50210467441E+01  0.21175058928E+02  0.51100000000E-03 0. -1.
        -11    1    4    4    0    0 -0.44911045359E+00  0.78613660325E+01 -0.21825217795E+01  0.81710573169E+01  0.51100000000E-03 0.  1.
         12    1    4    4    0    0 -0.94657138892E+00  0.16323085723E+02  0.38436017874E+01  0.16796201940E+02  0.00000000000E+00 0. -1.
</event>
<event>
 8    1  0.9117959E-009  0.9118800E+02  0.7816164E-02  0.1184000E+00
        -11   -1    0    0    0    0  0.00000000000E+00  0.00000000000E+00  0.45593999997E+02  0.45594000000E+02  0.51100000000E-03 0.  1.
         11   -1    0    0    0    0 -0.00000000000E+00 -0.00000000000E+00 -0.45593999997E+02  0.45594000000E+02  0.51100000000E-03 0. -1.
         23    2    1    2    0    0  0.35527136788E-14  0.00000000000E+00 -0.22204460493E-15  0.91188000000E+02  0.91188000000E+02 0.  0.
    9900012    2    3    3    0    0  0.26339572008E+02 -0.36489434681E+02  0.19650937076E+01  0.46142317741E+02  0.99999998177E+01 0.  0.
         12    1    3    3    0    0 -0.26339572008E+02  0.36489434681E+02 -0.19650937076E+01  0.45045682259E+02  0.00000000000E+00 0. -1.
         11    1    4    4    0    0  0.13146365124E+02 -0.12636189448E+02  0.23934995000E+01  0.18391004319E+02  0.51100000000E-03 0. -1.
        -11    1    4    4    0    0  0.78476321869E+01 -0.11191557104E+02  0.19370773202E+01  0.13805381203E+02  0.51100000000E-03 0.  1.
         12    1    4    4    0    0  0.53455746974E+01 -0.12661688129E+02 -0.23654831126E+01  0.13945932220E+02  0.00000000000E+00 0. -1.
</event>
<event>
 8    1  0.9117959E-009  0.9118800E+02  0.7816164E-02  0.1184000E+00
        -11   -1    0    0    0    0  0.00000000000E+00  0.00000000000E+00  0.45593999997E+02  0.45594000000E+02  0.51100000000E-03 0.  1.
         11   -1    0    0    0    0 -0.00000000000E+00 -0.00000000000E+00 -0.45593999997E+02  0.45594000000E+02  0.51100000000E-03 0. -1.
         23    2    1    2    0    0  0.00000000000E+00  0.00000000000E+00  0.00000000000E+00  0.91188000000E+02  0.91188000000E+02 0.  0.
    9900012    2    3    3    0    0  0.24429597390E+02  0.33923533544E+02 -0.16778025170E+02  0.46142317794E+02  0.10000000304E+02 0.  0.
         12    1    3    3    0    0 -0.24429597390E+02 -0.33923533544E+02  0.16778025170E+02  0.45045682206E+02  0.00000000000E+00 0. -1.
         11    1    4    4    0    0  0.50840956052E+01  0.29366489560E+01 -0.35942891198E+01  0.68841012304E+01  0.51100000000E-03 0. -1.
        -11    1    4    4    0    0  0.16741317700E+02  0.27330607465E+02 -0.94364044360E+01  0.33410769996E+02  0.51100000000E-03 0.  1.
        -12    1    4    4    0    0  0.26041840845E+01  0.36562771232E+01 -0.37473316138E+01  0.58474465685E+01  0.00000000000E+00 0.  1.
</event>
<event>
 8    1  0.9117959E-009  0.9118800E+02  0.7816164E-02  0.1184000E+00
        -11   -1    0    0    0    0  0.00000000000E+00  0.00000000000E+00  0.45593999997E+02  0.45594000000E+02  0.51100000000E-03 0. -1.
         11   -1    0    0    0    0 -0.00000000000E+00 -0.00000000000E+00 -0.45593999997E+02  0.45594000000E+02  0.51100000000E-03 0.  1.
         23    2    1    2    0    0  0.88817841970E-15 -0.44408920985E-15 -0.71054273576E-14  0.91188000000E+02  0.91188000000E+02 0.  0.
    9900012    2    3    3    0    0  0.27122536769E+01 -0.37847479481E+01 -0.44804384244E+02  0.46142317804E+02  0.10000000390E+02 0.  0.
         12    1    3    3    0    0 -0.27122536769E+01  0.37847479481E+01  0.44804384244E+02  0.45045682196E+02  0.00000000000E+00 0. -1.
         11    1    4    4    0    0  0.31635085526E+01 -0.16628142837E+01 -0.63613028509E+01  0.72964999778E+01  0.51100000000E-03 0. -1.
        -11    1    4    4    0    0 -0.10439937620E+01 -0.37609988592E+00 -0.15477212220E+01  0.19044199488E+01  0.51100000000E-03 0.  1.
        -12    1    4    4    0    0  0.59273888637E+00 -0.17458337785E+01 -0.36895360171E+02  0.36941397877E+02  0.00000000000E+00 0.  1.
</event>
<event>
 8    1  0.9117959E-009  0.9118800E+02  0.7816164E-02  0.1184000E+00
        -11   -1    0    0    0    0  0.00000000000E+00  0.00000000000E+00  0.45593999997E+02  0.45594000000E+02  0.51100000000E-03 0. -1.
         11   -1    0    0    0    0 -0.00000000000E+00 -0.00000000000E+00 -0.45593999997E+02  0.45594000000E+02  0.51100000000E-03 0.  1.
         23    2    1    2    0    0  0.00000000000E+00 -0.17763568394E-14  0.00000000000E+00  0.91188000000E+02  0.91188000000E+02 0.  0.
    9900012    2    3    3    0    0  0.86953497259E+01 -0.13295655741E+02  0.42151269560E+02  0.46142322139E+02  0.10000039920E+02 0.  0.
        -12    1    3    3    0    0 -0.86953497259E+01  0.13295655741E+02 -0.42151269560E+02  0.45045677861E+02  0.00000000000E+00 0.  1.
         11    1    4    4    0    0  0.48435941869E+01 -0.68751913221E+01  0.32940625202E+02  0.33997256497E+02  0.51100000000E-03 0. -1.
        -11    1    4    4    0    0  0.20838010900E+01 -0.14238984402E+01  0.21432692729E+01  0.33110900302E+01  0.51100000000E-03 0.  1.
         12    1    4    4    0    0  0.17679544490E+01 -0.49965659789E+01  0.70673750853E+01  0.88339756119E+01  0.00000000000E+00 0. -1.
</event>
<event>
 8    1  0.9117959E-009  0.9118800E+02  0.7816164E-02  0.1184000E+00
        -11   -1    0    0    0    0  0.00000000000E+00  0.00000000000E+00  0.45593999997E+02  0.45594000000E+02  0.51100000000E-03 0. -1.
         11   -1    0    0    0    0 -0.00000000000E+00 -0.00000000000E+00 -0.45593999997E+02  0.45594000000E+02  0.51100000000E-03 0.  1.
         23    2    1    2    0    0  0.00000000000E+00  0.00000000000E+00  0.00000000000E+00  0.91188000000E+02  0.91188000000E+02 0.  0.
    9900012    2    3    3    0    0 -0.10920691898E+02  0.16066099562E+02  0.40641511448E+02  0.46142317416E+02  0.99999968520E+01 0.  0.
        -12    1    3    3    0    0  0.10920691898E+02 -0.16066099562E+02 -0.40641511448E+02  0.45045682584E+02  0.00000000000E+00 0.  1.
         11    1    4    4    0    0 -0.45661104407E+01  0.84288545004E+01  0.14206426140E+02  0.17138188255E+02  0.51100000000E-03 0. -1.
        -11    1    4    4    0    0 -0.59962055265E+01  0.41051754621E+01  0.11126828833E+02  0.13289592410E+02  0.51100000000E-03 0.  1.
        -12    1    4    4    0    0 -0.35837593121E+00  0.35320695999E+01  0.15308256476E+02  0.15714536751E+02  0.00000000000E+00 0.  1.
</event>
<event>
 8    1  0.9117959E-009  0.9118800E+02  0.7816164E-02  0.1184000E+00
        -11   -1    0    0    0    0  0.00000000000E+00  0.00000000000E+00  0.45593999997E+02  0.45594000000E+02  0.51100000000E-03 0. -1.
         11   -1    0    0    0    0 -0.00000000000E+00 -0.00000000000E+00 -0.45593999997E+02  0.45594000000E+02  0.51100000000E-03 0.  1.
         23    2    1    2    0    0 -0.22204460493E-15 -0.35527136788E-14  0.71054273576E-14  0.91188000000E+02  0.91188000000E+02 0.  0.
    9900012    2    3    3    0    0 -0.34304419968E+00 -0.30425266644E+02  0.33215944444E+02  0.46142317687E+02  0.99999993252E+01 0.  0.
        -12    1    3    3    0    0  0.34304419968E+00  0.30425266644E+02 -0.33215944444E+02  0.45045682313E+02  0.00000000000E+00 0.  1.
         11    1    4    4    0    0  0.64569562658E+00  0.11787938491E+00  0.83800987860E+00  0.10644619342E+01  0.51100000000E-03 0. -1.
        -11    1    4    4    0    0 -0.14273930676E+01 -0.90454197651E+01  0.14325833988E+02  0.17002546557E+02  0.51100000000E-03 0.  1.
         12    1    4    4    0    0  0.43865324136E+00 -0.21497726264E+02  0.18052100577E+02  0.28075309196E+02  0.00000000000E+00 0. -1.
</event>
<event>
 8    1  0.9117959E-009  0.9118800E+02  0.7816164E-02  0.1184000E+00
        -11   -1    0    0    0    0  0.00000000000E+00  0.00000000000E+00  0.45593999997E+02  0.45594000000E+02  0.51100000000E-03 0. -1.
         11   -1    0    0    0    0 -0.00000000000E+00 -0.00000000000E+00 -0.45593999997E+02  0.45594000000E+02  0.51100000000E-03 0.  1.
         23    2    1    2    0    0  0.00000000000E+00 -0.71054273576E-14  0.00000000000E+00  0.91188000000E+02  0.91188000000E+02 0.  0.
    9900012    2    3    3    0    0  0.18697932558E+02 -0.33197227342E+02 -0.24030059638E+02  0.46142330382E+02  0.10000115082E+02 0.  0.
         12    1    3    3    0    0 -0.18697932558E+02  0.33197227342E+02  0.24030059638E+02  0.45045669618E+02  0.00000000000E+00 0. -1.
         11    1    4    4    0    0  0.10325795065E+02 -0.15701559697E+02 -0.17441876400E+02  0.25639424199E+02  0.51100000000E-03 0. -1.
        -11    1    4    4    0    0  0.21471576685E+01 -0.40461797908E+01 -0.18977470859E+01  0.49581550214E+01  0.51100000000E-03 0.  1.
         12    1    4    4    0    0  0.62249798246E+01 -0.13449487854E+02 -0.46904361523E+01  0.15544751161E+02  0.00000000000E+00 0. -1.
</event>
<event>
 8    1  0.9117959E-009  0.9118800E+02  0.7816164E-02  0.1184000E+00
        -11   -1    0    0    0    0  0.00000000000E+00  0.00000000000E+00  0.45593999997E+02  0.45594000000E+02  0.51100000000E-03 0. -1.
         11   -1    0    0    0    0 -0.00000000000E+00 -0.00000000000E+00 -0.45593999997E+02  0.45594000000E+02  0.51100000000E-03 0.  1.
         23    2    1    2    0    0  0.00000000000E+00  0.00000000000E+00  0.00000000000E+00  0.91188000000E+02  0.91188000000E+02 0.  0.
    9900012    2    3    3    0    0 -0.32124043072E+02  0.31212313300E+02 -0.47908177892E+01  0.46142305645E+02  0.99998895195E+01 0.  0.
         12    1    3    3    0    0  0.32124043072E+02 -0.31212313300E+02  0.47908177892E+01  0.45045694355E+02  0.00000000000E+00 0. -1.
         11    1    4    4    0    0 -0.17144364082E+01  0.32704850029E+01  0.70834173972E+00  0.37599351901E+01  0.51100000000E-03 0. -1.
        -11    1    4    4    0    0 -0.28740687974E+02  0.25200452328E+02 -0.30509583473E+01  0.38345772776E+02  0.51100000000E-03 0.  1.
        -12    1    4    4    0    0 -0.16689186898E+01  0.27413759692E+01 -0.24482011816E+01  0.40365976791E+01  0.00000000000E+00 0.  1.
</event>
<event>
 8    1  0.9117959E-009  0.9118800E+02  0.7816164E-02  0.1184000E+00
        -11   -1    0    0    0    0  0.00000000000E+00  0.00000000000E+00  0.45593999997E+02  0.45594000000E+02  0.51100000000E-03 0. -1.
         11   -1    0    0    0    0 -0.00000000000E+00 -0.00000000000E+00 -0.45593999997E+02  0.45594000000E+02  0.51100000000E-03 0.  1.
         23    2    1    2    0    0  0.00000000000E+00 -0.35527136788E-14  0.00000000000E+00  0.91188000000E+02  0.91188000000E+02 0.  0.
    9900012    2    3    3    0    0 -0.14272341061E+02  0.27478271514E+02 -0.32716332269E+02  0.46142317389E+02  0.99999966038E+01 0.  0.
         12    1    3    3    0    0  0.14272341061E+02 -0.27478271514E+02  0.32716332269E+02  0.45045682611E+02  0.00000000000E+00 0. -1.
         11    1    4    4    0    0  0.10519968387E+01  0.29815064796E+01 -0.17162126771E+01  0.35974246970E+01  0.51100000000E-03 0. -1.
        -11    1    4    4    0    0 -0.78329475309E+01  0.12220842138E+02 -0.12836317180E+02  0.19377179583E+02  0.51100000000E-03 0.  1.
         12    1    4    4    0    0 -0.74913903690E+01  0.12275922896E+02 -0.18163802412E+02  0.23167713108E+02  0.00000000000E+00 0. -1.
</event>
<event>
 8    1  0.9117959E-009  0.9118800E+02  0.7816164E-02  0.1184000E+00
        -11   -1    0    0    0    0  0.00000000000E+00  0.00000000000E+00  0.45593999997E+02  0.45594000000E+02  0.51100000000E-03 0. -1.
         11   -1    0    0    0    0 -0.00000000000E+00 -0.00000000000E+00 -0.45593999997E+02  0.45594000000E+02  0.51100000000E-03 0.  1.
         23    2    1    2    0    0  0.00000000000E+00  0.00000000000E+00  0.00000000000E+00  0.91188000000E+02  0.91188000000E+02 0.  0.
    9900012    2    3    3    0    0 -0.36873002972E+02 -0.54935958915E+01 -0.25284689667E+02  0.46142317903E+02  0.10000001298E+02 0.  0.
         12    1    3    3    0    0  0.36873002972E+02  0.54935958915E+01  0.25284689667E+02  0.45045682097E+02  0.00000000000E+00 0. -1.
         11    1    4    4    0    0 -0.64604401653E+01 -0.24102641515E+01 -0.22930406141E+01  0.72666839706E+01  0.51100000000E-03 0. -1.
        -11    1    4    4    0    0 -0.29586642375E+02 -0.29702618787E+01 -0.23498962653E+02  0.37899777159E+02  0.51100000000E-03 0.  1.
        -12    1    4    4    0    0 -0.82592043179E+00 -0.11306986128E+00  0.50731360094E+00  0.97585677375E+00  0.00000000000E+00 0.  1.
</event>
<event>
 8    1  0.9117959E-009  0.9118800E+02  0.7816164E-02  0.1184000E+00
        -11   -1    0    0    0    0  0.00000000000E+00  0.00000000000E+00  0.45593999997E+02  0.45594000000E+02  0.51100000000E-03 0. -1.
         11   -1    0    0    0    0 -0.00000000000E+00 -0.00000000000E+00 -0.45593999997E+02  0.45594000000E+02  0.51100000000E-03 0.  1.
         23    2    1    2    0    0 -0.35527136788E-14  0.00000000000E+00 -0.35527136788E-14  0.91188000000E+02  0.91188000000E+02 0.  0.
    9900012    2    3    3    0    0 -0.29986261595E+02  0.24702506535E+02 -0.22797450259E+02  0.46142318166E+02  0.10000003694E+02 0.  0.
         12    1    3    3    0    0  0.29986261595E+02 -0.24702506535E+02  0.22797450259E+02  0.45045681834E+02  0.00000000000E+00 0. -1.
         11    1    4    4    0    0 -0.64545857035E+01  0.83169837387E+01 -0.66332672267E+01  0.12443236294E+02  0.51100000000E-03 0. -1.
        -11    1    4    4    0    0 -0.18911413696E+02  0.12480514417E+02 -0.15829935734E+02  0.27640399304E+02  0.51100000000E-03 0.  1.
        -12    1    4    4    0    0 -0.46202621954E+01  0.39050083793E+01 -0.33424729800E+00  0.60586825674E+01  0.00000000000E+00 0.  1.
</event>
<event>
 8    1  0.9117959E-009  0.9118800E+02  0.7816164E-02  0.1184000E+00
        -11   -1    0    0    0    0  0.00000000000E+00  0.00000000000E+00  0.45593999997E+02  0.45594000000E+02  0.51100000000E-03 0.  1.
         11   -1    0    0    0    0 -0.00000000000E+00 -0.00000000000E+00 -0.45593999997E+02  0.45594000000E+02  0.51100000000E-03 0. -1.
         23    2    1    2    0    0 -0.17763568394E-14 -0.35527136788E-14 -0.71054273576E-14  0.91188000000E+02  0.91188000000E+02 0.  0.
    9900012    2    3    3    0    0  0.86460046517E+01  0.27991112005E+02  0.34217796181E+02  0.46142319595E+02  0.10000016718E+02 0.  0.
        -12    1    3    3    0    0 -0.86460046517E+01 -0.27991112005E+02 -0.34217796181E+02  0.45045680405E+02  0.00000000000E+00 0.  1.
         11    1    4    4    0    0  0.91165535764E+01  0.23763047236E+02  0.26657149113E+02  0.36856445327E+02  0.51100000000E-03 0. -1.
        -11    1    4    4    0    0  0.95962326330E+00  0.36187685339E+01  0.45055924834E+01  0.58580480022E+01  0.51100000000E-03 0.  1.
        -12    1    4    4    0    0 -0.14301721880E+01  0.60929623503E+00  0.30550545849E+01  0.34278262654E+01  0.00000000000E+00 0.  1.
</event>
<event>
 8    1  0.9117959E-009  0.9118800E+02  0.7816164E-02  0.1184000E+00
        -11   -1    0    0    0    0  0.00000000000E+00  0.00000000000E+00  0.45593999997E+02  0.45594000000E+02  0.51100000000E-03 0. -1.
         11   -1    0    0    0    0 -0.00000000000E+00 -0.00000000000E+00 -0.45593999997E+02  0.45594000000E+02  0.51100000000E-03 0.  1.
         23    2    1    2    0    0  0.00000000000E+00 -0.35527136788E-14  0.00000000000E+00  0.91188000000E+02  0.91188000000E+02 0.  0.
    9900012    2    3    3    0    0 -0.89268294962E+01 -0.16682540343E+02 -0.40879310254E+02  0.46142318253E+02  0.10000004486E+02 0.  0.
         12    1    3    3    0    0  0.89268294962E+01  0.16682540343E+02  0.40879310254E+02  0.45045681747E+02  0.00000000000E+00 0. -1.
         11    1    4    4    0    0 -0.31544638920E+01 -0.72488756311E+01 -0.10262092626E+02  0.12954049008E+02  0.51100000000E-03 0. -1.
        -11    1    4    4    0    0 -0.37193208722E+01 -0.24233382981E+01 -0.57134728051E+01  0.72353084255E+01  0.51100000000E-03 0.  1.
        -12    1    4    4    0    0 -0.20530447320E+01 -0.70103264143E+01 -0.24903744823E+02  0.25952960820E+02  0.00000000000E+00 0.  1.
</event>
<event>
 8    1  0.9117959E-009  0.9118800E+02  0.7816164E-02  0.1184000E+00
        -11   -1    0    0    0    0  0.00000000000E+00  0.00000000000E+00  0.45593999997E+02  0.45594000000E+02  0.51100000000E-03 0. -1.
         11   -1    0    0    0    0 -0.00000000000E+00 -0.00000000000E+00 -0.45593999997E+02  0.45594000000E+02  0.51100000000E-03 0.  1.
         23    2    1    2    0    0  0.71054273576E-14  0.00000000000E+00  0.00000000000E+00  0.91188000000E+02  0.91188000000E+02 0.  0.
    9900012    2    3    3    0    0 -0.33636107701E+02 -0.92937355630E+01  0.28484243882E+02  0.46142318614E+02  0.10000007780E+02 0.  0.
        -12    1    3    3    0    0  0.33636107701E+02  0.92937355630E+01 -0.28484243882E+02  0.45045681386E+02  0.00000000000E+00 0.  1.
         11    1    4    4    0    0 -0.17987088566E+02 -0.65849525843E+01  0.99374874473E+01  0.21578939099E+02  0.51100000000E-03 0. -1.
        -11    1    4    4    0    0 -0.39882482563E+01 -0.18960362472E+01  0.50405219345E+01  0.67013386154E+01  0.51100000000E-03 0.  1.
         12    1    4    4    0    0 -0.11660770878E+02 -0.81274673156E+00  0.13506234500E+02  0.17862040900E+02  0.00000000000E+00 0. -1.
</event>
<event>
 8    1  0.9117959E-009  0.9118800E+02  0.7816164E-02  0.1184000E+00
        -11   -1    0    0    0    0  0.00000000000E+00  0.00000000000E+00  0.45593999997E+02  0.45594000000E+02  0.51100000000E-03 0. -1.
         11   -1    0    0    0    0 -0.00000000000E+00 -0.00000000000E+00 -0.45593999997E+02  0.45594000000E+02  0.51100000000E-03 0.  1.
         23    2    1    2    0    0  0.17763568394E-14  0.35527136788E-14  0.00000000000E+00  0.91188000000E+02  0.91188000000E+02 0.  0.
    9900012    2    3    3    0    0  0.13487168462E+02  0.12244190602E+02  0.41198179814E+02  0.46142312785E+02  0.99999546273E+01 0.  0.
        -12    1    3    3    0    0 -0.13487168462E+02 -0.12244190602E+02 -0.41198179814E+02  0.45045687215E+02  0.00000000000E+00 0.  1.
         11    1    4    4    0    0  0.75412951465E+01  0.83617988612E+01  0.19179116537E+02  0.22240263579E+02  0.51100000000E-03 0. -1.
        -11    1    4    4    0    0  0.39720148461E+01  0.37022845328E+01  0.75608673891E+01  0.93086265709E+01  0.51100000000E-03 0.  1.
        -12    1    4    4    0    0  0.19738584693E+01  0.18010720816E+00  0.14458195888E+02  0.14593422635E+02  0.00000000000E+00 0.  1.
</event>
<event>
 8    1  0.9117959E-009  0.9118800E+02  0.7816164E-02  0.1184000E+00
        -11   -1    0    0    0    0  0.00000000000E+00  0.00000000000E+00  0.45593999997E+02  0.45594000000E+02  0.51100000000E-03 0. -1.
         11   -1    0    0    0    0 -0.00000000000E+00 -0.00000000000E+00 -0.45593999997E+02  0.45594000000E+02  0.51100000000E-03 0.  1.
         23    2    1    2    0    0  0.00000000000E+00 -0.35527136788E-14  0.35527136788E-14  0.91188000000E+02  0.91188000000E+02 0.  0.
    9900012    2    3    3    0    0 -0.26430643859E+01  0.31871621120E+02 -0.31722664795E+02  0.46142317811E+02  0.10000000456E+02 0.  0.
         12    1    3    3    0    0  0.26430643859E+01 -0.31871621120E+02  0.31722664795E+02  0.45045682189E+02  0.00000000000E+00 0. -1.
         11    1    4    4    0    0  0.63154334078E-02  0.24201525387E+02 -0.20250196816E+02  0.31556050803E+02  0.51100000000E-03 0. -1.
        -11    1    4    4    0    0 -0.39150031671E+00  0.63419989304E+01 -0.86838154136E+01  0.10760245040E+02  0.51100000000E-03 0.  1.
         12    1    4    4    0    0 -0.22578795026E+01  0.13280968024E+01 -0.27886525654E+01  0.38260219674E+01  0.00000000000E+00 0. -1.
</event>
<event>
 8    1  0.9117959E-009  0.9118800E+02  0.7816164E-02  0.1184000E+00
        -11   -1    0    0    0    0  0.00000000000E+00  0.00000000000E+00  0.45593999997E+02  0.45594000000E+02  0.51100000000E-03 0. -1.
         11   -1    0    0    0    0 -0.00000000000E+00 -0.00000000000E+00 -0.45593999997E+02  0.45594000000E+02  0.51100000000E-03 0.  1.
         23    2    1    2    0    0 -0.88817841970E-15  0.00000000000E+00  0.00000000000E+00  0.91188000000E+02  0.91188000000E+02 0.  0.
    9900012    2    3    3    0    0 -0.50807066565E+01  0.18979167269E+02 -0.40535060975E+02  0.46142317203E+02  0.99999949147E+01 0.  0.
         12    1    3    3    0    0  0.50807066565E+01 -0.18979167269E+02  0.40535060975E+02  0.45045682797E+02  0.00000000000E+00 0. -1.
         11    1    4    4    0    0  0.32156845657E+00  0.18870653985E+01 -0.63181436867E+01  0.66017696111E+01  0.51100000000E-03 0. -1.
        -11    1    4    4    0    0  0.38434312264E+00  0.12129528104E+02 -0.22450376577E+02  0.25520434565E+02  0.51100000000E-03 0.  1.
         12    1    4    4    0    0 -0.57866182357E+01  0.49625737656E+01 -0.11766540712E+02  0.14020113028E+02  0.00000000000E+00 0. -1.
</event>
<event>
 8    1  0.9117959E-009  0.9118800E+02  0.7816164E-02  0.1184000E+00
        -11   -1    0    0    0    0  0.00000000000E+00  0.00000000000E+00  0.45593999997E+02  0.45594000000E+02  0.51100000000E-03 0. -1.
         11   -1    0    0    0    0 -0.00000000000E+00 -0.00000000000E+00 -0.45593999997E+02  0.45594000000E+02  0.51100000000E-03 0.  1.
         23    2    1    2    0    0 -0.35527136788E-14  0.00000000000E+00  0.00000000000E+00  0.91188000000E+02  0.91188000000E+02 0.  0.
    9900012    2    3    3    0    0  0.20336146600E+02  0.25969140459E+02  0.30678304413E+02  0.46142317894E+02  0.10000001211E+02 0.  0.
        -12    1    3    3    0    0 -0.20336146600E+02 -0.25969140459E+02 -0.30678304413E+02  0.45045682106E+02  0.00000000000E+00 0.  1.
         11    1    4    4    0    0  0.25981183890E+01  0.17527685621E+01  0.69069127858E+01  0.75847123405E+01  0.51100000000E-03 0. -1.
        -11    1    4    4    0    0  0.18386232078E+01  0.49630608071E+01  0.53711635070E+01  0.75406833613E+01  0.51100000000E-03 0.  1.
         12    1    4    4    0    0  0.15899405003E+02  0.19253311090E+02  0.18400228120E+02  0.31016922192E+02  0.00000000000E+00 0. -1.
</event>
<event>
 8    1  0.9117959E-009  0.9118800E+02  0.7816164E-02  0.1184000E+00
        -11   -1    0    0    0    0  0.00000000000E+00  0.00000000000E+00  0.45593999997E+02  0.45594000000E+02  0.51100000000E-03 0. -1.
         11   -1    0    0    0    0 -0.00000000000E+00 -0.00000000000E+00 -0.45593999997E+02  0.45594000000E+02  0.51100000000E-03 0.  1.
         23    2    1    2    0    0  0.88817841970E-15  0.71054273576E-14  0.00000000000E+00  0.91188000000E+02  0.91188000000E+02 0.  0.
    9900012    2    3    3    0    0 -0.78521698058E+01 -0.43987272464E+02 -0.57076060564E+01  0.46142317895E+02  0.10000001218E+02 0.  0.
         12    1    3    3    0    0  0.78521698058E+01  0.43987272464E+02  0.57076060564E+01  0.45045682105E+02  0.00000000000E+00 0. -1.
         11    1    4    4    0    0 -0.31083709236E+01 -0.61034353109E+01 -0.21708712508E+01  0.71851635084E+01  0.51100000000E-03 0. -1.
        -11    1    4    4    0    0 -0.72552350440E+00 -0.23558265633E+01 -0.19919836775E+01  0.31692747410E+01  0.51100000000E-03 0.  1.
        -12    1    4    4    0    0 -0.40182753778E+01 -0.35528010589E+02 -0.15447511280E+01  0.35787879645E+02  0.00000000000E+00 0.  1.
</event>
<event>
 8    1  0.9117959E-009  0.9118800E+02  0.7816164E-02  0.1184000E+00
        -11   -1    0    0    0    0  0.00000000000E+00  0.00000000000E+00  0.45593999997E+02  0.45594000000E+02  0.51100000000E-03 0. -1.
         11   -1    0    0    0    0 -0.00000000000E+00 -0.00000000000E+00 -0.45593999997E+02  0.45594000000E+02  0.51100000000E-03 0.  1.
         23    2    1    2    0    0  0.11102230246E-15  0.35527136788E-14  0.00000000000E+00  0.91188000000E+02  0.91188000000E+02 0.  0.
    9900012    2    3    3    0    0  0.77587683622E+00 -0.27981227222E+02  0.35292526985E+02  0.46142317380E+02  0.99999965260E+01 0.  0.
        -12    1    3    3    0    0 -0.77587683622E+00  0.27981227222E+02 -0.35292526985E+02  0.45045682620E+02  0.00000000000E+00 0.  1.
         11    1    4    4    0    0  0.71347821989E+00 -0.11173579938E+02  0.20518343698E+02  0.23374352787E+02  0.51100000000E-03 0. -1.
        -11    1    4    4    0    0  0.83239563301E+00 -0.42519573131E+01  0.17848643759E+01  0.46859112863E+01  0.51100000000E-03 0.  1.
         12    1    4    4    0    0 -0.76999701669E+00 -0.12555689971E+02  0.12989318911E+02  0.18082053307E+02  0.00000000000E+00 0. -1.
</event>
<event>
 8    1  0.9117959E-009  0.9118800E+02  0.7816164E-02  0.1184000E+00
        -11   -1    0    0    0    0  0.00000000000E+00  0.00000000000E+00  0.45593999997E+02  0.45594000000E+02  0.51100000000E-03 0. -1.
         11   -1    0    0    0    0 -0.00000000000E+00 -0.00000000000E+00 -0.45593999997E+02  0.45594000000E+02  0.51100000000E-03 0.  1.
         23    2    1    2    0    0  0.66613381478E-15 -0.71054273576E-14  0.00000000000E+00  0.91188000000E+02  0.91188000000E+02 0.  0.
    9900012    2    3    3    0    0  0.11935040545E+01 -0.33245043891E+02  0.30371962232E+02  0.46142317797E+02  0.10000000331E+02 0.  0.
        -12    1    3    3    0    0 -0.11935040545E+01  0.33245043891E+02 -0.30371962232E+02  0.45045682203E+02  0.00000000000E+00 0.  1.
         11    1    4    4    0    0 -0.63256505379E+00 -0.79498261976E+00  0.54017103846E+00  0.11506176276E+01  0.51100000000E-03 0. -1.
        -11    1    4    4    0    0 -0.27300962700E+01 -0.13029665348E+02  0.85445398467E+01  0.15818810517E+02  0.51100000000E-03 0.  1.
         12    1    4    4    0    0  0.45561653783E+01 -0.19420395924E+02  0.21287251347E+02  0.29172889653E+02  0.00000000000E+00 0. -1.
</event>
<event>
 8    1  0.9117959E-009  0.9118800E+02  0.7816164E-02  0.1184000E+00
        -11   -1    0    0    0    0  0.00000000000E+00  0.00000000000E+00  0.45593999997E+02  0.45594000000E+02  0.51100000000E-03 0. -1.
         11   -1    0    0    0    0 -0.00000000000E+00 -0.00000000000E+00 -0.45593999997E+02  0.45594000000E+02  0.51100000000E-03 0.  1.
         23    2    1    2    0    0 -0.17763568394E-14  0.00000000000E+00  0.71054273576E-14  0.91188000000E+02  0.91188000000E+02 0.  0.
    9900012    2    3    3    0    0  0.87404661995E+01  0.14961104689E+02 -0.41579840175E+02  0.46142317500E+02  0.99999976224E+01 0.  0.
         12    1    3    3    0    0 -0.87404661995E+01 -0.14961104689E+02  0.41579840175E+02  0.45045682500E+02  0.00000000000E+00 0. -1.
         11    1    4    4    0    0  0.15236496877E+00  0.54359180665E+01 -0.57269851485E+01  0.78975172973E+01  0.51100000000E-03 0. -1.
        -11    1    4    4    0    0  0.55867577616E+00  0.27518513406E+01 -0.74544955994E+01  0.79658213215E+01  0.51100000000E-03 0.  1.
         12    1    4    4    0    0  0.80294254545E+01  0.67733352816E+01 -0.28398359427E+02  0.30278978882E+02  0.00000000000E+00 0. -1.
</event>
<event>
 8    1  0.9117959E-009  0.9118800E+02  0.7816164E-02  0.1184000E+00
        -11   -1    0    0    0    0  0.00000000000E+00  0.00000000000E+00  0.45593999997E+02  0.45594000000E+02  0.51100000000E-03 0. -1.
         11   -1    0    0    0    0 -0.00000000000E+00 -0.00000000000E+00 -0.45593999997E+02  0.45594000000E+02  0.51100000000E-03 0.  1.
         23    2    1    2    0    0  0.71054273576E-14  0.00000000000E+00  0.00000000000E+00  0.91188000000E+02  0.91188000000E+02 0.  0.
    9900012    2    3    3    0    0 -0.36570303990E+02  0.20741979995E+02 -0.16170855486E+02  0.46142318351E+02  0.10000005382E+02 0.  0.
         12    1    3    3    0    0  0.36570303990E+02 -0.20741979995E+02  0.16170855486E+02  0.45045681649E+02  0.00000000000E+00 0. -1.
         11    1    4    4    0    0 -0.13338093439E+02  0.66448065925E+01 -0.74931860775E+01  0.16679509258E+02  0.51100000000E-03 0. -1.
        -11    1    4    4    0    0 -0.20329341689E+02  0.10809979512E+02 -0.46107729245E+01  0.23481844429E+02  0.51100000000E-03 0.  1.
         12    1    4    4    0    0 -0.29028688622E+01  0.32871938901E+01 -0.40668964845E+01  0.59809646645E+01  0.00000000000E+00 0. -1.
</event>
<event>
 8    1  0.9117959E-009  0.9118800E+02  0.7816164E-02  0.1184000E+00
        -11   -1    0    0    0    0  0.00000000000E+00  0.00000000000E+00  0.45593999997E+02  0.45594000000E+02  0.51100000000E-03 0. -1.
         11   -1    0    0    0    0 -0.00000000000E+00 -0.00000000000E+00 -0.45593999997E+02  0.45594000000E+02  0.51100000000E-03 0.  1.
         23    2    1    2    0    0  0.22204460493E-15 -0.71054273576E-14 -0.35527136788E-14  0.91188000000E+02  0.91188000000E+02 0.  0.
    9900012    2    3    3    0    0 -0.17890713018E+01  0.40707385219E+02 -0.19204726688E+02  0.46142317470E+02  0.99999973427E+01 0.  0.
         12    1    3    3    0    0  0.17890713018E+01 -0.40707385219E+02  0.19204726688E+02  0.45045682530E+02  0.00000000000E+00 0. -1.
         11    1    4    4    0    0 -0.39674662712E+00  0.95330180946E+01 -0.14522432381E+01  0.96511580943E+01  0.51100000000E-03 0. -1.
        -11    1    4    4    0    0  0.19132928076E+01  0.45235402190E+01 -0.16643572636E+01  0.51858645222E+01  0.51100000000E-03 0.  1.
        -12    1    4    4    0    0 -0.33056174823E+01  0.26650826905E+02 -0.16088126186E+02  0.31305294853E+02  0.00000000000E+00 0.  1.
</event>
<event>
 8    1  0.9117959E-009  0.9118800E+02  0.7816164E-02  0.1184000E+00
        -11   -1    0    0    0    0  0.00000000000E+00  0.00000000000E+00  0.45593999997E+02  0.45594000000E+02  0.51100000000E-03 0. -1.
         11   -1    0    0    0    0 -0.00000000000E+00 -0.00000000000E+00 -0.45593999997E+02  0.45594000000E+02  0.51100000000E-03 0.  1.
         23    2    1    2    0    0  0.35527136788E-14  0.71054273576E-14  0.00000000000E+00  0.91188000000E+02  0.91188000000E+02 0.  0.
    9900012    2    3    3    0    0  0.16067573683E+02  0.30390881132E+02 -0.29109118865E+02  0.46142318951E+02  0.10000010850E+02 0.  0.
         12    1    3    3    0    0 -0.16067573683E+02 -0.30390881132E+02  0.29109118865E+02  0.45045681049E+02  0.00000000000E+00 0. -1.
         11    1    4    4    0    0  0.11124605069E+02  0.14771946524E+02 -0.18255344962E+02  0.25985089224E+02  0.51100000000E-03 0. -1.
        -11    1    4    4    0    0  0.42092572659E+01  0.95557167711E+01 -0.45813453324E+01  0.11402556514E+02  0.51100000000E-03 0.  1.
        -12    1    4    4    0    0  0.73371134845E+00  0.60632178374E+01 -0.62724285706E+01  0.87546732126E+01  0.00000000000E+00 0.  1.
</event>
<event>
 8    1  0.9117959E-009  0.9118800E+02  0.7816164E-02  0.1184000E+00
        -11   -1    0    0    0    0  0.00000000000E+00  0.00000000000E+00  0.45593999997E+02  0.45594000000E+02  0.51100000000E-03 0.  1.
         11   -1    0    0    0    0 -0.00000000000E+00 -0.00000000000E+00 -0.45593999997E+02  0.45594000000E+02  0.51100000000E-03 0. -1.
         23    2    1    2    0    0 -0.35527136788E-14  0.71054273576E-14  0.00000000000E+00  0.91188000000E+02  0.91188000000E+02 0.  0.
    9900012    2    3    3    0    0  0.27721493662E+02 -0.27911893259E+02 -0.21944442228E+02  0.46142317179E+02  0.99999946897E+01 0.  0.
         12    1    3    3    0    0 -0.27721493662E+02  0.27911893259E+02  0.21944442228E+02  0.45045682821E+02  0.00000000000E+00 0. -1.
         11    1    4    4    0    0  0.45598965240E+00  0.26117481630E+00  0.37392766781E+00  0.64495039316E+00  0.51100000000E-03 0. -1.
        -11    1    4    4    0    0  0.90393589010E+01 -0.11089920182E+02 -0.52387216778E+01  0.15236159098E+02  0.51100000000E-03 0.  1.
        -12    1    4    4    0    0  0.18226145109E+02 -0.17083147892E+02 -0.17079648218E+02  0.30261207687E+02  0.00000000000E+00 0.  1.
</event>
<event>
 8    1  0.9117959E-009  0.9118800E+02  0.7816164E-02  0.1184000E+00
        -11   -1    0    0    0    0  0.00000000000E+00  0.00000000000E+00  0.45593999997E+02  0.45594000000E+02  0.51100000000E-03 0. -1.
         11   -1    0    0    0    0 -0.00000000000E+00 -0.00000000000E+00 -0.45593999997E+02  0.45594000000E+02  0.51100000000E-03 0.  1.
         23    2    1    2    0    0  0.00000000000E+00 -0.16653345369E-15  0.00000000000E+00  0.91188000000E+02  0.91188000000E+02 0.  0.
    9900012    2    3    3    0    0  0.50429613851E+00  0.40373367422E+00 -0.45041050733E+02  0.46142316892E+02  0.99999920765E+01 0.  0.
         12    1    3    3    0    0 -0.50429613851E+00 -0.40373367422E+00  0.45041050733E+02  0.45045683108E+02  0.00000000000E+00 0. -1.
         11    1    4    4    0    0  0.50768684199E+00 -0.11711771755E+01 -0.22399021341E+02  0.22435364031E+02  0.51100000000E-03 0. -1.
        -11    1    4    4    0    0  0.80084889869E+00  0.21565177874E+01 -0.20210988876E+01  0.30621510251E+01  0.51100000000E-03 0.  1.
        -12    1    4    4    0    0 -0.80423960217E+00 -0.58160693774E+00 -0.20620930505E+02  0.20644801836E+02  0.00000000000E+00 0.  1.
</event>
<event>
 8    1  0.9117959E-009  0.9118800E+02  0.7816164E-02  0.1184000E+00
        -11   -1    0    0    0    0  0.00000000000E+00  0.00000000000E+00  0.45593999997E+02  0.45594000000E+02  0.51100000000E-03 0. -1.
         11   -1    0    0    0    0 -0.00000000000E+00 -0.00000000000E+00 -0.45593999997E+02  0.45594000000E+02  0.51100000000E-03 0.  1.
         23    2    1    2    0    0  0.17763568394E-14  0.00000000000E+00  0.00000000000E+00  0.91188000000E+02  0.91188000000E+02 0.  0.
    9900012    2    3    3    0    0 -0.15907794819E+02  0.15883877741E+02  0.39035342375E+02  0.46142318049E+02  0.10000002624E+02 0.  0.
        -12    1    3    3    0    0  0.15907794819E+02 -0.15883877741E+02 -0.39035342375E+02  0.45045681951E+02  0.00000000000E+00 0.  1.
         11    1    4    4    0    0 -0.29870886328E+01  0.83403964986E+00  0.70924356005E+01  0.77408632365E+01  0.51100000000E-03 0. -1.
        -11    1    4    4    0    0 -0.79811371585E+01  0.89318718362E+01  0.25724834173E+02  0.28376821145E+02  0.51100000000E-03 0.  1.
         12    1    4    4    0    0 -0.49395690275E+01  0.61179662550E+01  0.62180726020E+01  0.10024633667E+02  0.00000000000E+00 0. -1.
</event>
<event>
 8    1  0.9117959E-009  0.9118800E+02  0.7816164E-02  0.1184000E+00
        -11   -1    0    0    0    0  0.00000000000E+00  0.00000000000E+00  0.45593999997E+02  0.45594000000E+02  0.51100000000E-03 0. -1.
         11   -1    0    0    0    0 -0.00000000000E+00 -0.00000000000E+00 -0.45593999997E+02  0.45594000000E+02  0.51100000000E-03 0.  1.
         23    2    1    2    0    0  0.71054273576E-14 -0.17763568394E-14  0.00000000000E+00  0.91188000000E+02  0.91188000000E+02 0.  0.
    9900012    2    3    3    0    0 -0.26648416951E+02 -0.13658355072E+02  0.33651519409E+02  0.46142317101E+02  0.99999939800E+01 0.  0.
        -12    1    3    3    0    0  0.26648416951E+02  0.13658355072E+02 -0.33651519409E+02  0.45045682899E+02  0.00000000000E+00 0.  1.
         11    1    4    4    0    0 -0.10113589044E+02 -0.34224354907E+01  0.18936569058E+02  0.21739167325E+02  0.51100000000E-03 0. -1.
        -11    1    4    4    0    0 -0.60340611618E+01 -0.32309397327E+01  0.52018347840E+01  0.85969733652E+01  0.51100000000E-03 0.  1.
         12    1    4    4    0    0 -0.10500766746E+02 -0.70049798485E+01  0.95131155671E+01  0.15806176411E+02  0.00000000000E+00 0. -1.
</event>
<event>
 8    1  0.9117959E-009  0.9118800E+02  0.7816164E-02  0.1184000E+00
        -11   -1    0    0    0    0  0.00000000000E+00  0.00000000000E+00  0.45593999997E+02  0.45594000000E+02  0.51100000000E-03 0.  1.
         11   -1    0    0    0    0 -0.00000000000E+00 -0.00000000000E+00 -0.45593999997E+02  0.45594000000E+02  0.51100000000E-03 0. -1.
         23    2    1    2    0    0  0.00000000000E+00  0.00000000000E+00  0.00000000000E+00  0.91188000000E+02  0.91188000000E+02 0.  0.
    9900012    2    3    3    0    0 -0.43775528918E+02  0.82456065954E+01 -0.66953288390E+01  0.46142307770E+02  0.99999088944E+01 0.  0.
        -12    1    3    3    0    0  0.43775528918E+02 -0.82456065954E+01  0.66953288390E+01  0.45045692230E+02  0.00000000000E+00 0.  1.
         11    1    4    4    0    0 -0.31120169793E+02  0.76118355935E+01 -0.51004615909E+01  0.32441019061E+02  0.51100000000E-03 0. -1.
        -11    1    4    4    0    0 -0.26475756329E+01  0.21450720994E+01 -0.10490932463E+01  0.35653313933E+01  0.51100000000E-03 0.  1.
        -12    1    4    4    0    0 -0.10007783493E+02 -0.15113010976E+01 -0.54577400182E+00  0.10135957316E+02  0.00000000000E+00 0.  1.
</event>
<event>
 8    1  0.9117959E-009  0.9118800E+02  0.7816164E-02  0.1184000E+00
        -11   -1    0    0    0    0  0.00000000000E+00  0.00000000000E+00  0.45593999997E+02  0.45594000000E+02  0.51100000000E-03 0. -1.
         11   -1    0    0    0    0 -0.00000000000E+00 -0.00000000000E+00 -0.45593999997E+02  0.45594000000E+02  0.51100000000E-03 0.  1.
         23    2    1    2    0    0  0.35527136788E-14  0.00000000000E+00  0.00000000000E+00  0.91188000000E+02  0.91188000000E+02 0.  0.
    9900012    2    3    3    0    0 -0.30705645057E+02  0.34348129722E+01 -0.32779245079E+02  0.46142317783E+02  0.10000000197E+02 0.  0.
         12    1    3    3    0    0  0.30705645057E+02 -0.34348129722E+01  0.32779245079E+02  0.45045682217E+02  0.00000000000E+00 0. -1.
         11    1    4    4    0    0 -0.50102714236E+01 -0.16576174405E+01 -0.42536370358E+01  0.67781961915E+01  0.51100000000E-03 0. -1.
        -11    1    4    4    0    0 -0.24387470547E+01  0.28593217307E+01 -0.42007598127E+01  0.56364520065E+01  0.51100000000E-03 0.  1.
        -12    1    4    4    0    0 -0.23256626578E+02  0.22331086820E+01 -0.24324848230E+02  0.33727669585E+02  0.00000000000E+00 0.  1.
</event>
<event>
 8    1  0.9117959E-009  0.9118800E+02  0.7816164E-02  0.1184000E+00
        -11   -1    0    0    0    0  0.00000000000E+00  0.00000000000E+00  0.45593999997E+02  0.45594000000E+02  0.51100000000E-03 0. -1.
         11   -1    0    0    0    0 -0.00000000000E+00 -0.00000000000E+00 -0.45593999997E+02  0.45594000000E+02  0.51100000000E-03 0.  1.
         23    2    1    2    0    0 -0.17763568394E-14  0.00000000000E+00 -0.35527136788E-14  0.91188000000E+02  0.91188000000E+02 0.  0.
    9900012    2    3    3    0    0 -0.89571685892E+01  0.34162719570E+02 -0.27960529324E+02  0.46142317880E+02  0.10000001085E+02 0.  0.
         12    1    3    3    0    0  0.89571685892E+01 -0.34162719570E+02  0.27960529324E+02  0.45045682120E+02  0.00000000000E+00 0. -1.
         11    1    4    4    0    0 -0.20928871879E+01  0.45105940134E+01 -0.24912044306E+01  0.55616305982E+01  0.51100000000E-03 0. -1.
        -11    1    4    4    0    0 -0.57044290898E+01  0.20951572271E+02 -0.12923170193E+02  0.25268898274E+02  0.51100000000E-03 0.  1.
        -12    1    4    4    0    0 -0.11598523114E+01  0.87005532859E+01 -0.12546154700E+02  0.15311789008E+02  0.00000000000E+00 0.  1.
</event>
<event>
 8    1  0.9117959E-009  0.9118800E+02  0.7816164E-02  0.1184000E+00
        -11   -1    0    0    0    0  0.00000000000E+00  0.00000000000E+00  0.45593999997E+02  0.45594000000E+02  0.51100000000E-03 0. -1.
         11   -1    0    0    0    0 -0.00000000000E+00 -0.00000000000E+00 -0.45593999997E+02  0.45594000000E+02  0.51100000000E-03 0.  1.
         23    2    1    2    0    0  0.00000000000E+00  0.17763568394E-14  0.00000000000E+00  0.91188000000E+02  0.91188000000E+02 0.  0.
    9900012    2    3    3    0    0  0.81303573885E+01  0.14163941147E+02  0.41980871558E+02  0.46142317445E+02  0.99999971192E+01 0.  0.
        -12    1    3    3    0    0 -0.81303573885E+01 -0.14163941147E+02 -0.41980871558E+02  0.45045682555E+02  0.00000000000E+00 0.  1.
         11    1    4    4    0    0  0.52722103025E+01  0.48696891483E+01  0.27147021270E+02  0.28079722897E+02  0.51100000000E-03 0. -1.
        -11    1    4    4    0    0  0.10606884480E+00  0.27618998781E+00 -0.17067473794E+00  0.34155766203E+00  0.51100000000E-03 0.  1.
         12    1    4    4    0    0  0.27520782412E+01  0.90180620108E+01  0.15004525026E+02  0.17721036887E+02  0.00000000000E+00 0. -1.
</event>
<event>
 8    1  0.9117959E-009  0.9118800E+02  0.7816164E-02  0.1184000E+00
        -11   -1    0    0    0    0  0.00000000000E+00  0.00000000000E+00  0.45593999997E+02  0.45594000000E+02  0.51100000000E-03 0. -1.
         11   -1    0    0    0    0 -0.00000000000E+00 -0.00000000000E+00 -0.45593999997E+02  0.45594000000E+02  0.51100000000E-03 0.  1.
         23    2    1    2    0    0  0.00000000000E+00  0.00000000000E+00  0.00000000000E+00  0.91188000000E+02  0.91188000000E+02 0.  0.
    9900012    2    3    3    0    0 -0.33439352637E+01 -0.13632810469E+02  0.42802781559E+02  0.46142317259E+02  0.99999954257E+01 0.  0.
        -12    1    3    3    0    0  0.33439352637E+01  0.13632810469E+02 -0.42802781559E+02  0.45045682741E+02  0.00000000000E+00 0.  1.
         11    1    4    4    0    0 -0.42416631090E+01 -0.15994904258E+01  0.14741193685E+02  0.15422479278E+02  0.51100000000E-03 0. -1.
        -11    1    4    4    0    0  0.10328912523E+01 -0.40068299911E+01  0.64259439185E+01  0.76429252529E+01  0.51100000000E-03 0.  1.
         12    1    4    4    0    0 -0.13516340701E+00 -0.80264900524E+01  0.21635643956E+02  0.23076912729E+02  0.00000000000E+00 0. -1.
</event>
<event>
 8    1  0.9117959E-009  0.9118800E+02  0.7816164E-02  0.1184000E+00
        -11   -1    0    0    0    0  0.00000000000E+00  0.00000000000E+00  0.45593999997E+02  0.45594000000E+02  0.51100000000E-03 0. -1.
         11   -1    0    0    0    0 -0.00000000000E+00 -0.00000000000E+00 -0.45593999997E+02  0.45594000000E+02  0.51100000000E-03 0.  1.
         23    2    1    2    0    0  0.00000000000E+00  0.00000000000E+00  0.71054273576E-14  0.91188000000E+02  0.91188000000E+02 0.  0.
    9900012    2    3    3    0    0  0.13677239518E+02  0.18544378829E+02 -0.38705976641E+02  0.46142317691E+02  0.99999993566E+01 0.  0.
         12    1    3    3    0    0 -0.13677239518E+02 -0.18544378829E+02  0.38705976641E+02  0.45045682309E+02  0.00000000000E+00 0. -1.
         11    1    4    4    0    0  0.23556602204E+01  0.51432185979E+01 -0.17799956007E+02  0.18677266040E+02  0.51100000000E-03 0. -1.
        -11    1    4    4    0    0  0.21187214766E+01  0.46516259648E+01 -0.58025518010E+01  0.77328010757E+01  0.51100000000E-03 0.  1.
        -12    1    4    4    0    0  0.92028578213E+01  0.87495342662E+01 -0.15103468833E+02  0.19732250574E+02  0.00000000000E+00 0.  1.
</event>
<event>
 8    1  0.9117959E-009  0.9118800E+02  0.7816164E-02  0.1184000E+00
        -11   -1    0    0    0    0  0.00000000000E+00  0.00000000000E+00  0.45593999997E+02  0.45594000000E+02  0.51100000000E-03 0. -1.
         11   -1    0    0    0    0 -0.00000000000E+00 -0.00000000000E+00 -0.45593999997E+02  0.45594000000E+02  0.51100000000E-03 0.  1.
         23    2    1    2    0    0  0.00000000000E+00  0.00000000000E+00 -0.35527136788E-14  0.91188000000E+02  0.91188000000E+02 0.  0.
    9900012    2    3    3    0    0  0.14209790436E+02 -0.35922488225E+02  0.23168301116E+02  0.46142317841E+02  0.10000000731E+02 0.  0.
        -12    1    3    3    0    0 -0.14209790436E+02  0.35922488225E+02 -0.23168301116E+02  0.45045682159E+02  0.00000000000E+00 0.  1.
         11    1    4    4    0    0  0.72522474163E+01 -0.17609557064E+02  0.10683299595E+02  0.21836311114E+02  0.51100000000E-03 0. -1.
        -11    1    4    4    0    0  0.50185356241E+01 -0.40540463477E+01  0.42622822557E+01  0.77322727505E+01  0.51100000000E-03 0.  1.
        -12    1    4    4    0    0  0.19390073958E+01 -0.14258884814E+02  0.82227192650E+01  0.16573733976E+02  0.00000000000E+00 0.  1.
</event>
<event>
 8    1  0.9117959E-009  0.9118800E+02  0.7816164E-02  0.1184000E+00
        -11   -1    0    0    0    0  0.00000000000E+00  0.00000000000E+00  0.45593999997E+02  0.45594000000E+02  0.51100000000E-03 0. -1.
         11   -1    0    0    0    0 -0.00000000000E+00 -0.00000000000E+00 -0.45593999997E+02  0.45594000000E+02  0.51100000000E-03 0.  1.
         23    2    1    2    0    0  0.71054273576E-14  0.00000000000E+00  0.00000000000E+00  0.91188000000E+02  0.91188000000E+02 0.  0.
    9900012    2    3    3    0    0 -0.32861360869E+02  0.12090968162E+02  0.28338191371E+02  0.46142316084E+02  0.99999847053E+01 0.  0.
        -12    1    3    3    0    0  0.32861360869E+02 -0.12090968162E+02 -0.28338191371E+02  0.45045683916E+02  0.00000000000E+00 0.  1.
         11    1    4    4    0    0 -0.26088422409E+02  0.70856408842E+01  0.22094157508E+02  0.34913663325E+02  0.51100000000E-03 0. -1.
        -11    1    4    4    0    0 -0.21780561624E+01  0.60968259358E-01  0.23488166859E+00  0.21915326679E+01  0.51100000000E-03 0.  1.
         12    1    4    4    0    0 -0.45948822978E+01  0.49443590186E+01  0.60091521945E+01  0.90371200906E+01  0.00000000000E+00 0. -1.
</event>
<event>
 8    1  0.9117959E-009  0.9118800E+02  0.7816164E-02  0.1184000E+00
        -11   -1    0    0    0    0  0.00000000000E+00  0.00000000000E+00  0.45593999997E+02  0.45594000000E+02  0.51100000000E-03 0. -1.
         11   -1    0    0    0    0 -0.00000000000E+00 -0.00000000000E+00 -0.45593999997E+02  0.45594000000E+02  0.51100000000E-03 0.  1.
         23    2    1    2    0    0  0.00000000000E+00  0.00000000000E+00 -0.35527136788E-14  0.91188000000E+02  0.91188000000E+02 0.  0.
    9900012    2    3    3    0    0 -0.33491707871E+02  0.12087592639E+02  0.27591829459E+02  0.46142318245E+02  0.10000004412E+02 0.  0.
        -12    1    3    3    0    0  0.33491707871E+02 -0.12087592639E+02 -0.27591829459E+02  0.45045681755E+02  0.00000000000E+00 0.  1.
         11    1    4    4    0    0 -0.96343442249E+01  0.63281554326E+01  0.87390143736E+01  0.14465009931E+02  0.51100000000E-03 0. -1.
        -11    1    4    4    0    0  0.20364373782E+00 -0.47083769179E+00  0.57427544231E-01  0.51619481586E+00  0.51100000000E-03 0.  1.
         12    1    4    4    0    0 -0.24061007383E+02  0.62302748981E+01  0.18795387541E+02  0.31161113498E+02  0.00000000000E+00 0. -1.
</event>
<event>
 8    1  0.9117959E-009  0.9118800E+02  0.7816164E-02  0.1184000E+00
        -11   -1    0    0    0    0  0.00000000000E+00  0.00000000000E+00  0.45593999997E+02  0.45594000000E+02  0.51100000000E-03 0. -1.
         11   -1    0    0    0    0 -0.00000000000E+00 -0.00000000000E+00 -0.45593999997E+02  0.45594000000E+02  0.51100000000E-03 0.  1.
         23    2    1    2    0    0 -0.17763568394E-14  0.00000000000E+00  0.71054273576E-14  0.91188000000E+02  0.91188000000E+02 0.  0.
    9900012    2    3    3    0    0 -0.14707327421E+02  0.95756966484E+01  0.41486306748E+02  0.46142322141E+02  0.10000039940E+02 0.  0.
        -12    1    3    3    0    0  0.14707327421E+02 -0.95756966484E+01 -0.41486306748E+02  0.45045677859E+02  0.00000000000E+00 0.  1.
         11    1    4    4    0    0 -0.45634403621E+01  0.39795532539E+01  0.24020187578E+02  0.24771581370E+02  0.51100000000E-03 0. -1.
        -11    1    4    4    0    0 -0.39563606210E+01  0.43807717847E+00  0.37768791111E+01  0.54872139614E+01  0.51100000000E-03 0.  1.
         12    1    4    4    0    0 -0.61875264377E+01  0.51580662161E+01  0.13689240059E+02  0.15883526809E+02  0.00000000000E+00 0. -1.
</event>
<event>
 8    1  0.9117959E-009  0.9118800E+02  0.7816164E-02  0.1184000E+00
        -11   -1    0    0    0    0  0.00000000000E+00  0.00000000000E+00  0.45593999997E+02  0.45594000000E+02  0.51100000000E-03 0. -1.
         11   -1    0    0    0    0 -0.00000000000E+00 -0.00000000000E+00 -0.45593999997E+02  0.45594000000E+02  0.51100000000E-03 0.  1.
         23    2    1    2    0    0 -0.35527136788E-14  0.00000000000E+00  0.35527136788E-14  0.91188000000E+02  0.91188000000E+02 0.  0.
    9900012    2    3    3    0    0  0.30466014272E+02 -0.10094555340E+02 -0.31607523304E+02  0.46142316494E+02  0.99999884436E+01 0.  0.
         12    1    3    3    0    0 -0.30466014272E+02  0.10094555340E+02  0.31607523304E+02  0.45045683506E+02  0.00000000000E+00 0. -1.
         11    1    4    4    0    0  0.38810958408E+01 -0.32283514500E+01 -0.88104292866E+01  0.10154251449E+02  0.51100000000E-03 0. -1.
        -11    1    4    4    0    0  0.54480072520E+01 -0.24854920563E+01 -0.29967012660E+01  0.66961684954E+01  0.51100000000E-03 0.  1.
         12    1    4    4    0    0  0.21136911179E+02 -0.43807118341E+01 -0.19800392751E+02  0.29291896550E+02  0.00000000000E+00 0. -1.
</event>
<event>
 8    1  0.9117959E-009  0.9118800E+02  0.7816164E-02  0.1184000E+00
        -11   -1    0    0    0    0  0.00000000000E+00  0.00000000000E+00  0.45593999997E+02  0.45594000000E+02  0.51100000000E-03 0. -1.
         11   -1    0    0    0    0 -0.00000000000E+00 -0.00000000000E+00 -0.45593999997E+02  0.45594000000E+02  0.51100000000E-03 0.  1.
         23    2    1    2    0    0  0.00000000000E+00  0.00000000000E+00  0.00000000000E+00  0.91188000000E+02  0.91188000000E+02 0.  0.
    9900012    2    3    3    0    0 -0.11858287282E+01  0.80373295564E+01  0.44306981999E+02  0.46142317520E+02  0.99999978038E+01 0.  0.
        -12    1    3    3    0    0  0.11858287282E+01 -0.80373295564E+01 -0.44306981999E+02  0.45045682480E+02  0.00000000000E+00 0.  1.
         11    1    4    4    0    0 -0.30992126474E+01  0.48046536727E+01  0.27187552934E+02  0.27782239844E+02  0.51100000000E-03 0. -1.
        -11    1    4    4    0    0  0.52851412950E-01  0.42527410556E+01  0.13610204891E+02  0.14259252336E+02  0.51100000000E-03 0.  1.
         12    1    4    4    0    0  0.18605325063E+01 -0.10200651719E+01  0.35092241744E+01  0.41008253398E+01  0.00000000000E+00 0. -1.
</event>
<event>
 8    1  0.9117959E-009  0.9118800E+02  0.7816164E-02  0.1184000E+00
        -11   -1    0    0    0    0  0.00000000000E+00  0.00000000000E+00  0.45593999997E+02  0.45594000000E+02  0.51100000000E-03 0. -1.
         11   -1    0    0    0    0 -0.00000000000E+00 -0.00000000000E+00 -0.45593999997E+02  0.45594000000E+02  0.51100000000E-03 0.  1.
         23    2    1    2    0    0  0.00000000000E+00  0.00000000000E+00 -0.71054273576E-14  0.91188000000E+02  0.91188000000E+02 0.  0.
    9900012    2    3    3    0    0 -0.24737018117E+02 -0.10225650035E+02 -0.36230229679E+02  0.46142317337E+02  0.99999961315E+01 0.  0.
         12    1    3    3    0    0  0.24737018117E+02  0.10225650035E+02  0.36230229679E+02  0.45045682663E+02  0.00000000000E+00 0. -1.
         11    1    4    4    0    0 -0.72121915149E+01 -0.12890016339E+01 -0.96095911319E+01  0.12083934527E+02  0.51100000000E-03 0. -1.
        -11    1    4    4    0    0 -0.36056078550E+01 -0.31305769750E+01 -0.12567896502E+02  0.13444439108E+02  0.51100000000E-03 0.  1.
        -12    1    4    4    0    0 -0.13919218747E+02 -0.58060714258E+01 -0.14052742046E+02  0.20613943702E+02  0.00000000000E+00 0.  1.
</event>
<event>
 8    1  0.9117959E-009  0.9118800E+02  0.7816164E-02  0.1184000E+00
        -11   -1    0    0    0    0  0.00000000000E+00  0.00000000000E+00  0.45593999997E+02  0.45594000000E+02  0.51100000000E-03 0. -1.
         11   -1    0    0    0    0 -0.00000000000E+00 -0.00000000000E+00 -0.45593999997E+02  0.45594000000E+02  0.51100000000E-03 0.  1.
         23    2    1    2    0    0  0.35527136788E-14  0.00000000000E+00  0.00000000000E+00  0.91188000000E+02  0.91188000000E+02 0.  0.
    9900012    2    3    3    0    0  0.30529434428E+02  0.23921773313E+02 -0.22908860948E+02  0.46142317467E+02  0.99999973145E+01 0.  0.
         12    1    3    3    0    0 -0.30529434428E+02 -0.23921773313E+02  0.22908860948E+02  0.45045682533E+02  0.00000000000E+00 0. -1.
         11    1    4    4    0    0  0.89428648994E+01  0.72440589403E+01 -0.31919622884E+01  0.11943192456E+02  0.51100000000E-03 0. -1.
        -11    1    4    4    0    0  0.17958359706E+02  0.14697418465E+02 -0.13857981304E+02  0.27028881570E+02  0.51100000000E-03 0.  1.
         12    1    4    4    0    0  0.36282098227E+01  0.19802959080E+01 -0.58589173563E+01  0.71702434400E+01  0.00000000000E+00 0. -1.
</event>
<event>
 8    1  0.9117959E-009  0.9118800E+02  0.7816164E-02  0.1184000E+00
        -11   -1    0    0    0    0  0.00000000000E+00  0.00000000000E+00  0.45593999997E+02  0.45594000000E+02  0.51100000000E-03 0. -1.
         11   -1    0    0    0    0 -0.00000000000E+00 -0.00000000000E+00 -0.45593999997E+02  0.45594000000E+02  0.51100000000E-03 0.  1.
         23    2    1    2    0    0  0.71054273576E-14 -0.44408920985E-15  0.35527136788E-14  0.91188000000E+02  0.91188000000E+02 0.  0.
    9900012    2    3    3    0    0  0.42829841776E+02 -0.37236794226E+01  0.13448123912E+02  0.46142321276E+02  0.10000032049E+02 0.  0.
        -12    1    3    3    0    0 -0.42829841776E+02  0.37236794226E+01 -0.13448123912E+02  0.45045678724E+02  0.00000000000E+00 0.  1.
         11    1    4    4    0    0  0.10451811437E+02 -0.23155863832E+00  0.21672413866E+01  0.10676652903E+02  0.51100000000E-03 0. -1.
        -11    1    4    4    0    0  0.10210402155E+02  0.75709301310E+00  0.13521846865E-01  0.10238441537E+02  0.51100000000E-03 0.  1.
         12    1    4    4    0    0  0.22167628184E+02 -0.42492137974E+01  0.11267360678E+02  0.25227226836E+02  0.00000000000E+00 0. -1.
</event>
<event>
 8    1  0.9117959E-009  0.9118800E+02  0.7816164E-02  0.1184000E+00
        -11   -1    0    0    0    0  0.00000000000E+00  0.00000000000E+00  0.45593999997E+02  0.45594000000E+02  0.51100000000E-03 0. -1.
         11   -1    0    0    0    0 -0.00000000000E+00 -0.00000000000E+00 -0.45593999997E+02  0.45594000000E+02  0.51100000000E-03 0.  1.
         23    2    1    2    0    0 -0.35527136788E-14  0.00000000000E+00  0.00000000000E+00  0.91188000000E+02  0.91188000000E+02 0.  0.
    9900012    2    3    3    0    0 -0.22284122600E+02 -0.38273534920E+02  0.82260523284E+01  0.46142317274E+02  0.99999955592E+01 0.  0.
        -12    1    3    3    0    0  0.22284122600E+02  0.38273534920E+02 -0.82260523284E+01  0.45045682726E+02  0.00000000000E+00 0.  1.
         11    1    4    4    0    0  0.69428211840E+00 -0.18757694800E+01 -0.11639847654E+00  0.20035188216E+01  0.51100000000E-03 0. -1.
        -11    1    4    4    0    0 -0.10035076001E+01 -0.47967817936E+00  0.77877207991E+00  0.13577941201E+01  0.51100000000E-03 0.  1.
         12    1    4    4    0    0 -0.21974897118E+02 -0.35918087261E+02  0.75636787250E+01  0.42781004332E+02  0.00000000000E+00 0. -1.
</event>
<event>
 8    1  0.9117959E-009  0.9118800E+02  0.7816164E-02  0.1184000E+00
        -11   -1    0    0    0    0  0.00000000000E+00  0.00000000000E+00  0.45593999997E+02  0.45594000000E+02  0.51100000000E-03 0.  1.
         11   -1    0    0    0    0 -0.00000000000E+00 -0.00000000000E+00 -0.45593999997E+02  0.45594000000E+02  0.51100000000E-03 0. -1.
         23    2    1    2    0    0  0.00000000000E+00  0.88817841970E-15 -0.88817841970E-15  0.91188000000E+02  0.91188000000E+02 0.  0.
    9900012    2    3    3    0    0  0.44475896678E+02  0.27795704182E+01 -0.65789089736E+01  0.46142318295E+02  0.10000004869E+02 0.  0.
         12    1    3    3    0    0 -0.44475896678E+02 -0.27795704182E+01  0.65789089736E+01  0.45045681705E+02  0.00000000000E+00 0. -1.
         11    1    4    4    0    0  0.55258642470E+01 -0.22853252681E+01 -0.17687516223E+01  0.62358936665E+01  0.51100000000E-03 0. -1.
        -11    1    4    4    0    0  0.11217813443E+02 -0.85137923099E+00 -0.17528702556E+01  0.11385813077E+02  0.51100000000E-03 0.  1.
         12    1    4    4    0    0  0.27732218988E+02  0.59162749172E+01 -0.30572870957E+01  0.28520611551E+02  0.00000000000E+00 0. -1.
</event>
<event>
 8    1  0.9117959E-009  0.9118800E+02  0.7816164E-02  0.1184000E+00
        -11   -1    0    0    0    0  0.00000000000E+00  0.00000000000E+00  0.45593999997E+02  0.45594000000E+02  0.51100000000E-03 0.  1.
         11   -1    0    0    0    0 -0.00000000000E+00 -0.00000000000E+00 -0.45593999997E+02  0.45594000000E+02  0.51100000000E-03 0. -1.
         23    2    1    2    0    0  0.35527136788E-14 -0.71054273576E-14  0.35527136788E-14  0.91188000000E+02  0.91188000000E+02 0.  0.
    9900012    2    3    3    0    0 -0.24050918836E+02  0.32677395143E+02 -0.19566671101E+02  0.46142317985E+02  0.10000002046E+02 0.  0.
         12    1    3    3    0    0  0.24050918836E+02 -0.32677395143E+02  0.19566671101E+02  0.45045682015E+02  0.00000000000E+00 0. -1.
         11    1    4    4    0    0 -0.18545860350E+00 -0.40156271383E+00  0.33199207999E+00  0.55305199489E+00  0.51100000000E-03 0. -1.
        -11    1    4    4    0    0 -0.11505617452E+02  0.12482490427E+02 -0.75274667820E+01  0.18570260005E+02  0.51100000000E-03 0.  1.
        -12    1    4    4    0    0 -0.12359842780E+02  0.20596467429E+02 -0.12371196399E+02  0.27019005986E+02  0.00000000000E+00 0.  1.
</event>
<event>
 8    1  0.9117959E-009  0.9118800E+02  0.7816164E-02  0.1184000E+00
        -11   -1    0    0    0    0  0.00000000000E+00  0.00000000000E+00  0.45593999997E+02  0.45594000000E+02  0.51100000000E-03 0. -1.
         11   -1    0    0    0    0 -0.00000000000E+00 -0.00000000000E+00 -0.45593999997E+02  0.45594000000E+02  0.51100000000E-03 0.  1.
         23    2    1    2    0    0  0.35527136788E-14 -0.33306690739E-15  0.00000000000E+00  0.91188000000E+02  0.91188000000E+02 0.  0.
    9900012    2    3    3    0    0  0.30062992363E+02 -0.12861904615E+00  0.33545690480E+02  0.46142318715E+02  0.10000008698E+02 0.  0.
        -12    1    3    3    0    0 -0.30062992363E+02  0.12861904615E+00 -0.33545690480E+02  0.45045681285E+02  0.00000000000E+00 0.  1.
         11    1    4    4    0    0  0.10716364025E+02  0.44266866600E+01  0.13670599405E+02  0.17925437263E+02  0.51100000000E-03 0. -1.
        -11    1    4    4    0    0  0.98054860321E+01 -0.27017344157E+01  0.85017050766E+01  0.13256165156E+02  0.51100000000E-03 0.  1.
        -12    1    4    4    0    0  0.95411423058E+01 -0.18535712904E+01  0.11373385998E+02  0.14960716296E+02  0.00000000000E+00 0.  1.
</event>
<event>
 8    1  0.9117959E-009  0.9118800E+02  0.7816164E-02  0.1184000E+00
        -11   -1    0    0    0    0  0.00000000000E+00  0.00000000000E+00  0.45593999997E+02  0.45594000000E+02  0.51100000000E-03 0. -1.
         11   -1    0    0    0    0 -0.00000000000E+00 -0.00000000000E+00 -0.45593999997E+02  0.45594000000E+02  0.51100000000E-03 0.  1.
         23    2    1    2    0    0  0.00000000000E+00  0.00000000000E+00  0.00000000000E+00  0.91188000000E+02  0.91188000000E+02 0.  0.
    9900012    2    3    3    0    0 -0.90154220064E+01 -0.40410886381E+01 -0.43948891410E+02  0.46142319990E+02  0.10000020327E+02 0.  0.
         12    1    3    3    0    0  0.90154220064E+01  0.40410886381E+01  0.43948891410E+02  0.45045680010E+02  0.00000000000E+00 0. -1.
         11    1    4    4    0    0 -0.13230892819E+01 -0.30409939004E+01 -0.13116826948E+02  0.13529573481E+02  0.51100000000E-03 0. -1.
        -11    1    4    4    0    0  0.26682368238E+00 -0.12879088768E+01 -0.13200145813E+02  0.13265509937E+02  0.51100000000E-03 0.  1.
         12    1    4    4    0    0 -0.79591564069E+01  0.28781413907E+00 -0.17631918650E+02  0.19347236572E+02  0.00000000000E+00 0. -1.
</event>
<event>
 8    1  0.9117959E-009  0.9118800E+02  0.7816164E-02  0.1184000E+00
        -11   -1    0    0    0    0  0.00000000000E+00  0.00000000000E+00  0.45593999997E+02  0.45594000000E+02  0.51100000000E-03 0. -1.
         11   -1    0    0    0    0 -0.00000000000E+00 -0.00000000000E+00 -0.45593999997E+02  0.45594000000E+02  0.51100000000E-03 0.  1.
         23    2    1    2    0    0  0.00000000000E+00  0.00000000000E+00  0.00000000000E+00  0.91188000000E+02  0.91188000000E+02 0.  0.
    9900012    2    3    3    0    0  0.27246085238E+02  0.83453488831E+01 -0.34887245237E+02  0.46142313314E+02  0.99999594479E+01 0.  0.
         12    1    3    3    0    0 -0.27246085238E+02 -0.83453488831E+01  0.34887245237E+02  0.45045686686E+02  0.00000000000E+00 0. -1.
         11    1    4    4    0    0  0.52212001808E+01  0.23674910703E+01 -0.12122269427E+02  0.13409525034E+02  0.51100000000E-03 0. -1.
        -11    1    4    4    0    0  0.12618634672E+02  0.23929506101E+01 -0.90136008320E+01  0.15690798381E+02  0.51100000000E-03 0.  1.
        -12    1    4    4    0    0  0.94062503853E+01  0.35849072027E+01 -0.13751374978E+02  0.17041989900E+02  0.00000000000E+00 0.  1.
</event>
<event>
 8    1  0.9117959E-009  0.9118800E+02  0.7816164E-02  0.1184000E+00
        -11   -1    0    0    0    0  0.00000000000E+00  0.00000000000E+00  0.45593999997E+02  0.45594000000E+02  0.51100000000E-03 0. -1.
         11   -1    0    0    0    0 -0.00000000000E+00 -0.00000000000E+00 -0.45593999997E+02  0.45594000000E+02  0.51100000000E-03 0.  1.
         23    2    1    2    0    0 -0.35527136788E-14  0.00000000000E+00  0.00000000000E+00  0.91188000000E+02  0.91188000000E+02 0.  0.
    9900012    2    3    3    0    0 -0.19355938722E+02  0.40011629679E+02  0.73164450917E+01  0.46142320494E+02  0.10000024920E+02 0.  0.
        -12    1    3    3    0    0  0.19355938722E+02 -0.40011629679E+02 -0.73164450917E+01  0.45045679506E+02  0.00000000000E+00 0.  1.
         11    1    4    4    0    0 -0.62043460969E+01  0.15265947828E+02  0.72758629014E+01  0.18013363228E+02  0.51100000000E-03 0. -1.
        -11    1    4    4    0    0 -0.83694815670E+01  0.17930004345E+02 -0.40109008194E+00  0.19791264513E+02  0.51100000000E-03 0.  1.
         12    1    4    4    0    0 -0.47821110581E+01  0.68156775067E+01  0.44167227230E+00  0.83376927531E+01  0.00000000000E+00 0. -1.
</event>
<event>
 8    1  0.9117959E-009  0.9118800E+02  0.7816164E-02  0.1184000E+00
        -11   -1    0    0    0    0  0.00000000000E+00  0.00000000000E+00  0.45593999997E+02  0.45594000000E+02  0.51100000000E-03 0. -1.
         11   -1    0    0    0    0 -0.00000000000E+00 -0.00000000000E+00 -0.45593999997E+02  0.45594000000E+02  0.51100000000E-03 0.  1.
         23    2    1    2    0    0  0.00000000000E+00  0.00000000000E+00  0.17763568394E-14  0.91188000000E+02  0.91188000000E+02 0.  0.
    9900012    2    3    3    0    0 -0.38644192434E+01 -0.43536746997E+02  0.10896396589E+02  0.46142317257E+02  0.99999953996E+01 0.  0.
        -12    1    3    3    0    0  0.38644192434E+01  0.43536746997E+02 -0.10896396589E+02  0.45045682743E+02  0.00000000000E+00 0.  1.
         11    1    4    4    0    0 -0.31693837914E+01 -0.69701445997E+01  0.31003237445E+01  0.82607455438E+01  0.51100000000E-03 0. -1.
        -11    1    4    4    0    0  0.25916807786E+01 -0.20797377784E+02  0.46950489967E+01  0.21477691154E+02  0.51100000000E-03 0.  1.
         12    1    4    4    0    0 -0.32867162306E+01 -0.15769224614E+02  0.31010238473E+01  0.16403880559E+02  0.00000000000E+00 0. -1.
</event>
<event>
 8    1  0.9117959E-009  0.9118800E+02  0.7816164E-02  0.1184000E+00
        -11   -1    0    0    0    0  0.00000000000E+00  0.00000000000E+00  0.45593999997E+02  0.45594000000E+02  0.51100000000E-03 0.  1.
         11   -1    0    0    0    0 -0.00000000000E+00 -0.00000000000E+00 -0.45593999997E+02  0.45594000000E+02  0.51100000000E-03 0. -1.
         23    2    1    2    0    0  0.00000000000E+00 -0.35527136788E-14  0.00000000000E+00  0.91188000000E+02  0.91188000000E+02 0.  0.
    9900012    2    3    3    0    0  0.41045988622E+02  0.18025857733E+02  0.44055305990E+01  0.46142318422E+02  0.10000006023E+02 0.  0.
        -12    1    3    3    0    0 -0.41045988622E+02 -0.18025857733E+02 -0.44055305990E+01  0.45045681578E+02  0.00000000000E+00 0.  1.
         11    1    4    4    0    0  0.99577734554E+01  0.64786675714E+01  0.10770834397E+01  0.11928557947E+02  0.51100000000E-03 0.  1.
        -11    1    4    4    0    0 -0.22512278738E+00 -0.13060301799E+00 -0.51147812247E+00  0.57388809762E+00  0.51100000000E-03 0. -1.
         12    1    4    4    0    0  0.31313337954E+02  0.11677793180E+02  0.38399252818E+01  0.33639872377E+02  0.00000000000E+00 0. -1.
</event>
<event>
 8    1  0.9117959E-009  0.9118800E+02  0.7816164E-02  0.1184000E+00
        -11   -1    0    0    0    0  0.00000000000E+00  0.00000000000E+00  0.45593999997E+02  0.45594000000E+02  0.51100000000E-03 0. -1.
         11   -1    0    0    0    0 -0.00000000000E+00 -0.00000000000E+00 -0.45593999997E+02  0.45594000000E+02  0.51100000000E-03 0.  1.
         23    2    1    2    0    0 -0.35527136788E-14  0.35527136788E-14  0.35527136788E-14  0.91188000000E+02  0.91188000000E+02 0.  0.
    9900012    2    3    3    0    0 -0.25518131842E+02  0.25569347396E+02  0.26909977609E+02  0.46142317922E+02  0.10000001469E+02 0.  0.
        -12    1    3    3    0    0  0.25518131842E+02 -0.25569347396E+02 -0.26909977609E+02  0.45045682078E+02  0.00000000000E+00 0.  1.
         11    1    4    4    0    0 -0.10469477707E+02  0.11478167435E+02  0.10083142475E+02  0.18521016537E+02  0.51100000000E-03 0. -1.
        -11    1    4    4    0    0 -0.66472192833E+01  0.35803761109E+01  0.10007290962E+02  0.12535967851E+02  0.51100000000E-03 0.  1.
         12    1    4    4    0    0 -0.84014348524E+01  0.10510803850E+02  0.68195441713E+01  0.15085333535E+02  0.00000000000E+00 0. -1.
</event>
<event>
 8    1  0.9117959E-009  0.9118800E+02  0.7816164E-02  0.1184000E+00
        -11   -1    0    0    0    0  0.00000000000E+00  0.00000000000E+00  0.45593999997E+02  0.45594000000E+02  0.51100000000E-03 0.  1.
         11   -1    0    0    0    0 -0.00000000000E+00 -0.00000000000E+00 -0.45593999997E+02  0.45594000000E+02  0.51100000000E-03 0. -1.
         23    2    1    2    0    0  0.00000000000E+00 -0.35527136788E-14  0.00000000000E+00  0.91188000000E+02  0.91188000000E+02 0.  0.
    9900012    2    3    3    0    0 -0.22213431693E+02 -0.30578375928E+02  0.24507955509E+02  0.46142317574E+02  0.99999982952E+01 0.  0.
         12    1    3    3    0    0  0.22213431693E+02  0.30578375928E+02 -0.24507955509E+02  0.45045682426E+02  0.00000000000E+00 0. -1.
         11    1    4    4    0    0 -0.10827039217E+02 -0.10099134010E+02  0.68435124969E+01  0.16311068313E+02  0.51100000000E-03 0. -1.
        -11    1    4    4    0    0 -0.47689153357E+01 -0.42064609226E+01  0.34552501199E+01  0.72371002912E+01  0.51100000000E-03 0.  1.
         12    1    4    4    0    0 -0.66174771404E+01 -0.16272780995E+02  0.14209192892E+02  0.22594148970E+02  0.00000000000E+00 0. -1.
</event>
<event>
 8    1  0.9117959E-009  0.9118800E+02  0.7816164E-02  0.1184000E+00
        -11   -1    0    0    0    0  0.00000000000E+00  0.00000000000E+00  0.45593999997E+02  0.45594000000E+02  0.51100000000E-03 0. -1.
         11   -1    0    0    0    0 -0.00000000000E+00 -0.00000000000E+00 -0.45593999997E+02  0.45594000000E+02  0.51100000000E-03 0.  1.
         23    2    1    2    0    0  0.00000000000E+00  0.00000000000E+00  0.35527136788E-14  0.91188000000E+02  0.91188000000E+02 0.  0.
    9900012    2    3    3    0    0  0.13375271913E+02 -0.37897689189E+02 -0.20346517942E+02  0.46142317222E+02  0.99999950840E+01 0.  0.
         12    1    3    3    0    0 -0.13375271913E+02  0.37897689189E+02  0.20346517942E+02  0.45045682778E+02  0.00000000000E+00 0. -1.
         11    1    4    4    0    0  0.31488816191E+01 -0.42213066544E+01 -0.22356401838E+01  0.57212736881E+01  0.51100000000E-03 0. -1.
        -11    1    4    4    0    0  0.96938844682E+01 -0.32794897994E+02 -0.15369564365E+02  0.37492669144E+02  0.51100000000E-03 0.  1.
         12    1    4    4    0    0  0.53250582605E+00 -0.88148454026E+00 -0.27413133929E+01  0.29283743899E+01  0.00000000000E+00 0. -1.
</event>
<event>
 8    1  0.9117959E-009  0.9118800E+02  0.7816164E-02  0.1184000E+00
        -11   -1    0    0    0    0  0.00000000000E+00  0.00000000000E+00  0.45593999997E+02  0.45594000000E+02  0.51100000000E-03 0. -1.
         11   -1    0    0    0    0 -0.00000000000E+00 -0.00000000000E+00 -0.45593999997E+02  0.45594000000E+02  0.51100000000E-03 0.  1.
         23    2    1    2    0    0  0.35527136788E-14  0.00000000000E+00  0.00000000000E+00  0.91188000000E+02  0.91188000000E+02 0.  0.
    9900012    2    3    3    0    0  0.15893044081E+02  0.24279589802E+02  0.34453246418E+02  0.46142317412E+02  0.99999968141E+01 0.  0.
        -12    1    3    3    0    0 -0.15893044081E+02 -0.24279589802E+02 -0.34453246418E+02  0.45045682588E+02  0.00000000000E+00 0.  1.
         11    1    4    4    0    0  0.54321013817E-01  0.78524653820E+00 -0.49679399309E-01  0.78868954737E+00  0.51100000000E-03 0.  1.
        -11    1    4    4    0    0 -0.72976821905E+00  0.16289233319E+00  0.14723395188E+01  0.16513265835E+01  0.51100000000E-03 0. -1.
         12    1    4    4    0    0  0.16568491286E+02  0.23331450930E+02  0.33030586299E+02  0.43702301281E+02  0.00000000000E+00 0. -1.
</event>
<event>
 8    1  0.9117959E-009  0.9118800E+02  0.7816164E-02  0.1184000E+00
        -11   -1    0    0    0    0  0.00000000000E+00  0.00000000000E+00  0.45593999997E+02  0.45594000000E+02  0.51100000000E-03 0. -1.
         11   -1    0    0    0    0 -0.00000000000E+00 -0.00000000000E+00 -0.45593999997E+02  0.45594000000E+02  0.51100000000E-03 0.  1.
         23    2    1    2    0    0 -0.88817841970E-15  0.35527136788E-14 -0.71054273576E-14  0.91188000000E+02  0.91188000000E+02 0.  0.
    9900012    2    3    3    0    0 -0.55547292396E+01  0.17126860440E+02 -0.41290786132E+02  0.46142318910E+02  0.10000010479E+02 0.  0.
         12    1    3    3    0    0  0.55547292396E+01 -0.17126860440E+02  0.41290786132E+02  0.45045681090E+02  0.00000000000E+00 0. -1.
         11    1    4    4    0    0 -0.21837321991E+01  0.31472381479E+01 -0.40065575168E+01  0.55431306744E+01  0.51100000000E-03 0. -1.
        -11    1    4    4    0    0 -0.49181337550E+01  0.56354757322E+01 -0.19759456838E+02  0.21127772271E+02  0.51100000000E-03 0.  1.
        -12    1    4    4    0    0  0.15471367145E+01  0.83441465599E+01 -0.17524771777E+02  0.19471415965E+02  0.00000000000E+00 0.  1.
</event>
<event>
 8    1  0.9117959E-009  0.9118800E+02  0.7816164E-02  0.1184000E+00
        -11   -1    0    0    0    0  0.00000000000E+00  0.00000000000E+00  0.45593999997E+02  0.45594000000E+02  0.51100000000E-03 0. -1.
         11   -1    0    0    0    0 -0.00000000000E+00 -0.00000000000E+00 -0.45593999997E+02  0.45594000000E+02  0.51100000000E-03 0.  1.
         23    2    1    2    0    0  0.35527136788E-14 -0.35527136788E-14  0.00000000000E+00  0.91188000000E+02  0.91188000000E+02 0.  0.
    9900012    2    3    3    0    0  0.22267258933E+02 -0.16294329185E+02  0.35605863098E+02  0.46142317955E+02  0.10000001764E+02 0.  0.
        -12    1    3    3    0    0 -0.22267258933E+02  0.16294329185E+02 -0.35605863098E+02  0.45045682045E+02  0.00000000000E+00 0.  1.
         11    1    4    4    0    0  0.46029387278E+01 -0.29502062166E+01  0.12950264978E+02  0.14057031156E+02  0.51100000000E-03 0. -1.
        -11    1    4    4    0    0  0.74861618561E+01 -0.88278686361E+01  0.12021513543E+02  0.16688039792E+02  0.51100000000E-03 0.  1.
        -12    1    4    4    0    0  0.10178158349E+02 -0.45162543319E+01  0.10634084577E+02  0.15397247006E+02  0.00000000000E+00 0.  1.
</event>
<event>
 8    1  0.9117959E-009  0.9118800E+02  0.7816164E-02  0.1184000E+00
        -11   -1    0    0    0    0  0.00000000000E+00  0.00000000000E+00  0.45593999997E+02  0.45594000000E+02  0.51100000000E-03 0. -1.
         11   -1    0    0    0    0 -0.00000000000E+00 -0.00000000000E+00 -0.45593999997E+02  0.45594000000E+02  0.51100000000E-03 0.  1.
         23    2    1    2    0    0  0.00000000000E+00  0.00000000000E+00  0.00000000000E+00  0.91188000000E+02  0.91188000000E+02 0.  0.
    9900012    2    3    3    0    0 -0.14618241132E+02  0.43883142529E+01  0.42381166389E+02  0.46142317185E+02  0.99999947466E+01 0.  0.
        -12    1    3    3    0    0  0.14618241132E+02 -0.43883142529E+01 -0.42381166389E+02  0.45045682815E+02  0.00000000000E+00 0.  1.
         11    1    4    4    0    0 -0.51083400847E+01  0.89682183811E+00  0.54961325765E+01  0.75569108364E+01  0.51100000000E-03 0. -1.
        -11    1    4    4    0    0 -0.26746314409E+01 -0.13029869461E+01  0.10143654741E+02  0.10570958333E+02  0.51100000000E-03 0.  1.
        -12    1    4    4    0    0 -0.68352696069E+01  0.47944793609E+01  0.26741379072E+02  0.28014448015E+02  0.00000000000E+00 0.  1.
</event>
<event>
 8    1  0.9117959E-009  0.9118800E+02  0.7816164E-02  0.1184000E+00
        -11   -1    0    0    0    0  0.00000000000E+00  0.00000000000E+00  0.45593999997E+02  0.45594000000E+02  0.51100000000E-03 0. -1.
         11   -1    0    0    0    0 -0.00000000000E+00 -0.00000000000E+00 -0.45593999997E+02  0.45594000000E+02  0.51100000000E-03 0.  1.
         23    2    1    2    0    0  0.35527136788E-14  0.71054273576E-14  0.17763568394E-14  0.91188000000E+02  0.91188000000E+02 0.  0.
    9900012    2    3    3    0    0 -0.29827089891E+02 -0.31641435502E+02 -0.11759154395E+02  0.46142318253E+02  0.10000004484E+02 0.  0.
         12    1    3    3    0    0  0.29827089891E+02  0.31641435502E+02  0.11759154395E+02  0.45045681747E+02  0.00000000000E+00 0. -1.
         11    1    4    4    0    0 -0.15113156790E+01 -0.60631966732E+00 -0.19702884155E+01  0.25561172356E+01  0.51100000000E-03 0. -1.
        -11    1    4    4    0    0 -0.29218367870E+01 -0.91515546834E+00 -0.41183454070E+00  0.30893765862E+01  0.51100000000E-03 0.  1.
        -12    1    4    4    0    0 -0.25393937425E+02 -0.30119960366E+02 -0.93770314385E+01  0.40496824431E+02  0.00000000000E+00 0.  1.
</event>
<event>
 8    1  0.9117959E-009  0.9118800E+02  0.7816164E-02  0.1184000E+00
        -11   -1    0    0    0    0  0.00000000000E+00  0.00000000000E+00  0.45593999997E+02  0.45594000000E+02  0.51100000000E-03 0. -1.
         11   -1    0    0    0    0 -0.00000000000E+00 -0.00000000000E+00 -0.45593999997E+02  0.45594000000E+02  0.51100000000E-03 0.  1.
         23    2    1    2    0    0  0.00000000000E+00 -0.22204460493E-15  0.00000000000E+00  0.91188000000E+02  0.91188000000E+02 0.  0.
    9900012    2    3    3    0    0 -0.58534183301E+01  0.84353471049E+00  0.44655787272E+02  0.46142318810E+02  0.10000009564E+02 0.  0.
        -12    1    3    3    0    0  0.58534183301E+01 -0.84353471049E+00 -0.44655787272E+02  0.45045681190E+02  0.00000000000E+00 0.  1.
         11    1    4    4    0    0 -0.42722363453E+01  0.22121649560E+01  0.25503278669E+02  0.25953090381E+02  0.51100000000E-03 0.  1.
        -11    1    4    4    0    0  0.15063861596E+00  0.32452782004E+00  0.16829442594E+02  0.16833245337E+02  0.51100000000E-03 0. -1.
        -12    1    4    4    0    0 -0.17318206008E+01 -0.16931580655E+01  0.23230660093E+01  0.33559830917E+01  0.00000000000E+00 0.  1.
</event>
<event>
 8    1  0.9117959E-009  0.9118800E+02  0.7816164E-02  0.1184000E+00
        -11   -1    0    0    0    0  0.00000000000E+00  0.00000000000E+00  0.45593999997E+02  0.45594000000E+02  0.51100000000E-03 0. -1.
         11   -1    0    0    0    0 -0.00000000000E+00 -0.00000000000E+00 -0.45593999997E+02  0.45594000000E+02  0.51100000000E-03 0.  1.
         23    2    1    2    0    0  0.17763568394E-14  0.00000000000E+00  0.14210854715E-13  0.91188000000E+02  0.91188000000E+02 0.  0.
    9900012    2    3    3    0    0 -0.11709593000E+02 -0.86069995705E+01 -0.42637055374E+02  0.46142317623E+02  0.99999987446E+01 0.  0.
         12    1    3    3    0    0  0.11709593000E+02  0.86069995705E+01  0.42637055374E+02  0.45045682377E+02  0.00000000000E+00 0. -1.
         11    1    4    4    0    0 -0.94790059077E+00 -0.25104107251E+01 -0.66295255028E+01  0.71520127371E+01  0.51100000000E-03 0. -1.
        -11    1    4    4    0    0 -0.82873718005E+01 -0.81301762731E+01 -0.25790341668E+02  0.28282892731E+02  0.51100000000E-03 0.  1.
         12    1    4    4    0    0 -0.24743206089E+01  0.20335874278E+01 -0.10217188203E+02  0.10707412156E+02  0.00000000000E+00 0. -1.
</event>
<event>
 8    1  0.9117959E-009  0.9118800E+02  0.7816164E-02  0.1184000E+00
        -11   -1    0    0    0    0  0.00000000000E+00  0.00000000000E+00  0.45593999997E+02  0.45594000000E+02  0.51100000000E-03 0.  1.
         11   -1    0    0    0    0 -0.00000000000E+00 -0.00000000000E+00 -0.45593999997E+02  0.45594000000E+02  0.51100000000E-03 0. -1.
         23    2    1    2    0    0  0.22204460493E-15  0.71054273576E-14  0.35527136788E-14  0.91188000000E+02  0.91188000000E+02 0.  0.
    9900012    2    3    3    0    0  0.15258890655E+01 -0.33829263549E+02 -0.29704650054E+02  0.46142316027E+02  0.99999841907E+01 0.  0.
         12    1    3    3    0    0 -0.15258890655E+01  0.33829263549E+02  0.29704650054E+02  0.45045683973E+02  0.00000000000E+00 0. -1.
         11    1    4    4    0    0 -0.20902793416E+01 -0.66963828471E+01 -0.75102919964E+01  0.10276930334E+02  0.51100000000E-03 0. -1.
        -11    1    4    4    0    0  0.16799284163E+01 -0.12801690756E+02 -0.14741930499E+02  0.19596682392E+02  0.51100000000E-03 0.  1.
        -12    1    4    4    0    0  0.19362399908E+01 -0.14331189946E+02 -0.74524275592E+01  0.16268703301E+02  0.00000000000E+00 0.  1.
</event>
<event>
 8    1  0.9117959E-009  0.9118800E+02  0.7816164E-02  0.1184000E+00
        -11   -1    0    0    0    0  0.00000000000E+00  0.00000000000E+00  0.45593999997E+02  0.45594000000E+02  0.51100000000E-03 0. -1.
         11   -1    0    0    0    0 -0.00000000000E+00 -0.00000000000E+00 -0.45593999997E+02  0.45594000000E+02  0.51100000000E-03 0.  1.
         23    2    1    2    0    0  0.00000000000E+00  0.00000000000E+00  0.00000000000E+00  0.91188000000E+02  0.91188000000E+02 0.  0.
    9900012    2    3    3    0    0  0.10894444066E+02 -0.34585322702E+02  0.26726018599E+02  0.46142317320E+02  0.99999959821E+01 0.  0.
        -12    1    3    3    0    0 -0.10894444066E+02  0.34585322702E+02 -0.26726018599E+02  0.45045682680E+02  0.00000000000E+00 0.  1.
         11    1    4    4    0    0  0.31212562491E+01 -0.11337601595E+02  0.56038053880E+01  0.13026361180E+02  0.51100000000E-03 0. -1.
        -11    1    4    4    0    0  0.25268716087E+01 -0.38707131393E+01  0.10757455326E+01  0.47460224447E+01  0.51100000000E-03 0.  1.
         12    1    4    4    0    0  0.52463162083E+01 -0.19377007968E+02  0.20046467678E+02  0.28369933696E+02  0.00000000000E+00 0. -1.
</event>
<event>
 8    1  0.9117959E-009  0.9118800E+02  0.7816164E-02  0.1184000E+00
        -11   -1    0    0    0    0  0.00000000000E+00  0.00000000000E+00  0.45593999997E+02  0.45594000000E+02  0.51100000000E-03 0.  1.
         11   -1    0    0    0    0 -0.00000000000E+00 -0.00000000000E+00 -0.45593999997E+02  0.45594000000E+02  0.51100000000E-03 0. -1.
         23    2    1    2    0    0  0.35527136788E-14 -0.35527136788E-14  0.00000000000E+00  0.91188000000E+02  0.91188000000E+02 0.  0.
    9900012    2    3    3    0    0  0.30713288811E+02  0.23777406457E+02  0.22813202204E+02  0.46142319162E+02  0.10000012772E+02 0.  0.
        -12    1    3    3    0    0 -0.30713288811E+02 -0.23777406457E+02 -0.22813202204E+02  0.45045680838E+02  0.00000000000E+00 0.  1.
         11    1    4    4    0    0  0.44243839290E+01  0.18011686376E+01  0.28524994074E+01  0.55638237519E+01  0.51100000000E-03 0.  1.
        -11    1    4    4    0    0  0.60909786235E+01  0.11872070772E+01  0.21968073278E+01  0.65829661957E+01  0.51100000000E-03 0. -1.
        -12    1    4    4    0    0  0.20197926258E+02  0.20789030742E+02  0.17763895469E+02  0.33995529214E+02  0.00000000000E+00 0.  1.
</event>
<event>
 8    1  0.9117959E-009  0.9118800E+02  0.7816164E-02  0.1184000E+00
        -11   -1    0    0    0    0  0.00000000000E+00  0.00000000000E+00  0.45593999997E+02  0.45594000000E+02  0.51100000000E-03 0. -1.
         11   -1    0    0    0    0 -0.00000000000E+00 -0.00000000000E+00 -0.45593999997E+02  0.45594000000E+02  0.51100000000E-03 0.  1.
         23    2    1    2    0    0  0.00000000000E+00  0.00000000000E+00  0.00000000000E+00  0.91188000000E+02  0.91188000000E+02 0.  0.
    9900012    2    3    3    0    0  0.23812187552E+02  0.28765121065E+01 -0.38128976256E+02  0.46142318428E+02  0.10000006083E+02 0.  0.
         12    1    3    3    0    0 -0.23812187552E+02 -0.28765121065E+01  0.38128976256E+02  0.45045681572E+02  0.00000000000E+00 0. -1.
         11    1    4    4    0    0  0.10444074342E+02  0.38937300062E+01 -0.19031208868E+02  0.22055084072E+02  0.51100000000E-03 0. -1.
        -11    1    4    4    0    0  0.94928852208E+01 -0.37154831466E+00 -0.17364130179E+02  0.19793077960E+02  0.51100000000E-03 0.  1.
         12    1    4    4    0    0  0.38752279892E+01 -0.64566958496E+00 -0.17336372095E+01  0.42941563962E+01  0.00000000000E+00 0. -1.
</event>
<event>
 8    1  0.9117959E-009  0.9118800E+02  0.7816164E-02  0.1184000E+00
        -11   -1    0    0    0    0  0.00000000000E+00  0.00000000000E+00  0.45593999997E+02  0.45594000000E+02  0.51100000000E-03 0. -1.
         11   -1    0    0    0    0 -0.00000000000E+00 -0.00000000000E+00 -0.45593999997E+02  0.45594000000E+02  0.51100000000E-03 0.  1.
         23    2    1    2    0    0  0.00000000000E+00 -0.35527136788E-14  0.00000000000E+00  0.91188000000E+02  0.91188000000E+02 0.  0.
    9900012    2    3    3    0    0  0.11835142973E+01 -0.30013556554E+02  0.33569320041E+02  0.46142317287E+02  0.99999956743E+01 0.  0.
        -12    1    3    3    0    0 -0.11835142973E+01  0.30013556554E+02 -0.33569320041E+02  0.45045682713E+02  0.00000000000E+00 0.  1.
         11    1    4    4    0    0  0.35493005367E+01 -0.21572374251E+02  0.25462800510E+02  0.33560677514E+02  0.51100000000E-03 0. -1.
        -11    1    4    4    0    0  0.59489489308E+00  0.79929883174E-01  0.54816286320E+00  0.81287853075E+00  0.51100000000E-03 0.  1.
         12    1    4    4    0    0 -0.29606811325E+01 -0.85211121862E+01  0.75583566671E+01  0.11768761242E+02  0.00000000000E+00 0. -1.
</event>
<event>
 8    1  0.9117959E-009  0.9118800E+02  0.7816164E-02  0.1184000E+00
        -11   -1    0    0    0    0  0.00000000000E+00  0.00000000000E+00  0.45593999997E+02  0.45594000000E+02  0.51100000000E-03 0. -1.
         11   -1    0    0    0    0 -0.00000000000E+00 -0.00000000000E+00 -0.45593999997E+02  0.45594000000E+02  0.51100000000E-03 0.  1.
         23    2    1    2    0    0  0.35527136788E-14  0.10658141036E-13  0.00000000000E+00  0.91188000000E+02  0.91188000000E+02 0.  0.
    9900012    2    3    3    0    0 -0.23138270468E+02 -0.31482646745E+02 -0.22418225193E+02  0.46142318441E+02  0.10000006196E+02 0.  0.
         12    1    3    3    0    0  0.23138270468E+02  0.31482646745E+02  0.22418225193E+02  0.45045681559E+02  0.00000000000E+00 0. -1.
         11    1    4    4    0    0 -0.90128591183E+01 -0.61576823769E+01 -0.64140785669E+01  0.12660532606E+02  0.51100000000E-03 0. -1.
        -11    1    4    4    0    0 -0.11234574370E+01 -0.20345919819E+01  0.95055166124E-01  0.23261033707E+01  0.51100000000E-03 0.  1.
        -12    1    4    4    0    0 -0.13001953913E+02 -0.23290372387E+02 -0.16099201792E+02  0.31155682464E+02  0.00000000000E+00 0.  1.
</event>
<event>
 8    1  0.9117959E-009  0.9118800E+02  0.7816164E-02  0.1184000E+00
        -11   -1    0    0    0    0  0.00000000000E+00  0.00000000000E+00  0.45593999997E+02  0.45594000000E+02  0.51100000000E-03 0. -1.
         11   -1    0    0    0    0 -0.00000000000E+00 -0.00000000000E+00 -0.45593999997E+02  0.45594000000E+02  0.51100000000E-03 0.  1.
         23    2    1    2    0    0  0.17763568394E-14  0.35527136788E-14  0.00000000000E+00  0.91188000000E+02  0.91188000000E+02 0.  0.
    9900012    2    3    3    0    0 -0.10917620330E+02 -0.18317117541E+02  0.39678738212E+02  0.46142317689E+02  0.99999993464E+01 0.  0.
        -12    1    3    3    0    0  0.10917620330E+02  0.18317117541E+02 -0.39678738212E+02  0.45045682311E+02  0.00000000000E+00 0.  1.
         11    1    4    4    0    0 -0.66360519040E+01 -0.12138270228E+02  0.21525999333E+02  0.25587954911E+02  0.51100000000E-03 0. -1.
        -11    1    4    4    0    0 -0.37137839937E+01 -0.11077430680E+01  0.11716043272E+02  0.12340379106E+02  0.51100000000E-03 0.  1.
        -12    1    4    4    0    0 -0.56778443236E+00 -0.50711042454E+01  0.64366956074E+01  0.82139836725E+01  0.00000000000E+00 0.  1.
</event>
<event>
 8    1  0.9117959E-009  0.9118800E+02  0.7816164E-02  0.1184000E+00
        -11   -1    0    0    0    0  0.00000000000E+00  0.00000000000E+00  0.45593999997E+02  0.45594000000E+02  0.51100000000E-03 0. -1.
         11   -1    0    0    0    0 -0.00000000000E+00 -0.00000000000E+00 -0.45593999997E+02  0.45594000000E+02  0.51100000000E-03 0.  1.
         23    2    1    2    0    0 -0.35527136788E-14  0.00000000000E+00 -0.71054273576E-14  0.91188000000E+02  0.91188000000E+02 0.  0.
    9900012    2    3    3    0    0 -0.26924378744E+02  0.65997575891E+01 -0.35505414796E+02  0.46142318178E+02  0.10000003803E+02 0.  0.
         12    1    3    3    0    0  0.26924378744E+02 -0.65997575891E+01  0.35505414796E+02  0.45045681822E+02  0.00000000000E+00 0. -1.
         11    1    4    4    0    0 -0.40968226850E+01  0.18277455742E+01 -0.94041355670E+01  0.10419327043E+02  0.51100000000E-03 0. -1.
        -11    1    4    4    0    0 -0.40650799151E+00  0.12691807548E+01 -0.30768784290E+00  0.13677501984E+01  0.51100000000E-03 0.  1.
         12    1    4    4    0    0 -0.22421048067E+02  0.35028312601E+01 -0.25793591386E+02  0.34355240937E+02  0.00000000000E+00 0. -1.
</event>
<event>
 8    1  0.9117959E-009  0.9118800E+02  0.7816164E-02  0.1184000E+00
        -11   -1    0    0    0    0  0.00000000000E+00  0.00000000000E+00  0.45593999997E+02  0.45594000000E+02  0.51100000000E-03 0. -1.
         11   -1    0    0    0    0 -0.00000000000E+00 -0.00000000000E+00 -0.45593999997E+02  0.45594000000E+02  0.51100000000E-03 0.  1.
         23    2    1    2    0    0  0.00000000000E+00  0.00000000000E+00 -0.35527136788E-14  0.91188000000E+02  0.91188000000E+02 0.  0.
    9900012    2    3    3    0    0  0.37829562840E+02 -0.15602797443E+02  0.18830553067E+02  0.46142324941E+02  0.10000065472E+02 0.  0.
        -12    1    3    3    0    0 -0.37829562840E+02  0.15602797443E+02 -0.18830553067E+02  0.45045675059E+02  0.00000000000E+00 0.  1.
         11    1    4    4    0    0  0.26146458938E+02 -0.72868555286E+01  0.10256293841E+02  0.29015980805E+02  0.51100000000E-03 0. -1.
        -11    1    4    4    0    0  0.30839851345E+01 -0.10653939407E+01  0.35057968808E+01  0.47892212926E+01  0.51100000000E-03 0.  1.
         12    1    4    4    0    0  0.85991187677E+01 -0.72505479739E+01  0.50684623453E+01  0.12337122843E+02  0.00000000000E+00 0. -1.
</event>
<event>
 8    1  0.9117959E-009  0.9118800E+02  0.7816164E-02  0.1184000E+00
        -11   -1    0    0    0    0  0.00000000000E+00  0.00000000000E+00  0.45593999997E+02  0.45594000000E+02  0.51100000000E-03 0. -1.
         11   -1    0    0    0    0 -0.00000000000E+00 -0.00000000000E+00 -0.45593999997E+02  0.45594000000E+02  0.51100000000E-03 0.  1.
         23    2    1    2    0    0 -0.35527136788E-14  0.00000000000E+00 -0.35527136788E-14  0.91188000000E+02  0.91188000000E+02 0.  0.
    9900012    2    3    3    0    0  0.31155134607E+02  0.15499188904E+02 -0.28605002517E+02  0.46142318320E+02  0.10000005093E+02 0.  0.
         12    1    3    3    0    0 -0.31155134607E+02 -0.15499188904E+02  0.28605002517E+02  0.45045681680E+02  0.00000000000E+00 0. -1.
         11    1    4    4    0    0  0.15493342980E+01  0.19697056659E+01 -0.24372844714E+00  0.25178524568E+01  0.51100000000E-03 0. -1.
        -11    1    4    4    0    0  0.70016730994E+01  0.67696532079E+00 -0.46352185118E+01  0.84241889313E+01  0.51100000000E-03 0.  1.
         12    1    4    4    0    0  0.22604127210E+02  0.12852517917E+02 -0.23726055558E+02  0.35200276932E+02  0.00000000000E+00 0. -1.
</event>
<event>
 8    1  0.9117959E-009  0.9118800E+02  0.7816164E-02  0.1184000E+00
        -11   -1    0    0    0    0  0.00000000000E+00  0.00000000000E+00  0.45593999997E+02  0.45594000000E+02  0.51100000000E-03 0. -1.
         11   -1    0    0    0    0 -0.00000000000E+00 -0.00000000000E+00 -0.45593999997E+02  0.45594000000E+02  0.51100000000E-03 0.  1.
         23    2    1    2    0    0  0.00000000000E+00 -0.35527136788E-14  0.35527136788E-14  0.91188000000E+02  0.91188000000E+02 0.  0.
    9900012    2    3    3    0    0 -0.32781022677E+02 -0.16539068842E+02  0.26095540507E+02  0.46142317851E+02  0.10000000820E+02 0.  0.
        -12    1    3    3    0    0  0.32781022677E+02  0.16539068842E+02 -0.26095540507E+02  0.45045682149E+02  0.00000000000E+00 0.  1.
         11    1    4    4    0    0 -0.12119797558E+02 -0.85380824531E+01  0.12313429681E+02  0.19271971762E+02  0.51100000000E-03 0. -1.
        -11    1    4    4    0    0 -0.12651948510E+02 -0.23990229814E+01  0.10316257339E+02  0.16500069033E+02  0.51100000000E-03 0.  1.
        -12    1    4    4    0    0 -0.80092766087E+01 -0.56019634077E+01  0.34658534874E+01  0.10370277056E+02  0.00000000000E+00 0.  1.
</event>
<event>
 8    1  0.9117959E-009  0.9118800E+02  0.7816164E-02  0.1184000E+00
        -11   -1    0    0    0    0  0.00000000000E+00  0.00000000000E+00  0.45593999997E+02  0.45594000000E+02  0.51100000000E-03 0. -1.
         11   -1    0    0    0    0 -0.00000000000E+00 -0.00000000000E+00 -0.45593999997E+02  0.45594000000E+02  0.51100000000E-03 0.  1.
         23    2    1    2    0    0  0.00000000000E+00  0.35527136788E-14  0.00000000000E+00  0.91188000000E+02  0.91188000000E+02 0.  0.
    9900012    2    3    3    0    0  0.10658031016E+02 -0.16773622171E+02 -0.40424814812E+02  0.46142315651E+02  0.99999807620E+01 0.  0.
         12    1    3    3    0    0 -0.10658031016E+02  0.16773622171E+02  0.40424814812E+02  0.45045684349E+02  0.00000000000E+00 0. -1.
         11    1    4    4    0    0  0.38484472424E+01 -0.18471437083E+01 -0.52993172987E+01  0.68047961138E+01  0.51100000000E-03 0. -1.
        -11    1    4    4    0    0  0.80861536161E+01 -0.13474109374E+02 -0.30148322175E+02  0.33997923966E+02  0.51100000000E-03 0.  1.
         12    1    4    4    0    0 -0.12765698420E+01 -0.14523690884E+01 -0.49771753378E+01  0.53395955721E+01  0.00000000000E+00 0. -1.
</event>
<event>
 8    1  0.9117959E-009  0.9118800E+02  0.7816164E-02  0.1184000E+00
        -11   -1    0    0    0    0  0.00000000000E+00  0.00000000000E+00  0.45593999997E+02  0.45594000000E+02  0.51100000000E-03 0. -1.
         11   -1    0    0    0    0 -0.00000000000E+00 -0.00000000000E+00 -0.45593999997E+02  0.45594000000E+02  0.51100000000E-03 0.  1.
         23    2    1    2    0    0  0.00000000000E+00  0.00000000000E+00  0.00000000000E+00  0.91188000000E+02  0.91188000000E+02 0.  0.
    9900012    2    3    3    0    0 -0.37289842044E+02  0.19846980455E+02  0.15642204057E+02  0.46142317625E+02  0.99999987595E+01 0.  0.
        -12    1    3    3    0    0  0.37289842044E+02 -0.19846980455E+02 -0.15642204057E+02  0.45045682375E+02  0.00000000000E+00 0.  1.
         11    1    4    4    0    0 -0.18632935884E+02  0.12526956761E+02  0.10042527683E+02  0.24596001868E+02  0.51100000000E-03 0. -1.
        -11    1    4    4    0    0 -0.26772213225E+01  0.27249469745E+01  0.26757247032E+01  0.46639417848E+01  0.51100000000E-03 0.  1.
         12    1    4    4    0    0 -0.15979684838E+02  0.45950767193E+01  0.29239516702E+01  0.16882373973E+02  0.00000000000E+00 0. -1.
</event>
<event>
 8    1  0.9117959E-009  0.9118800E+02  0.7816164E-02  0.1184000E+00
        -11   -1    0    0    0    0  0.00000000000E+00  0.00000000000E+00  0.45593999997E+02  0.45594000000E+02  0.51100000000E-03 0. -1.
         11   -1    0    0    0    0 -0.00000000000E+00 -0.00000000000E+00 -0.45593999997E+02  0.45594000000E+02  0.51100000000E-03 0.  1.
         23    2    1    2    0    0  0.00000000000E+00  0.35527136788E-14 -0.71054273576E-14  0.91188000000E+02  0.91188000000E+02 0.  0.
    9900012    2    3    3    0    0  0.73512585180E+01  0.23488647239E+02 -0.37727389086E+02  0.46142318318E+02  0.10000005081E+02 0.  0.
         12    1    3    3    0    0 -0.73512585180E+01 -0.23488647239E+02  0.37727389086E+02  0.45045681682E+02  0.00000000000E+00 0. -1.
         11    1    4    4    0    0  0.46210666475E+01  0.51811764931E+01 -0.57520832550E+01  0.90158365584E+01  0.51100000000E-03 0. -1.
        -11    1    4    4    0    0  0.47114261957E+00  0.37693892275E+01 -0.98392445595E+01  0.10547085108E+02  0.51100000000E-03 0.  1.
         12    1    4    4    0    0  0.22590492509E+01  0.14538081518E+02 -0.22136061272E+02  0.26579396652E+02  0.00000000000E+00 0. -1.
</event>
<event>
 8    1  0.9117959E-009  0.9118800E+02  0.7816164E-02  0.1184000E+00
        -11   -1    0    0    0    0  0.00000000000E+00  0.00000000000E+00  0.45593999997E+02  0.45594000000E+02  0.51100000000E-03 0. -1.
         11   -1    0    0    0    0 -0.00000000000E+00 -0.00000000000E+00 -0.45593999997E+02  0.45594000000E+02  0.51100000000E-03 0.  1.
         23    2    1    2    0    0  0.71054273576E-14  0.00000000000E+00  0.00000000000E+00  0.91188000000E+02  0.91188000000E+02 0.  0.
    9900012    2    3    3    0    0 -0.33990495917E+02 -0.19106174940E+02  0.22554687081E+02  0.46142316047E+02  0.99999843675E+01 0.  0.
        -12    1    3    3    0    0  0.33990495917E+02  0.19106174940E+02 -0.22554687081E+02  0.45045683953E+02  0.00000000000E+00 0.  1.
         11    1    4    4    0    0 -0.11466330568E+02 -0.81642425915E+01  0.47186056450E+01  0.14845768194E+02  0.51100000000E-03 0. -1.
        -11    1    4    4    0    0 -0.45845515418E+00 -0.16674272718E+01  0.17335490327E+01  0.24486092675E+01  0.51100000000E-03 0.  1.
         12    1    4    4    0    0 -0.22065710195E+02 -0.92745050768E+01  0.16102532403E+02  0.28847938585E+02  0.00000000000E+00 0. -1.
</event>
<event>
 8    1  0.9117959E-009  0.9118800E+02  0.7816164E-02  0.1184000E+00
        -11   -1    0    0    0    0  0.00000000000E+00  0.00000000000E+00  0.45593999997E+02  0.45594000000E+02  0.51100000000E-03 0. -1.
         11   -1    0    0    0    0 -0.00000000000E+00 -0.00000000000E+00 -0.45593999997E+02  0.45594000000E+02  0.51100000000E-03 0.  1.
         23    2    1    2    0    0 -0.17763568394E-14 -0.71054273576E-14  0.00000000000E+00  0.91188000000E+02  0.91188000000E+02 0.  0.
    9900012    2    3    3    0    0 -0.91132652730E+01 -0.35593601014E+02 -0.26060645988E+02  0.46142319781E+02  0.10000018421E+02 0.  0.
         12    1    3    3    0    0  0.91132652730E+01  0.35593601014E+02  0.26060645988E+02  0.45045680219E+02  0.00000000000E+00 0. -1.
         11    1    4    4    0    0 -0.87195122851E+00 -0.57922215939E-01 -0.80595465458E+00  0.11887880780E+01  0.51100000000E-03 0. -1.
        -11    1    4    4    0    0 -0.36068295735E+01 -0.28518106803E+02 -0.20329142589E+02  0.35207466167E+02  0.51100000000E-03 0.  1.
        -12    1    4    4    0    0 -0.46344844710E+01 -0.70175719947E+01 -0.49255487439E+01  0.97460655365E+01  0.00000000000E+00 0.  1.
</event>
<event>
 8    1  0.9117959E-009  0.9118800E+02  0.7816164E-02  0.1184000E+00
        -11   -1    0    0    0    0  0.00000000000E+00  0.00000000000E+00  0.45593999997E+02  0.45594000000E+02  0.51100000000E-03 0.  1.
         11   -1    0    0    0    0 -0.00000000000E+00 -0.00000000000E+00 -0.45593999997E+02  0.45594000000E+02  0.51100000000E-03 0. -1.
         23    2    1    2    0    0 -0.71054273576E-14  0.00000000000E+00  0.00000000000E+00  0.91188000000E+02  0.91188000000E+02 0.  0.
    9900012    2    3    3    0    0  0.42547513620E+02  0.13403376271E+02  0.62587652333E+01  0.46142317044E+02  0.99999934622E+01 0.  0.
        -12    1    3    3    0    0 -0.42547513620E+02 -0.13403376271E+02 -0.62587652333E+01  0.45045682956E+02  0.00000000000E+00 0.  1.
         11    1    4    4    0    0  0.12919439272E+01  0.14782411964E+01 -0.12341966839E+00  0.19671168805E+01  0.51100000000E-03 0. -1.
        -11    1    4    4    0    0  0.59146492693E+01  0.14364474862E+00  0.33500998564E+01  0.67990351596E+01  0.51100000000E-03 0.  1.
         12    1    4    4    0    0  0.35340920424E+02  0.11781490326E+02  0.30320850452E+01  0.37376165004E+02  0.00000000000E+00 0. -1.
</event>
<event>
 8    1  0.9117959E-009  0.9118800E+02  0.7816164E-02  0.1184000E+00
        -11   -1    0    0    0    0  0.00000000000E+00  0.00000000000E+00  0.45593999997E+02  0.45594000000E+02  0.51100000000E-03 0. -1.
         11   -1    0    0    0    0 -0.00000000000E+00 -0.00000000000E+00 -0.45593999997E+02  0.45594000000E+02  0.51100000000E-03 0.  1.
         23    2    1    2    0    0  0.00000000000E+00 -0.35527136788E-14  0.00000000000E+00  0.91188000000E+02  0.91188000000E+02 0.  0.
    9900012    2    3    3    0    0 -0.21365118386E+02  0.23377978870E+02 -0.32033033409E+02  0.46142318641E+02  0.10000008027E+02 0.  0.
         12    1    3    3    0    0  0.21365118386E+02 -0.23377978870E+02  0.32033033409E+02  0.45045681359E+02  0.00000000000E+00 0. -1.
         11    1    4    4    0    0 -0.22614660771E+01  0.25916349812E+01 -0.69278887655E+01  0.77347555683E+01  0.51100000000E-03 0. -1.
        -11    1    4    4    0    0 -0.71699270034E+01  0.11190605271E+02 -0.15098896278E+02  0.20115023456E+02  0.51100000000E-03 0.  1.
         12    1    4    4    0    0 -0.11933725306E+02  0.95957386179E+01 -0.10006248365E+02  0.18292539617E+02  0.00000000000E+00 0. -1.
</event>
<event>
 8    1  0.9117959E-009  0.9118800E+02  0.7816164E-02  0.1184000E+00
        -11   -1    0    0    0    0  0.00000000000E+00  0.00000000000E+00  0.45593999997E+02  0.45594000000E+02  0.51100000000E-03 0. -1.
         11   -1    0    0    0    0 -0.00000000000E+00 -0.00000000000E+00 -0.45593999997E+02  0.45594000000E+02  0.51100000000E-03 0.  1.
         23    2    1    2    0    0 -0.17763568394E-14  0.00000000000E+00  0.00000000000E+00  0.91188000000E+02  0.91188000000E+02 0.  0.
    9900012    2    3    3    0    0  0.14193802739E+02 -0.67777486543E+01 -0.42210325042E+02  0.46142318152E+02  0.10000003560E+02 0.  0.
         12    1    3    3    0    0 -0.14193802739E+02  0.67777486543E+01  0.42210325042E+02  0.45045681848E+02  0.00000000000E+00 0. -1.
         11    1    4    4    0    0  0.10646693446E+01  0.66099881943E+00 -0.64501494525E+01  0.65707585919E+01  0.51100000000E-03 0. -1.
        -11    1    4    4    0    0  0.10266860535E+01  0.14868867684E+01 -0.53407225160E+01  0.56381055124E+01  0.51100000000E-03 0.  1.
        -12    1    4    4    0    0  0.12102447341E+02 -0.89256342421E+01 -0.30419453074E+02  0.33933454047E+02  0.00000000000E+00 0.  1.
</event>
<event>
 8    1  0.9117959E-009  0.9118800E+02  0.7816164E-02  0.1184000E+00
        -11   -1    0    0    0    0  0.00000000000E+00  0.00000000000E+00  0.45593999997E+02  0.45594000000E+02  0.51100000000E-03 0.  1.
         11   -1    0    0    0    0 -0.00000000000E+00 -0.00000000000E+00 -0.45593999997E+02  0.45594000000E+02  0.51100000000E-03 0. -1.
         23    2    1    2    0    0  0.00000000000E+00  0.00000000000E+00 -0.22204460493E-15  0.91188000000E+02  0.91188000000E+02 0.  0.
    9900012    2    3    3    0    0  0.44319958003E+02  0.80409435929E+01 -0.44421708512E+00  0.46142325623E+02  0.10000071695E+02 0.  0.
         12    1    3    3    0    0 -0.44319958003E+02 -0.80409435929E+01  0.44421708512E+00  0.45045674377E+02  0.00000000000E+00 0. -1.
         11    1    4    4    0    0  0.38948153533E+01 -0.63104491322E+00 -0.12077257208E+01  0.41263065805E+01  0.51100000000E-03 0. -1.
        -11    1    4    4    0    0  0.30295462680E+02  0.65492128677E+01  0.38067246329E+01  0.31228166787E+02  0.51100000000E-03 0.  1.
        -12    1    4    4    0    0  0.10129679969E+02  0.21227756384E+01 -0.30432159972E+01  0.10787852256E+02  0.00000000000E+00 0.  1.
</event>
<event>
 8    1  0.9117959E-009  0.9118800E+02  0.7816164E-02  0.1184000E+00
        -11   -1    0    0    0    0  0.00000000000E+00  0.00000000000E+00  0.45593999997E+02  0.45594000000E+02  0.51100000000E-03 0. -1.
         11   -1    0    0    0    0 -0.00000000000E+00 -0.00000000000E+00 -0.45593999997E+02  0.45594000000E+02  0.51100000000E-03 0.  1.
         23    2    1    2    0    0  0.71054273576E-14  0.17763568394E-14  0.00000000000E+00  0.91188000000E+02  0.91188000000E+02 0.  0.
    9900012    2    3    3    0    0  0.40730600943E+02  0.87824993731E+01  0.17117222615E+02  0.46142318093E+02  0.10000003030E+02 0.  0.
        -12    1    3    3    0    0 -0.40730600943E+02 -0.87824993731E+01 -0.17117222615E+02  0.45045681907E+02  0.00000000000E+00 0.  1.
         11    1    4    4    0    0  0.22296346694E+02  0.56132669063E+01  0.13142541179E+02  0.26483244329E+02  0.51100000000E-03 0. -1.
        -11    1    4    4    0    0  0.66479916800E+01  0.31005298122E+01  0.26453602548E+01  0.77978849461E+01  0.51100000000E-03 0.  1.
        -12    1    4    4    0    0  0.11786262569E+02  0.68702654607E-01  0.13293211808E+01  0.11861188819E+02  0.00000000000E+00 0.  1.
</event>
<event>
 8    1  0.9117959E-009  0.9118800E+02  0.7816164E-02  0.1184000E+00
        -11   -1    0    0    0    0  0.00000000000E+00  0.00000000000E+00  0.45593999997E+02  0.45594000000E+02  0.51100000000E-03 0. -1.
         11   -1    0    0    0    0 -0.00000000000E+00 -0.00000000000E+00 -0.45593999997E+02  0.45594000000E+02  0.51100000000E-03 0.  1.
         23    2    1    2    0    0  0.00000000000E+00  0.00000000000E+00  0.00000000000E+00  0.91188000000E+02  0.91188000000E+02 0.  0.
    9900012    2    3    3    0    0  0.68072969696E+01 -0.20497722991E+02  0.39529957711E+02  0.46142317671E+02  0.99999991771E+01 0.  0.
        -12    1    3    3    0    0 -0.68072969696E+01  0.20497722991E+02 -0.39529957711E+02  0.45045682329E+02  0.00000000000E+00 0.  1.
         11    1    4    4    0    0  0.23903436562E+01 -0.46596634693E+01  0.19642752618E+02  0.20328894144E+02  0.51100000000E-03 0. -1.
        -11    1    4    4    0    0  0.11043322281E+01 -0.49908035870E+01  0.59284580612E+01  0.78277893021E+01  0.51100000000E-03 0.  1.
         12    1    4    4    0    0  0.33126210853E+01 -0.10847255935E+02  0.13958747032E+02  0.17985634225E+02  0.00000000000E+00 0. -1.
</event>
<event>
 8    1  0.9117959E-009  0.9118800E+02  0.7816164E-02  0.1184000E+00
        -11   -1    0    0    0    0  0.00000000000E+00  0.00000000000E+00  0.45593999997E+02  0.45594000000E+02  0.51100000000E-03 0. -1.
         11   -1    0    0    0    0 -0.00000000000E+00 -0.00000000000E+00 -0.45593999997E+02  0.45594000000E+02  0.51100000000E-03 0.  1.
         23    2    1    2    0    0  0.00000000000E+00  0.00000000000E+00  0.35527136788E-14  0.91188000000E+02  0.91188000000E+02 0.  0.
    9900012    2    3    3    0    0 -0.24104100087E+02  0.21872362101E+02  0.31140096161E+02  0.46142318145E+02  0.10000003500E+02 0.  0.
        -12    1    3    3    0    0  0.24104100087E+02 -0.21872362101E+02 -0.31140096161E+02  0.45045681855E+02  0.00000000000E+00 0.  1.
         11    1    4    4    0    0 -0.52923030250E+01  0.58294272408E+01  0.13680970469E+02  0.15784791621E+02  0.51100000000E-03 0. -1.
        -11    1    4    4    0    0 -0.11518291273E+02  0.94673489298E+01  0.11874340295E+02  0.19060474477E+02  0.51100000000E-03 0.  1.
         12    1    4    4    0    0 -0.72935057892E+01  0.65755859305E+01  0.55847853968E+01  0.11297052047E+02  0.00000000000E+00 0. -1.
</event>
<event>
 8    1  0.9117959E-009  0.9118800E+02  0.7816164E-02  0.1184000E+00
        -11   -1    0    0    0    0  0.00000000000E+00  0.00000000000E+00  0.45593999997E+02  0.45594000000E+02  0.51100000000E-03 0. -1.
         11   -1    0    0    0    0 -0.00000000000E+00 -0.00000000000E+00 -0.45593999997E+02  0.45594000000E+02  0.51100000000E-03 0.  1.
         23    2    1    2    0    0  0.00000000000E+00 -0.35527136788E-14  0.00000000000E+00  0.91188000000E+02  0.91188000000E+02 0.  0.
    9900012    2    3    3    0    0 -0.32466673294E+02 -0.30171925611E+02  0.80426082555E+01  0.46142317439E+02  0.99999970598E+01 0.  0.
        -12    1    3    3    0    0  0.32466673294E+02  0.30171925611E+02 -0.80426082555E+01  0.45045682561E+02  0.00000000000E+00 0.  1.
         11    1    4    4    0    0 -0.26403487851E+02 -0.24950052240E+02  0.67707202778E+01  0.36952563251E+02  0.51100000000E-03 0. -1.
        -11    1    4    4    0    0 -0.58210026716E+01 -0.59355878813E+01  0.94104161717E+00  0.83666501771E+01  0.51100000000E-03 0.  1.
        -12    1    4    4    0    0 -0.24218277179E+00  0.71371451075E+00  0.33084636050E+00  0.82310401048E+00  0.00000000000E+00 0.  1.
</event>
<event>
 8    1  0.9117959E-009  0.9118800E+02  0.7816164E-02  0.1184000E+00
        -11   -1    0    0    0    0  0.00000000000E+00  0.00000000000E+00  0.45593999997E+02  0.45594000000E+02  0.51100000000E-03 0. -1.
         11   -1    0    0    0    0 -0.00000000000E+00 -0.00000000000E+00 -0.45593999997E+02  0.45594000000E+02  0.51100000000E-03 0.  1.
         23    2    1    2    0    0  0.00000000000E+00  0.00000000000E+00  0.00000000000E+00  0.91188000000E+02  0.91188000000E+02 0.  0.
    9900012    2    3    3    0    0  0.19528875950E+02 -0.32972322394E+02 -0.23676207724E+02  0.46142313723E+02  0.99999631810E+01 0.  0.
         12    1    3    3    0    0 -0.19528875950E+02  0.32972322394E+02  0.23676207724E+02  0.45045686277E+02  0.00000000000E+00 0. -1.
         11    1    4    4    0    0  0.62358607207E+01 -0.55085106268E+01 -0.38096957671E+01  0.91511436636E+01  0.51100000000E-03 0. -1.
        -11    1    4    4    0    0  0.20497739329E+01 -0.10417122289E+02 -0.50190998032E+01  0.11743482152E+02  0.51100000000E-03 0.  1.
         12    1    4    4    0    0  0.11243241297E+02 -0.17046689478E+02 -0.14847412153E+02  0.25247687908E+02  0.00000000000E+00 0. -1.
</event>
<event>
 8    1  0.9117959E-009  0.9118800E+02  0.7816164E-02  0.1184000E+00
        -11   -1    0    0    0    0  0.00000000000E+00  0.00000000000E+00  0.45593999997E+02  0.45594000000E+02  0.51100000000E-03 0. -1.
         11   -1    0    0    0    0 -0.00000000000E+00 -0.00000000000E+00 -0.45593999997E+02  0.45594000000E+02  0.51100000000E-03 0.  1.
         23    2    1    2    0    0  0.00000000000E+00 -0.71054273576E-14  0.00000000000E+00  0.91188000000E+02  0.91188000000E+02 0.  0.
    9900012    2    3    3    0    0  0.53869923204E+01  0.38217459544E+02 -0.23227557094E+02  0.46142319754E+02  0.10000018176E+02 0.  0.
         12    1    3    3    0    0 -0.53869923204E+01 -0.38217459544E+02  0.23227557094E+02  0.45045680246E+02  0.00000000000E+00 0. -1.
         11    1    4    4    0    0  0.89797800947E+00  0.55725335548E+01 -0.58689253345E+00  0.56748513489E+01  0.51100000000E-03 0. -1.
        -11    1    4    4    0    0  0.44759648106E+01  0.29425415328E+02 -0.17883718074E+02  0.34723431579E+02  0.51100000000E-03 0.  1.
         12    1    4    4    0    0  0.13049500268E-01  0.32195106611E+01 -0.47569464871E+01  0.57440368268E+01  0.00000000000E+00 0. -1.
</event>
<event>
 8    1  0.9117959E-009  0.9118800E+02  0.7816164E-02  0.1184000E+00
        -11   -1    0    0    0    0  0.00000000000E+00  0.00000000000E+00  0.45593999997E+02  0.45594000000E+02  0.51100000000E-03 0. -1.
         11   -1    0    0    0    0 -0.00000000000E+00 -0.00000000000E+00 -0.45593999997E+02  0.45594000000E+02  0.51100000000E-03 0.  1.
         23    2    1    2    0    0  0.44408920985E-15  0.00000000000E+00  0.00000000000E+00  0.91188000000E+02  0.91188000000E+02 0.  0.
    9900012    2    3    3    0    0 -0.25004290042E+01 -0.24695414768E+02  0.37589862803E+02  0.46142318283E+02  0.10000004763E+02 0.  0.
        -12    1    3    3    0    0  0.25004290042E+01  0.24695414768E+02 -0.37589862803E+02  0.45045681717E+02  0.00000000000E+00 0.  1.
         11    1    4    4    0    0  0.65060436991E+00 -0.21084310946E+02  0.27692660010E+02  0.34811705974E+02  0.51100000000E-03 0. -1.
        -11    1    4    4    0    0 -0.22267376970E+01 -0.26764491865E+01  0.40653831884E+01  0.53524836991E+01  0.51100000000E-03 0.  1.
        -12    1    4    4    0    0 -0.92429567719E+00 -0.93465463576E+00  0.58318196041E+01  0.59781286103E+01  0.00000000000E+00 0.  1.
</event>
<event>
 8    1  0.9117959E-009  0.9118800E+02  0.7816164E-02  0.1184000E+00
        -11   -1    0    0    0    0  0.00000000000E+00  0.00000000000E+00  0.45593999997E+02  0.45594000000E+02  0.51100000000E-03 0. -1.
         11   -1    0    0    0    0 -0.00000000000E+00 -0.00000000000E+00 -0.45593999997E+02  0.45594000000E+02  0.51100000000E-03 0.  1.
         23    2    1    2    0    0  0.00000000000E+00 -0.71054273576E-14  0.00000000000E+00  0.91188000000E+02  0.91188000000E+02 0.  0.
    9900012    2    3    3    0    0  0.18492686531E+02  0.27718321476E+02  0.30312184707E+02  0.46142319382E+02  0.10000014785E+02 0.  0.
        -12    1    3    3    0    0 -0.18492686531E+02 -0.27718321476E+02 -0.30312184707E+02  0.45045680618E+02  0.00000000000E+00 0.  1.
         11    1    4    4    0    0  0.15547583588E+01  0.72777602812E+01  0.60130594469E+01  0.95676513543E+01  0.51100000000E-03 0. -1.
        -11    1    4    4    0    0  0.25151157126E+01  0.21016512242E+01  0.63220607875E+01  0.71211795216E+01  0.51100000000E-03 0.  1.
         12    1    4    4    0    0  0.14422812459E+02  0.18338909971E+02  0.17977064473E+02  0.29453488507E+02  0.00000000000E+00 0. -1.
</event>
<event>
 8    1  0.9117959E-009  0.9118800E+02  0.7816164E-02  0.1184000E+00
        -11   -1    0    0    0    0  0.00000000000E+00  0.00000000000E+00  0.45593999997E+02  0.45594000000E+02  0.51100000000E-03 0. -1.
         11   -1    0    0    0    0 -0.00000000000E+00 -0.00000000000E+00 -0.45593999997E+02  0.45594000000E+02  0.51100000000E-03 0.  1.
         23    2    1    2    0    0  0.00000000000E+00  0.00000000000E+00  0.00000000000E+00  0.91188000000E+02  0.91188000000E+02 0.  0.
    9900012    2    3    3    0    0  0.65658780076E+01 -0.24761164264E+02  0.37052495954E+02  0.46142318007E+02  0.10000002245E+02 0.  0.
        -12    1    3    3    0    0 -0.65658780076E+01  0.24761164264E+02 -0.37052495954E+02  0.45045681993E+02  0.00000000000E+00 0.  1.
         11    1    4    4    0    0  0.35209400676E+01 -0.66729709614E+01  0.13895607388E+02  0.15811814107E+02  0.51100000000E-03 0. -1.
        -11    1    4    4    0    0 -0.15365322325E+01 -0.10881260952E+01  0.14238512788E+01  0.23605724784E+01  0.51100000000E-03 0.  1.
        -12    1    4    4    0    0  0.45814701725E+01 -0.17000067208E+02  0.21733037288E+02  0.27969931422E+02  0.00000000000E+00 0.  1.
</event>
<event>
 8    1  0.9117959E-009  0.9118800E+02  0.7816164E-02  0.1184000E+00
        -11   -1    0    0    0    0  0.00000000000E+00  0.00000000000E+00  0.45593999997E+02  0.45594000000E+02  0.51100000000E-03 0. -1.
         11   -1    0    0    0    0 -0.00000000000E+00 -0.00000000000E+00 -0.45593999997E+02  0.45594000000E+02  0.51100000000E-03 0.  1.
         23    2    1    2    0    0 -0.17763568394E-14  0.00000000000E+00  0.00000000000E+00  0.91188000000E+02  0.91188000000E+02 0.  0.
    9900012    2    3    3    0    0  0.15253997287E+02  0.23532448626E+01 -0.42318924049E+02  0.46142317329E+02  0.99999960569E+01 0.  0.
         12    1    3    3    0    0 -0.15253997287E+02 -0.23532448626E+01  0.42318924049E+02  0.45045682671E+02  0.00000000000E+00 0. -1.
         11    1    4    4    0    0  0.60107196975E+01  0.10686764204E+01 -0.12986341551E+02  0.14349769605E+02  0.51100000000E-03 0. -1.
        -11    1    4    4    0    0  0.64387875895E+01  0.45971796780E+01 -0.18304267384E+02  0.19940868871E+02  0.51100000000E-03 0.  1.
         12    1    4    4    0    0  0.28044900003E+01 -0.33126112358E+01 -0.11028315115E+02  0.11851678853E+02  0.00000000000E+00 0. -1.
</event>
<event>
 8    1  0.9117959E-009  0.9118800E+02  0.7816164E-02  0.1184000E+00
        -11   -1    0    0    0    0  0.00000000000E+00  0.00000000000E+00  0.45593999997E+02  0.45594000000E+02  0.51100000000E-03 0.  1.
         11   -1    0    0    0    0 -0.00000000000E+00 -0.00000000000E+00 -0.45593999997E+02  0.45594000000E+02  0.51100000000E-03 0. -1.
         23    2    1    2    0    0  0.00000000000E+00  0.00000000000E+00  0.00000000000E+00  0.91188000000E+02  0.91188000000E+02 0.  0.
    9900012    2    3    3    0    0  0.13217989410E+02  0.21782296072E+02 -0.37147406469E+02  0.46142317925E+02  0.10000001495E+02 0.  0.
         12    1    3    3    0    0 -0.13217989410E+02 -0.21782296072E+02  0.37147406469E+02  0.45045682075E+02  0.00000000000E+00 0. -1.
         11    1    4    4    0    0  0.87580882562E+00  0.42974308240E+01 -0.11187963778E+02  0.12016883396E+02  0.51100000000E-03 0. -1.
        -11    1    4    4    0    0  0.83151165897E+01  0.82203430678E+01 -0.16936734933E+02  0.20580772447E+02  0.51100000000E-03 0.  1.
         12    1    4    4    0    0  0.40270639951E+01  0.92645221803E+01 -0.90227077580E+01  0.13544662083E+02  0.00000000000E+00 0. -1.
</event>
<event>
 8    1  0.9117959E-009  0.9118800E+02  0.7816164E-02  0.1184000E+00
        -11   -1    0    0    0    0  0.00000000000E+00  0.00000000000E+00  0.45593999997E+02  0.45594000000E+02  0.51100000000E-03 0. -1.
         11   -1    0    0    0    0 -0.00000000000E+00 -0.00000000000E+00 -0.45593999997E+02  0.45594000000E+02  0.51100000000E-03 0.  1.
         23    2    1    2    0    0 -0.35527136788E-14  0.00000000000E+00  0.00000000000E+00  0.91188000000E+02  0.91188000000E+02 0.  0.
    9900012    2    3    3    0    0 -0.20822114494E+02  0.39902830903E+02 -0.18213224506E+01  0.46142316727E+02  0.99999905705E+01 0.  0.
        -12    1    3    3    0    0  0.20822114494E+02 -0.39902830903E+02  0.18213224506E+01  0.45045683273E+02  0.00000000000E+00 0.  1.
         11    1    4    4    0    0 -0.46035065172E+01  0.88693992114E+01 -0.30111999080E+01  0.10436754274E+02  0.51100000000E-03 0.  1.
        -11    1    4    4    0    0 -0.98248732859E+01  0.11873887090E+02 -0.63805693107E+00  0.15424799727E+02  0.51100000000E-03 0. -1.
         12    1    4    4    0    0 -0.63937346913E+01  0.19159544601E+02  0.18279343885E+01  0.20280762726E+02  0.00000000000E+00 0. -1.
</event>
<event>
 8    1  0.9117959E-009  0.9118800E+02  0.7816164E-02  0.1184000E+00
        -11   -1    0    0    0    0  0.00000000000E+00  0.00000000000E+00  0.45593999997E+02  0.45594000000E+02  0.51100000000E-03 0. -1.
         11   -1    0    0    0    0 -0.00000000000E+00 -0.00000000000E+00 -0.45593999997E+02  0.45594000000E+02  0.51100000000E-03 0.  1.
         23    2    1    2    0    0  0.00000000000E+00  0.00000000000E+00  0.35527136788E-14  0.91188000000E+02  0.91188000000E+02 0.  0.
    9900012    2    3    3    0    0  0.38288071492E+02  0.12255749804E+01  0.23698835228E+02  0.46142320476E+02  0.10000024758E+02 0.  0.
        -12    1    3    3    0    0 -0.38288071492E+02 -0.12255749804E+01 -0.23698835228E+02  0.45045679524E+02  0.00000000000E+00 0.  1.
         11    1    4    4    0    0  0.69179557882E+01  0.27861218498E+01  0.54639947636E+01  0.92453137473E+01  0.51100000000E-03 0. -1.
        -11    1    4    4    0    0  0.11866172151E+02 -0.57016335121E+00  0.33531533317E+01  0.12344017389E+02  0.51100000000E-03 0.  1.
         12    1    4    4    0    0  0.19503943553E+02 -0.99038351818E+00  0.14881687133E+02  0.24552989340E+02  0.00000000000E+00 0. -1.
</event>
<event>
 8    1  0.9117959E-009  0.9118800E+02  0.7816164E-02  0.1184000E+00
        -11   -1    0    0    0    0  0.00000000000E+00  0.00000000000E+00  0.45593999997E+02  0.45594000000E+02  0.51100000000E-03 0. -1.
         11   -1    0    0    0    0 -0.00000000000E+00 -0.00000000000E+00 -0.45593999997E+02  0.45594000000E+02  0.51100000000E-03 0.  1.
         23    2    1    2    0    0  0.88817841970E-15  0.00000000000E+00  0.00000000000E+00  0.91188000000E+02  0.91188000000E+02 0.  0.
    9900012    2    3    3    0    0  0.40208657422E+01 -0.21801651155E+02 -0.39212681536E+02  0.46142314883E+02  0.99999737579E+01 0.  0.
         12    1    3    3    0    0 -0.40208657422E+01  0.21801651155E+02  0.39212681536E+02  0.45045685117E+02  0.00000000000E+00 0. -1.
         11    1    4    4    0    0  0.36852854263E+01 -0.31655747114E+01 -0.45681777782E+01  0.66686160784E+01  0.51100000000E-03 0. -1.
        -11    1    4    4    0    0 -0.98142605999E+00 -0.10653684248E+02 -0.21981599072E+02  0.24446981065E+02  0.51100000000E-03 0.  1.
        -12    1    4    4    0    0  0.13170063760E+01 -0.79823921958E+01 -0.12662904685E+02  0.15026717740E+02  0.00000000000E+00 0.  1.
</event>
<event>
 8    1  0.9117959E-009  0.9118800E+02  0.7816164E-02  0.1184000E+00
        -11   -1    0    0    0    0  0.00000000000E+00  0.00000000000E+00  0.45593999997E+02  0.45594000000E+02  0.51100000000E-03 0. -1.
         11   -1    0    0    0    0 -0.00000000000E+00 -0.00000000000E+00 -0.45593999997E+02  0.45594000000E+02  0.51100000000E-03 0.  1.
         23    2    1    2    0    0  0.00000000000E+00  0.00000000000E+00 -0.71054273576E-14  0.91188000000E+02  0.91188000000E+02 0.  0.
    9900012    2    3    3    0    0  0.27222451739E+02 -0.14053911694E+02  0.33023312913E+02  0.46142317539E+02  0.99999979777E+01 0.  0.
        -12    1    3    3    0    0 -0.27222451739E+02  0.14053911694E+02 -0.33023312913E+02  0.45045682461E+02  0.00000000000E+00 0.  1.
         11    1    4    4    0    0  0.84043443840E+01 -0.37831639783E+01  0.89681173294E+01  0.12859722505E+02  0.51100000000E-03 0. -1.
        -11    1    4    4    0    0  0.11802875241E+02 -0.10747278894E+02  0.16305136403E+02  0.22818180054E+02  0.51100000000E-03 0.  1.
        -12    1    4    4    0    0  0.70152321138E+01  0.47653117875E+00  0.77500591811E+01  0.10464414981E+02  0.00000000000E+00 0.  1.
</event>
<event>
 8    1  0.9117959E-009  0.9118800E+02  0.7816164E-02  0.1184000E+00
        -11   -1    0    0    0    0  0.00000000000E+00  0.00000000000E+00  0.45593999997E+02  0.45594000000E+02  0.51100000000E-03 0. -1.
         11   -1    0    0    0    0 -0.00000000000E+00 -0.00000000000E+00 -0.45593999997E+02  0.45594000000E+02  0.51100000000E-03 0.  1.
         23    2    1    2    0    0 -0.71054273576E-14  0.35527136788E-14  0.17763568394E-14  0.91188000000E+02  0.91188000000E+02 0.  0.
    9900012    2    3    3    0    0 -0.41273229159E+02  0.12500427264E+02  0.13014352798E+02  0.46142317568E+02  0.99999982427E+01 0.  0.
        -12    1    3    3    0    0  0.41273229159E+02 -0.12500427264E+02 -0.13014352798E+02  0.45045682432E+02  0.00000000000E+00 0.  1.
         11    1    4    4    0    0 -0.14660001830E+02  0.64104657118E+01  0.33889969133E+01  0.16355275132E+02  0.51100000000E-03 0. -1.
        -11    1    4    4    0    0 -0.54190435071E+01 -0.15878880723E+01  0.18973245602E+01  0.59571185828E+01  0.51100000000E-03 0.  1.
        -12    1    4    4    0    0 -0.21194183821E+02  0.76778496244E+01  0.77280313242E+01  0.23829923853E+02  0.00000000000E+00 0.  1.
</event>
<event>
 8    1  0.9117959E-009  0.9118800E+02  0.7816164E-02  0.1184000E+00
        -11   -1    0    0    0    0  0.00000000000E+00  0.00000000000E+00  0.45593999997E+02  0.45594000000E+02  0.51100000000E-03 0. -1.
         11   -1    0    0    0    0 -0.00000000000E+00 -0.00000000000E+00 -0.45593999997E+02  0.45594000000E+02  0.51100000000E-03 0.  1.
         23    2    1    2    0    0  0.00000000000E+00  0.00000000000E+00  0.00000000000E+00  0.91188000000E+02  0.91188000000E+02 0.  0.
    9900012    2    3    3    0    0  0.18277837558E+02  0.35440880921E+01 -0.41017965486E+02  0.46142318755E+02  0.10000009065E+02 0.  0.
         12    1    3    3    0    0 -0.18277837558E+02 -0.35440880921E+01  0.41017965486E+02  0.45045681245E+02  0.00000000000E+00 0. -1.
         11    1    4    4    0    0  0.16286471580E+02  0.33049241033E+01 -0.31012901080E+02  0.35184822204E+02  0.51100000000E-03 0.  1.
        -11    1    4    4    0    0  0.92594455614E+00 -0.17507322219E+01 -0.64427131789E+01  0.67402514791E+01  0.51100000000E-03 0. -1.
         12    1    4    4    0    0  0.10654214219E+01  0.19898962108E+01 -0.35623512264E+01  0.42172450719E+01  0.00000000000E+00 0. -1.
</event>
<event>
 8    1  0.9117959E-009  0.9118800E+02  0.7816164E-02  0.1184000E+00
        -11   -1    0    0    0    0  0.00000000000E+00  0.00000000000E+00  0.45593999997E+02  0.45594000000E+02  0.51100000000E-03 0. -1.
         11   -1    0    0    0    0 -0.00000000000E+00 -0.00000000000E+00 -0.45593999997E+02  0.45594000000E+02  0.51100000000E-03 0.  1.
         23    2    1    2    0    0  0.20122792321E-15  0.00000000000E+00  0.00000000000E+00  0.91188000000E+02  0.91188000000E+02 0.  0.
    9900012    2    3    3    0    0  0.36199898037E-01  0.42296346625E+02  0.15496163763E+02  0.46142319412E+02  0.10000015055E+02 0.  0.
        -12    1    3    3    0    0 -0.36199898037E-01 -0.42296346625E+02 -0.15496163763E+02  0.45045680588E+02  0.00000000000E+00 0.  1.
         11    1    4    4    0    0  0.71584663514E+00  0.24907663112E+02  0.12653263772E+02  0.27946541869E+02  0.51100000000E-03 0. -1.
        -11    1    4    4    0    0 -0.18635727456E+01  0.15656340735E+02  0.31402965892E+01  0.16076547251E+02  0.51100000000E-03 0.  1.
         12    1    4    4    0    0  0.11839260085E+01  0.17323427781E+01 -0.29739659757E+00  0.21192302920E+01  0.00000000000E+00 0. -1.
</event>
<event>
 8    1  0.9117959E-009  0.9118800E+02  0.7816164E-02  0.1184000E+00
        -11   -1    0    0    0    0  0.00000000000E+00  0.00000000000E+00  0.45593999997E+02  0.45594000000E+02  0.51100000000E-03 0. -1.
         11   -1    0    0    0    0 -0.00000000000E+00 -0.00000000000E+00 -0.45593999997E+02  0.45594000000E+02  0.51100000000E-03 0.  1.
         23    2    1    2    0    0  0.00000000000E+00  0.00000000000E+00 -0.88817841970E-15  0.91188000000E+02  0.91188000000E+02 0.  0.
    9900012    2    3    3    0    0 -0.40648969248E+02  0.18946704883E+02  0.42186703032E+01  0.46142317565E+02  0.99999982138E+01 0.  0.
        -12    1    3    3    0    0  0.40648969248E+02 -0.18946704883E+02 -0.42186703032E+01  0.45045682435E+02  0.00000000000E+00 0.  1.
         11    1    4    4    0    0 -0.15289367620E+02  0.32255595840E+01  0.15667978305E+01  0.15704262241E+02  0.51100000000E-03 0. -1.
        -11    1    4    4    0    0 -0.25222450307E+02  0.15113284130E+02  0.32392880188E+01  0.29581689333E+02  0.51100000000E-03 0.  1.
         12    1    4    4    0    0 -0.13715132170E+00  0.60786116922E+00 -0.58741554615E+00  0.85636599065E+00  0.00000000000E+00 0. -1.
</event>
<event>
 8    1  0.9117959E-009  0.9118800E+02  0.7816164E-02  0.1184000E+00
        -11   -1    0    0    0    0  0.00000000000E+00  0.00000000000E+00  0.45593999997E+02  0.45594000000E+02  0.51100000000E-03 0. -1.
         11   -1    0    0    0    0 -0.00000000000E+00 -0.00000000000E+00 -0.45593999997E+02  0.45594000000E+02  0.51100000000E-03 0.  1.
         23    2    1    2    0    0  0.00000000000E+00 -0.35527136788E-14  0.00000000000E+00  0.91188000000E+02  0.91188000000E+02 0.  0.
    9900012    2    3    3    0    0 -0.14490277800E+02 -0.25226523648E+02  0.34391395061E+02  0.46142315408E+02  0.99999785463E+01 0.  0.
        -12    1    3    3    0    0  0.14490277800E+02  0.25226523648E+02 -0.34391395061E+02  0.45045684592E+02  0.00000000000E+00 0.  1.
         11    1    4    4    0    0 -0.15887561541E+01 -0.92396155298E+01  0.11784164215E+02  0.15058591161E+02  0.51100000000E-03 0. -1.
        -11    1    4    4    0    0 -0.13274034396E+02 -0.14076534626E+02  0.19964694055E+02  0.27801759390E+02  0.51100000000E-03 0.  1.
        -12    1    4    4    0    0  0.37251275041E+00 -0.19103734929E+01  0.26425367906E+01  0.32819648568E+01  0.00000000000E+00 0.  1.
</event>
<event>
 8    1  0.9117959E-009  0.9118800E+02  0.7816164E-02  0.1184000E+00
        -11   -1    0    0    0    0  0.00000000000E+00  0.00000000000E+00  0.45593999997E+02  0.45594000000E+02  0.51100000000E-03 0.  1.
         11   -1    0    0    0    0 -0.00000000000E+00 -0.00000000000E+00 -0.45593999997E+02  0.45594000000E+02  0.51100000000E-03 0. -1.
         23    2    1    2    0    0  0.17763568394E-14  0.00000000000E+00  0.00000000000E+00  0.91188000000E+02  0.91188000000E+02 0.  0.
    9900012    2    3    3    0    0  0.12730417531E+02 -0.23383041908E+02 -0.36335703376E+02  0.46142317419E+02  0.99999968799E+01 0.  0.
         12    1    3    3    0    0 -0.12730417531E+02  0.23383041908E+02  0.36335703376E+02  0.45045682581E+02  0.00000000000E+00 0. -1.
         11    1    4    4    0    0  0.11043945227E+01 -0.37949081113E+01 -0.14895042856E+01  0.42236995766E+01  0.51100000000E-03 0. -1.
        -11    1    4    4    0    0  0.73109843262E+01 -0.16289135645E+02 -0.26086936982E+02  0.31611939410E+02  0.51100000000E-03 0.  1.
         12    1    4    4    0    0  0.43150386821E+01 -0.32989981509E+01 -0.87592621079E+01  0.10306678432E+02  0.00000000000E+00 0. -1.
</event>
<event>
 8    1  0.9117959E-009  0.9118800E+02  0.7816164E-02  0.1184000E+00
        -11   -1    0    0    0    0  0.00000000000E+00  0.00000000000E+00  0.45593999997E+02  0.45594000000E+02  0.51100000000E-03 0. -1.
         11   -1    0    0    0    0 -0.00000000000E+00 -0.00000000000E+00 -0.45593999997E+02  0.45594000000E+02  0.51100000000E-03 0.  1.
         23    2    1    2    0    0 -0.17763568394E-14 -0.71054273576E-14  0.35527136788E-14  0.91188000000E+02  0.91188000000E+02 0.  0.
    9900012    2    3    3    0    0 -0.15457825253E+02 -0.33052249737E+02  0.26414350103E+02  0.46142318014E+02  0.10000002304E+02 0.  0.
        -12    1    3    3    0    0  0.15457825253E+02  0.33052249737E+02 -0.26414350103E+02  0.45045681986E+02  0.00000000000E+00 0.  1.
         11    1    4    4    0    0 -0.25859184733E+01 -0.93400127333E+01  0.11180185760E+02  0.14795923969E+02  0.51100000000E-03 0. -1.
        -11    1    4    4    0    0 -0.98065361043E+01 -0.21438418108E+02  0.12922947632E+02  0.26884502916E+02  0.51100000000E-03 0.  1.
         12    1    4    4    0    0 -0.30653706757E+01 -0.22738188964E+01  0.23112167113E+01  0.44618911282E+01  0.00000000000E+00 0. -1.
</event>
<event>
 8    1  0.9117959E-009  0.9118800E+02  0.7816164E-02  0.1184000E+00
        -11   -1    0    0    0    0  0.00000000000E+00  0.00000000000E+00  0.45593999997E+02  0.45594000000E+02  0.51100000000E-03 0. -1.
         11   -1    0    0    0    0 -0.00000000000E+00 -0.00000000000E+00 -0.45593999997E+02  0.45594000000E+02  0.51100000000E-03 0.  1.
         23    2    1    2    0    0 -0.35527136788E-14  0.35527136788E-14  0.71054273576E-14  0.91188000000E+02  0.91188000000E+02 0.  0.
    9900012    2    3    3    0    0  0.20521842289E+02 -0.19775809337E+02 -0.34883877473E+02  0.46142317039E+02  0.99999934181E+01 0.  0.
         12    1    3    3    0    0 -0.20521842289E+02  0.19775809337E+02  0.34883877473E+02  0.45045682961E+02  0.00000000000E+00 0. -1.
         11    1    4    4    0    0  0.40068934391E+01 -0.18375328910E+01 -0.15217505132E+01  0.46634158128E+01  0.51100000000E-03 0. -1.
        -11    1    4    4    0    0  0.12025457633E+02 -0.12445632924E+02 -0.20859898182E+02  0.27104257278E+02  0.51100000000E-03 0.  1.
         12    1    4    4    0    0  0.44894912175E+01 -0.54926435217E+01 -0.12502228777E+02  0.14374643949E+02  0.00000000000E+00 0. -1.
</event>
<event>
 8    1  0.9117959E-009  0.9118800E+02  0.7816164E-02  0.1184000E+00
        -11   -1    0    0    0    0  0.00000000000E+00  0.00000000000E+00  0.45593999997E+02  0.45594000000E+02  0.51100000000E-03 0. -1.
         11   -1    0    0    0    0 -0.00000000000E+00 -0.00000000000E+00 -0.45593999997E+02  0.45594000000E+02  0.51100000000E-03 0.  1.
         23    2    1    2    0    0  0.00000000000E+00  0.00000000000E+00  0.00000000000E+00  0.91188000000E+02  0.91188000000E+02 0.  0.
    9900012    2    3    3    0    0 -0.25469658913E+02 -0.94299766564E+01  0.35937244761E+02  0.46142317123E+02  0.99999941782E+01 0.  0.
        -12    1    3    3    0    0  0.25469658913E+02  0.94299766564E+01 -0.35937244761E+02  0.45045682877E+02  0.00000000000E+00 0.  1.
         11    1    4    4    0    0 -0.80723033466E+01  0.12823751883E+00  0.81247120002E+01  0.11453797254E+02  0.51100000000E-03 0. -1.
        -11    1    4    4    0    0 -0.17552325048E+00 -0.16012747905E+01  0.12114494187E+01  0.20155642688E+01  0.51100000000E-03 0.  1.
        -12    1    4    4    0    0 -0.17221832315E+02 -0.79569393847E+01  0.26601083342E+02  0.32672955600E+02  0.00000000000E+00 0.  1.
</event>
<event>
 8    1  0.9117959E-009  0.9118800E+02  0.7816164E-02  0.1184000E+00
        -11   -1    0    0    0    0  0.00000000000E+00  0.00000000000E+00  0.45593999997E+02  0.45594000000E+02  0.51100000000E-03 0. -1.
         11   -1    0    0    0    0 -0.00000000000E+00 -0.00000000000E+00 -0.45593999997E+02  0.45594000000E+02  0.51100000000E-03 0.  1.
         23    2    1    2    0    0  0.00000000000E+00 -0.35527136788E-14  0.35527136788E-14  0.91188000000E+02  0.91188000000E+02 0.  0.
    9900012    2    3    3    0    0  0.17870890419E+02 -0.31010661623E+02  0.27351119454E+02  0.46142316589E+02  0.99999893083E+01 0.  0.
        -12    1    3    3    0    0 -0.17870890419E+02  0.31010661623E+02 -0.27351119454E+02  0.45045683411E+02  0.00000000000E+00 0.  1.
         11    1    4    4    0    0  0.81530812502E+01 -0.21304771402E+02  0.20944290915E+02  0.30968198859E+02  0.51100000000E-03 0. -1.
        -11    1    4    4    0    0  0.56471176747E+01 -0.52994361583E+01  0.39237964090E+01  0.86815977878E+01  0.51100000000E-03 0.  1.
         12    1    4    4    0    0  0.40706914936E+01 -0.44064540626E+01  0.24830321293E+01  0.64925199419E+01  0.00000000000E+00 0. -1.
</event>
<event>
 8    1  0.9117959E-009  0.9118800E+02  0.7816164E-02  0.1184000E+00
        -11   -1    0    0    0    0  0.00000000000E+00  0.00000000000E+00  0.45593999997E+02  0.45594000000E+02  0.51100000000E-03 0. -1.
         11   -1    0    0    0    0 -0.00000000000E+00 -0.00000000000E+00 -0.45593999997E+02  0.45594000000E+02  0.51100000000E-03 0.  1.
         23    2    1    2    0    0  0.00000000000E+00  0.00000000000E+00  0.00000000000E+00  0.91188000000E+02  0.91188000000E+02 0.  0.
    9900012    2    3    3    0    0  0.69577957878E+01  0.36417919399E+01  0.44355833159E+02  0.46142317566E+02  0.99999982185E+01 0.  0.
        -12    1    3    3    0    0 -0.69577957878E+01 -0.36417919399E+01 -0.44355833159E+02  0.45045682434E+02  0.00000000000E+00 0.  1.
         11    1    4    4    0    0  0.57300697051E+01  0.16049919068E+01  0.27156892204E+02  0.27801195878E+02  0.51100000000E-03 0. -1.
        -11    1    4    4    0    0 -0.50134793738E+00  0.21261457444E+01  0.16191044968E+02  0.16337741059E+02  0.51100000000E-03 0.  1.
        -12    1    4    4    0    0  0.17290740200E+01 -0.89345711296E-01  0.10078959871E+01  0.20033806287E+01  0.00000000000E+00 0.  1.
</event>
<event>
 8    1  0.9117959E-009  0.9118800E+02  0.7816164E-02  0.1184000E+00
        -11   -1    0    0    0    0  0.00000000000E+00  0.00000000000E+00  0.45593999997E+02  0.45594000000E+02  0.51100000000E-03 0. -1.
         11   -1    0    0    0    0 -0.00000000000E+00 -0.00000000000E+00 -0.45593999997E+02  0.45594000000E+02  0.51100000000E-03 0.  1.
         23    2    1    2    0    0  0.00000000000E+00  0.00000000000E+00 -0.71054273576E-14  0.91188000000E+02  0.91188000000E+02 0.  0.
    9900012    2    3    3    0    0  0.19179777279E+02  0.17201042456E+02  0.36950963492E+02  0.46142318509E+02  0.10000006818E+02 0.  0.
        -12    1    3    3    0    0 -0.19179777279E+02 -0.17201042456E+02 -0.36950963492E+02  0.45045681491E+02  0.00000000000E+00 0.  1.
         11    1    4    4    0    0  0.12704419724E+02  0.72314489375E+01  0.21322627984E+02  0.25852477612E+02  0.51100000000E-03 0. -1.
        -11    1    4    4    0    0  0.48992399961E+01  0.73932933949E+01  0.14630837904E+02  0.17109200969E+02  0.51100000000E-03 0.  1.
        -12    1    4    4    0    0  0.15761175582E+01  0.25763001233E+01  0.99749760453E+00  0.31806399283E+01  0.00000000000E+00 0.  1.
</event>
<event>
 8    1  0.1317300E-008  0.9118800E+02  0.7816164E-02  0.1184000E+00
        -11   -1    0    0    0    0  0.00000000000E+00  0.00000000000E+00  0.45593999997E+02  0.45594000000E+02  0.51100000000E-03 0. -1.
         11   -1    0    0    0    0 -0.00000000000E+00 -0.00000000000E+00 -0.45593999997E+02  0.45594000000E+02  0.51100000000E-03 0.  1.
         23    2    1    2    0    0 -0.22204460493E-15  0.00000000000E+00  0.00000000000E+00  0.91188000000E+02  0.91188000000E+02 0.  0.
    9900012    2    3    3    0    0 -0.19969660118E+01  0.24335834056E+02  0.37853569279E+02  0.46142318747E+02  0.10000008986E+02 0.  0.
        -12    1    3    3    0    0  0.19969660118E+01 -0.24335834056E+02 -0.37853569279E+02  0.45045681253E+02  0.00000000000E+00 0.  1.
         11    1    4    4    0    0 -0.46487569031E+01  0.97096668815E+01  0.12127553639E+02  0.16216230425E+02  0.51100000000E-03 0. -1.
        -11    1    4    4    0    0 -0.50275452482E-02 -0.16708373211E+00  0.49953611701E-01  0.17446453562E+00  0.51100000000E-03 0.  1.
         12    1    4    4    0    0  0.26568184365E+01  0.14793250907E+02  0.25676062028E+02  0.29751623786E+02  0.00000000000E+00 0. -1.
</event>
<event>
 8    1  0.9117959E-009  0.9118800E+02  0.7816164E-02  0.1184000E+00
        -11   -1    0    0    0    0  0.00000000000E+00  0.00000000000E+00  0.45593999997E+02  0.45594000000E+02  0.51100000000E-03 0. -1.
         11   -1    0    0    0    0 -0.00000000000E+00 -0.00000000000E+00 -0.45593999997E+02  0.45594000000E+02  0.51100000000E-03 0.  1.
         23    2    1    2    0    0 -0.35527136788E-14  0.00000000000E+00  0.00000000000E+00  0.91188000000E+02  0.91188000000E+02 0.  0.
    9900012    2    3    3    0    0 -0.27059886894E+02  0.66020788680E+01  0.35401818387E+02  0.46142315754E+02  0.99999816954E+01 0.  0.
        -12    1    3    3    0    0  0.27059886894E+02 -0.66020788680E+01 -0.35401818387E+02  0.45045684246E+02  0.00000000000E+00 0.  1.
         11    1    4    4    0    0 -0.36854782357E+01  0.28801418644E+01  0.77779878009E+01  0.90760708171E+01  0.51100000000E-03 0. -1.
        -11    1    4    4    0    0 -0.12820079533E+01 -0.57419277866E+00 -0.37997261183E-01  0.14052351378E+01  0.51100000000E-03 0.  1.
        -12    1    4    4    0    0 -0.22092400705E+02  0.42961297822E+01  0.27661827848E+02  0.35661009799E+02  0.00000000000E+00 0.  1.
</event>
<event>
 8    1  0.9117959E-009  0.9118800E+02  0.7816164E-02  0.1184000E+00
        -11   -1    0    0    0    0  0.00000000000E+00  0.00000000000E+00  0.45593999997E+02  0.45594000000E+02  0.51100000000E-03 0. -1.
         11   -1    0    0    0    0 -0.00000000000E+00 -0.00000000000E+00 -0.45593999997E+02  0.45594000000E+02  0.51100000000E-03 0.  1.
         23    2    1    2    0    0  0.17763568394E-14  0.00000000000E+00  0.00000000000E+00  0.91188000000E+02  0.91188000000E+02 0.  0.
    9900012    2    3    3    0    0 -0.10299921219E+02 -0.16340463445E+02 -0.40694160878E+02  0.46142313722E+02  0.99999631653E+01 0.  0.
         12    1    3    3    0    0  0.10299921219E+02  0.16340463445E+02  0.40694160878E+02  0.45045686278E+02  0.00000000000E+00 0. -1.
         11    1    4    4    0    0 -0.90979615058E+00 -0.52102579981E+01 -0.19831163120E+02  0.20524364750E+02  0.51100000000E-03 0. -1.
        -11    1    4    4    0    0 -0.31535397301E+01 -0.20208401534E+01 -0.41752464093E+01  0.56090365121E+01  0.51100000000E-03 0.  1.
         12    1    4    4    0    0 -0.62365853386E+01 -0.91093652936E+01 -0.16687751349E+02  0.20008912460E+02  0.00000000000E+00 0. -1.
</event>
<event>
 8    1  0.9117959E-009  0.9118800E+02  0.7816164E-02  0.1184000E+00
        -11   -1    0    0    0    0  0.00000000000E+00  0.00000000000E+00  0.45593999997E+02  0.45594000000E+02  0.51100000000E-03 0. -1.
         11   -1    0    0    0    0 -0.00000000000E+00 -0.00000000000E+00 -0.45593999997E+02  0.45594000000E+02  0.51100000000E-03 0.  1.
         23    2    1    2    0    0  0.00000000000E+00  0.44408920985E-15  0.00000000000E+00  0.91188000000E+02  0.91188000000E+02 0.  0.
    9900012    2    3    3    0    0  0.11709806031E+02  0.30465442318E+01 -0.43390234505E+02  0.46142318304E+02  0.10000004953E+02 0.  0.
         12    1    3    3    0    0 -0.11709806031E+02 -0.30465442318E+01  0.43390234505E+02  0.45045681696E+02  0.00000000000E+00 0. -1.
         11    1    4    4    0    0  0.25968063564E+01 -0.59384648280E+00 -0.21322954085E+01  0.34121460795E+01  0.51100000000E-03 0. -1.
        -11    1    4    4    0    0  0.48079064242E+01  0.15438424874E+01 -0.11102609095E+02  0.12197021882E+02  0.51100000000E-03 0.  1.
        -12    1    4    4    0    0  0.43050932506E+01  0.20965482272E+01 -0.30155330001E+02  0.30533150343E+02  0.00000000000E+00 0.  1.
</event>
<event>
 8    1  0.9117959E-009  0.9118800E+02  0.7816164E-02  0.1184000E+00
        -11   -1    0    0    0    0  0.00000000000E+00  0.00000000000E+00  0.45593999997E+02  0.45594000000E+02  0.51100000000E-03 0. -1.
         11   -1    0    0    0    0 -0.00000000000E+00 -0.00000000000E+00 -0.45593999997E+02  0.45594000000E+02  0.51100000000E-03 0.  1.
         23    2    1    2    0    0  0.00000000000E+00  0.00000000000E+00  0.71054273576E-14  0.91188000000E+02  0.91188000000E+02 0.  0.
    9900012    2    3    3    0    0 -0.29131641555E+02  0.16616382724E+01  0.34317625736E+02  0.46142322986E+02  0.10000047645E+02 0.  0.
        -12    1    3    3    0    0  0.29131641555E+02 -0.16616382724E+01 -0.34317625736E+02  0.45045677014E+02  0.00000000000E+00 0.  1.
         11    1    4    4    0    0 -0.43854744115E+01  0.15641673301E+01  0.20887938418E+01  0.51031426812E+01  0.51100000000E-03 0.  1.
        -11    1    4    4    0    0 -0.23222429321E+02  0.13895035640E+01  0.28326402532E+02  0.36655109118E+02  0.51100000000E-03 0. -1.
         12    1    4    4    0    0 -0.15237378229E+01 -0.12920326218E+01  0.39024293622E+01  0.43840711873E+01  0.00000000000E+00 0. -1.
</event>
<event>
 8    1  0.9117959E-009  0.9118800E+02  0.7816164E-02  0.1184000E+00
        -11   -1    0    0    0    0  0.00000000000E+00  0.00000000000E+00  0.45593999997E+02  0.45594000000E+02  0.51100000000E-03 0. -1.
         11   -1    0    0    0    0 -0.00000000000E+00 -0.00000000000E+00 -0.45593999997E+02  0.45594000000E+02  0.51100000000E-03 0.  1.
         23    2    1    2    0    0  0.00000000000E+00  0.35527136788E-14  0.00000000000E+00  0.91188000000E+02  0.91188000000E+02 0.  0.
    9900012    2    3    3    0    0  0.69244144599E+00  0.26601589527E+02 -0.36345418541E+02  0.46142317749E+02  0.99999998891E+01 0.  0.
         12    1    3    3    0    0 -0.69244144599E+00 -0.26601589527E+02  0.36345418541E+02  0.45045682251E+02  0.00000000000E+00 0. -1.
         11    1    4    4    0    0  0.10299888614E+01  0.43546220525E+01 -0.86471348964E+01  0.97363521122E+01  0.51100000000E-03 0. -1.
        -11    1    4    4    0    0  0.68093319215E+00  0.21335212043E+02 -0.22432551014E+02  0.30965695345E+02  0.51100000000E-03 0.  1.
         12    1    4    4    0    0 -0.10184806075E+01  0.91175543234E+00 -0.52657326303E+01  0.54402702920E+01  0.00000000000E+00 0. -1.
</event>
<event>
 8    1  0.9117959E-009  0.9118800E+02  0.7816164E-02  0.1184000E+00
        -11   -1    0    0    0    0  0.00000000000E+00  0.00000000000E+00  0.45593999997E+02  0.45594000000E+02  0.51100000000E-03 0.  1.
         11   -1    0    0    0    0 -0.00000000000E+00 -0.00000000000E+00 -0.45593999997E+02  0.45594000000E+02  0.51100000000E-03 0. -1.
         23    2    1    2    0    0  0.00000000000E+00  0.00000000000E+00 -0.17763568394E-14  0.91188000000E+02  0.91188000000E+02 0.  0.
    9900012    2    3    3    0    0 -0.36501875264E+02 -0.23405147233E+02 -0.12203492812E+02  0.46142322610E+02  0.10000044211E+02 0.  0.
        -12    1    3    3    0    0  0.36501875264E+02  0.23405147233E+02  0.12203492812E+02  0.45045677390E+02  0.00000000000E+00 0.  1.
         11    1    4    4    0    0 -0.12934043692E+02 -0.79099835634E+01 -0.28771920612E+01  0.15431641540E+02  0.51100000000E-03 0. -1.
        -11    1    4    4    0    0 -0.22026352019E+02 -0.15162599761E+02 -0.65712878359E+01  0.27536274964E+02  0.51100000000E-03 0.  1.
        -12    1    4    4    0    0 -0.15414795520E+01 -0.33256390840E+00 -0.27550129147E+01  0.31744061055E+01  0.00000000000E+00 0.  1.
</event>
<event>
 8    1  0.9117959E-009  0.9118800E+02  0.7816164E-02  0.1184000E+00
        -11   -1    0    0    0    0  0.00000000000E+00  0.00000000000E+00  0.45593999997E+02  0.45594000000E+02  0.51100000000E-03 0. -1.
         11   -1    0    0    0    0 -0.00000000000E+00 -0.00000000000E+00 -0.45593999997E+02  0.45594000000E+02  0.51100000000E-03 0.  1.
         23    2    1    2    0    0  0.00000000000E+00  0.00000000000E+00  0.35527136788E-14  0.91188000000E+02  0.91188000000E+02 0.  0.
    9900012    2    3    3    0    0  0.24713525725E+02 -0.24605998772E+02 -0.28511401802E+02  0.46142316944E+02  0.99999925462E+01 0.  0.
         12    1    3    3    0    0 -0.24713525725E+02  0.24605998772E+02  0.28511401802E+02  0.45045683056E+02  0.00000000000E+00 0. -1.
         11    1    4    4    0    0  0.23647471232E+01 -0.27557606534E+01 -0.60388036900E+01  0.70465165864E+01  0.51100000000E-03 0. -1.
        -11    1    4    4    0    0  0.12483537831E+02 -0.12320727471E+02 -0.16686692092E+02  0.24209187004E+02  0.51100000000E-03 0.  1.
         12    1    4    4    0    0  0.98652407707E+01 -0.95295106478E+01 -0.57859060200E+01  0.14886613353E+02  0.00000000000E+00 0. -1.
</event>
<event>
 8    1  0.9117959E-009  0.9118800E+02  0.7816164E-02  0.1184000E+00
        -11   -1    0    0    0    0  0.00000000000E+00  0.00000000000E+00  0.45593999997E+02  0.45594000000E+02  0.51100000000E-03 0. -1.
         11   -1    0    0    0    0 -0.00000000000E+00 -0.00000000000E+00 -0.45593999997E+02  0.45594000000E+02  0.51100000000E-03 0.  1.
         23    2    1    2    0    0  0.35527136788E-14  0.00000000000E+00  0.00000000000E+00  0.91188000000E+02  0.91188000000E+02 0.  0.
    9900012    2    3    3    0    0  0.25542428462E+02 -0.97848299579E+01 -0.35790431572E+02  0.46142317175E+02  0.99999946539E+01 0.  0.
         12    1    3    3    0    0 -0.25542428462E+02  0.97848299579E+01  0.35790431572E+02  0.45045682825E+02  0.00000000000E+00 0. -1.
         11    1    4    4    0    0  0.79357383510E+01  0.11210043282E+01 -0.12911013510E+02  0.15196277965E+02  0.51100000000E-03 0. -1.
        -11    1    4    4    0    0  0.23720844133E+01 -0.24506943255E+01 -0.35558708911E+01  0.49271599523E+01  0.51100000000E-03 0.  1.
         12    1    4    4    0    0  0.15234605698E+02 -0.84551399606E+01 -0.19323547171E+02  0.26018879257E+02  0.00000000000E+00 0. -1.
</event>
<event>
 8    1  0.9117959E-009  0.9118800E+02  0.7816164E-02  0.1184000E+00
        -11   -1    0    0    0    0  0.00000000000E+00  0.00000000000E+00  0.45593999997E+02  0.45594000000E+02  0.51100000000E-03 0. -1.
         11   -1    0    0    0    0 -0.00000000000E+00 -0.00000000000E+00 -0.45593999997E+02  0.45594000000E+02  0.51100000000E-03 0.  1.
         23    2    1    2    0    0  0.00000000000E+00 -0.17763568394E-14  0.71054273576E-14  0.91188000000E+02  0.91188000000E+02 0.  0.
    9900012    2    3    3    0    0 -0.19408450936E+02  0.13382808784E+02  0.38383929599E+02  0.46142316632E+02  0.99999897013E+01 0.  0.
        -12    1    3    3    0    0  0.19408450936E+02 -0.13382808784E+02 -0.38383929599E+02  0.45045683368E+02  0.00000000000E+00 0.  1.
         11    1    4    4    0    0 -0.13515755176E+02  0.11812176981E+02  0.30132819452E+02  0.35074064085E+02  0.51100000000E-03 0. -1.
        -11    1    4    4    0    0 -0.43834087845E+01  0.10979055006E+01  0.26290442130E+01  0.52279578035E+01  0.51100000000E-03 0.  1.
        -12    1    4    4    0    0 -0.15092869752E+01  0.47272630199E+00  0.56220659335E+01  0.58402947435E+01  0.00000000000E+00 0.  1.
</event>
<event>
 8    1  0.9117959E-009  0.9118800E+02  0.7816164E-02  0.1184000E+00
        -11   -1    0    0    0    0  0.00000000000E+00  0.00000000000E+00  0.45593999997E+02  0.45594000000E+02  0.51100000000E-03 0. -1.
         11   -1    0    0    0    0 -0.00000000000E+00 -0.00000000000E+00 -0.45593999997E+02  0.45594000000E+02  0.51100000000E-03 0.  1.
         23    2    1    2    0    0 -0.88817841970E-15  0.00000000000E+00  0.00000000000E+00  0.91188000000E+02  0.91188000000E+02 0.  0.
    9900012    2    3    3    0    0 -0.63016902975E+01  0.11707103505E+02 -0.43038888481E+02  0.46142317690E+02  0.99999993537E+01 0.  0.
         12    1    3    3    0    0  0.63016902975E+01 -0.11707103505E+02  0.43038888481E+02  0.45045682310E+02  0.00000000000E+00 0. -1.
         11    1    4    4    0    0 -0.11706829931E+01  0.25520841812E+01 -0.75580155773E+01  0.80627062496E+01  0.51100000000E-03 0. -1.
        -11    1    4    4    0    0  0.10792637914E+01  0.71140590602E+01 -0.16368953929E+02  0.17880640359E+02  0.51100000000E-03 0.  1.
         12    1    4    4    0    0 -0.62102710959E+01  0.20409602633E+01 -0.19111918975E+02  0.20198971082E+02  0.00000000000E+00 0. -1.
</event>
<event>
 8    1  0.9117959E-009  0.9118800E+02  0.7816164E-02  0.1184000E+00
        -11   -1    0    0    0    0  0.00000000000E+00  0.00000000000E+00  0.45593999997E+02  0.45594000000E+02  0.51100000000E-03 0. -1.
         11   -1    0    0    0    0 -0.00000000000E+00 -0.00000000000E+00 -0.45593999997E+02  0.45594000000E+02  0.51100000000E-03 0.  1.
         23    2    1    2    0    0  0.00000000000E+00  0.00000000000E+00  0.00000000000E+00  0.91188000000E+02  0.91188000000E+02 0.  0.
    9900012    2    3    3    0    0  0.21168861363E+02  0.19092338335E+02 -0.34878007340E+02  0.46142317959E+02  0.10000001808E+02 0.  0.
         12    1    3    3    0    0 -0.21168861363E+02 -0.19092338335E+02  0.34878007340E+02  0.45045682041E+02  0.00000000000E+00 0. -1.
         11    1    4    4    0    0  0.13125404654E+02  0.14676744389E+02 -0.23124014710E+02  0.30371090362E+02  0.51100000000E-03 0.  1.
        -11    1    4    4    0    0  0.73182350137E+01  0.55291582494E+01 -0.99793266555E+01  0.13554154914E+02  0.51100000000E-03 0. -1.
         12    1    4    4    0    0  0.72522169514E+00 -0.11135643036E+01 -0.17746659745E+01  0.22170726840E+01  0.00000000000E+00 0. -1.
</event>
<event>
 8    1  0.9117959E-009  0.9118800E+02  0.7816164E-02  0.1184000E+00
        -11   -1    0    0    0    0  0.00000000000E+00  0.00000000000E+00  0.45593999997E+02  0.45594000000E+02  0.51100000000E-03 0. -1.
         11   -1    0    0    0    0 -0.00000000000E+00 -0.00000000000E+00 -0.45593999997E+02  0.45594000000E+02  0.51100000000E-03 0.  1.
         23    2    1    2    0    0  0.71054273576E-14 -0.17763568394E-14  0.00000000000E+00  0.91188000000E+02  0.91188000000E+02 0.  0.
    9900012    2    3    3    0    0 -0.33488943560E+02 -0.90032431462E+01  0.28749708641E+02  0.46142317911E+02  0.10000001370E+02 0.  0.
        -12    1    3    3    0    0  0.33488943560E+02  0.90032431462E+01 -0.28749708641E+02  0.45045682089E+02  0.00000000000E+00 0.  1.
         11    1    4    4    0    0 -0.15078976919E+02 -0.33840183714E+01  0.11448475189E+02  0.19232646976E+02  0.51100000000E-03 0. -1.
        -11    1    4    4    0    0 -0.13041795593E+02 -0.28920188869E+00  0.11065359235E+02  0.17105971042E+02  0.51100000000E-03 0.  1.
        -12    1    4    4    0    0 -0.53681710474E+01 -0.53300228861E+01  0.62358742170E+01  0.98036998939E+01  0.00000000000E+00 0.  1.
</event>
<event>
 8    1  0.9117959E-009  0.9118800E+02  0.7816164E-02  0.1184000E+00
        -11   -1    0    0    0    0  0.00000000000E+00  0.00000000000E+00  0.45593999997E+02  0.45594000000E+02  0.51100000000E-03 0. -1.
         11   -1    0    0    0    0 -0.00000000000E+00 -0.00000000000E+00 -0.45593999997E+02  0.45594000000E+02  0.51100000000E-03 0.  1.
         23    2    1    2    0    0  0.00000000000E+00  0.00000000000E+00  0.35527136788E-14  0.91188000000E+02  0.91188000000E+02 0.  0.
    9900012    2    3    3    0    0  0.80807954523E+01  0.37978845166E+02 -0.22834648706E+02  0.46142321885E+02  0.10000037606E+02 0.  0.
         12    1    3    3    0    0 -0.80807954523E+01 -0.37978845166E+02  0.22834648706E+02  0.45045678115E+02  0.00000000000E+00 0. -1.
         11    1    4    4    0    0 -0.15756955820E+00  0.17401326898E+01 -0.27190973367E+01  0.32320860959E+01  0.51100000000E-03 0. -1.
        -11    1    4    4    0    0  0.46255484700E+01  0.22060098139E+02 -0.16218802996E+02  0.27768564951E+02  0.51100000000E-03 0.  1.
         12    1    4    4    0    0  0.36128165405E+01  0.14178614338E+02 -0.38967483725E+01  0.15141670838E+02  0.00000000000E+00 0. -1.
</event>
<event>
 8    1  0.9117959E-009  0.9118800E+02  0.7816164E-02  0.1184000E+00
        -11   -1    0    0    0    0  0.00000000000E+00  0.00000000000E+00  0.45593999997E+02  0.45594000000E+02  0.51100000000E-03 0. -1.
         11   -1    0    0    0    0 -0.00000000000E+00 -0.00000000000E+00 -0.45593999997E+02  0.45594000000E+02  0.51100000000E-03 0.  1.
         23    2    1    2    0    0 -0.35527136788E-14  0.00000000000E+00  0.35527136788E-14  0.91188000000E+02  0.91188000000E+02 0.  0.
    9900012    2    3    3    0    0 -0.27756760611E+02 -0.18918861875E+02  0.30012536715E+02  0.46142318139E+02  0.10000003446E+02 0.  0.
        -12    1    3    3    0    0  0.27756760611E+02  0.18918861875E+02 -0.30012536715E+02  0.45045681861E+02  0.00000000000E+00 0.  1.
         11    1    4    4    0    0 -0.16454889645E+02 -0.88756887422E+01  0.17112005569E+02  0.25344860993E+02  0.51100000000E-03 0. -1.
        -11    1    4    4    0    0 -0.93679411173E+01 -0.55378846413E+01  0.11179003477E+02  0.15601173228E+02  0.51100000000E-03 0.  1.
         12    1    4    4    0    0 -0.19339298482E+01 -0.45052884914E+01  0.17215276691E+01  0.51962839187E+01  0.00000000000E+00 0. -1.
</event>
<event>
 8    1  0.9117959E-009  0.9118800E+02  0.7816164E-02  0.1184000E+00
        -11   -1    0    0    0    0  0.00000000000E+00  0.00000000000E+00  0.45593999997E+02  0.45594000000E+02  0.51100000000E-03 0. -1.
         11   -1    0    0    0    0 -0.00000000000E+00 -0.00000000000E+00 -0.45593999997E+02  0.45594000000E+02  0.51100000000E-03 0.  1.
         23    2    1    2    0    0  0.00000000000E+00  0.00000000000E+00  0.00000000000E+00  0.91188000000E+02  0.91188000000E+02 0.  0.
    9900012    2    3    3    0    0 -0.23331810657E+02 -0.37302827852E+02 -0.96560387591E+01  0.46142318311E+02  0.10000005018E+02 0.  0.
         12    1    3    3    0    0  0.23331810657E+02  0.37302827852E+02  0.96560387591E+01  0.45045681689E+02  0.00000000000E+00 0. -1.
         11    1    4    4    0    0  0.60921336128E+00 -0.19093520666E+01 -0.12444760649E+01  0.23591284770E+01  0.51100000000E-03 0. -1.
        -11    1    4    4    0    0 -0.11785467429E+02 -0.18172838555E+02 -0.65198913601E+01  0.22619864882E+02  0.51100000000E-03 0.  1.
        -12    1    4    4    0    0 -0.12155556589E+02 -0.17220637231E+02 -0.18916713342E+01  0.21163324953E+02  0.00000000000E+00 0.  1.
</event>
<event>
 8    1  0.9117959E-009  0.9118800E+02  0.7816164E-02  0.1184000E+00
        -11   -1    0    0    0    0  0.00000000000E+00  0.00000000000E+00  0.45593999997E+02  0.45594000000E+02  0.51100000000E-03 0. -1.
         11   -1    0    0    0    0 -0.00000000000E+00 -0.00000000000E+00 -0.45593999997E+02  0.45594000000E+02  0.51100000000E-03 0.  1.
         23    2    1    2    0    0  0.00000000000E+00  0.00000000000E+00  0.71054273576E-14  0.91188000000E+02  0.91188000000E+02 0.  0.
    9900012    2    3    3    0    0  0.79802338337E+01 -0.31145672817E+01  0.44223621897E+02  0.46142318797E+02  0.10000009442E+02 0.  0.
        -12    1    3    3    0    0 -0.79802338337E+01  0.31145672817E+01 -0.44223621897E+02  0.45045681203E+02  0.00000000000E+00 0.  1.
         11    1    4    4    0    0  0.74679192909E+01 -0.91023772469E+00  0.23223729081E+02  0.24411881205E+02  0.51100000000E-03 0. -1.
        -11    1    4    4    0    0  0.77270106390E-01  0.20011555877E+00 -0.25632028250E+00  0.33424131185E+00  0.51100000000E-03 0.  1.
        -12    1    4    4    0    0  0.43504443633E+00 -0.24044451158E+01  0.21256213098E+02  0.21396196280E+02  0.00000000000E+00 0.  1.
</event>
<event>
 8    1  0.9117959E-009  0.9118800E+02  0.7816164E-02  0.1184000E+00
        -11   -1    0    0    0    0  0.00000000000E+00  0.00000000000E+00  0.45593999997E+02  0.45594000000E+02  0.51100000000E-03 0. -1.
         11   -1    0    0    0    0 -0.00000000000E+00 -0.00000000000E+00 -0.45593999997E+02  0.45594000000E+02  0.51100000000E-03 0.  1.
         23    2    1    2    0    0 -0.35527136788E-14  0.00000000000E+00 -0.71054273576E-14  0.91188000000E+02  0.91188000000E+02 0.  0.
    9900012    2    3    3    0    0  0.16056408523E+02  0.24012868277E+02  0.34564250143E+02  0.46142317793E+02  0.10000000292E+02 0.  0.
        -12    1    3    3    0    0 -0.16056408523E+02 -0.24012868277E+02 -0.34564250143E+02  0.45045682207E+02  0.00000000000E+00 0.  1.
         11    1    4    4    0    0  0.15341949328E+00  0.36290054831E+00  0.19686097451E+01  0.20076501036E+01  0.51100000000E-03 0. -1.
        -11    1    4    4    0    0  0.22174533458E+01  0.48531327255E+01  0.11760031066E+02  0.12913881195E+02  0.51100000000E-03 0.  1.
         12    1    4    4    0    0  0.13685535683E+02  0.18796835003E+02  0.20835609332E+02  0.31220786494E+02  0.00000000000E+00 0. -1.
</event>
<event>
 8    1  0.9117959E-009  0.9118800E+02  0.7816164E-02  0.1184000E+00
        -11   -1    0    0    0    0  0.00000000000E+00  0.00000000000E+00  0.45593999997E+02  0.45594000000E+02  0.51100000000E-03 0. -1.
         11   -1    0    0    0    0 -0.00000000000E+00 -0.00000000000E+00 -0.45593999997E+02  0.45594000000E+02  0.51100000000E-03 0.  1.
         23    2    1    2    0    0  0.71054273576E-14  0.00000000000E+00  0.00000000000E+00  0.91188000000E+02  0.91188000000E+02 0.  0.
    9900012    2    3    3    0    0 -0.43110716146E+02  0.46563788291E+01  0.12202367235E+02  0.46142317893E+02  0.10000001199E+02 0.  0.
        -12    1    3    3    0    0  0.43110716146E+02 -0.46563788291E+01 -0.12202367235E+02  0.45045682107E+02  0.00000000000E+00 0.  1.
         11    1    4    4    0    0 -0.25877396425E+02  0.40380332348E+01  0.73832347170E+01  0.27211348980E+02  0.51100000000E-03 0. -1.
        -11    1    4    4    0    0 -0.40654181808E+01  0.80017599795E+00  0.39637830173E+01  0.57340633657E+01  0.51100000000E-03 0.  1.
         12    1    4    4    0    0 -0.13167901539E+02 -0.18183040373E+00  0.85534950079E+00  0.13196905547E+02  0.00000000000E+00 0. -1.
</event>
<event>
 8    1  0.9117959E-009  0.9118800E+02  0.7816164E-02  0.1184000E+00
        -11   -1    0    0    0    0  0.00000000000E+00  0.00000000000E+00  0.45593999997E+02  0.45594000000E+02  0.51100000000E-03 0. -1.
         11   -1    0    0    0    0 -0.00000000000E+00 -0.00000000000E+00 -0.45593999997E+02  0.45594000000E+02  0.51100000000E-03 0.  1.
         23    2    1    2    0    0  0.00000000000E+00  0.00000000000E+00  0.00000000000E+00  0.91188000000E+02  0.91188000000E+02 0.  0.
    9900012    2    3    3    0    0 -0.18436986301E+02 -0.16241887138E+02 -0.37754367101E+02  0.46142316557E+02  0.99999890187E+01 0.  0.
         12    1    3    3    0    0  0.18436986301E+02  0.16241887138E+02  0.37754367101E+02  0.45045683443E+02  0.00000000000E+00 0. -1.
         11    1    4    4    0    0  0.13970020591E+00 -0.55367657639E+00 -0.34683609358E+01  0.35150535900E+01  0.51100000000E-03 0. -1.
        -11    1    4    4    0    0 -0.15589961603E+02 -0.14236567757E+02 -0.32757571399E+02  0.38971595406E+02  0.51100000000E-03 0.  1.
        -12    1    4    4    0    0 -0.29867249031E+01 -0.14516428042E+01 -0.15284347668E+01  0.36556675607E+01  0.00000000000E+00 0.  1.
</event>
<event>
 8    1  0.9117959E-009  0.9118800E+02  0.7816164E-02  0.1184000E+00
        -11   -1    0    0    0    0  0.00000000000E+00  0.00000000000E+00  0.45593999997E+02  0.45594000000E+02  0.51100000000E-03 0. -1.
         11   -1    0    0    0    0 -0.00000000000E+00 -0.00000000000E+00 -0.45593999997E+02  0.45594000000E+02  0.51100000000E-03 0.  1.
         23    2    1    2    0    0  0.00000000000E+00  0.00000000000E+00  0.00000000000E+00  0.91188000000E+02  0.91188000000E+02 0.  0.
    9900012    2    3    3    0    0  0.17541825429E+02 -0.22449678852E+02  0.34891401167E+02  0.46142316573E+02  0.99999891697E+01 0.  0.
        -12    1    3    3    0    0 -0.17541825429E+02  0.22449678852E+02 -0.34891401167E+02  0.45045683427E+02  0.00000000000E+00 0.  1.
         11    1    4    4    0    0  0.91068183420E+01 -0.58055410825E+01  0.15674261961E+02  0.19034729729E+02  0.51100000000E-03 0. -1.
        -11    1    4    4    0    0  0.83034946847E+00 -0.58713830633E+01  0.61594707341E+01  0.85499531754E+01  0.51100000000E-03 0.  1.
         12    1    4    4    0    0  0.76046576189E+01 -0.10772754706E+02  0.13057668472E+02  0.18557633669E+02  0.00000000000E+00 0. -1.
</event>
<event>
 8    1  0.9117959E-009  0.9118800E+02  0.7816164E-02  0.1184000E+00
        -11   -1    0    0    0    0  0.00000000000E+00  0.00000000000E+00  0.45593999997E+02  0.45594000000E+02  0.51100000000E-03 0. -1.
         11   -1    0    0    0    0 -0.00000000000E+00 -0.00000000000E+00 -0.45593999997E+02  0.45594000000E+02  0.51100000000E-03 0.  1.
         23    2    1    2    0    0 -0.11102230246E-15 -0.44408920985E-15  0.00000000000E+00  0.91188000000E+02  0.91188000000E+02 0.  0.
    9900012    2    3    3    0    0  0.98871699638E+00  0.20613253458E+01 -0.44987638567E+02  0.46142309337E+02  0.99999231825E+01 0.  0.
         12    1    3    3    0    0 -0.98871699638E+00 -0.20613253458E+01  0.44987638567E+02  0.45045690663E+02  0.00000000000E+00 0. -1.
         11    1    4    4    0    0 -0.42470969188E+00 -0.38309344061E+00 -0.22349923494E+00  0.61407741837E+00  0.51100000000E-03 0. -1.
        -11    1    4    4    0    0 -0.24118139387E+00  0.34065516013E+01 -0.78034322797E+01  0.85179996409E+01  0.51100000000E-03 0.  1.
         12    1    4    4    0    0  0.16546080821E+01 -0.96213281490E+00 -0.36960707052E+02  0.37010232278E+02  0.00000000000E+00 0. -1.
</event>
<event>
 8    1  0.9117959E-009  0.9118800E+02  0.7816164E-02  0.1184000E+00
        -11   -1    0    0    0    0  0.00000000000E+00  0.00000000000E+00  0.45593999997E+02  0.45594000000E+02  0.51100000000E-03 0.  1.
         11   -1    0    0    0    0 -0.00000000000E+00 -0.00000000000E+00 -0.45593999997E+02  0.45594000000E+02  0.51100000000E-03 0. -1.
         23    2    1    2    0    0  0.00000000000E+00  0.00000000000E+00  0.00000000000E+00  0.91188000000E+02  0.91188000000E+02 0.  0.
    9900012    2    3    3    0    0  0.13808299644E+02 -0.39904330125E+02  0.15687218100E+02  0.46142317482E+02  0.99999974525E+01 0.  0.
        -12    1    3    3    0    0 -0.13808299644E+02  0.39904330125E+02 -0.15687218100E+02  0.45045682518E+02  0.00000000000E+00 0.  1.
         11    1    4    4    0    0  0.32851402381E+01 -0.17131470047E+02  0.66495832985E+01  0.18668057496E+02  0.51100000000E-03 0.  1.
        -11    1    4    4    0    0  0.53562379522E+00  0.35767478286E+00  0.66260391882E+00  0.92404995247E+00  0.51100000000E-03 0. -1.
         12    1    4    4    0    0  0.99875356108E+01 -0.23130534861E+02  0.83750308831E+01  0.26550210034E+02  0.00000000000E+00 0. -1.
</event>
<event>
 8    1  0.9117959E-009  0.9118800E+02  0.7816164E-02  0.1184000E+00
        -11   -1    0    0    0    0  0.00000000000E+00  0.00000000000E+00  0.45593999997E+02  0.45594000000E+02  0.51100000000E-03 0. -1.
         11   -1    0    0    0    0 -0.00000000000E+00 -0.00000000000E+00 -0.45593999997E+02  0.45594000000E+02  0.51100000000E-03 0.  1.
         23    2    1    2    0    0  0.00000000000E+00  0.44408920985E-15  0.71054273576E-14  0.91188000000E+02  0.91188000000E+02 0.  0.
    9900012    2    3    3    0    0 -0.15517618744E+02  0.39265614244E+01 -0.42105806394E+02  0.46142319761E+02  0.10000018241E+02 0.  0.
         12    1    3    3    0    0  0.15517618744E+02 -0.39265614244E+01  0.42105806394E+02  0.45045680239E+02  0.00000000000E+00 0. -1.
         11    1    4    4    0    0  0.20306177777E+00 -0.91493358163E+00 -0.79992207442E+00  0.12321579163E+01  0.51100000000E-03 0. -1.
        -11    1    4    4    0    0 -0.11601222164E+02  0.26780093654E+01 -0.21618089671E+02  0.24679989691E+02  0.51100000000E-03 0.  1.
         12    1    4    4    0    0 -0.41194583570E+01  0.21634856406E+01 -0.19687794648E+02  0.20230172154E+02  0.00000000000E+00 0. -1.
</event>
<event>
 8    1  0.9117959E-009  0.9118800E+02  0.7816164E-02  0.1184000E+00
        -11   -1    0    0    0    0  0.00000000000E+00  0.00000000000E+00  0.45593999997E+02  0.45594000000E+02  0.51100000000E-03 0. -1.
         11   -1    0    0    0    0 -0.00000000000E+00 -0.00000000000E+00 -0.45593999997E+02  0.45594000000E+02  0.51100000000E-03 0.  1.
         23    2    1    2    0    0  0.00000000000E+00 -0.71054273576E-14  0.00000000000E+00  0.91188000000E+02  0.91188000000E+02 0.  0.
    9900012    2    3    3    0    0  0.94626662377E+01  0.37123437780E+02 -0.23694340734E+02  0.46142317989E+02  0.10000002082E+02 0.  0.
         12    1    3    3    0    0 -0.94626662377E+01 -0.37123437780E+02  0.23694340734E+02  0.45045682011E+02  0.00000000000E+00 0. -1.
         11    1    4    4    0    0  0.11741416043E+01  0.15090849242E+01 -0.35713787565E+01  0.40510112686E+01  0.51100000000E-03 0. -1.
        -11    1    4    4    0    0  0.63303433543E+00  0.10170402625E+01 -0.18993905041E+01  0.22456152639E+01  0.51100000000E-03 0.  1.
        -12    1    4    4    0    0  0.76554902979E+01  0.34597312594E+02 -0.18223571474E+02  0.39845691457E+02  0.00000000000E+00 0.  1.
</event>
<event>
 8    1  0.9117959E-009  0.9118800E+02  0.7816164E-02  0.1184000E+00
        -11   -1    0    0    0    0  0.00000000000E+00  0.00000000000E+00  0.45593999997E+02  0.45594000000E+02  0.51100000000E-03 0. -1.
         11   -1    0    0    0    0 -0.00000000000E+00 -0.00000000000E+00 -0.45593999997E+02  0.45594000000E+02  0.51100000000E-03 0.  1.
         23    2    1    2    0    0  0.00000000000E+00  0.88817841970E-15  0.00000000000E+00  0.91188000000E+02  0.91188000000E+02 0.  0.
    9900012    2    3    3    0    0 -0.57243735573E+01 -0.72168072410E+01  0.44093795930E+02  0.46142316535E+02  0.99999888162E+01 0.  0.
        -12    1    3    3    0    0  0.57243735573E+01  0.72168072410E+01 -0.44093795930E+02  0.45045683465E+02  0.00000000000E+00 0.  1.
         11    1    4    4    0    0 -0.63477696656E+01 -0.31389867746E+01  0.31774031774E+02  0.32553594473E+02  0.51100000000E-03 0. -1.
        -11    1    4    4    0    0 -0.39130392813E+00 -0.45821743728E+01  0.97446992429E+01  0.10775370265E+02  0.51100000000E-03 0.  1.
         12    1    4    4    0    0  0.10147000364E+01  0.50435390635E+00  0.25750649129E+01  0.28133517968E+01  0.00000000000E+00 0. -1.
</event>
<event>
 8    1  0.9117959E-009  0.9118800E+02  0.7816164E-02  0.1184000E+00
        -11   -1    0    0    0    0  0.00000000000E+00  0.00000000000E+00  0.45593999997E+02  0.45594000000E+02  0.51100000000E-03 0.  1.
         11   -1    0    0    0    0 -0.00000000000E+00 -0.00000000000E+00 -0.45593999997E+02  0.45594000000E+02  0.51100000000E-03 0. -1.
         23    2    1    2    0    0  0.88817841970E-15  0.71054273576E-14  0.00000000000E+00  0.91188000000E+02  0.91188000000E+02 0.  0.
    9900012    2    3    3    0    0 -0.75526729741E+01  0.44392624474E+02  0.11685243362E+01  0.46142318455E+02  0.10000006328E+02 0.  0.
        -12    1    3    3    0    0  0.75526729741E+01 -0.44392624474E+02 -0.11685243362E+01  0.45045681545E+02  0.00000000000E+00 0.  1.
         11    1    4    4    0    0 -0.57154954381E+01  0.24238749604E+02  0.18706182809E+01  0.24973647781E+02  0.51100000000E-03 0. -1.
        -11    1    4    4    0    0 -0.21224691914E+01  0.18028493451E+01  0.21052376007E+00  0.27927516439E+01  0.51100000000E-03 0.  1.
        -12    1    4    4    0    0  0.28529165542E+00  0.18351025524E+02 -0.91261770470E+00  0.18375919030E+02  0.00000000000E+00 0.  1.
</event>
<event>
 8    1  0.9117959E-009  0.9118800E+02  0.7816164E-02  0.1184000E+00
        -11   -1    0    0    0    0  0.00000000000E+00  0.00000000000E+00  0.45593999997E+02  0.45594000000E+02  0.51100000000E-03 0. -1.
         11   -1    0    0    0    0 -0.00000000000E+00 -0.00000000000E+00 -0.45593999997E+02  0.45594000000E+02  0.51100000000E-03 0.  1.
         23    2    1    2    0    0  0.17763568394E-14  0.00000000000E+00  0.00000000000E+00  0.91188000000E+02  0.91188000000E+02 0.  0.
    9900012    2    3    3    0    0  0.14359543198E+02 -0.21095726908E+02 -0.37119903928E+02  0.46142318272E+02  0.10000004663E+02 0.  0.
         12    1    3    3    0    0 -0.14359543198E+02  0.21095726908E+02  0.37119903928E+02  0.45045681728E+02  0.00000000000E+00 0. -1.
         11    1    4    4    0    0  0.56305748837E+01 -0.37653348840E+01 -0.86428559873E+01  0.10980896147E+02  0.51100000000E-03 0. -1.
        -11    1    4    4    0    0  0.68065355507E+01 -0.80952156245E+01 -0.10748872769E+02  0.15079778124E+02  0.51100000000E-03 0.  1.
         12    1    4    4    0    0  0.19224327636E+01 -0.92351763995E+01 -0.17728175172E+02  0.20081644002E+02  0.00000000000E+00 0. -1.
</event>
<event>
 8    1  0.9117959E-009  0.9118800E+02  0.7816164E-02  0.1184000E+00
        -11   -1    0    0    0    0  0.00000000000E+00  0.00000000000E+00  0.45593999997E+02  0.45594000000E+02  0.51100000000E-03 0. -1.
         11   -1    0    0    0    0 -0.00000000000E+00 -0.00000000000E+00 -0.45593999997E+02  0.45594000000E+02  0.51100000000E-03 0.  1.
         23    2    1    2    0    0  0.35527136788E-14  0.00000000000E+00  0.22204460493E-15  0.91188000000E+02  0.91188000000E+02 0.  0.
    9900012    2    3    3    0    0 -0.28026973445E+02 -0.35231856884E+02 -0.15226664421E+01  0.46142317709E+02  0.99999995241E+01 0.  0.
        -12    1    3    3    0    0  0.28026973445E+02  0.35231856884E+02  0.15226664421E+01  0.45045682291E+02  0.00000000000E+00 0.  1.
         11    1    4    4    0    0 -0.11763577211E+02 -0.13207395881E+02  0.55605630307E+00  0.17695373792E+02  0.51100000000E-03 0. -1.
        -11    1    4    4    0    0 -0.47301627692E+01 -0.26175830108E+01  0.14508671966E+01  0.55974276704E+01  0.51100000000E-03 0.  1.
        -12    1    4    4    0    0 -0.11533233464E+02 -0.19406877992E+02 -0.35295899418E+01  0.22849516246E+02  0.00000000000E+00 0.  1.
</event>
<event>
 8    1  0.9117959E-009  0.9118800E+02  0.7816164E-02  0.1184000E+00
        -11   -1    0    0    0    0  0.00000000000E+00  0.00000000000E+00  0.45593999997E+02  0.45594000000E+02  0.51100000000E-03 0. -1.
         11   -1    0    0    0    0 -0.00000000000E+00 -0.00000000000E+00 -0.45593999997E+02  0.45594000000E+02  0.51100000000E-03 0.  1.
         23    2    1    2    0    0  0.00000000000E+00  0.00000000000E+00 -0.17763568394E-14  0.91188000000E+02  0.91188000000E+02 0.  0.
    9900012    2    3    3    0    0  0.11162351528E+02 -0.41732310411E+02 -0.12764392572E+02  0.46142317170E+02  0.99999946124E+01 0.  0.
         12    1    3    3    0    0 -0.11162351528E+02  0.41732310411E+02  0.12764392572E+02  0.45045682830E+02  0.00000000000E+00 0. -1.
         11    1    4    4    0    0  0.69612130398E+01 -0.28803535871E+02 -0.10693454514E+02  0.31503208334E+02  0.51100000000E-03 0. -1.
        -11    1    4    4    0    0  0.21967201688E+01 -0.10126982960E+02 -0.34596661649E+01  0.10924772474E+02  0.51100000000E-03 0.  1.
         12    1    4    4    0    0  0.20044183192E+01 -0.28017915800E+01  0.13887281068E+01  0.37143363621E+01  0.00000000000E+00 0. -1.
</event>
<event>
 8    1  0.9117959E-009  0.9118800E+02  0.7816164E-02  0.1184000E+00
        -11   -1    0    0    0    0  0.00000000000E+00  0.00000000000E+00  0.45593999997E+02  0.45594000000E+02  0.51100000000E-03 0. -1.
         11   -1    0    0    0    0 -0.00000000000E+00 -0.00000000000E+00 -0.45593999997E+02  0.45594000000E+02  0.51100000000E-03 0.  1.
         23    2    1    2    0    0 -0.44408920985E-15  0.17763568394E-14  0.71054273576E-14  0.91188000000E+02  0.91188000000E+02 0.  0.
    9900012    2    3    3    0    0 -0.35439631856E+01 -0.11806998617E+02  0.43326073738E+02  0.46142317000E+02  0.99999930567E+01 0.  0.
        -12    1    3    3    0    0  0.35439631856E+01  0.11806998617E+02 -0.43326073738E+02  0.45045683000E+02  0.00000000000E+00 0.  1.
         11    1    4    4    0    0 -0.12004504655E+01 -0.89086035424E+00  0.77192169837E+01  0.78626347107E+01  0.51100000000E-03 0. -1.
        -11    1    4    4    0    0 -0.71892843031E+00  0.28815969874E+00 -0.13624258970E+00  0.78641999228E+00  0.51100000000E-03 0.  1.
        -12    1    4    4    0    0 -0.16245842897E+01 -0.11204297962E+02  0.35743099344E+02  0.37493262297E+02  0.00000000000E+00 0.  1.
</event>
<event>
 8    1  0.9117959E-009  0.9118800E+02  0.7816164E-02  0.1184000E+00
        -11   -1    0    0    0    0  0.00000000000E+00  0.00000000000E+00  0.45593999997E+02  0.45594000000E+02  0.51100000000E-03 0. -1.
         11   -1    0    0    0    0 -0.00000000000E+00 -0.00000000000E+00 -0.45593999997E+02  0.45594000000E+02  0.51100000000E-03 0.  1.
         23    2    1    2    0    0 -0.35527136788E-14  0.00000000000E+00  0.35527136788E-14  0.91188000000E+02  0.91188000000E+02 0.  0.
    9900012    2    3    3    0    0  0.22843616265E+02 -0.24305479157E+02 -0.30274189336E+02  0.46142315844E+02  0.99999825165E+01 0.  0.
         12    1    3    3    0    0 -0.22843616265E+02  0.24305479157E+02  0.30274189336E+02  0.45045684156E+02  0.00000000000E+00 0. -1.
         11    1    4    4    0    0  0.86902414113E-01 -0.89573894642E+00  0.49592755418E+00  0.10275430355E+01  0.51100000000E-03 0. -1.
        -11    1    4    4    0    0  0.13301310813E+02 -0.10644189210E+02 -0.14440410476E+02  0.22332691022E+02  0.51100000000E-03 0.  1.
        -12    1    4    4    0    0  0.94554030383E+01 -0.12765551001E+02 -0.16329706414E+02  0.22782081787E+02  0.00000000000E+00 0.  1.
</event>
<event>
 8    1  0.9117959E-009  0.9118800E+02  0.7816164E-02  0.1184000E+00
        -11   -1    0    0    0    0  0.00000000000E+00  0.00000000000E+00  0.45593999997E+02  0.45594000000E+02  0.51100000000E-03 0. -1.
         11   -1    0    0    0    0 -0.00000000000E+00 -0.00000000000E+00 -0.45593999997E+02  0.45594000000E+02  0.51100000000E-03 0.  1.
         23    2    1    2    0    0  0.00000000000E+00  0.88817841970E-15  0.00000000000E+00  0.91188000000E+02  0.91188000000E+02 0.  0.
    9900012    2    3    3    0    0 -0.27446942796E+02  0.52464544113E+01  0.35330632151E+02  0.46142317399E+02  0.99999967019E+01 0.  0.
        -12    1    3    3    0    0  0.27446942796E+02 -0.52464544113E+01 -0.35330632151E+02  0.45045682601E+02  0.00000000000E+00 0.  1.
         11    1    4    4    0    0  0.12334940246E+00  0.11113940876E+01  0.18652091427E+01  0.21747223501E+01  0.51100000000E-03 0. -1.
        -11    1    4    4    0    0 -0.13747776231E+02  0.31119744867E+01  0.12529060114E+02  0.18859031898E+02  0.51100000000E-03 0.  1.
         12    1    4    4    0    0 -0.13822515967E+02  0.10230858370E+01  0.20936362894E+02  0.25108563152E+02  0.00000000000E+00 0. -1.
</event>
<event>
 8    1  0.9117959E-009  0.9118800E+02  0.7816164E-02  0.1184000E+00
        -11   -1    0    0    0    0  0.00000000000E+00  0.00000000000E+00  0.45593999997E+02  0.45594000000E+02  0.51100000000E-03 0. -1.
         11   -1    0    0    0    0 -0.00000000000E+00 -0.00000000000E+00 -0.45593999997E+02  0.45594000000E+02  0.51100000000E-03 0.  1.
         23    2    1    2    0    0  0.35527136788E-14 -0.35527136788E-14 -0.35527136788E-14  0.91188000000E+02  0.91188000000E+02 0.  0.
    9900012    2    3    3    0    0  0.29097133958E+02 -0.13240304809E+02 -0.31735859935E+02  0.46142315614E+02  0.99999804188E+01 0.  0.
         12    1    3    3    0    0 -0.29097133958E+02  0.13240304809E+02  0.31735859935E+02  0.45045684386E+02  0.00000000000E+00 0. -1.
         11    1    4    4    0    0  0.75510422263E+01 -0.23948853095E+01 -0.38224321157E+01  0.87957206578E+01  0.51100000000E-03 0. -1.
        -11    1    4    4    0    0  0.88293992895E+01 -0.13541127677E+01 -0.10582326888E+02  0.13848377372E+02  0.51100000000E-03 0.  1.
        -12    1    4    4    0    0  0.12716692442E+02 -0.94913067318E+01 -0.17331100931E+02  0.23498217584E+02  0.00000000000E+00 0.  1.
</event>
<event>
 8    1  0.9117959E-009  0.9118800E+02  0.7816164E-02  0.1184000E+00
        -11   -1    0    0    0    0  0.00000000000E+00  0.00000000000E+00  0.45593999997E+02  0.45594000000E+02  0.51100000000E-03 0. -1.
         11   -1    0    0    0    0 -0.00000000000E+00 -0.00000000000E+00 -0.45593999997E+02  0.45594000000E+02  0.51100000000E-03 0.  1.
         23    2    1    2    0    0  0.00000000000E+00  0.00000000000E+00  0.71054273576E-14  0.91188000000E+02  0.91188000000E+02 0.  0.
    9900012    2    3    3    0    0  0.16520279895E+02  0.22623605129E+02 -0.35275576671E+02  0.46142318006E+02  0.10000002232E+02 0.  0.
         12    1    3    3    0    0 -0.16520279895E+02 -0.22623605129E+02  0.35275576671E+02  0.45045681994E+02  0.00000000000E+00 0. -1.
         11    1    4    4    0    0  0.51121656075E+00  0.64720395139E+00 -0.10906701824E+01  0.13673979065E+01  0.51100000000E-03 0.  1.
        -11    1    4    4    0    0  0.12051347433E+02  0.16366432470E+02 -0.17828652931E+02  0.27036197076E+02  0.51100000000E-03 0. -1.
         12    1    4    4    0    0  0.39577159015E+01  0.56099687074E+01 -0.16356253557E+02  0.17738723023E+02  0.00000000000E+00 0. -1.
</event>
<event>
 8    1  0.9117959E-009  0.9118800E+02  0.7816164E-02  0.1184000E+00
        -11   -1    0    0    0    0  0.00000000000E+00  0.00000000000E+00  0.45593999997E+02  0.45594000000E+02  0.51100000000E-03 0. -1.
         11   -1    0    0    0    0 -0.00000000000E+00 -0.00000000000E+00 -0.45593999997E+02  0.45594000000E+02  0.51100000000E-03 0.  1.
         23    2    1    2    0    0  0.00000000000E+00 -0.71054273576E-14  0.00000000000E+00  0.91188000000E+02  0.91188000000E+02 0.  0.
    9900012    2    3    3    0    0  0.63515576377E+01 -0.24203042348E+02  0.37456427950E+02  0.46142317209E+02  0.99999949653E+01 0.  0.
        -12    1    3    3    0    0 -0.63515576377E+01  0.24203042348E+02 -0.37456427950E+02  0.45045682791E+02  0.00000000000E+00 0.  1.
         11    1    4    4    0    0  0.33815185999E+01 -0.77888466536E+01  0.12340109721E+02  0.14979289316E+02  0.51100000000E-03 0. -1.
        -11    1    4    4    0    0  0.26743966277E+01 -0.15403487675E+02  0.17467781507E+02  0.23442338214E+02  0.51100000000E-03 0.  1.
         12    1    4    4    0    0  0.29564241012E+00 -0.10107080196E+01  0.76485367221E+01  0.77206896794E+01  0.00000000000E+00 0. -1.
</event>
<event>
 8    1  0.9117959E-009  0.9118800E+02  0.7816164E-02  0.1184000E+00
        -11   -1    0    0    0    0  0.00000000000E+00  0.00000000000E+00  0.45593999997E+02  0.45594000000E+02  0.51100000000E-03 0. -1.
         11   -1    0    0    0    0 -0.00000000000E+00 -0.00000000000E+00 -0.45593999997E+02  0.45594000000E+02  0.51100000000E-03 0.  1.
         23    2    1    2    0    0  0.00000000000E+00  0.00000000000E+00  0.00000000000E+00  0.91188000000E+02  0.91188000000E+02 0.  0.
    9900012    2    3    3    0    0  0.11769533310E+01  0.17854042136E+02  0.41339585062E+02  0.46142319488E+02  0.10000015744E+02 0.  0.
        -12    1    3    3    0    0 -0.11769533310E+01 -0.17854042136E+02 -0.41339585062E+02  0.45045680512E+02  0.00000000000E+00 0.  1.
         11    1    4    4    0    0  0.22561980833E+00  0.13444857648E+02  0.27805757535E+02  0.30886489827E+02  0.51100000000E-03 0. -1.
        -11    1    4    4    0    0  0.15603606052E+01  0.27192726364E+01  0.23229566365E+01  0.39019606207E+01  0.51100000000E-03 0.  1.
         12    1    4    4    0    0 -0.60902708257E+00  0.16899118511E+01  0.11210870890E+02  0.11353869040E+02  0.00000000000E+00 0. -1.
</event>
<event>
 8    1  0.9117959E-009  0.9118800E+02  0.7816164E-02  0.1184000E+00
        -11   -1    0    0    0    0  0.00000000000E+00  0.00000000000E+00  0.45593999997E+02  0.45594000000E+02  0.51100000000E-03 0. -1.
         11   -1    0    0    0    0 -0.00000000000E+00 -0.00000000000E+00 -0.45593999997E+02  0.45594000000E+02  0.51100000000E-03 0.  1.
         23    2    1    2    0    0  0.35527136788E-14  0.35527136788E-14  0.00000000000E+00  0.91188000000E+02  0.91188000000E+02 0.  0.
    9900012    2    3    3    0    0 -0.31023411640E+02 -0.25971930361E+02  0.19802024934E+02  0.46142318432E+02  0.10000006118E+02 0.  0.
        -12    1    3    3    0    0  0.31023411640E+02  0.25971930361E+02 -0.19802024934E+02  0.45045681568E+02  0.00000000000E+00 0.  1.
         11    1    4    4    0    0 -0.16199141334E+01 -0.30356882015E+01  0.45811695660E+01  0.57294536833E+01  0.51100000000E-03 0. -1.
        -11    1    4    4    0    0 -0.17241970283E+01 -0.56745622027E+00  0.11212750307E+01  0.21335697574E+01  0.51100000000E-03 0.  1.
         12    1    4    4    0    0 -0.27679300478E+02 -0.22368785939E+02  0.14099580337E+02  0.38279294991E+02  0.00000000000E+00 0. -1.
</event>
<event>
 8    1  0.9117959E-009  0.9118800E+02  0.7816164E-02  0.1184000E+00
        -11   -1    0    0    0    0  0.00000000000E+00  0.00000000000E+00  0.45593999997E+02  0.45594000000E+02  0.51100000000E-03 0. -1.
         11   -1    0    0    0    0 -0.00000000000E+00 -0.00000000000E+00 -0.45593999997E+02  0.45594000000E+02  0.51100000000E-03 0.  1.
         23    2    1    2    0    0  0.00000000000E+00  0.00000000000E+00  0.00000000000E+00  0.91188000000E+02  0.91188000000E+02 0.  0.
    9900012    2    3    3    0    0 -0.43400458475E+02  0.21322163108E+01  0.11872965287E+02  0.46142318221E+02  0.10000004196E+02 0.  0.
        -12    1    3    3    0    0  0.43400458475E+02 -0.21322163108E+01 -0.11872965287E+02  0.45045681779E+02  0.00000000000E+00 0.  1.
         11    1    4    4    0    0 -0.95162035417E+01  0.11740914801E+01  0.17681214865E+00  0.95899887095E+01  0.51100000000E-03 0. -1.
        -11    1    4    4    0    0 -0.10814169066E+02  0.13326481223E+01  0.50312092370E+00  0.10907581516E+02  0.51100000000E-03 0.  1.
        -12    1    4    4    0    0 -0.23070085867E+02 -0.37452329169E+00  0.11193032215E+02  0.25644747996E+02  0.00000000000E+00 0.  1.
</event>
<event>
 8    1  0.9117959E-009  0.9118800E+02  0.7816164E-02  0.1184000E+00
        -11   -1    0    0    0    0  0.00000000000E+00  0.00000000000E+00  0.45593999997E+02  0.45594000000E+02  0.51100000000E-03 0. -1.
         11   -1    0    0    0    0 -0.00000000000E+00 -0.00000000000E+00 -0.45593999997E+02  0.45594000000E+02  0.51100000000E-03 0.  1.
         23    2    1    2    0    0  0.00000000000E+00  0.00000000000E+00  0.00000000000E+00  0.91188000000E+02  0.91188000000E+02 0.  0.
    9900012    2    3    3    0    0 -0.33043083147E+01  0.36369212454E+01 -0.44776876711E+02  0.46142308335E+02  0.99999140430E+01 0.  0.
         12    1    3    3    0    0  0.33043083147E+01 -0.36369212454E+01  0.44776876711E+02  0.45045691665E+02  0.00000000000E+00 0. -1.
         11    1    4    4    0    0  0.16940609699E+01  0.44975234053E+00 -0.12139301555E+02  0.12265184965E+02  0.51100000000E-03 0. -1.
        -11    1    4    4    0    0 -0.11338186943E+01  0.44447997686E+01 -0.12078471138E+02  0.12920187890E+02  0.51100000000E-03 0.  1.
         12    1    4    4    0    0 -0.38645505903E+01 -0.12576308637E+01 -0.20559104019E+02  0.20956935480E+02  0.00000000000E+00 0. -1.
</event>
<event>
 8    1  0.9117959E-009  0.9118800E+02  0.7816164E-02  0.1184000E+00
        -11   -1    0    0    0    0  0.00000000000E+00  0.00000000000E+00  0.45593999997E+02  0.45594000000E+02  0.51100000000E-03 0. -1.
         11   -1    0    0    0    0 -0.00000000000E+00 -0.00000000000E+00 -0.45593999997E+02  0.45594000000E+02  0.51100000000E-03 0.  1.
         23    2    1    2    0    0  0.00000000000E+00  0.35527136788E-14  0.71054273576E-14  0.91188000000E+02  0.91188000000E+02 0.  0.
    9900012    2    3    3    0    0 -0.89150868526E+01  0.24251724775E+02  0.36898356416E+02  0.46142316140E+02  0.99999852212E+01 0.  0.
        -12    1    3    3    0    0  0.89150868526E+01 -0.24251724775E+02 -0.36898356416E+02  0.45045683860E+02  0.00000000000E+00 0.  1.
         11    1    4    4    0    0 -0.39229156109E+01  0.15565522034E+02  0.23046861293E+02  0.28086163120E+02  0.51100000000E-03 0. -1.
        -11    1    4    4    0    0  0.12194981504E+01  0.16565348390E+01  0.37041048509E+01  0.42369418712E+01  0.51100000000E-03 0.  1.
        -12    1    4    4    0    0 -0.62116693921E+01  0.70296679027E+01  0.10147390272E+02  0.13819211149E+02  0.00000000000E+00 0.  1.
</event>
<event>
 8    1  0.9117959E-009  0.9118800E+02  0.7816164E-02  0.1184000E+00
        -11   -1    0    0    0    0  0.00000000000E+00  0.00000000000E+00  0.45593999997E+02  0.45594000000E+02  0.51100000000E-03 0. -1.
         11   -1    0    0    0    0 -0.00000000000E+00 -0.00000000000E+00 -0.45593999997E+02  0.45594000000E+02  0.51100000000E-03 0.  1.
         23    2    1    2    0    0  0.00000000000E+00  0.00000000000E+00  0.00000000000E+00  0.91188000000E+02  0.91188000000E+02 0.  0.
    9900012    2    3    3    0    0  0.28396366322E+02  0.23908068430E+02  0.25517918916E+02  0.46142317164E+02  0.99999945560E+01 0.  0.
        -12    1    3    3    0    0 -0.28396366322E+02 -0.23908068430E+02 -0.25517918916E+02  0.45045682836E+02  0.00000000000E+00 0.  1.
         11    1    4    4    0    0  0.24887044294E+01  0.22976345265E+01  0.16585450665E+01  0.37714116923E+01  0.51100000000E-03 0. -1.
        -11    1    4    4    0    0  0.23478305592E+02  0.22199134492E+02  0.20831572929E+02  0.38444594375E+02  0.51100000000E-03 0.  1.
        -12    1    4    4    0    0  0.24293563003E+01 -0.58870058858E+00  0.30278009201E+01  0.39263110968E+01  0.00000000000E+00 0.  1.
</event>
<event>
 8    1  0.9117959E-009  0.9118800E+02  0.7816164E-02  0.1184000E+00
        -11   -1    0    0    0    0  0.00000000000E+00  0.00000000000E+00  0.45593999997E+02  0.45594000000E+02  0.51100000000E-03 0. -1.
         11   -1    0    0    0    0 -0.00000000000E+00 -0.00000000000E+00 -0.45593999997E+02  0.45594000000E+02  0.51100000000E-03 0.  1.
         23    2    1    2    0    0  0.00000000000E+00  0.00000000000E+00  0.00000000000E+00  0.91188000000E+02  0.91188000000E+02 0.  0.
    9900012    2    3    3    0    0  0.26715853324E+02 -0.26703407420E+02 -0.24541896938E+02  0.46142317721E+02  0.99999996360E+01 0.  0.
         12    1    3    3    0    0 -0.26715853324E+02  0.26703407420E+02  0.24541896938E+02  0.45045682279E+02  0.00000000000E+00 0. -1.
         11    1    4    4    0    0  0.41535881583E+01 -0.23367168842E+01 -0.25619723402E+01  0.54107525279E+01  0.51100000000E-03 0. -1.
        -11    1    4    4    0    0  0.57614202012E+01 -0.35791658123E+01 -0.12272592109E+01  0.68927901520E+01  0.51100000000E-03 0.  1.
        -12    1    4    4    0    0  0.16800844964E+02 -0.20787524723E+02 -0.20752665387E+02  0.33838775041E+02  0.00000000000E+00 0.  1.
</event>
<event>
 8    1  0.9117959E-009  0.9118800E+02  0.7816164E-02  0.1184000E+00
        -11   -1    0    0    0    0  0.00000000000E+00  0.00000000000E+00  0.45593999997E+02  0.45594000000E+02  0.51100000000E-03 0. -1.
         11   -1    0    0    0    0 -0.00000000000E+00 -0.00000000000E+00 -0.45593999997E+02  0.45594000000E+02  0.51100000000E-03 0.  1.
         23    2    1    2    0    0 -0.88817841970E-15  0.00000000000E+00 -0.17763568394E-14  0.91188000000E+02  0.91188000000E+02 0.  0.
    9900012    2    3    3    0    0 -0.56304347776E+01 -0.42757382825E+02  0.13008376030E+02  0.46142318423E+02  0.10000006033E+02 0.  0.
        -12    1    3    3    0    0  0.56304347776E+01  0.42757382825E+02 -0.13008376030E+02  0.45045681577E+02  0.00000000000E+00 0.  1.
         11    1    4    4    0    0  0.56190343940E+00 -0.12589932388E+02  0.15717521826E+01  0.12700099929E+02  0.51100000000E-03 0. -1.
        -11    1    4    4    0    0 -0.87086890431E-01 -0.13870222866E+02  0.67113787781E+01  0.15408869908E+02  0.51100000000E-03 0.  1.
        -12    1    4    4    0    0 -0.61052513266E+01 -0.16297227571E+02  0.47252450690E+01  0.18033348586E+02  0.00000000000E+00 0.  1.
</event>
<event>
 8    1  0.9117959E-009  0.9118800E+02  0.7816164E-02  0.1184000E+00
        -11   -1    0    0    0    0  0.00000000000E+00  0.00000000000E+00  0.45593999997E+02  0.45594000000E+02  0.51100000000E-03 0. -1.
         11   -1    0    0    0    0 -0.00000000000E+00 -0.00000000000E+00 -0.45593999997E+02  0.45594000000E+02  0.51100000000E-03 0.  1.
         23    2    1    2    0    0  0.00000000000E+00  0.35527136788E-14  0.00000000000E+00  0.91188000000E+02  0.91188000000E+02 0.  0.
    9900012    2    3    3    0    0 -0.12127608031E+02  0.24700393203E+02  0.35664059411E+02  0.46142318358E+02  0.10000005446E+02 0.  0.
        -12    1    3    3    0    0  0.12127608031E+02 -0.24700393203E+02 -0.35664059411E+02  0.45045681642E+02  0.00000000000E+00 0.  1.
         11    1    4    4    0    0 -0.59087333642E+00  0.66970040972E+01  0.68410193006E+01  0.95915869651E+01  0.51100000000E-03 0. -1.
        -11    1    4    4    0    0 -0.46690724514E+01  0.12724605967E+02  0.14805678310E+02  0.20072965527E+02  0.51100000000E-03 0.  1.
         12    1    4    4    0    0 -0.68676622428E+01  0.52787831384E+01  0.14017361800E+02  0.16477765866E+02  0.00000000000E+00 0. -1.
</event>
<event>
 8    1  0.9117959E-009  0.9118800E+02  0.7816164E-02  0.1184000E+00
        -11   -1    0    0    0    0  0.00000000000E+00  0.00000000000E+00  0.45593999997E+02  0.45594000000E+02  0.51100000000E-03 0. -1.
         11   -1    0    0    0    0 -0.00000000000E+00 -0.00000000000E+00 -0.45593999997E+02  0.45594000000E+02  0.51100000000E-03 0.  1.
         23    2    1    2    0    0  0.00000000000E+00  0.00000000000E+00  0.00000000000E+00  0.91188000000E+02  0.91188000000E+02 0.  0.
    9900012    2    3    3    0    0 -0.67557813683E+01  0.33997965843E+02  0.28768231938E+02  0.46142318385E+02  0.10000005685E+02 0.  0.
        -12    1    3    3    0    0  0.67557813683E+01 -0.33997965843E+02 -0.28768231938E+02  0.45045681615E+02  0.00000000000E+00 0.  1.
         11    1    4    4    0    0 -0.38862190896E+00  0.99349543162E+01  0.44295145248E+01  0.10884619582E+02  0.51100000000E-03 0. -1.
        -11    1    4    4    0    0 -0.62699730877E+01  0.13603716866E+02  0.13029455842E+02  0.19852969422E+02  0.51100000000E-03 0.  1.
        -12    1    4    4    0    0 -0.97186371714E-01  0.10459294661E+02  0.11309261571E+02  0.15404729380E+02  0.00000000000E+00 0.  1.
</event>
<event>
 8    1  0.9117959E-009  0.9118800E+02  0.7816164E-02  0.1184000E+00
        -11   -1    0    0    0    0  0.00000000000E+00  0.00000000000E+00  0.45593999997E+02  0.45594000000E+02  0.51100000000E-03 0. -1.
         11   -1    0    0    0    0 -0.00000000000E+00 -0.00000000000E+00 -0.45593999997E+02  0.45594000000E+02  0.51100000000E-03 0.  1.
         23    2    1    2    0    0  0.00000000000E+00  0.00000000000E+00  0.00000000000E+00  0.91188000000E+02  0.91188000000E+02 0.  0.
    9900012    2    3    3    0    0  0.32574018649E+02  0.47934532251E+01  0.30741984203E+02  0.46142317881E+02  0.10000001098E+02 0.  0.
        -12    1    3    3    0    0 -0.32574018649E+02 -0.47934532251E+01 -0.30741984203E+02  0.45045682119E+02  0.00000000000E+00 0.  1.
         11    1    4    4    0    0  0.10997981029E+02 -0.75855215879E+00  0.10937888222E+02  0.15529597133E+02  0.51100000000E-03 0. -1.
        -11    1    4    4    0    0  0.17382921529E+02  0.38881535134E+01  0.11619606873E+02  0.21267321477E+02  0.51100000000E-03 0.  1.
        -12    1    4    4    0    0  0.41931160910E+01  0.16638518704E+01  0.81844891074E+01  0.93453992718E+01  0.00000000000E+00 0.  1.
</event>
<event>
 8    1  0.9117959E-009  0.9118800E+02  0.7816164E-02  0.1184000E+00
        -11   -1    0    0    0    0  0.00000000000E+00  0.00000000000E+00  0.45593999997E+02  0.45594000000E+02  0.51100000000E-03 0. -1.
         11   -1    0    0    0    0 -0.00000000000E+00 -0.00000000000E+00 -0.45593999997E+02  0.45594000000E+02  0.51100000000E-03 0.  1.
         23    2    1    2    0    0  0.00000000000E+00  0.71054273576E-14  0.00000000000E+00  0.91188000000E+02  0.91188000000E+02 0.  0.
    9900012    2    3    3    0    0 -0.11961769032E+02  0.36163625904E+02  0.24046240747E+02  0.46142318177E+02  0.10000003788E+02 0.  0.
        -12    1    3    3    0    0  0.11961769032E+02 -0.36163625904E+02 -0.24046240747E+02  0.45045681823E+02  0.00000000000E+00 0.  1.
         11    1    4    4    0    0 -0.36631799674E+01  0.10255468846E+02  0.23130193433E+01  0.11132995440E+02  0.51100000000E-03 0. -1.
        -11    1    4    4    0    0 -0.59032850183E+00  0.30983714094E+01  0.12309193539E+01  0.33857873305E+01  0.51100000000E-03 0.  1.
         12    1    4    4    0    0 -0.77082605624E+01  0.22809785648E+02  0.20502302050E+02  0.31623535406E+02  0.00000000000E+00 0. -1.
</event>
<event>
 8    1  0.9117959E-009  0.9118800E+02  0.7816164E-02  0.1184000E+00
        -11   -1    0    0    0    0  0.00000000000E+00  0.00000000000E+00  0.45593999997E+02  0.45594000000E+02  0.51100000000E-03 0. -1.
         11   -1    0    0    0    0 -0.00000000000E+00 -0.00000000000E+00 -0.45593999997E+02  0.45594000000E+02  0.51100000000E-03 0.  1.
         23    2    1    2    0    0 -0.35527136788E-14  0.00000000000E+00 -0.71054273576E-14  0.91188000000E+02  0.91188000000E+02 0.  0.
    9900012    2    3    3    0    0  0.20267708769E+02 -0.11958876015E+02  0.38409878721E+02  0.46142317436E+02  0.99999970371E+01 0.  0.
        -12    1    3    3    0    0 -0.20267708769E+02  0.11958876015E+02 -0.38409878721E+02  0.45045682564E+02  0.00000000000E+00 0.  1.
         11    1    4    4    0    0  0.11735023501E+02 -0.10859037332E+02  0.27687890652E+02  0.31972625125E+02  0.51100000000E-03 0. -1.
        -11    1    4    4    0    0  0.38682887427E+01 -0.80376496245E+00  0.75496752576E+01  0.85209912961E+01  0.51100000000E-03 0.  1.
         12    1    4    4    0    0  0.46643965245E+01 -0.29607371994E+00  0.31723128120E+01  0.56487010155E+01  0.00000000000E+00 0. -1.
</event>
<event>
 8    1  0.9117959E-009  0.9118800E+02  0.7816164E-02  0.1184000E+00
        -11   -1    0    0    0    0  0.00000000000E+00  0.00000000000E+00  0.45593999997E+02  0.45594000000E+02  0.51100000000E-03 0. -1.
         11   -1    0    0    0    0 -0.00000000000E+00 -0.00000000000E+00 -0.45593999997E+02  0.45594000000E+02  0.51100000000E-03 0.  1.
         23    2    1    2    0    0  0.00000000000E+00  0.00000000000E+00  0.00000000000E+00  0.91188000000E+02  0.91188000000E+02 0.  0.
    9900012    2    3    3    0    0  0.92828186667E+01  0.51741571758E+01  0.43774089564E+02  0.46142317166E+02  0.99999945723E+01 0.  0.
        -12    1    3    3    0    0 -0.92828186667E+01 -0.51741571758E+01 -0.43774089564E+02  0.45045682834E+02  0.00000000000E+00 0.  1.
         11    1    4    4    0    0  0.41129422637E+01 -0.98906320447E+00  0.13544405047E+02  0.14189624675E+02  0.51100000000E-03 0. -1.
        -11    1    4    4    0    0  0.16032664912E+01  0.12158228528E+01  0.19557259368E+02  0.19660495490E+02  0.51100000000E-03 0.  1.
        -12    1    4    4    0    0  0.35666099118E+01  0.49473975275E+01  0.10672425148E+02  0.12292197000E+02  0.00000000000E+00 0.  1.
</event>
<event>
 8    1  0.9117959E-009  0.9118800E+02  0.7816164E-02  0.1184000E+00
        -11   -1    0    0    0    0  0.00000000000E+00  0.00000000000E+00  0.45593999997E+02  0.45594000000E+02  0.51100000000E-03 0.  1.
         11   -1    0    0    0    0 -0.00000000000E+00 -0.00000000000E+00 -0.45593999997E+02  0.45594000000E+02  0.51100000000E-03 0. -1.
         23    2    1    2    0    0  0.71054273576E-14  0.00000000000E+00 -0.17763568394E-14  0.91188000000E+02  0.91188000000E+02 0.  0.
    9900012    2    3    3    0    0 -0.39290940237E+02 -0.17700525520E+02  0.13115896434E+02  0.46142319544E+02  0.10000016262E+02 0.  0.
         12    1    3    3    0    0  0.39290940237E+02  0.17700525520E+02 -0.13115896434E+02  0.45045680456E+02  0.00000000000E+00 0. -1.
         11    1    4    4    0    0 -0.14106997513E+01  0.72774376378E+00 -0.41600291127E+00  0.16409580913E+01  0.51100000000E-03 0. -1.
        -11    1    4    4    0    0 -0.16431847506E+02 -0.86808266096E+01  0.35768251554E+01  0.18925011005E+02  0.51100000000E-03 0.  1.
         12    1    4    4    0    0 -0.21448392980E+02 -0.97474426741E+01  0.99550741902E+01  0.25576350448E+02  0.00000000000E+00 0. -1.
</event>
<event>
 8    1  0.9117959E-009  0.9118800E+02  0.7816164E-02  0.1184000E+00
        -11   -1    0    0    0    0  0.00000000000E+00  0.00000000000E+00  0.45593999997E+02  0.45594000000E+02  0.51100000000E-03 0. -1.
         11   -1    0    0    0    0 -0.00000000000E+00 -0.00000000000E+00 -0.45593999997E+02  0.45594000000E+02  0.51100000000E-03 0.  1.
         23    2    1    2    0    0 -0.17763568394E-14  0.00000000000E+00  0.71054273576E-14  0.91188000000E+02  0.91188000000E+02 0.  0.
    9900012    2    3    3    0    0  0.10922794118E+02 -0.23396890402E+02 -0.36910588420E+02  0.46142318194E+02  0.10000003951E+02 0.  0.
         12    1    3    3    0    0 -0.10922794118E+02  0.23396890402E+02  0.36910588420E+02  0.45045681806E+02  0.00000000000E+00 0. -1.
         11    1    4    4    0    0 -0.39578881857E+00 -0.24249098992E+01 -0.76675134864E+01  0.80515588636E+01  0.51100000000E-03 0. -1.
        -11    1    4    4    0    0  0.95733838673E+01 -0.16246895619E+02 -0.25928882542E+02  0.32061164140E+02  0.51100000000E-03 0.  1.
        -12    1    4    4    0    0  0.17451990689E+01 -0.47250848838E+01 -0.33141923922E+01  0.60295951905E+01  0.00000000000E+00 0.  1.
</event>
<event>
 8    1  0.9117959E-009  0.9118800E+02  0.7816164E-02  0.1184000E+00
        -11   -1    0    0    0    0  0.00000000000E+00  0.00000000000E+00  0.45593999997E+02  0.45594000000E+02  0.51100000000E-03 0. -1.
         11   -1    0    0    0    0 -0.00000000000E+00 -0.00000000000E+00 -0.45593999997E+02  0.45594000000E+02  0.51100000000E-03 0.  1.
         23    2    1    2    0    0  0.00000000000E+00  0.00000000000E+00  0.00000000000E+00  0.91188000000E+02  0.91188000000E+02 0.  0.
    9900012    2    3    3    0    0  0.17277945804E+02  0.21376221739E+02  0.35688137072E+02  0.46142318800E+02  0.10000009476E+02 0.  0.
        -12    1    3    3    0    0 -0.17277945804E+02 -0.21376221739E+02 -0.35688137072E+02  0.45045681200E+02  0.00000000000E+00 0.  1.
         11    1    4    4    0    0  0.49906305626E+01  0.48515056733E+01  0.14241298937E+02  0.15851122875E+02  0.51100000000E-03 0. -1.
        -11    1    4    4    0    0  0.77167071640E+01  0.61846663498E+01  0.79744431571E+01  0.12703913225E+02  0.51100000000E-03 0.  1.
         12    1    4    4    0    0  0.45706080771E+01  0.10340049716E+02  0.13472394978E+02  0.17587282700E+02  0.00000000000E+00 0. -1.
</event>
<event>
 8    1  0.9117959E-009  0.9118800E+02  0.7816164E-02  0.1184000E+00
        -11   -1    0    0    0    0  0.00000000000E+00  0.00000000000E+00  0.45593999997E+02  0.45594000000E+02  0.51100000000E-03 0. -1.
         11   -1    0    0    0    0 -0.00000000000E+00 -0.00000000000E+00 -0.45593999997E+02  0.45594000000E+02  0.51100000000E-03 0.  1.
         23    2    1    2    0    0  0.00000000000E+00 -0.22204460493E-15 -0.71054273576E-14  0.91188000000E+02  0.91188000000E+02 0.  0.
    9900012    2    3    3    0    0 -0.10750958264E+02 -0.12103720345E+01 -0.43727169769E+02  0.46142317854E+02  0.10000000843E+02 0.  0.
         12    1    3    3    0    0  0.10750958264E+02  0.12103720345E+01  0.43727169769E+02  0.45045682146E+02  0.00000000000E+00 0. -1.
         11    1    4    4    0    0 -0.43886523336E+01 -0.44147631629E+01 -0.27500899833E+02  0.28196629142E+02  0.51100000000E-03 0. -1.
        -11    1    4    4    0    0 -0.46605847120E+01  0.34065383266E+01 -0.13943343917E+02  0.15091136242E+02  0.51100000000E-03 0.  1.
         12    1    4    4    0    0 -0.17017212179E+01 -0.20214719822E+00 -0.22829260191E+01  0.28545524696E+01  0.00000000000E+00 0. -1.
</event>
<event>
 8    1  0.9117959E-009  0.9118800E+02  0.7816164E-02  0.1184000E+00
        -11   -1    0    0    0    0  0.00000000000E+00  0.00000000000E+00  0.45593999997E+02  0.45594000000E+02  0.51100000000E-03 0. -1.
         11   -1    0    0    0    0 -0.00000000000E+00 -0.00000000000E+00 -0.45593999997E+02  0.45594000000E+02  0.51100000000E-03 0.  1.
         23    2    1    2    0    0  0.88817841970E-15  0.00000000000E+00 -0.14210854715E-13  0.91188000000E+02  0.91188000000E+02 0.  0.
    9900012    2    3    3    0    0  0.47223888072E+01  0.23291256706E+01 -0.44736871839E+02  0.46142317805E+02  0.10000000401E+02 0.  0.
         12    1    3    3    0    0 -0.47223888072E+01 -0.23291256706E+01  0.44736871839E+02  0.45045682195E+02  0.00000000000E+00 0. -1.
         11    1    4    4    0    0  0.11858999874E+01 -0.35023383375E+01 -0.91233653832E+01  0.98442129592E+01  0.51100000000E-03 0. -1.
        -11    1    4    4    0    0  0.33554025109E+01  0.42206208390E+01 -0.26882948429E+02  0.27418338439E+02  0.51100000000E-03 0.  1.
         12    1    4    4    0    0  0.18108630883E+00  0.16108431691E+01 -0.87305580271E+01  0.88797664064E+01  0.00000000000E+00 0. -1.
</event>
<event>
 8    1  0.9117959E-009  0.9118800E+02  0.7816164E-02  0.1184000E+00
        -11   -1    0    0    0    0  0.00000000000E+00  0.00000000000E+00  0.45593999997E+02  0.45594000000E+02  0.51100000000E-03 0. -1.
         11   -1    0    0    0    0 -0.00000000000E+00 -0.00000000000E+00 -0.45593999997E+02  0.45594000000E+02  0.51100000000E-03 0.  1.
         23    2    1    2    0    0  0.00000000000E+00  0.44408920985E-15 -0.35527136788E-14  0.91188000000E+02  0.91188000000E+02 0.  0.
    9900012    2    3    3    0    0  0.33199330317E+02  0.15145347814E+01  0.30407634469E+02  0.46142316710E+02  0.99999904149E+01 0.  0.
        -12    1    3    3    0    0 -0.33199330317E+02 -0.15145347814E+01 -0.30407634469E+02  0.45045683290E+02  0.00000000000E+00 0.  1.
         11    1    4    4    0    0  0.10877336337E+02  0.10463029791E+01  0.67360763550E+01  0.12836896846E+02  0.51100000000E-03 0. -1.
        -11    1    4    4    0    0  0.13125076651E+02  0.33050713993E+01  0.11305318496E+02  0.17635230665E+02  0.51100000000E-03 0.  1.
        -12    1    4    4    0    0  0.91969173285E+01 -0.28368395969E+01  0.12366239618E+02  0.15670189199E+02  0.00000000000E+00 0.  1.
</event>
<event>
 8    1  0.9117959E-009  0.9118800E+02  0.7816164E-02  0.1184000E+00
        -11   -1    0    0    0    0  0.00000000000E+00  0.00000000000E+00  0.45593999997E+02  0.45594000000E+02  0.51100000000E-03 0. -1.
         11   -1    0    0    0    0 -0.00000000000E+00 -0.00000000000E+00 -0.45593999997E+02  0.45594000000E+02  0.51100000000E-03 0.  1.
         23    2    1    2    0    0  0.35527136788E-14  0.35527136788E-14 -0.35527136788E-14  0.91188000000E+02  0.91188000000E+02 0.  0.
    9900012    2    3    3    0    0 -0.21074818323E+02 -0.23709805173E+02  0.31981410042E+02  0.46142318554E+02  0.10000007228E+02 0.  0.
        -12    1    3    3    0    0  0.21074818323E+02  0.23709805173E+02 -0.31981410042E+02  0.45045681446E+02  0.00000000000E+00 0.  1.
         11    1    4    4    0    0 -0.11914734905E+02 -0.69095287023E+01  0.12363588689E+02  0.18508398641E+02  0.51100000000E-03 0. -1.
        -11    1    4    4    0    0  0.29229077467E+00 -0.89468582801E+00  0.70619312270E+00  0.11766926597E+01  0.51100000000E-03 0.  1.
         12    1    4    4    0    0 -0.94523741928E+01 -0.15905590642E+02  0.18911628231E+02  0.26457227253E+02  0.00000000000E+00 0. -1.
</event>
<event>
 8    1  0.9117959E-009  0.9118800E+02  0.7816164E-02  0.1184000E+00
        -11   -1    0    0    0    0  0.00000000000E+00  0.00000000000E+00  0.45593999997E+02  0.45594000000E+02  0.51100000000E-03 0. -1.
         11   -1    0    0    0    0 -0.00000000000E+00 -0.00000000000E+00 -0.45593999997E+02  0.45594000000E+02  0.51100000000E-03 0.  1.
         23    2    1    2    0    0  0.00000000000E+00  0.00000000000E+00  0.00000000000E+00  0.91188000000E+02  0.91188000000E+02 0.  0.
    9900012    2    3    3    0    0 -0.29604447823E+02 -0.90391104795E+01  0.32725901522E+02  0.46142317859E+02  0.10000000889E+02 0.  0.
        -12    1    3    3    0    0  0.29604447823E+02  0.90391104795E+01 -0.32725901522E+02  0.45045682141E+02  0.00000000000E+00 0.  1.
         11    1    4    4    0    0 -0.19002499852E+01 -0.10361220632E+01  0.39097163915E+01  0.44688232746E+01  0.51100000000E-03 0. -1.
        -11    1    4    4    0    0 -0.96198903932E+01 -0.63066321255E+01  0.78115149092E+01  0.13904519603E+02  0.51100000000E-03 0.  1.
         12    1    4    4    0    0 -0.18084307445E+02 -0.16963562908E+01  0.21004670221E+02  0.27768974981E+02  0.00000000000E+00 0. -1.
</event>
<event>
 8    1  0.9117959E-009  0.9118800E+02  0.7816164E-02  0.1184000E+00
        -11   -1    0    0    0    0  0.00000000000E+00  0.00000000000E+00  0.45593999997E+02  0.45594000000E+02  0.51100000000E-03 0.  1.
         11   -1    0    0    0    0 -0.00000000000E+00 -0.00000000000E+00 -0.45593999997E+02  0.45594000000E+02  0.51100000000E-03 0. -1.
         23    2    1    2    0    0  0.35527136788E-14  0.00000000000E+00  0.88817841970E-15  0.91188000000E+02  0.91188000000E+02 0.  0.
    9900012    2    3    3    0    0  0.22377946119E+02  0.38665279947E+02  0.57738346899E+01  0.46142317489E+02  0.99999975178E+01 0.  0.
        -12    1    3    3    0    0 -0.22377946119E+02 -0.38665279947E+02 -0.57738346899E+01  0.45045682511E+02  0.00000000000E+00 0.  1.
         11    1    4    4    0    0  0.52118862740E+01  0.11259069903E+02  0.37313160943E+01  0.12955814666E+02  0.51100000000E-03 0. -1.
        -11    1    4    4    0    0  0.21409104369E+01  0.92803797642E+01  0.14625454736E+01  0.96357659576E+01  0.51100000000E-03 0.  1.
        -12    1    4    4    0    0  0.15025149408E+02  0.18125830280E+02  0.57997312202E+00  0.23550736865E+02  0.00000000000E+00 0.  1.
</event>
<event>
 8    1  0.9117959E-009  0.9118800E+02  0.7816164E-02  0.1184000E+00
        -11   -1    0    0    0    0  0.00000000000E+00  0.00000000000E+00  0.45593999997E+02  0.45594000000E+02  0.51100000000E-03 0. -1.
         11   -1    0    0    0    0 -0.00000000000E+00 -0.00000000000E+00 -0.45593999997E+02  0.45594000000E+02  0.51100000000E-03 0.  1.
         23    2    1    2    0    0 -0.71054273576E-14  0.00000000000E+00  0.00000000000E+00  0.91188000000E+02  0.91188000000E+02 0.  0.
    9900012    2    3    3    0    0 -0.34895004776E+02 -0.96812821747E+01  0.26790386769E+02  0.46142318675E+02  0.10000008332E+02 0.  0.
        -12    1    3    3    0    0  0.34895004776E+02  0.96812821747E+01 -0.26790386769E+02  0.45045681325E+02  0.00000000000E+00 0.  1.
         11    1    4    4    0    0 -0.18683583975E+02 -0.76007552812E+01  0.14475845219E+02  0.24827361641E+02  0.51100000000E-03 0. -1.
        -11    1    4    4    0    0 -0.14955128389E+02 -0.41471667386E-01  0.10045779744E+02  0.18015972801E+02  0.51100000000E-03 0.  1.
        -12    1    4    4    0    0 -0.12562924118E+01 -0.20390552261E+01  0.22687618050E+01  0.32989842326E+01  0.00000000000E+00 0.  1.
</event>
<event>
 8    1  0.9117959E-009  0.9118800E+02  0.7816164E-02  0.1184000E+00
        -11   -1    0    0    0    0  0.00000000000E+00  0.00000000000E+00  0.45593999997E+02  0.45594000000E+02  0.51100000000E-03 0. -1.
         11   -1    0    0    0    0 -0.00000000000E+00 -0.00000000000E+00 -0.45593999997E+02  0.45594000000E+02  0.51100000000E-03 0.  1.
         23    2    1    2    0    0  0.00000000000E+00  0.00000000000E+00  0.00000000000E+00  0.91188000000E+02  0.91188000000E+02 0.  0.
    9900012    2    3    3    0    0  0.60102269592E+01 -0.30886520078E+02 -0.32233732694E+02  0.46142317920E+02  0.10000001452E+02 0.  0.
         12    1    3    3    0    0 -0.60102269592E+01  0.30886520078E+02  0.32233732694E+02  0.45045682080E+02  0.00000000000E+00 0. -1.
         11    1    4    4    0    0  0.44378347979E+00 -0.36411289921E+00 -0.23820359773E+01  0.24502280789E+01  0.51100000000E-03 0. -1.
        -11    1    4    4    0    0  0.56165261417E+00 -0.22082586117E+02 -0.20429142028E+02  0.30088301839E+02  0.51100000000E-03 0.  1.
         12    1    4    4    0    0  0.50047908653E+01 -0.84398210621E+01 -0.94225546886E+01  0.13603788003E+02  0.00000000000E+00 0. -1.
</event>
<event>
 8    1  0.9117959E-009  0.9118800E+02  0.7816164E-02  0.1184000E+00
        -11   -1    0    0    0    0  0.00000000000E+00  0.00000000000E+00  0.45593999997E+02  0.45594000000E+02  0.51100000000E-03 0. -1.
         11   -1    0    0    0    0 -0.00000000000E+00 -0.00000000000E+00 -0.45593999997E+02  0.45594000000E+02  0.51100000000E-03 0.  1.
         23    2    1    2    0    0  0.88817841970E-15  0.35527136788E-14  0.71054273576E-14  0.91188000000E+02  0.91188000000E+02 0.  0.
    9900012    2    3    3    0    0  0.73468039742E+01  0.23747616490E+02  0.37565788474E+02  0.46142320060E+02  0.10000020960E+02 0.  0.
        -12    1    3    3    0    0 -0.73468039742E+01 -0.23747616490E+02 -0.37565788474E+02  0.45045679940E+02  0.00000000000E+00 0.  1.
         11    1    4    4    0    0  0.68940080835E+01  0.16556990537E+02  0.26258464079E+02  0.31798871350E+02  0.51100000000E-03 0. -1.
        -11    1    4    4    0    0  0.23322858766E+01  0.17642233089E+01  0.51600507290E+01  0.59311183668E+01  0.51100000000E-03 0.  1.
         12    1    4    4    0    0 -0.18794899859E+01  0.54264026445E+01  0.61472736660E+01  0.84123303426E+01  0.00000000000E+00 0. -1.
</event>
<event>
 8    1  0.9117959E-009  0.9118800E+02  0.7816164E-02  0.1184000E+00
        -11   -1    0    0    0    0  0.00000000000E+00  0.00000000000E+00  0.45593999997E+02  0.45594000000E+02  0.51100000000E-03 0. -1.
         11   -1    0    0    0    0 -0.00000000000E+00 -0.00000000000E+00 -0.45593999997E+02  0.45594000000E+02  0.51100000000E-03 0.  1.
         23    2    1    2    0    0  0.00000000000E+00  0.35527136788E-14  0.00000000000E+00  0.91188000000E+02  0.91188000000E+02 0.  0.
    9900012    2    3    3    0    0 -0.16593489867E+02  0.24894441849E+02 -0.33675456270E+02  0.46142317678E+02  0.99999992389E+01 0.  0.
         12    1    3    3    0    0  0.16593489867E+02 -0.24894441849E+02  0.33675456270E+02  0.45045682322E+02  0.00000000000E+00 0. -1.
         11    1    4    4    0    0 -0.18669149817E+00  0.17402114000E+01 -0.39840441050E+01  0.43515281366E+01  0.51100000000E-03 0. -1.
        -11    1    4    4    0    0 -0.18597663497E+01  0.29864307155E+01 -0.82036404973E+01  0.89262095519E+01  0.51100000000E-03 0.  1.
         12    1    4    4    0    0 -0.14547032019E+02  0.20167799733E+02 -0.21487771668E+02  0.32864579989E+02  0.00000000000E+00 0. -1.
</event>
<event>
 8    1  0.9117959E-009  0.9118800E+02  0.7816164E-02  0.1184000E+00
        -11   -1    0    0    0    0  0.00000000000E+00  0.00000000000E+00  0.45593999997E+02  0.45594000000E+02  0.51100000000E-03 0.  1.
         11   -1    0    0    0    0 -0.00000000000E+00 -0.00000000000E+00 -0.45593999997E+02  0.45594000000E+02  0.51100000000E-03 0. -1.
         23    2    1    2    0    0 -0.88817841970E-15  0.00000000000E+00  0.00000000000E+00  0.91188000000E+02  0.91188000000E+02 0.  0.
    9900012    2    3    3    0    0 -0.71116228759E+01  0.36861129896E+02  0.24895692114E+02  0.46142316933E+02  0.99999924497E+01 0.  0.
        -12    1    3    3    0    0  0.71116228759E+01 -0.36861129896E+02 -0.24895692114E+02  0.45045683067E+02  0.00000000000E+00 0.  1.
         11    1    4    4    0    0 -0.39807551809E+01  0.16101171772E+02  0.15091843544E+02  0.22424492994E+02  0.51100000000E-03 0. -1.
        -11    1    4    4    0    0 -0.44973506640E+01  0.16899826060E+02  0.82734428638E+01  0.19346321122E+02  0.51100000000E-03 0.  1.
         12    1    4    4    0    0  0.13664829691E+01  0.38601320639E+01  0.15304057062E+01  0.43715028172E+01  0.00000000000E+00 0. -1.
</event>
<event>
 8    1  0.9707797E-009  0.9118800E+02  0.7816164E-02  0.1184000E+00
        -11   -1    0    0    0    0  0.00000000000E+00  0.00000000000E+00  0.45593999997E+02  0.45594000000E+02  0.51100000000E-03 0. -1.
         11   -1    0    0    0    0 -0.00000000000E+00 -0.00000000000E+00 -0.45593999997E+02  0.45594000000E+02  0.51100000000E-03 0.  1.
         23    2    1    2    0    0 -0.17763568394E-14  0.17763568394E-14  0.00000000000E+00  0.91188000000E+02  0.91188000000E+02 0.  0.
    9900012    2    3    3    0    0  0.10147768359E+02 -0.87695157448E+01  0.43002696472E+02  0.46142317489E+02  0.99999975142E+01 0.  0.
        -12    1    3    3    0    0 -0.10147768359E+02  0.87695157448E+01 -0.43002696472E+02  0.45045682511E+02  0.00000000000E+00 0.  1.
         11    1    4    4    0    0  0.68063136685E+00 -0.11252390917E+01  0.11551759094E+01  0.17503867326E+01  0.51100000000E-03 0. -1.
        -11    1    4    4    0    0  0.74752757506E+01 -0.19925886232E+01  0.14928491066E+02  0.16813982358E+02  0.51100000000E-03 0.  1.
         12    1    4    4    0    0  0.19918612416E+01 -0.56516880299E+01  0.26919029497E+02  0.27577948398E+02  0.00000000000E+00 0. -1.
</event>
<event>
 8    1  0.9117959E-009  0.9118800E+02  0.7816164E-02  0.1184000E+00
        -11   -1    0    0    0    0  0.00000000000E+00  0.00000000000E+00  0.45593999997E+02  0.45594000000E+02  0.51100000000E-03 0.  1.
         11   -1    0    0    0    0 -0.00000000000E+00 -0.00000000000E+00 -0.45593999997E+02  0.45594000000E+02  0.51100000000E-03 0. -1.
         23    2    1    2    0    0  0.00000000000E+00  0.00000000000E+00 -0.22204460493E-15  0.91188000000E+02  0.91188000000E+02 0.  0.
    9900012    2    3    3    0    0 -0.24999454260E+02 -0.37444050343E+02 -0.14435663968E+01  0.46142317595E+02  0.99999984849E+01 0.  0.
         12    1    3    3    0    0  0.24999454260E+02  0.37444050343E+02  0.14435663968E+01  0.45045682405E+02  0.00000000000E+00 0. -1.
         11    1    4    4    0    0 -0.52464990242E+01 -0.56053172454E+01 -0.24317972693E+01  0.80535067923E+01  0.51100000000E-03 0. -1.
        -11    1    4    4    0    0 -0.12876510174E+02 -0.25990028276E+02  0.15297531615E+01  0.29045244517E+02  0.51100000000E-03 0.  1.
        -12    1    4    4    0    0 -0.68764450615E+01 -0.58487048220E+01 -0.54152228897E+00  0.90435662859E+01  0.00000000000E+00 0.  1.
</event>
<event>
 8    1  0.9117959E-009  0.9118800E+02  0.7816164E-02  0.1184000E+00
        -11   -1    0    0    0    0  0.00000000000E+00  0.00000000000E+00  0.45593999997E+02  0.45594000000E+02  0.51100000000E-03 0. -1.
         11   -1    0    0    0    0 -0.00000000000E+00 -0.00000000000E+00 -0.45593999997E+02  0.45594000000E+02  0.51100000000E-03 0.  1.
         23    2    1    2    0    0 -0.88817841970E-15  0.00000000000E+00  0.00000000000E+00  0.91188000000E+02  0.91188000000E+02 0.  0.
    9900012    2    3    3    0    0 -0.52626048422E+01  0.33716992106E+02  0.29403791212E+02  0.46142317587E+02  0.99999984141E+01 0.  0.
        -12    1    3    3    0    0  0.52626048422E+01 -0.33716992106E+02 -0.29403791212E+02  0.45045682413E+02  0.00000000000E+00 0.  1.
         11    1    4    4    0    0 -0.26664943274E+01  0.92207017375E+01  0.66476296377E+01  0.11675723215E+02  0.51100000000E-03 0. -1.
        -11    1    4    4    0    0 -0.22516870162E+01  0.12749681767E+02  0.17034026613E+02  0.21395853395E+02  0.51100000000E-03 0.  1.
        -12    1    4    4    0    0 -0.34442349860E+00  0.11746608602E+02  0.57221349611E+01  0.13070740978E+02  0.00000000000E+00 0.  1.
</event>
<event>
 8    1  0.9117959E-009  0.9118800E+02  0.7816164E-02  0.1184000E+00
        -11   -1    0    0    0    0  0.00000000000E+00  0.00000000000E+00  0.45593999997E+02  0.45594000000E+02  0.51100000000E-03 0. -1.
         11   -1    0    0    0    0 -0.00000000000E+00 -0.00000000000E+00 -0.45593999997E+02  0.45594000000E+02  0.51100000000E-03 0.  1.
         23    2    1    2    0    0  0.00000000000E+00  0.88817841970E-15  0.35527136788E-14  0.91188000000E+02  0.91188000000E+02 0.  0.
    9900012    2    3    3    0    0 -0.41181247025E+02  0.47680292650E+01  0.17620566752E+02  0.46142316719E+02  0.99999904936E+01 0.  0.
        -12    1    3    3    0    0  0.41181247025E+02 -0.47680292650E+01 -0.17620566752E+02  0.45045683281E+02  0.00000000000E+00 0.  1.
         11    1    4    4    0    0 -0.77657095898E+01  0.23424259642E+01  0.45515847945E+01  0.93010821539E+01  0.51100000000E-03 0. -1.
        -11    1    4    4    0    0 -0.41400834250E+01 -0.23611384062E+01  0.14371632800E+01  0.49780220865E+01  0.51100000000E-03 0.  1.
        -12    1    4    4    0    0 -0.29275454010E+02  0.47867417070E+01  0.11631818678E+02  0.31863212478E+02  0.00000000000E+00 0.  1.
</event>
<event>
 8    1  0.9117959E-009  0.9118800E+02  0.7816164E-02  0.1184000E+00
        -11   -1    0    0    0    0  0.00000000000E+00  0.00000000000E+00  0.45593999997E+02  0.45594000000E+02  0.51100000000E-03 0. -1.
         11   -1    0    0    0    0 -0.00000000000E+00 -0.00000000000E+00 -0.45593999997E+02  0.45594000000E+02  0.51100000000E-03 0.  1.
         23    2    1    2    0    0  0.00000000000E+00 -0.71054273576E-14  0.00000000000E+00  0.91188000000E+02  0.91188000000E+02 0.  0.
    9900012    2    3    3    0    0  0.24563835473E+01  0.40207625107E+02 -0.20160029689E+02  0.46142315035E+02  0.99999751456E+01 0.  0.
         12    1    3    3    0    0 -0.24563835473E+01 -0.40207625107E+02  0.20160029689E+02  0.45045684965E+02  0.00000000000E+00 0. -1.
         11    1    4    4    0    0 -0.11117276665E+01  0.42829200038E+01 -0.49936905570E+01  0.66720527428E+01  0.51100000000E-03 0. -1.
        -11    1    4    4    0    0 -0.86787634302E+00  0.15596274435E+02 -0.70246579032E+01  0.17127253268E+02  0.51100000000E-03 0.  1.
        -12    1    4    4    0    0  0.44359875568E+01  0.20328430669E+02 -0.81416812284E+01  0.22343009025E+02  0.00000000000E+00 0.  1.
</event>
<event>
 8    1  0.9117959E-009  0.9118800E+02  0.7816164E-02  0.1184000E+00
        -11   -1    0    0    0    0  0.00000000000E+00  0.00000000000E+00  0.45593999997E+02  0.45594000000E+02  0.51100000000E-03 0. -1.
         11   -1    0    0    0    0 -0.00000000000E+00 -0.00000000000E+00 -0.45593999997E+02  0.45594000000E+02  0.51100000000E-03 0.  1.
         23    2    1    2    0    0 -0.17763568394E-14 -0.71054273576E-14  0.00000000000E+00  0.91188000000E+02  0.91188000000E+02 0.  0.
    9900012    2    3    3    0    0  0.14348282829E+02 -0.34631623178E+02  0.24977809078E+02  0.46142317738E+02  0.99999997902E+01 0.  0.
        -12    1    3    3    0    0 -0.14348282829E+02  0.34631623178E+02 -0.24977809078E+02  0.45045682262E+02  0.00000000000E+00 0.  1.
         11    1    4    4    0    0  0.36280321295E+01 -0.48678915911E+01  0.53289593484E+01  0.80781677176E+01  0.51100000000E-03 0. -1.
        -11    1    4    4    0    0  0.72143966763E+01 -0.11115067391E+02  0.52885882301E+01  0.14267494813E+02  0.51100000000E-03 0.  1.
         12    1    4    4    0    0  0.35058540232E+01 -0.18648664196E+02  0.14360261499E+02  0.23796655207E+02  0.00000000000E+00 0. -1.
</event>
<event>
 8    1  0.9117959E-009  0.9118800E+02  0.7816164E-02  0.1184000E+00
        -11   -1    0    0    0    0  0.00000000000E+00  0.00000000000E+00  0.45593999997E+02  0.45594000000E+02  0.51100000000E-03 0. -1.
         11   -1    0    0    0    0 -0.00000000000E+00 -0.00000000000E+00 -0.45593999997E+02  0.45594000000E+02  0.51100000000E-03 0.  1.
         23    2    1    2    0    0  0.00000000000E+00  0.00000000000E+00  0.00000000000E+00  0.91188000000E+02  0.91188000000E+02 0.  0.
    9900012    2    3    3    0    0  0.20874820541E+02 -0.30645838697E+02  0.25577097663E+02  0.46142317777E+02  0.10000000146E+02 0.  0.
        -12    1    3    3    0    0 -0.20874820541E+02  0.30645838697E+02 -0.25577097663E+02  0.45045682223E+02  0.00000000000E+00 0.  1.
         11    1    4    4    0    0  0.15735386418E+02 -0.22019434811E+02  0.17606705040E+02  0.32287055576E+02  0.51100000000E-03 0. -1.
        -11    1    4    4    0    0  0.40281411523E+01 -0.21808189340E+01  0.19955538306E+01  0.49964114840E+01  0.51100000000E-03 0.  1.
        -12    1    4    4    0    0  0.11112929710E+01 -0.64455849525E+01  0.59748387917E+01  0.88588507174E+01  0.00000000000E+00 0.  1.
</event>
<event>
 8    1  0.9117959E-009  0.9118800E+02  0.7816164E-02  0.1184000E+00
        -11   -1    0    0    0    0  0.00000000000E+00  0.00000000000E+00  0.45593999997E+02  0.45594000000E+02  0.51100000000E-03 0. -1.
         11   -1    0    0    0    0 -0.00000000000E+00 -0.00000000000E+00 -0.45593999997E+02  0.45594000000E+02  0.51100000000E-03 0.  1.
         23    2    1    2    0    0  0.88817841970E-15 -0.71054273576E-14  0.00000000000E+00  0.91188000000E+02  0.91188000000E+02 0.  0.
    9900012    2    3    3    0    0  0.62982314005E+01 -0.39923372952E+02  0.19888942502E+02  0.46142318071E+02  0.10000002826E+02 0.  0.
        -12    1    3    3    0    0 -0.62982314005E+01  0.39923372952E+02 -0.19888942502E+02  0.45045681929E+02  0.00000000000E+00 0.  1.
         11    1    4    4    0    0  0.39346655617E+01 -0.85197510135E+01  0.42740344430E+01  0.10311892217E+02  0.51100000000E-03 0. -1.
        -11    1    4    4    0    0  0.16157387412E+01 -0.16961935079E+01  0.22443592000E+01  0.32441998360E+01  0.51100000000E-03 0.  1.
        -12    1    4    4    0    0  0.74782709753E+00 -0.29707428430E+02  0.13370548859E+02  0.32586226018E+02  0.00000000000E+00 0.  1.
</event>
<event>
 8    1  0.9117959E-009  0.9118800E+02  0.7816164E-02  0.1184000E+00
        -11   -1    0    0    0    0  0.00000000000E+00  0.00000000000E+00  0.45593999997E+02  0.45594000000E+02  0.51100000000E-03 0.  1.
         11   -1    0    0    0    0 -0.00000000000E+00 -0.00000000000E+00 -0.45593999997E+02  0.45594000000E+02  0.51100000000E-03 0. -1.
         23    2    1    2    0    0 -0.17763568394E-14  0.00000000000E+00  0.00000000000E+00  0.91188000000E+02  0.91188000000E+02 0.  0.
    9900012    2    3    3    0    0 -0.94518650457E+01 -0.43283383679E+02  0.81439795918E+01  0.46142318085E+02  0.10000002956E+02 0.  0.
        -12    1    3    3    0    0  0.94518650457E+01  0.43283383679E+02 -0.81439795918E+01  0.45045681915E+02  0.00000000000E+00 0.  1.
         11    1    4    4    0    0 -0.26900529135E+01 -0.61424493962E+01  0.20849018436E+00  0.67089147915E+01  0.51100000000E-03 0. -1.
        -11    1    4    4    0    0 -0.12639496209E+01 -0.39967797109E+01  0.36610682488E+01  0.55655401970E+01  0.51100000000E-03 0.  1.
        -12    1    4    4    0    0 -0.54978625113E+01 -0.33144154572E+02  0.42744211587E+01  0.33867863097E+02  0.00000000000E+00 0.  1.
</event>
<event>
 8    1  0.9117959E-009  0.9118800E+02  0.7816164E-02  0.1184000E+00
        -11   -1    0    0    0    0  0.00000000000E+00  0.00000000000E+00  0.45593999997E+02  0.45594000000E+02  0.51100000000E-03 0.  1.
         11   -1    0    0    0    0 -0.00000000000E+00 -0.00000000000E+00 -0.45593999997E+02  0.45594000000E+02  0.51100000000E-03 0. -1.
         23    2    1    2    0    0  0.00000000000E+00  0.00000000000E+00  0.71054273576E-14  0.91188000000E+02  0.91188000000E+02 0.  0.
    9900012    2    3    3    0    0  0.48949467781E+01  0.29894452290E+02  0.33338785547E+02  0.46142318704E+02  0.10000008599E+02 0.  0.
        -12    1    3    3    0    0 -0.48949467781E+01 -0.29894452290E+02 -0.33338785547E+02  0.45045681296E+02  0.00000000000E+00 0.  1.
         11    1    4    4    0    0  0.14856360651E+01  0.18924494953E+02  0.15803013817E+02  0.24699774689E+02  0.51100000000E-03 0. -1.
        -11    1    4    4    0    0  0.30756404968E+01  0.28336774623E+01  0.64576313764E+01  0.76935229694E+01  0.51100000000E-03 0.  1.
        -12    1    4    4    0    0  0.33367021624E+00  0.81362798744E+01  0.11078140354E+02  0.13749021046E+02  0.00000000000E+00 0.  1.
</event>
<event>
 8    1  0.9117959E-009  0.9118800E+02  0.7816164E-02  0.1184000E+00
        -11   -1    0    0    0    0  0.00000000000E+00  0.00000000000E+00  0.45593999997E+02  0.45594000000E+02  0.51100000000E-03 0. -1.
         11   -1    0    0    0    0 -0.00000000000E+00 -0.00000000000E+00 -0.45593999997E+02  0.45594000000E+02  0.51100000000E-03 0.  1.
         23    2    1    2    0    0  0.00000000000E+00  0.35527136788E-14  0.35527136788E-14  0.91188000000E+02  0.91188000000E+02 0.  0.
    9900012    2    3    3    0    0  0.27578532222E+02  0.26841303745E+02  0.23411161156E+02  0.46142317710E+02  0.99999995379E+01 0.  0.
        -12    1    3    3    0    0 -0.27578532222E+02 -0.26841303745E+02 -0.23411161156E+02  0.45045682290E+02  0.00000000000E+00 0.  1.
         11    1    4    4    0    0  0.22601745361E+02  0.22063990613E+02  0.17664988149E+02  0.36189920996E+02  0.51100000000E-03 0. -1.
        -11    1    4    4    0    0  0.13194415562E+01  0.13811786876E+01 -0.48313605747E+00  0.19702794975E+01  0.51100000000E-03 0.  1.
         12    1    4    4    0    0  0.36573453052E+01  0.33961344441E+01  0.62293090642E+01  0.79821172167E+01  0.00000000000E+00 0. -1.
</event>
<event>
 8    1  0.9117959E-009  0.9118800E+02  0.7816164E-02  0.1184000E+00
        -11   -1    0    0    0    0  0.00000000000E+00  0.00000000000E+00  0.45593999997E+02  0.45594000000E+02  0.51100000000E-03 0. -1.
         11   -1    0    0    0    0 -0.00000000000E+00 -0.00000000000E+00 -0.45593999997E+02  0.45594000000E+02  0.51100000000E-03 0.  1.
         23    2    1    2    0    0  0.17763568394E-14  0.17763568394E-14  0.00000000000E+00  0.91188000000E+02  0.91188000000E+02 0.  0.
    9900012    2    3    3    0    0 -0.10096961684E+02  0.11597835208E+02  0.42339756971E+02  0.46142318330E+02  0.10000005188E+02 0.  0.
        -12    1    3    3    0    0  0.10096961684E+02 -0.11597835208E+02 -0.42339756971E+02  0.45045681670E+02  0.00000000000E+00 0.  1.
         11    1    4    4    0    0 -0.69202694681E+01  0.61854516601E+01  0.25594985866E+02  0.27225966346E+02  0.51100000000E-03 0. -1.
        -11    1    4    4    0    0  0.80298411635E+00  0.35365296340E+01  0.11564996448E+02  0.12120270972E+02  0.51100000000E-03 0.  1.
        -12    1    4    4    0    0 -0.39796763322E+01  0.18758539142E+01  0.51797746576E+01  0.67960810119E+01  0.00000000000E+00 0.  1.
</event>
<event>
 8    1  0.9117959E-009  0.9118800E+02  0.7816164E-02  0.1184000E+00
        -11   -1    0    0    0    0  0.00000000000E+00  0.00000000000E+00  0.45593999997E+02  0.45594000000E+02  0.51100000000E-03 0. -1.
         11   -1    0    0    0    0 -0.00000000000E+00 -0.00000000000E+00 -0.45593999997E+02  0.45594000000E+02  0.51100000000E-03 0.  1.
         23    2    1    2    0    0  0.00000000000E+00  0.00000000000E+00  0.00000000000E+00  0.91188000000E+02  0.91188000000E+02 0.  0.
    9900012    2    3    3    0    0 -0.26952016389E+02  0.78699642091E+00  0.36084386413E+02  0.46142317702E+02  0.99999994641E+01 0.  0.
        -12    1    3    3    0    0  0.26952016389E+02 -0.78699642091E+00 -0.36084386413E+02  0.45045682298E+02  0.00000000000E+00 0.  1.
         11    1    4    4    0    0 -0.51922586962E+01 -0.87003165302E-01  0.91536079513E+01  0.10524051440E+02  0.51100000000E-03 0. -1.
        -11    1    4    4    0    0 -0.16398328386E+02  0.35656486786E+00  0.13834347847E+02  0.21457434445E+02  0.51100000000E-03 0.  1.
        -12    1    4    4    0    0 -0.53614293074E+01  0.51743471835E+00  0.13096430615E+02  0.14160831817E+02  0.00000000000E+00 0.  1.
</event>
<event>
 8    1  0.9117959E-009  0.9118800E+02  0.7816164E-02  0.1184000E+00
        -11   -1    0    0    0    0  0.00000000000E+00  0.00000000000E+00  0.45593999997E+02  0.45594000000E+02  0.51100000000E-03 0. -1.
         11   -1    0    0    0    0 -0.00000000000E+00 -0.00000000000E+00 -0.45593999997E+02  0.45594000000E+02  0.51100000000E-03 0.  1.
         23    2    1    2    0    0  0.00000000000E+00 -0.35527136788E-14  0.00000000000E+00  0.91188000000E+02  0.91188000000E+02 0.  0.
    9900012    2    3    3    0    0 -0.91939674772E+01  0.18230605426E+02  0.40152577309E+02  0.46142317890E+02  0.10000001180E+02 0.  0.
        -12    1    3    3    0    0  0.91939674772E+01 -0.18230605426E+02 -0.40152577309E+02  0.45045682110E+02  0.00000000000E+00 0.  1.
         11    1    4    4    0    0 -0.16106235295E+01  0.39890164322E+01  0.50001965128E+01  0.65960841169E+01  0.51100000000E-03 0.  1.
        -11    1    4    4    0    0 -0.19516656667E+01 -0.71764340666E+00  0.31562323377E+01  0.37796578899E+01  0.51100000000E-03 0. -1.
         12    1    4    4    0    0 -0.56316782809E+01  0.14959232400E+02  0.31996148459E+02  0.35766575884E+02  0.00000000000E+00 0. -1.
</event>
<event>
 8    1  0.9117959E-009  0.9118800E+02  0.7816164E-02  0.1184000E+00
        -11   -1    0    0    0    0  0.00000000000E+00  0.00000000000E+00  0.45593999997E+02  0.45594000000E+02  0.51100000000E-03 0. -1.
         11   -1    0    0    0    0 -0.00000000000E+00 -0.00000000000E+00 -0.45593999997E+02  0.45594000000E+02  0.51100000000E-03 0.  1.
         23    2    1    2    0    0  0.00000000000E+00  0.00000000000E+00  0.00000000000E+00  0.91188000000E+02  0.91188000000E+02 0.  0.
    9900012    2    3    3    0    0 -0.11575041872E+02  0.10848185782E+02  0.42159799275E+02  0.46142318697E+02  0.10000008534E+02 0.  0.
        -12    1    3    3    0    0  0.11575041872E+02 -0.10848185782E+02 -0.42159799275E+02  0.45045681303E+02  0.00000000000E+00 0.  1.
         11    1    4    4    0    0 -0.25813772212E+01 -0.61778613748E+00  0.87721895019E+01  0.91649591919E+01  0.51100000000E-03 0. -1.
        -11    1    4    4    0    0 -0.18964618124E+01  0.36725603034E+01  0.39811378106E+01  0.57387912591E+01  0.51100000000E-03 0.  1.
        -12    1    4    4    0    0 -0.70972028389E+01  0.77934116158E+01  0.29406471963E+02  0.31238568246E+02  0.00000000000E+00 0.  1.
</event>
<event>
 8    1  0.9117959E-009  0.9118800E+02  0.7816164E-02  0.1184000E+00
        -11   -1    0    0    0    0  0.00000000000E+00  0.00000000000E+00  0.45593999997E+02  0.45594000000E+02  0.51100000000E-03 0. -1.
         11   -1    0    0    0    0 -0.00000000000E+00 -0.00000000000E+00 -0.45593999997E+02  0.45594000000E+02  0.51100000000E-03 0.  1.
         23    2    1    2    0    0  0.17763568394E-14  0.71054273576E-14  0.71054273576E-14  0.91188000000E+02  0.91188000000E+02 0.  0.
    9900012    2    3    3    0    0 -0.68216098195E+01 -0.22725668788E+02 -0.38289987009E+02  0.46142317771E+02  0.10000000088E+02 0.  0.
         12    1    3    3    0    0  0.68216098195E+01  0.22725668788E+02  0.38289987009E+02  0.45045682229E+02  0.00000000000E+00 0. -1.
         11    1    4    4    0    0 -0.19108194964E+01 -0.47815165257E+01 -0.24633099345E+01  0.57080668819E+01  0.51100000000E-03 0. -1.
        -11    1    4    4    0    0 -0.19473021412E+01 -0.41413949125E+01 -0.10108596018E+02  0.11096253925E+02  0.51100000000E-03 0.  1.
         12    1    4    4    0    0 -0.29634881818E+01 -0.13802757349E+02 -0.25718081057E+02  0.29337996964E+02  0.00000000000E+00 0. -1.
</event>
<event>
 8    1  0.9117959E-009  0.9118800E+02  0.7816164E-02  0.1184000E+00
        -11   -1    0    0    0    0  0.00000000000E+00  0.00000000000E+00  0.45593999997E+02  0.45594000000E+02  0.51100000000E-03 0. -1.
         11   -1    0    0    0    0 -0.00000000000E+00 -0.00000000000E+00 -0.45593999997E+02  0.45594000000E+02  0.51100000000E-03 0.  1.
         23    2    1    2    0    0  0.55511151231E-16  0.35527136788E-14  0.00000000000E+00  0.91188000000E+02  0.91188000000E+02 0.  0.
    9900012    2    3    3    0    0 -0.48816991897E+00  0.17528584215E+02  0.41492455958E+02  0.46142317900E+02  0.10000001267E+02 0.  0.
        -12    1    3    3    0    0  0.48816991897E+00 -0.17528584215E+02 -0.41492455958E+02  0.45045682100E+02  0.00000000000E+00 0.  1.
         11    1    4    4    0    0  0.17865093074E+01  0.44423797361E+01  0.10496887626E+02  0.11537374195E+02  0.51100000000E-03 0. -1.
        -11    1    4    4    0    0  0.24876295757E+01  0.74123796371E+01  0.18405517235E+02  0.19997368271E+02  0.51100000000E-03 0.  1.
        -12    1    4    4    0    0 -0.47623088021E+01  0.56738248420E+01  0.12590051096E+02  0.14607575434E+02  0.00000000000E+00 0.  1.
</event>
<event>
 8    1  0.9117959E-009  0.9118800E+02  0.7816164E-02  0.1184000E+00
        -11   -1    0    0    0    0  0.00000000000E+00  0.00000000000E+00  0.45593999997E+02  0.45594000000E+02  0.51100000000E-03 0. -1.
         11   -1    0    0    0    0 -0.00000000000E+00 -0.00000000000E+00 -0.45593999997E+02  0.45594000000E+02  0.51100000000E-03 0.  1.
         23    2    1    2    0    0  0.71054273576E-14 -0.17763568394E-14  0.35527136788E-14  0.91188000000E+02  0.91188000000E+02 0.  0.
    9900012    2    3    3    0    0  0.33719120625E+02 -0.15843741393E+02  0.25320154606E+02  0.46142318005E+02  0.10000002227E+02 0.  0.
        -12    1    3    3    0    0 -0.33719120625E+02  0.15843741393E+02 -0.25320154606E+02  0.45045681995E+02  0.00000000000E+00 0.  1.
         11    1    4    4    0    0  0.10276713301E+02 -0.26528086995E+01  0.41825346216E+01  0.11407972054E+02  0.51100000000E-03 0. -1.
        -11    1    4    4    0    0  0.16070717938E+02 -0.57540244672E+01  0.12437472591E+02  0.21120310067E+02  0.51100000000E-03 0.  1.
         12    1    4    4    0    0  0.73716893858E+01 -0.74369082267E+01  0.87001473935E+01  0.13614035884E+02  0.00000000000E+00 0. -1.
</event>
<event>
 8    1  0.9117959E-009  0.9118800E+02  0.7816164E-02  0.1184000E+00
        -11   -1    0    0    0    0  0.00000000000E+00  0.00000000000E+00  0.45593999997E+02  0.45594000000E+02  0.51100000000E-03 0. -1.
         11   -1    0    0    0    0 -0.00000000000E+00 -0.00000000000E+00 -0.45593999997E+02  0.45594000000E+02  0.51100000000E-03 0.  1.
         23    2    1    2    0    0  0.35527136788E-14 -0.88817841970E-15 -0.71054273576E-14  0.91188000000E+02  0.91188000000E+02 0.  0.
    9900012    2    3    3    0    0 -0.27055336045E+02  0.60439916501E+01  0.35504822202E+02  0.46142318263E+02  0.10000004572E+02 0.  0.
        -12    1    3    3    0    0  0.27055336045E+02 -0.60439916501E+01 -0.35504822202E+02  0.45045681737E+02  0.00000000000E+00 0.  1.
         11    1    4    4    0    0 -0.60336929121E+01  0.89584776798E+00  0.24075247204E+01  0.65577563939E+01  0.51100000000E-03 0. -1.
        -11    1    4    4    0    0 -0.21803137870E+01  0.84981851521E+00  0.44584795559E+01  0.50352755565E+01  0.51100000000E-03 0.  1.
         12    1    4    4    0    0 -0.18841329346E+02  0.42983253670E+01  0.28638817926E+02  0.34549286312E+02  0.00000000000E+00 0. -1.
</event>
<event>
 8    1  0.9117959E-009  0.9118800E+02  0.7816164E-02  0.1184000E+00
        -11   -1    0    0    0    0  0.00000000000E+00  0.00000000000E+00  0.45593999997E+02  0.45594000000E+02  0.51100000000E-03 0. -1.
         11   -1    0    0    0    0 -0.00000000000E+00 -0.00000000000E+00 -0.45593999997E+02  0.45594000000E+02  0.51100000000E-03 0.  1.
         23    2    1    2    0    0  0.14210854715E-13  0.00000000000E+00 -0.17763568394E-14  0.91188000000E+02  0.91188000000E+02 0.  0.
    9900012    2    3    3    0    0 -0.44159849162E+02 -0.15017838011E+01  0.87616179145E+01  0.46142316732E+02  0.99999906153E+01 0.  0.
        -12    1    3    3    0    0  0.44159849162E+02  0.15017838011E+01 -0.87616179145E+01  0.45045683268E+02  0.00000000000E+00 0.  1.
         11    1    4    4    0    0 -0.34056561574E+02 -0.24327904061E+01  0.74971025913E+01  0.34956750463E+02  0.51100000000E-03 0. -1.
        -11    1    4    4    0    0 -0.64513654074E+01 -0.14354412502E+01  0.16647721231E+01  0.68155758146E+01  0.51100000000E-03 0.  1.
        -12    1    4    4    0    0 -0.36519221808E+01  0.23664478551E+01 -0.40025679990E+00  0.43699904544E+01  0.00000000000E+00 0.  1.
</event>
<event>
 8    1  0.9117959E-009  0.9118800E+02  0.7816164E-02  0.1184000E+00
        -11   -1    0    0    0    0  0.00000000000E+00  0.00000000000E+00  0.45593999997E+02  0.45594000000E+02  0.51100000000E-03 0.  1.
         11   -1    0    0    0    0 -0.00000000000E+00 -0.00000000000E+00 -0.45593999997E+02  0.45594000000E+02  0.51100000000E-03 0. -1.
         23    2    1    2    0    0 -0.71054273576E-14  0.00000000000E+00  0.00000000000E+00  0.91188000000E+02  0.91188000000E+02 0.  0.
    9900012    2    3    3    0    0  0.38146894993E+02  0.13174898414E+02  0.20008745956E+02  0.46142318069E+02  0.10000002812E+02 0.  0.
         12    1    3    3    0    0 -0.38146894993E+02 -0.13174898414E+02 -0.20008745956E+02  0.45045681931E+02  0.00000000000E+00 0. -1.
         11    1    4    4    0    0  0.27162144116E+01  0.30219182480E+00 -0.35315586582E+00  0.27556959113E+01  0.51100000000E-03 0. -1.
        -11    1    4    4    0    0  0.26667206169E+02  0.11525998993E+02  0.12852441946E+02  0.31767495996E+02  0.51100000000E-03 0.  1.
        -12    1    4    4    0    0  0.87634744127E+01  0.13467075959E+01  0.75094598761E+01  0.11619126162E+02  0.00000000000E+00 0.  1.
</event>
<event>
 8    1  0.9117959E-009  0.9118800E+02  0.7816164E-02  0.1184000E+00
        -11   -1    0    0    0    0  0.00000000000E+00  0.00000000000E+00  0.45593999997E+02  0.45594000000E+02  0.51100000000E-03 0. -1.
         11   -1    0    0    0    0 -0.00000000000E+00 -0.00000000000E+00 -0.45593999997E+02  0.45594000000E+02  0.51100000000E-03 0.  1.
         23    2    1    2    0    0  0.00000000000E+00  0.00000000000E+00 -0.71054273576E-14  0.91188000000E+02  0.91188000000E+02 0.  0.
    9900012    2    3    3    0    0  0.18203136619E+02  0.11809996091E+02  0.39475100452E+02  0.46142314900E+02  0.99999739079E+01 0.  0.
        -12    1    3    3    0    0 -0.18203136619E+02 -0.11809996091E+02 -0.39475100452E+02  0.45045685100E+02  0.00000000000E+00 0.  1.
         11    1    4    4    0    0  0.17735700360E+02  0.90882268815E+01  0.33024185193E+02  0.38571333177E+02  0.51100000000E-03 0. -1.
        -11    1    4    4    0    0 -0.61047559058E+00 -0.74900527602E-01  0.21390637933E+00  0.65118870995E+00  0.51100000000E-03 0.  1.
         12    1    4    4    0    0  0.10779118491E+01  0.27966697372E+01  0.62370088799E+01  0.69197930129E+01  0.00000000000E+00 0. -1.
</event>
<event>
 8    1  0.9117959E-009  0.9118800E+02  0.7816164E-02  0.1184000E+00
        -11   -1    0    0    0    0  0.00000000000E+00  0.00000000000E+00  0.45593999997E+02  0.45594000000E+02  0.51100000000E-03 0.  1.
         11   -1    0    0    0    0 -0.00000000000E+00 -0.00000000000E+00 -0.45593999997E+02  0.45594000000E+02  0.51100000000E-03 0. -1.
         23    2    1    2    0    0  0.00000000000E+00  0.00000000000E+00  0.00000000000E+00  0.91188000000E+02  0.91188000000E+02 0.  0.
    9900012    2    3    3    0    0 -0.43128179135E+02  0.12116988258E+02 -0.47172442240E+01  0.46142316156E+02  0.99999853607E+01 0.  0.
         12    1    3    3    0    0  0.43128179135E+02 -0.12116988258E+02  0.47172442240E+01  0.45045683844E+02  0.00000000000E+00 0. -1.
         11    1    4    4    0    0 -0.12171981586E+02  0.61180386782E+01 -0.27657105230E+01  0.13900959965E+02  0.51100000000E-03 0. -1.
        -11    1    4    4    0    0 -0.24027950223E+02  0.19329798023E+01 -0.21878208779E+01  0.24204655819E+02  0.51100000000E-03 0.  1.
         12    1    4    4    0    0 -0.69282473255E+01  0.40659697772E+01  0.23628717699E+00  0.80367003715E+01  0.00000000000E+00 0. -1.
</event>
<event>
 8    1  0.9117959E-009  0.9118800E+02  0.7816164E-02  0.1184000E+00
        -11   -1    0    0    0    0  0.00000000000E+00  0.00000000000E+00  0.45593999997E+02  0.45594000000E+02  0.51100000000E-03 0. -1.
         11   -1    0    0    0    0 -0.00000000000E+00 -0.00000000000E+00 -0.45593999997E+02  0.45594000000E+02  0.51100000000E-03 0.  1.
         23    2    1    2    0    0  0.00000000000E+00  0.00000000000E+00  0.00000000000E+00  0.91188000000E+02  0.91188000000E+02 0.  0.
    9900012    2    3    3    0    0  0.86244452303E+01  0.21604224542E+02 -0.38574473056E+02  0.46142317131E+02  0.99999942522E+01 0.  0.
         12    1    3    3    0    0 -0.86244452303E+01 -0.21604224542E+02  0.38574473056E+02  0.45045682869E+02  0.00000000000E+00 0. -1.
         11    1    4    4    0    0  0.11418918861E+01  0.38154010475E+01 -0.16716617845E+01  0.43192193294E+01  0.51100000000E-03 0. -1.
        -11    1    4    4    0    0  0.17239645881E+01  0.84962260327E+01 -0.14470835770E+02  0.16868995194E+02  0.51100000000E-03 0.  1.
         12    1    4    4    0    0  0.57585887561E+01  0.92925974616E+01 -0.22431975501E+02  0.24954102607E+02  0.00000000000E+00 0. -1.
</event>
<event>
 8    1  0.1658485E-008  0.9118800E+02  0.7816164E-02  0.1184000E+00
        -11   -1    0    0    0    0  0.00000000000E+00  0.00000000000E+00  0.45593999997E+02  0.45594000000E+02  0.51100000000E-03 0. -1.
         11   -1    0    0    0    0 -0.00000000000E+00 -0.00000000000E+00 -0.45593999997E+02  0.45594000000E+02  0.51100000000E-03 0.  1.
         23    2    1    2    0    0  0.00000000000E+00  0.35527136788E-14  0.00000000000E+00  0.91188000000E+02  0.91188000000E+02 0.  0.
    9900012    2    3    3    0    0  0.85679109387E+01  0.25574626758E+02  0.36078287808E+02  0.46142317823E+02  0.10000000562E+02 0.  0.
        -12    1    3    3    0    0 -0.85679109387E+01 -0.25574626758E+02 -0.36078287808E+02  0.45045682177E+02  0.00000000000E+00 0.  1.
         11    1    4    4    0    0  0.47853950095E+00  0.12378921141E+02  0.12064709313E+02  0.17292307531E+02  0.51100000000E-03 0. -1.
        -11    1    4    4    0    0  0.84046771972E-01 -0.26303310664E+00  0.17119791123E+00  0.32489884733E+00  0.51100000000E-03 0.  1.
         12    1    4    4    0    0  0.80053246657E+01  0.13458738723E+02  0.23842380584E+02  0.28525111444E+02  0.00000000000E+00 0. -1.
</event>
<event>
 8    1  0.9117959E-009  0.9118800E+02  0.7816164E-02  0.1184000E+00
        -11   -1    0    0    0    0  0.00000000000E+00  0.00000000000E+00  0.45593999997E+02  0.45594000000E+02  0.51100000000E-03 0.  1.
         11   -1    0    0    0    0 -0.00000000000E+00 -0.00000000000E+00 -0.45593999997E+02  0.45594000000E+02  0.51100000000E-03 0. -1.
         23    2    1    2    0    0  0.00000000000E+00  0.00000000000E+00  0.00000000000E+00  0.91188000000E+02  0.91188000000E+02 0.  0.
    9900012    2    3    3    0    0  0.19158794702E+02 -0.39543353032E+02 -0.99185323978E+01  0.46142317983E+02  0.10000002019E+02 0.  0.
         12    1    3    3    0    0 -0.19158794702E+02  0.39543353032E+02  0.99185323978E+01  0.45045682017E+02  0.00000000000E+00 0. -1.
         11    1    4    4    0    0  0.11496979074E+01 -0.48107328627E+01 -0.21792814191E+01  0.54050183829E+01  0.51100000000E-03 0. -1.
        -11    1    4    4    0    0  0.18424263777E+02 -0.30817347362E+02 -0.80212764511E+01  0.36789988724E+02  0.51100000000E-03 0.  1.
        -12    1    4    4    0    0 -0.41516698167E+00 -0.39152728081E+01  0.28202547247E+00  0.39473108759E+01  0.00000000000E+00 0.  1.
</event>
<event>
 8    1  0.9117959E-009  0.9118800E+02  0.7816164E-02  0.1184000E+00
        -11   -1    0    0    0    0  0.00000000000E+00  0.00000000000E+00  0.45593999997E+02  0.45594000000E+02  0.51100000000E-03 0. -1.
         11   -1    0    0    0    0 -0.00000000000E+00 -0.00000000000E+00 -0.45593999997E+02  0.45594000000E+02  0.51100000000E-03 0.  1.
         23    2    1    2    0    0  0.00000000000E+00  0.35527136788E-14  0.00000000000E+00  0.91188000000E+02  0.91188000000E+02 0.  0.
    9900012    2    3    3    0    0  0.13951611191E+02  0.24212012454E+02 -0.35330503242E+02  0.46142318063E+02  0.10000002749E+02 0.  0.
         12    1    3    3    0    0 -0.13951611191E+02 -0.24212012454E+02  0.35330503242E+02  0.45045681937E+02  0.00000000000E+00 0. -1.
         11    1    4    4    0    0  0.15359957617E+00  0.38353473494E+01 -0.62431437518E+01  0.73287329251E+01  0.51100000000E-03 0. -1.
        -11    1    4    4    0    0  0.14066939578E+02  0.16854977526E+02 -0.26620953006E+02  0.34505712508E+02  0.51100000000E-03 0.  1.
        -12    1    4    4    0    0 -0.26892796235E+00  0.35216875782E+01 -0.24664064840E+01  0.43078726295E+01  0.00000000000E+00 0.  1.
</event>
<event>
 8    1  0.9117959E-009  0.9118800E+02  0.7816164E-02  0.1184000E+00
        -11   -1    0    0    0    0  0.00000000000E+00  0.00000000000E+00  0.45593999997E+02  0.45594000000E+02  0.51100000000E-03 0. -1.
         11   -1    0    0    0    0 -0.00000000000E+00 -0.00000000000E+00 -0.45593999997E+02  0.45594000000E+02  0.51100000000E-03 0.  1.
         23    2    1    2    0    0  0.00000000000E+00  0.17763568394E-14 -0.71054273576E-14  0.91188000000E+02  0.91188000000E+02 0.  0.
    9900012    2    3    3    0    0  0.15819482486E+01 -0.91014642229E+01 -0.44088261851E+02  0.46142311590E+02  0.99999437298E+01 0.  0.
         12    1    3    3    0    0 -0.15819482486E+01  0.91014642229E+01  0.44088261851E+02  0.45045688410E+02  0.00000000000E+00 0. -1.
         11    1    4    4    0    0  0.12225042422E+01 -0.70938531828E+01 -0.15062384598E+02  0.16694091758E+02  0.51100000000E-03 0. -1.
        -11    1    4    4    0    0  0.78676563015E+00  0.13276193897E+01 -0.70798479809E+01  0.72460900557E+01  0.51100000000E-03 0.  1.
        -12    1    4    4    0    0 -0.42732162378E+00 -0.33352304298E+01 -0.21946029272E+02  0.22202129776E+02  0.00000000000E+00 0.  1.
</event>
<event>
 8    1  0.9117959E-009  0.9118800E+02  0.7816164E-02  0.1184000E+00
        -11   -1    0    0    0    0  0.00000000000E+00  0.00000000000E+00  0.45593999997E+02  0.45594000000E+02  0.51100000000E-03 0. -1.
         11   -1    0    0    0    0 -0.00000000000E+00 -0.00000000000E+00 -0.45593999997E+02  0.45594000000E+02  0.51100000000E-03 0.  1.
         23    2    1    2    0    0  0.00000000000E+00  0.00000000000E+00  0.00000000000E+00  0.91188000000E+02  0.91188000000E+02 0.  0.
    9900012    2    3    3    0    0  0.19625365396E+01 -0.21149902922E+02  0.39723336293E+02  0.46142318859E+02  0.10000010009E+02 0.  0.
        -12    1    3    3    0    0 -0.19625365396E+01  0.21149902922E+02 -0.39723336293E+02  0.45045681141E+02  0.00000000000E+00 0.  1.
         11    1    4    4    0    0  0.21487899268E+01 -0.12410116678E+02  0.18113375158E+02  0.22061791722E+02  0.51100000000E-03 0. -1.
        -11    1    4    4    0    0 -0.76190040167E+00 -0.95472951194E+01  0.20213532291E+02  0.22367794354E+02  0.51100000000E-03 0.  1.
        -12    1    4    4    0    0  0.57564701444E+00  0.80750887585E+00  0.13964288438E+01  0.17127327829E+01  0.00000000000E+00 0.  1.
</event>
<event>
 8    1  0.9117959E-009  0.9118800E+02  0.7816164E-02  0.1184000E+00
        -11   -1    0    0    0    0  0.00000000000E+00  0.00000000000E+00  0.45593999997E+02  0.45594000000E+02  0.51100000000E-03 0. -1.
         11   -1    0    0    0    0 -0.00000000000E+00 -0.00000000000E+00 -0.45593999997E+02  0.45594000000E+02  0.51100000000E-03 0.  1.
         23    2    1    2    0    0 -0.44408920985E-15  0.00000000000E+00  0.00000000000E+00  0.91188000000E+02  0.91188000000E+02 0.  0.
    9900012    2    3    3    0    0  0.31300252801E+01 -0.41473754257E+02  0.17298674806E+02  0.46142317627E+02  0.99999987746E+01 0.  0.
        -12    1    3    3    0    0 -0.31300252801E+01  0.41473754257E+02 -0.17298674806E+02  0.45045682373E+02  0.00000000000E+00 0.  1.
         11    1    4    4    0    0 -0.18143116736E+01 -0.56677259461E+01  0.20623581360E+01  0.62982668720E+01  0.51100000000E-03 0. -1.
        -11    1    4    4    0    0 -0.52300046519E+00 -0.10829485555E+02  0.19012131264E+01  0.11007538258E+02  0.51100000000E-03 0.  1.
         12    1    4    4    0    0  0.54673374188E+01 -0.24976542756E+02  0.13335103544E+02  0.28836512497E+02  0.00000000000E+00 0. -1.
</event>
<event>
 8    1  0.9117959E-009  0.9118800E+02  0.7816164E-02  0.1184000E+00
        -11   -1    0    0    0    0  0.00000000000E+00  0.00000000000E+00  0.45593999997E+02  0.45594000000E+02  0.51100000000E-03 0. -1.
         11   -1    0    0    0    0 -0.00000000000E+00 -0.00000000000E+00 -0.45593999997E+02  0.45594000000E+02  0.51100000000E-03 0.  1.
         23    2    1    2    0    0 -0.35527136788E-14  0.35527136788E-14  0.00000000000E+00  0.91188000000E+02  0.91188000000E+02 0.  0.
    9900012    2    3    3    0    0 -0.23956004199E+02  0.23732752719E+02  0.29866032792E+02  0.46142316483E+02  0.99999883410E+01 0.  0.
        -12    1    3    3    0    0  0.23956004199E+02 -0.23732752719E+02 -0.29866032792E+02  0.45045683517E+02  0.00000000000E+00 0.  1.
         11    1    4    4    0    0 -0.66808087391E+01  0.66510379588E+01  0.83817591322E+01  0.12614412303E+02  0.51100000000E-03 0. -1.
        -11    1    4    4    0    0  0.81098191959E-01  0.33927999070E+01  0.14339846797E+01  0.36842883232E+01  0.51100000000E-03 0.  1.
        -12    1    4    4    0    0 -0.17356293652E+02  0.13688914853E+02  0.20050288980E+02  0.29843615856E+02  0.00000000000E+00 0.  1.
</event>
<event>
 8    1  0.9117959E-009  0.9118800E+02  0.7816164E-02  0.1184000E+00
        -11   -1    0    0    0    0  0.00000000000E+00  0.00000000000E+00  0.45593999997E+02  0.45594000000E+02  0.51100000000E-03 0. -1.
         11   -1    0    0    0    0 -0.00000000000E+00 -0.00000000000E+00 -0.45593999997E+02  0.45594000000E+02  0.51100000000E-03 0.  1.
         23    2    1    2    0    0  0.00000000000E+00  0.00000000000E+00  0.71054273576E-14  0.91188000000E+02  0.91188000000E+02 0.  0.
    9900012    2    3    3    0    0  0.15208473630E+02  0.31316882959E+02 -0.28584423082E+02  0.46142311290E+02  0.99999409916E+01 0.  0.
         12    1    3    3    0    0 -0.15208473630E+02 -0.31316882959E+02  0.28584423082E+02  0.45045688710E+02  0.00000000000E+00 0. -1.
         11    1    4    4    0    0  0.51169476302E+01  0.34692260912E+01 -0.33587738288E+01  0.70356268105E+01  0.51100000000E-03 0. -1.
        -11    1    4    4    0    0  0.27461633895E+01  0.66237418699E+01 -0.83987890685E+01  0.11043325034E+02  0.51100000000E-03 0.  1.
         12    1    4    4    0    0  0.73453626102E+01  0.21223914998E+02 -0.16826860185E+02  0.28063359446E+02  0.00000000000E+00 0. -1.
</event>
<event>
 8    1  0.9117959E-009  0.9118800E+02  0.7816164E-02  0.1184000E+00
        -11   -1    0    0    0    0  0.00000000000E+00  0.00000000000E+00  0.45593999997E+02  0.45594000000E+02  0.51100000000E-03 0. -1.
         11   -1    0    0    0    0 -0.00000000000E+00 -0.00000000000E+00 -0.45593999997E+02  0.45594000000E+02  0.51100000000E-03 0.  1.
         23    2    1    2    0    0  0.00000000000E+00 -0.35527136788E-14  0.00000000000E+00  0.91188000000E+02  0.91188000000E+02 0.  0.
    9900012    2    3    3    0    0 -0.14725436047E+02  0.25873420978E+02 -0.33805932024E+02  0.46142318521E+02  0.10000006932E+02 0.  0.
         12    1    3    3    0    0  0.14725436047E+02 -0.25873420978E+02  0.33805932024E+02  0.45045681479E+02  0.00000000000E+00 0. -1.
         11    1    4    4    0    0 -0.67994050093E+01  0.86357059472E+01 -0.90822123725E+01  0.14258117250E+02  0.51100000000E-03 0. -1.
        -11    1    4    4    0    0 -0.40387569871E+01  0.45518493645E+01 -0.12226789905E+02  0.13657425902E+02  0.51100000000E-03 0.  1.
        -12    1    4    4    0    0 -0.38872740509E+01  0.12685865666E+02 -0.12496929747E+02  0.18226775369E+02  0.00000000000E+00 0.  1.
</event>
<event>
 8    1  0.9117959E-009  0.9118800E+02  0.7816164E-02  0.1184000E+00
        -11   -1    0    0    0    0  0.00000000000E+00  0.00000000000E+00  0.45593999997E+02  0.45594000000E+02  0.51100000000E-03 0. -1.
         11   -1    0    0    0    0 -0.00000000000E+00 -0.00000000000E+00 -0.45593999997E+02  0.45594000000E+02  0.51100000000E-03 0.  1.
         23    2    1    2    0    0  0.17763568394E-14 -0.17763568394E-14  0.00000000000E+00  0.91188000000E+02  0.91188000000E+02 0.  0.
    9900012    2    3    3    0    0  0.14694508789E+02 -0.96571976046E+01  0.41471959138E+02  0.46142318199E+02  0.10000003995E+02 0.  0.
        -12    1    3    3    0    0 -0.14694508789E+02  0.96571976046E+01 -0.41471959138E+02  0.45045681801E+02  0.00000000000E+00 0.  1.
         11    1    4    4    0    0  0.11855453678E+02 -0.54124076050E+01  0.24066832878E+02  0.27368930981E+02  0.51100000000E-03 0. -1.
        -11    1    4    4    0    0  0.13127592575E+01 -0.23838020191E+01  0.15406237112E+02  0.15644743243E+02  0.51100000000E-03 0.  1.
         12    1    4    4    0    0  0.15262958538E+01 -0.18609879805E+01  0.19988891483E+01  0.31286439753E+01  0.00000000000E+00 0. -1.
</event>
<event>
 8    1  0.9117959E-009  0.9118800E+02  0.7816164E-02  0.1184000E+00
        -11   -1    0    0    0    0  0.00000000000E+00  0.00000000000E+00  0.45593999997E+02  0.45594000000E+02  0.51100000000E-03 0. -1.
         11   -1    0    0    0    0 -0.00000000000E+00 -0.00000000000E+00 -0.45593999997E+02  0.45594000000E+02  0.51100000000E-03 0.  1.
         23    2    1    2    0    0  0.00000000000E+00  0.44408920985E-15  0.00000000000E+00  0.91188000000E+02  0.91188000000E+02 0.  0.
    9900012    2    3    3    0    0  0.29387652345E+02 -0.28827369589E+01 -0.34017189319E+02  0.46142318166E+02  0.10000003689E+02 0.  0.
         12    1    3    3    0    0 -0.29387652345E+02  0.28827369589E+01  0.34017189319E+02  0.45045681834E+02  0.00000000000E+00 0. -1.
         11    1    4    4    0    0  0.15792096870E+02  0.20315738669E+01 -0.19058547583E+02  0.24834368367E+02  0.51100000000E-03 0. -1.
        -11    1    4    4    0    0  0.11379750916E+02 -0.32102442130E+01 -0.14061995319E+02  0.18372373593E+02  0.51100000000E-03 0.  1.
         12    1    4    4    0    0  0.22158045584E+01 -0.17040666127E+01 -0.89664641678E+00  0.29355762055E+01  0.00000000000E+00 0. -1.
</event>
<event>
 8    1  0.9117959E-009  0.9118800E+02  0.7816164E-02  0.1184000E+00
        -11   -1    0    0    0    0  0.00000000000E+00  0.00000000000E+00  0.45593999997E+02  0.45594000000E+02  0.51100000000E-03 0. -1.
         11   -1    0    0    0    0 -0.00000000000E+00 -0.00000000000E+00 -0.45593999997E+02  0.45594000000E+02  0.51100000000E-03 0.  1.
         23    2    1    2    0    0  0.35527136788E-14 -0.35527136788E-14  0.35527136788E-14  0.91188000000E+02  0.91188000000E+02 0.  0.
    9900012    2    3    3    0    0 -0.23015968994E+02  0.29760041314E+02 -0.24773341988E+02  0.46142319175E+02  0.10000012892E+02 0.  0.
         12    1    3    3    0    0  0.23015968994E+02 -0.29760041314E+02  0.24773341988E+02  0.45045680825E+02  0.00000000000E+00 0. -1.
         11    1    4    4    0    0 -0.70980253179E+01  0.56438821218E+01 -0.37360736520E+01  0.98078343895E+01  0.51100000000E-03 0.  1.
        -11    1    4    4    0    0 -0.13153362346E+02  0.14501554182E+02 -0.14832749793E+02  0.24562501530E+02  0.51100000000E-03 0. -1.
         12    1    4    4    0    0 -0.27645813307E+01  0.96146050097E+01 -0.62045185426E+01  0.11771983256E+02  0.00000000000E+00 0. -1.
</event>
<event>
 8    1  0.9117959E-009  0.9118800E+02  0.7816164E-02  0.1184000E+00
        -11   -1    0    0    0    0  0.00000000000E+00  0.00000000000E+00  0.45593999997E+02  0.45594000000E+02  0.51100000000E-03 0. -1.
         11   -1    0    0    0    0 -0.00000000000E+00 -0.00000000000E+00 -0.45593999997E+02  0.45594000000E+02  0.51100000000E-03 0.  1.
         23    2    1    2    0    0  0.00000000000E+00  0.35527136788E-14 -0.71054273576E-14  0.91188000000E+02  0.91188000000E+02 0.  0.
    9900012    2    3    3    0    0 -0.19830222820E+02  0.23009634213E+02 -0.33263080229E+02  0.46142317521E+02  0.99999978069E+01 0.  0.
         12    1    3    3    0    0  0.19830222820E+02 -0.23009634213E+02  0.33263080229E+02  0.45045682479E+02  0.00000000000E+00 0. -1.
         11    1    4    4    0    0 -0.26463364065E+01  0.14213519494E+01 -0.32001418936E+01  0.43891053919E+01  0.51100000000E-03 0. -1.
        -11    1    4    4    0    0 -0.16265623934E+02  0.22198518507E+02 -0.27235593391E+02  0.38718500662E+02  0.51100000000E-03 0.  1.
        -12    1    4    4    0    0 -0.91826247926E+00 -0.61023624321E+00 -0.28273449443E+01  0.30347114669E+01  0.00000000000E+00 0.  1.
</event>
<event>
 8    1  0.9117959E-009  0.9118800E+02  0.7816164E-02  0.1184000E+00
        -11   -1    0    0    0    0  0.00000000000E+00  0.00000000000E+00  0.45593999997E+02  0.45594000000E+02  0.51100000000E-03 0. -1.
         11   -1    0    0    0    0 -0.00000000000E+00 -0.00000000000E+00 -0.45593999997E+02  0.45594000000E+02  0.51100000000E-03 0.  1.
         23    2    1    2    0    0  0.88817841970E-15  0.00000000000E+00  0.00000000000E+00  0.91188000000E+02  0.91188000000E+02 0.  0.
    9900012    2    3    3    0    0  0.67945526562E+01 -0.41418006290E+02  0.16355314590E+02  0.46142317564E+02  0.99999981984E+01 0.  0.
        -12    1    3    3    0    0 -0.67945526562E+01  0.41418006290E+02 -0.16355314590E+02  0.45045682436E+02  0.00000000000E+00 0.  1.
         11    1    4    4    0    0  0.24624968419E+00 -0.51698107906E+01  0.22040666344E+01  0.56254326507E+01  0.51100000000E-03 0. -1.
        -11    1    4    4    0    0 -0.36158324447E+00 -0.22962301737E+02  0.92785424785E+01  0.24768718059E+02  0.51100000000E-03 0.  1.
        -12    1    4    4    0    0  0.69098862165E+01 -0.13285893763E+02  0.48727054769E+01  0.15748166854E+02  0.00000000000E+00 0.  1.
</event>
<event>
 8    1  0.9117959E-009  0.9118800E+02  0.7816164E-02  0.1184000E+00
        -11   -1    0    0    0    0  0.00000000000E+00  0.00000000000E+00  0.45593999997E+02  0.45594000000E+02  0.51100000000E-03 0. -1.
         11   -1    0    0    0    0 -0.00000000000E+00 -0.00000000000E+00 -0.45593999997E+02  0.45594000000E+02  0.51100000000E-03 0.  1.
         23    2    1    2    0    0 -0.22204460493E-15  0.00000000000E+00  0.00000000000E+00  0.91188000000E+02  0.91188000000E+02 0.  0.
    9900012    2    3    3    0    0 -0.13711662478E+01 -0.12071780995E+02 -0.43376324048E+02  0.46142317841E+02  0.10000000730E+02 0.  0.
         12    1    3    3    0    0  0.13711662478E+01  0.12071780995E+02  0.43376324048E+02  0.45045682159E+02  0.00000000000E+00 0. -1.
         11    1    4    4    0    0 -0.13051415891E+00 -0.96154710667E+01 -0.18198663450E+02  0.20583140417E+02  0.51100000000E-03 0. -1.
        -11    1    4    4    0    0 -0.43400177367E+00  0.41129075513E+00 -0.79261031266E+00  0.99284892791E+00  0.51100000000E-03 0.  1.
        -12    1    4    4    0    0 -0.80665031522E+00 -0.28676006836E+01 -0.24385050285E+02  0.24566328496E+02  0.00000000000E+00 0.  1.
</event>
<event>
 8    1  0.9117959E-009  0.9118800E+02  0.7816164E-02  0.1184000E+00
        -11   -1    0    0    0    0  0.00000000000E+00  0.00000000000E+00  0.45593999997E+02  0.45594000000E+02  0.51100000000E-03 0. -1.
         11   -1    0    0    0    0 -0.00000000000E+00 -0.00000000000E+00 -0.45593999997E+02  0.45594000000E+02  0.51100000000E-03 0.  1.
         23    2    1    2    0    0 -0.71054273576E-14  0.00000000000E+00  0.00000000000E+00  0.91188000000E+02  0.91188000000E+02 0.  0.
    9900012    2    3    3    0    0  0.43467613074E+02  0.34289534659E+01 -0.11310277100E+02  0.46142317895E+02  0.10000001222E+02 0.  0.
         12    1    3    3    0    0 -0.43467613074E+02 -0.34289534659E+01  0.11310277100E+02  0.45045682105E+02  0.00000000000E+00 0. -1.
         11    1    4    4    0    0  0.17269029713E+02  0.35575657315E+01 -0.88146998360E+01  0.19712295518E+02  0.51100000000E-03 0. -1.
        -11    1    4    4    0    0  0.19851975968E+02  0.24244471248E+00 -0.28785560349E+01  0.20061052176E+02  0.51100000000E-03 0.  1.
         12    1    4    4    0    0  0.63466073931E+01 -0.37105697807E+00  0.38297877123E+00  0.63689702011E+01  0.00000000000E+00 0. -1.
</event>
<event>
 8    1  0.9117959E-009  0.9118800E+02  0.7816164E-02  0.1184000E+00
        -11   -1    0    0    0    0  0.00000000000E+00  0.00000000000E+00  0.45593999997E+02  0.45594000000E+02  0.51100000000E-03 0. -1.
         11   -1    0    0    0    0 -0.00000000000E+00 -0.00000000000E+00 -0.45593999997E+02  0.45594000000E+02  0.51100000000E-03 0.  1.
         23    2    1    2    0    0  0.00000000000E+00  0.00000000000E+00  0.00000000000E+00  0.91188000000E+02  0.91188000000E+02 0.  0.
    9900012    2    3    3    0    0 -0.25168920611E+02  0.26737044211E+02 -0.26091558557E+02  0.46142317346E+02  0.99999962123E+01 0.  0.
         12    1    3    3    0    0  0.25168920611E+02 -0.26737044211E+02  0.26091558557E+02  0.45045682654E+02  0.00000000000E+00 0. -1.
         11    1    4    4    0    0 -0.77019990874E+01  0.14102651464E+02 -0.10213767191E+02  0.19040131532E+02  0.51100000000E-03 0.  1.
        -11    1    4    4    0    0 -0.40501968073E+01  0.26210777487E+01 -0.15513539831E+01  0.50676268790E+01  0.51100000000E-03 0. -1.
        -12    1    4    4    0    0 -0.13416724716E+02  0.10013314998E+02 -0.14326437383E+02  0.22034558934E+02  0.00000000000E+00 0.  1.
</event>
<event>
 8    1  0.9117959E-009  0.9118800E+02  0.7816164E-02  0.1184000E+00
        -11   -1    0    0    0    0  0.00000000000E+00  0.00000000000E+00  0.45593999997E+02  0.45594000000E+02  0.51100000000E-03 0. -1.
         11   -1    0    0    0    0 -0.00000000000E+00 -0.00000000000E+00 -0.45593999997E+02  0.45594000000E+02  0.51100000000E-03 0.  1.
         23    2    1    2    0    0  0.88817841970E-15  0.00000000000E+00  0.00000000000E+00  0.91188000000E+02  0.91188000000E+02 0.  0.
    9900012    2    3    3    0    0  0.48339887252E+01  0.21670199635E+02 -0.39193730391E+02  0.46142317619E+02  0.99999987038E+01 0.  0.
         12    1    3    3    0    0 -0.48339887252E+01 -0.21670199635E+02  0.39193730391E+02  0.45045682381E+02  0.00000000000E+00 0. -1.
         11    1    4    4    0    0  0.53496103926E+01  0.81571747484E+01 -0.14868311805E+02  0.17782703040E+02  0.51100000000E-03 0.  1.
        -11    1    4    4    0    0  0.14784815176E+00 -0.40980274202E+00 -0.16323520951E+00  0.46523473440E+00  0.51100000000E-03 0. -1.
         12    1    4    4    0    0 -0.66346981917E+00  0.13922827629E+02 -0.24162183377E+02  0.27894379845E+02  0.00000000000E+00 0. -1.
</event>
<event>
 8    1  0.9117959E-009  0.9118800E+02  0.7816164E-02  0.1184000E+00
        -11   -1    0    0    0    0  0.00000000000E+00  0.00000000000E+00  0.45593999997E+02  0.45594000000E+02  0.51100000000E-03 0. -1.
         11   -1    0    0    0    0 -0.00000000000E+00 -0.00000000000E+00 -0.45593999997E+02  0.45594000000E+02  0.51100000000E-03 0.  1.
         23    2    1    2    0    0  0.35527136788E-14 -0.11102230246E-15  0.00000000000E+00  0.91188000000E+02  0.91188000000E+02 0.  0.
    9900012    2    3    3    0    0 -0.29924943802E+02  0.99289993479E+00 -0.33654501984E+02  0.46142316349E+02  0.99999871190E+01 0.  0.
         12    1    3    3    0    0  0.29924943802E+02 -0.99289993479E+00  0.33654501984E+02  0.45045683651E+02  0.00000000000E+00 0. -1.
         11    1    4    4    0    0 -0.30966740088E+01  0.13114100139E+01 -0.65165824432E+01  0.73331461966E+01  0.51100000000E-03 0. -1.
        -11    1    4    4    0    0 -0.18713261195E+02  0.25518612115E+01 -0.16141481816E+02  0.24844427457E+02  0.51100000000E-03 0.  1.
         12    1    4    4    0    0 -0.81150085987E+01 -0.28703712906E+01 -0.10996437725E+02  0.13964742695E+02  0.00000000000E+00 0. -1.
</event>
<event>
 8    1  0.9117959E-009  0.9118800E+02  0.7816164E-02  0.1184000E+00
        -11   -1    0    0    0    0  0.00000000000E+00  0.00000000000E+00  0.45593999997E+02  0.45594000000E+02  0.51100000000E-03 0. -1.
         11   -1    0    0    0    0 -0.00000000000E+00 -0.00000000000E+00 -0.45593999997E+02  0.45594000000E+02  0.51100000000E-03 0.  1.
         23    2    1    2    0    0  0.17763568394E-14  0.00000000000E+00 -0.14210854715E-13  0.91188000000E+02  0.91188000000E+02 0.  0.
    9900012    2    3    3    0    0  0.14479218939E+02  0.31607744439E+01  0.42537926245E+02  0.46142318239E+02  0.10000004354E+02 0.  0.
        -12    1    3    3    0    0 -0.14479218939E+02 -0.31607744439E+01 -0.42537926245E+02  0.45045681761E+02  0.00000000000E+00 0.  1.
         11    1    4    4    0    0  0.12724210822E+02 -0.24484612558E-01  0.36024031562E+02  0.38205195862E+02  0.51100000000E-03 0. -1.
        -11    1    4    4    0    0  0.15834654887E+01  0.17678377334E+01  0.59431570904E+01  0.63995101115E+01  0.51100000000E-03 0.  1.
        -12    1    4    4    0    0  0.17154262775E+00  0.14174213231E+01  0.57073759180E+00  0.15376122655E+01  0.00000000000E+00 0.  1.
</event>
<event>
 8    1  0.9117959E-009  0.9118800E+02  0.7816164E-02  0.1184000E+00
        -11   -1    0    0    0    0  0.00000000000E+00  0.00000000000E+00  0.45593999997E+02  0.45594000000E+02  0.51100000000E-03 0. -1.
         11   -1    0    0    0    0 -0.00000000000E+00 -0.00000000000E+00 -0.45593999997E+02  0.45594000000E+02  0.51100000000E-03 0.  1.
         23    2    1    2    0    0  0.17763568394E-14  0.00000000000E+00  0.00000000000E+00  0.91188000000E+02  0.91188000000E+02 0.  0.
    9900012    2    3    3    0    0 -0.91785461112E+01 -0.43581790360E+02  0.67450185794E+01  0.46142318350E+02  0.10000005366E+02 0.  0.
        -12    1    3    3    0    0  0.91785461112E+01  0.43581790360E+02 -0.67450185794E+01  0.45045681650E+02  0.00000000000E+00 0.  1.
         11    1    4    4    0    0 -0.46694909457E+01 -0.67771873315E+01  0.32395125994E+01  0.88447077940E+01  0.51100000000E-03 0. -1.
        -11    1    4    4    0    0 -0.50168456207E+00 -0.11634686127E+02  0.10638434806E+01  0.11693988708E+02  0.51100000000E-03 0.  1.
         12    1    4    4    0    0 -0.40073706034E+01 -0.25169916901E+02  0.24416624994E+01  0.25603621848E+02  0.00000000000E+00 0. -1.
</event>
<event>
 8    1  0.9117959E-009  0.9118800E+02  0.7816164E-02  0.1184000E+00
        -11   -1    0    0    0    0  0.00000000000E+00  0.00000000000E+00  0.45593999997E+02  0.45594000000E+02  0.51100000000E-03 0. -1.
         11   -1    0    0    0    0 -0.00000000000E+00 -0.00000000000E+00 -0.45593999997E+02  0.45594000000E+02  0.51100000000E-03 0.  1.
         23    2    1    2    0    0  0.00000000000E+00  0.71054273576E-14  0.00000000000E+00  0.91188000000E+02  0.91188000000E+02 0.  0.
    9900012    2    3    3    0    0  0.24429191070E+02  0.32954874074E+02 -0.18609253304E+02  0.46142318629E+02  0.10000007917E+02 0.  0.
         12    1    3    3    0    0 -0.24429191070E+02 -0.32954874074E+02  0.18609253304E+02  0.45045681371E+02  0.00000000000E+00 0. -1.
         11    1    4    4    0    0 -0.37058228202E+00  0.12478232744E+00  0.19736928475E-01  0.39152479418E+00  0.51100000000E-03 0. -1.
        -11    1    4    4    0    0  0.88571798877E+01  0.16549674334E+02 -0.10805822460E+02  0.21658881676E+02  0.51100000000E-03 0.  1.
        -12    1    4    4    0    0  0.15942593465E+02  0.16280417413E+02 -0.78231677724E+01  0.24091912160E+02  0.00000000000E+00 0.  1.
</event>
<event>
 8    1  0.9117959E-009  0.9118800E+02  0.7816164E-02  0.1184000E+00
        -11   -1    0    0    0    0  0.00000000000E+00  0.00000000000E+00  0.45593999997E+02  0.45594000000E+02  0.51100000000E-03 0. -1.
         11   -1    0    0    0    0 -0.00000000000E+00 -0.00000000000E+00 -0.45593999997E+02  0.45594000000E+02  0.51100000000E-03 0.  1.
         23    2    1    2    0    0  0.00000000000E+00 -0.22204460493E-15  0.00000000000E+00  0.91188000000E+02  0.91188000000E+02 0.  0.
    9900012    2    3    3    0    0  0.91456983689E+01 -0.18809964731E+01 -0.44067352622E+02  0.46142317482E+02  0.99999974521E+01 0.  0.
         12    1    3    3    0    0 -0.91456983689E+01  0.18809964731E+01  0.44067352622E+02  0.45045682518E+02  0.00000000000E+00 0. -1.
         11    1    4    4    0    0 -0.10627862818E+01 -0.96479179627E+00 -0.25032880960E+01  0.28856176884E+01  0.51100000000E-03 0. -1.
        -11    1    4    4    0    0  0.36928650728E+01  0.12877955007E+00 -0.27194266692E+02  0.27444161088E+02  0.51100000000E-03 0.  1.
        -12    1    4    4    0    0  0.65156195779E+01 -0.10449842269E+01 -0.14369797834E+02  0.15812538705E+02  0.00000000000E+00 0.  1.
</event>
<event>
 8    1  0.9117959E-009  0.9118800E+02  0.7816164E-02  0.1184000E+00
        -11   -1    0    0    0    0  0.00000000000E+00  0.00000000000E+00  0.45593999997E+02  0.45594000000E+02  0.51100000000E-03 0.  1.
         11   -1    0    0    0    0 -0.00000000000E+00 -0.00000000000E+00 -0.45593999997E+02  0.45594000000E+02  0.51100000000E-03 0. -1.
         23    2    1    2    0    0  0.00000000000E+00  0.00000000000E+00 -0.17763568394E-14  0.91188000000E+02  0.91188000000E+02 0.  0.
    9900012    2    3    3    0    0  0.14635548289E+02 -0.40699021080E+02  0.12589828154E+02  0.46142319147E+02  0.10000012638E+02 0.  0.
        -12    1    3    3    0    0 -0.14635548289E+02  0.40699021080E+02 -0.12589828154E+02  0.45045680853E+02  0.00000000000E+00 0.  1.
         11    1    4    4    0    0  0.43985801024E+01 -0.93364992652E+01  0.38695477616E+01  0.11022301284E+02  0.51100000000E-03 0. -1.
        -11    1    4    4    0    0  0.41273308052E+01 -0.22763821703E+02  0.36668299596E+01  0.23423750347E+02  0.51100000000E-03 0.  1.
        -12    1    4    4    0    0  0.61096373811E+01 -0.85987001115E+01  0.50534504333E+01  0.11696267517E+02  0.00000000000E+00 0.  1.
</event>
<event>
 8    1  0.9117959E-009  0.9118800E+02  0.7816164E-02  0.1184000E+00
        -11   -1    0    0    0    0  0.00000000000E+00  0.00000000000E+00  0.45593999997E+02  0.45594000000E+02  0.51100000000E-03 0. -1.
         11   -1    0    0    0    0 -0.00000000000E+00 -0.00000000000E+00 -0.45593999997E+02  0.45594000000E+02  0.51100000000E-03 0.  1.
         23    2    1    2    0    0  0.17763568394E-14 -0.71054273576E-14 -0.71054273576E-14  0.91188000000E+02  0.91188000000E+02 0.  0.
    9900012    2    3    3    0    0 -0.11301332864E+02  0.26863017320E+02  0.34347804394E+02  0.46142317735E+02  0.99999997617E+01 0.  0.
        -12    1    3    3    0    0  0.11301332864E+02 -0.26863017320E+02 -0.34347804394E+02  0.45045682265E+02  0.00000000000E+00 0.  1.
         11    1    4    4    0    0 -0.38956275344E+01  0.10022101323E+02  0.88354810263E+01  0.13917045449E+02  0.51100000000E-03 0. -1.
        -11    1    4    4    0    0 -0.79727769669E+00  0.22447759780E+00 -0.24972046673E+00  0.86510258940E+00  0.51100000000E-03 0.  1.
        -12    1    4    4    0    0 -0.66084276333E+01  0.16616438400E+02  0.25762043834E+02  0.31360169696E+02  0.00000000000E+00 0.  1.
</event>
<event>
 8    1  0.9117959E-009  0.9118800E+02  0.7816164E-02  0.1184000E+00
        -11   -1    0    0    0    0  0.00000000000E+00  0.00000000000E+00  0.45593999997E+02  0.45594000000E+02  0.51100000000E-03 0. -1.
         11   -1    0    0    0    0 -0.00000000000E+00 -0.00000000000E+00 -0.45593999997E+02  0.45594000000E+02  0.51100000000E-03 0.  1.
         23    2    1    2    0    0 -0.88817841970E-15  0.00000000000E+00  0.00000000000E+00  0.91188000000E+02  0.91188000000E+02 0.  0.
    9900012    2    3    3    0    0 -0.41445071890E+01 -0.33586615130E+02  0.29730038141E+02  0.46142325140E+02  0.10000067286E+02 0.  0.
        -12    1    3    3    0    0  0.41445071890E+01  0.33586615130E+02 -0.29730038141E+02  0.45045674860E+02  0.00000000000E+00 0.  1.
         11    1    4    4    0    0 -0.32408166741E+01 -0.94903718034E+01  0.43614169659E+01  0.10935813088E+02  0.51100000000E-03 0. -1.
        -11    1    4    4    0    0 -0.20787159252E+01 -0.16255646667E+02  0.15603404061E+02  0.22628153416E+02  0.51100000000E-03 0.  1.
        -12    1    4    4    0    0  0.11750254103E+01 -0.78405966594E+01  0.97652171147E+01  0.12578358636E+02  0.00000000000E+00 0.  1.
</event>
<event>
 8    1  0.9117959E-009  0.9118800E+02  0.7816164E-02  0.1184000E+00
        -11   -1    0    0    0    0  0.00000000000E+00  0.00000000000E+00  0.45593999997E+02  0.45594000000E+02  0.51100000000E-03 0. -1.
         11   -1    0    0    0    0 -0.00000000000E+00 -0.00000000000E+00 -0.45593999997E+02  0.45594000000E+02  0.51100000000E-03 0.  1.
         23    2    1    2    0    0  0.00000000000E+00 -0.22204460493E-15  0.71054273576E-14  0.91188000000E+02  0.91188000000E+02 0.  0.
    9900012    2    3    3    0    0  0.11140759807E+02 -0.18041180993E+01 -0.43608968099E+02  0.46142317967E+02  0.10000001874E+02 0.  0.
         12    1    3    3    0    0 -0.11140759807E+02  0.18041180993E+01  0.43608968099E+02  0.45045682033E+02  0.00000000000E+00 0. -1.
         11    1    4    4    0    0  0.33433964969E+01 -0.57612399377E+00 -0.51975582348E+01  0.62068374279E+01  0.51100000000E-03 0. -1.
        -11    1    4    4    0    0  0.61847971767E+01  0.25614497501E+01 -0.20880173508E+02  0.21927024124E+02  0.51100000000E-03 0.  1.
         12    1    4    4    0    0  0.16125661335E+01 -0.37894438556E+01 -0.17531236356E+02  0.18008456414E+02  0.00000000000E+00 0. -1.
</event>
<event>
 8    1  0.9117959E-009  0.9118800E+02  0.7816164E-02  0.1184000E+00
        -11   -1    0    0    0    0  0.00000000000E+00  0.00000000000E+00  0.45593999997E+02  0.45594000000E+02  0.51100000000E-03 0. -1.
         11   -1    0    0    0    0 -0.00000000000E+00 -0.00000000000E+00 -0.45593999997E+02  0.45594000000E+02  0.51100000000E-03 0.  1.
         23    2    1    2    0    0  0.00000000000E+00  0.00000000000E+00  0.00000000000E+00  0.91188000000E+02  0.91188000000E+02 0.  0.
    9900012    2    3    3    0    0  0.25398518678E+02  0.92857878331E+01 -0.36025031272E+02  0.46142317800E+02  0.10000000353E+02 0.  0.
         12    1    3    3    0    0 -0.25398518678E+02 -0.92857878331E+01  0.36025031272E+02  0.45045682200E+02  0.00000000000E+00 0. -1.
         11    1    4    4    0    0  0.81014789876E+01  0.21763685385E+01 -0.13177745842E+02  0.15621252432E+02  0.51100000000E-03 0. -1.
        -11    1    4    4    0    0  0.12892774318E+02  0.82753082173E+01 -0.14961560133E+02  0.21413842196E+02  0.51100000000E-03 0.  1.
        -12    1    4    4    0    0  0.44042653731E+01 -0.11658889227E+01 -0.78857252968E+01  0.91072231725E+01  0.00000000000E+00 0.  1.
</event>
<event>
 8    1  0.9117959E-009  0.9118800E+02  0.7816164E-02  0.1184000E+00
        -11   -1    0    0    0    0  0.00000000000E+00  0.00000000000E+00  0.45593999997E+02  0.45594000000E+02  0.51100000000E-03 0. -1.
         11   -1    0    0    0    0 -0.00000000000E+00 -0.00000000000E+00 -0.45593999997E+02  0.45594000000E+02  0.51100000000E-03 0.  1.
         23    2    1    2    0    0  0.00000000000E+00  0.35527136788E-14  0.00000000000E+00  0.91188000000E+02  0.91188000000E+02 0.  0.
    9900012    2    3    3    0    0 -0.33303238357E+02 -0.24458031869E+02 -0.17939135728E+02  0.46142316537E+02  0.99999888404E+01 0.  0.
         12    1    3    3    0    0  0.33303238357E+02  0.24458031869E+02  0.17939135728E+02  0.45045683463E+02  0.00000000000E+00 0. -1.
         11    1    4    4    0    0 -0.81778213196E+01 -0.80111590129E+01 -0.13802644275E+01  0.11530852545E+02  0.51100000000E-03 0. -1.
        -11    1    4    4    0    0 -0.45324420792E+01 -0.42196595939E+01 -0.52847664032E+01  0.81410880407E+01  0.51100000000E-03 0.  1.
         12    1    4    4    0    0 -0.20592974958E+02 -0.12227213263E+02 -0.11274104897E+02  0.26470375952E+02  0.00000000000E+00 0. -1.
</event>
<event>
 8    1  0.9117959E-009  0.9118800E+02  0.7816164E-02  0.1184000E+00
        -11   -1    0    0    0    0  0.00000000000E+00  0.00000000000E+00  0.45593999997E+02  0.45594000000E+02  0.51100000000E-03 0. -1.
         11   -1    0    0    0    0 -0.00000000000E+00 -0.00000000000E+00 -0.45593999997E+02  0.45594000000E+02  0.51100000000E-03 0.  1.
         23    2    1    2    0    0 -0.35527136788E-14 -0.35527136788E-14  0.00000000000E+00  0.91188000000E+02  0.91188000000E+02 0.  0.
    9900012    2    3    3    0    0  0.24586416631E+02  0.26851680736E+02 -0.26525625828E+02  0.46142318002E+02  0.10000002197E+02 0.  0.
         12    1    3    3    0    0 -0.24586416631E+02 -0.26851680736E+02  0.26525625828E+02  0.45045681998E+02  0.00000000000E+00 0. -1.
         11    1    4    4    0    0  0.77731526997E+01  0.97737473225E+01 -0.11336935550E+02  0.16866361419E+02  0.51100000000E-03 0. -1.
        -11    1    4    4    0    0  0.15649031090E+02  0.17706604561E+02 -0.14852451493E+02  0.27910774528E+02  0.51100000000E-03 0.  1.
         12    1    4    4    0    0  0.11642328413E+01 -0.62867114783E+00 -0.33623878511E+00  0.13651820544E+01  0.00000000000E+00 0. -1.
</event>
<event>
 8    1  0.9117959E-009  0.9118800E+02  0.7816164E-02  0.1184000E+00
        -11   -1    0    0    0    0  0.00000000000E+00  0.00000000000E+00  0.45593999997E+02  0.45594000000E+02  0.51100000000E-03 0. -1.
         11   -1    0    0    0    0 -0.00000000000E+00 -0.00000000000E+00 -0.45593999997E+02  0.45594000000E+02  0.51100000000E-03 0.  1.
         23    2    1    2    0    0  0.00000000000E+00  0.00000000000E+00  0.00000000000E+00  0.91188000000E+02  0.91188000000E+02 0.  0.
    9900012    2    3    3    0    0  0.87448636275E+01 -0.43629219187E+02 -0.70094262527E+01  0.46142318042E+02  0.10000002557E+02 0.  0.
         12    1    3    3    0    0 -0.87448636275E+01  0.43629219187E+02  0.70094262527E+01  0.45045681958E+02  0.00000000000E+00 0. -1.
         11    1    4    4    0    0  0.68787319787E+01 -0.13197355396E+02 -0.38192094437E+01  0.15364683665E+02  0.51100000000E-03 0. -1.
        -11    1    4    4    0    0  0.24937784378E+00 -0.10256410226E+02 -0.23218066535E+01  0.10518884277E+02  0.51100000000E-03 0.  1.
         12    1    4    4    0    0  0.16167538050E+01 -0.20175453565E+02 -0.86841015556E+00  0.20258750100E+02  0.00000000000E+00 0. -1.
</event>
<event>
 8    1  0.9117959E-009  0.9118800E+02  0.7816164E-02  0.1184000E+00
        -11   -1    0    0    0    0  0.00000000000E+00  0.00000000000E+00  0.45593999997E+02  0.45594000000E+02  0.51100000000E-03 0.  1.
         11   -1    0    0    0    0 -0.00000000000E+00 -0.00000000000E+00 -0.45593999997E+02  0.45594000000E+02  0.51100000000E-03 0. -1.
         23    2    1    2    0    0  0.00000000000E+00  0.00000000000E+00  0.17763568394E-14  0.91188000000E+02  0.91188000000E+02 0.  0.
    9900012    2    3    3    0    0 -0.37701745156E+02  0.22990881926E+02 -0.88944432557E+01  0.46142319182E+02  0.10000012960E+02 0.  0.
         12    1    3    3    0    0  0.37701745156E+02 -0.22990881926E+02  0.88944432557E+01  0.45045680818E+02  0.00000000000E+00 0. -1.
         11    1    4    4    0    0 -0.43387115982E+01  0.33971398712E+01 -0.17574881276E+01  0.57839210244E+01  0.51100000000E-03 0. -1.
        -11    1    4    4    0    0 -0.64200215726E+01  0.16230961794E+01 -0.41946325804E+01  0.78387537878E+01  0.51100000000E-03 0.  1.
        -12    1    4    4    0    0 -0.26943011985E+02  0.17970645875E+02 -0.29423225477E+01  0.32519644370E+02  0.00000000000E+00 0.  1.
</event>
<event>
 8    1  0.9117959E-009  0.9118800E+02  0.7816164E-02  0.1184000E+00
        -11   -1    0    0    0    0  0.00000000000E+00  0.00000000000E+00  0.45593999997E+02  0.45594000000E+02  0.51100000000E-03 0.  1.
         11   -1    0    0    0    0 -0.00000000000E+00 -0.00000000000E+00 -0.45593999997E+02  0.45594000000E+02  0.51100000000E-03 0. -1.
         23    2    1    2    0    0  0.00000000000E+00  0.00000000000E+00 -0.35527136788E-14  0.91188000000E+02  0.91188000000E+02 0.  0.
    9900012    2    3    3    0    0 -0.32440121138E+02 -0.25589805095E+02  0.17941953700E+02  0.46142319998E+02  0.10000020401E+02 0.  0.
        -12    1    3    3    0    0  0.32440121138E+02  0.25589805095E+02 -0.17941953700E+02  0.45045680002E+02  0.00000000000E+00 0.  1.
         11    1    4    4    0    0 -0.89419352360E+01 -0.49168401741E+01  0.64995954082E+01  0.12098688515E+02  0.51100000000E-03 0. -1.
        -11    1    4    4    0    0 -0.33849911920E+01 -0.26089184604E+01 -0.83108552757E+00  0.43537712753E+01  0.51100000000E-03 0.  1.
        -12    1    4    4    0    0 -0.20113194710E+02 -0.18064046460E+02  0.12273443819E+02  0.29689860208E+02  0.00000000000E+00 0.  1.
</event>
<event>
 8    1  0.9117959E-009  0.9118800E+02  0.7816164E-02  0.1184000E+00
        -11   -1    0    0    0    0  0.00000000000E+00  0.00000000000E+00  0.45593999997E+02  0.45594000000E+02  0.51100000000E-03 0. -1.
         11   -1    0    0    0    0 -0.00000000000E+00 -0.00000000000E+00 -0.45593999997E+02  0.45594000000E+02  0.51100000000E-03 0.  1.
         23    2    1    2    0    0  0.00000000000E+00  0.00000000000E+00  0.35527136788E-14  0.91188000000E+02  0.91188000000E+02 0.  0.
    9900012    2    3    3    0    0 -0.29844704809E+02 -0.14941596685E+02 -0.30251542026E+02  0.46142317503E+02  0.99999976499E+01 0.  0.
         12    1    3    3    0    0  0.29844704809E+02  0.14941596685E+02  0.30251542026E+02  0.45045682497E+02  0.00000000000E+00 0. -1.
         11    1    4    4    0    0 -0.44193303788E+01 -0.21788684143E+01 -0.20667970945E+01  0.53431824838E+01  0.51100000000E-03 0.  1.
        -11    1    4    4    0    0 -0.25462386179E+01 -0.17488593814E+01 -0.32826242993E+00  0.31063800024E+01  0.51100000000E-03 0. -1.
        -12    1    4    4    0    0 -0.22879135812E+02 -0.11013868890E+02 -0.27856482501E+02  0.37692755017E+02  0.00000000000E+00 0.  1.
</event>
<event>
 8    1  0.9117959E-009  0.9118800E+02  0.7816164E-02  0.1184000E+00
        -11   -1    0    0    0    0  0.00000000000E+00  0.00000000000E+00  0.45593999997E+02  0.45594000000E+02  0.51100000000E-03 0.  1.
         11   -1    0    0    0    0 -0.00000000000E+00 -0.00000000000E+00 -0.45593999997E+02  0.45594000000E+02  0.51100000000E-03 0. -1.
         23    2    1    2    0    0  0.35527136788E-14  0.00000000000E+00 -0.17763568394E-14  0.91188000000E+02  0.91188000000E+02 0.  0.
    9900012    2    3    3    0    0  0.27448486603E+02  0.33187566795E+02 -0.13201499336E+02  0.46142316618E+02  0.99999895808E+01 0.  0.
         12    1    3    3    0    0 -0.27448486603E+02 -0.33187566795E+02  0.13201499336E+02  0.45045683382E+02  0.00000000000E+00 0. -1.
         11    1    4    4    0    0  0.86208249734E+01  0.14391524366E+02 -0.86899515669E+01  0.18893116612E+02  0.51100000000E-03 0. -1.
        -11    1    4    4    0    0  0.51591687626E+01  0.31889083226E+01 -0.17986728743E+01  0.63262455675E+01  0.51100000000E-03 0.  1.
        -12    1    4    4    0    0  0.13668492867E+02  0.15607134106E+02 -0.27128748948E+01  0.20922954439E+02  0.00000000000E+00 0.  1.
</event>
<event>
 8    1  0.9117959E-009  0.9118800E+02  0.7816164E-02  0.1184000E+00
        -11   -1    0    0    0    0  0.00000000000E+00  0.00000000000E+00  0.45593999997E+02  0.45594000000E+02  0.51100000000E-03 0. -1.
         11   -1    0    0    0    0 -0.00000000000E+00 -0.00000000000E+00 -0.45593999997E+02  0.45594000000E+02  0.51100000000E-03 0.  1.
         23    2    1    2    0    0  0.00000000000E+00  0.71054273576E-14  0.71054273576E-14  0.91188000000E+02  0.91188000000E+02 0.  0.
    9900012    2    3    3    0    0  0.17000181174E+01 -0.20850493121E+02 -0.39893361898E+02  0.46142318203E+02  0.10000004031E+02 0.  0.
         12    1    3    3    0    0 -0.17000181174E+01  0.20850493121E+02  0.39893361898E+02  0.45045681797E+02  0.00000000000E+00 0. -1.
         11    1    4    4    0    0 -0.31472562911E+00 -0.35092212617E+01 -0.34249387562E+01  0.49136434374E+01  0.51100000000E-03 0. -1.
        -11    1    4    4    0    0 -0.11875421284E+01 -0.13782895727E+02 -0.21992074881E+02  0.25981336161E+02  0.51100000000E-03 0.  1.
         12    1    4    4    0    0  0.32022858749E+01 -0.35583761328E+01 -0.14476348261E+02  0.15247338604E+02  0.00000000000E+00 0. -1.
</event>
<event>
 8    1  0.9117959E-009  0.9118800E+02  0.7816164E-02  0.1184000E+00
        -11   -1    0    0    0    0  0.00000000000E+00  0.00000000000E+00  0.45593999997E+02  0.45594000000E+02  0.51100000000E-03 0. -1.
         11   -1    0    0    0    0 -0.00000000000E+00 -0.00000000000E+00 -0.45593999997E+02  0.45594000000E+02  0.51100000000E-03 0.  1.
         23    2    1    2    0    0  0.00000000000E+00  0.88817841970E-15  0.00000000000E+00  0.91188000000E+02  0.91188000000E+02 0.  0.
    9900012    2    3    3    0    0  0.37355277349E+02 -0.73576342535E+01  0.24074095763E+02  0.46142316362E+02  0.99999872406E+01 0.  0.
        -12    1    3    3    0    0 -0.37355277349E+02  0.73576342535E+01 -0.24074095763E+02  0.45045683638E+02  0.00000000000E+00 0.  1.
         11    1    4    4    0    0  0.28727561781E+02 -0.35834457135E+01  0.22103274036E+02  0.36423462390E+02  0.51100000000E-03 0. -1.
        -11    1    4    4    0    0  0.68649361408E+01 -0.33922308468E+01  0.20027093152E+01  0.79148861772E+01  0.51100000000E-03 0.  1.
         12    1    4    4    0    0  0.17627794268E+01 -0.38195769317E+00 -0.31887588354E-01  0.18039677950E+01  0.00000000000E+00 0. -1.
</event>
<event>
 8    1  0.1109148E-008  0.9118800E+02  0.7816164E-02  0.1184000E+00
        -11   -1    0    0    0    0  0.00000000000E+00  0.00000000000E+00  0.45593999997E+02  0.45594000000E+02  0.51100000000E-03 0. -1.
         11   -1    0    0    0    0 -0.00000000000E+00 -0.00000000000E+00 -0.45593999997E+02  0.45594000000E+02  0.51100000000E-03 0.  1.
         23    2    1    2    0    0  0.00000000000E+00  0.35527136788E-14  0.00000000000E+00  0.91188000000E+02  0.91188000000E+02 0.  0.
    9900012    2    3    3    0    0 -0.45810433460E+01  0.11572287141E+02  0.43292150099E+02  0.46142311549E+02  0.99999433507E+01 0.  0.
        -12    1    3    3    0    0  0.45810433460E+01 -0.11572287141E+02 -0.43292150099E+02  0.45045688451E+02  0.00000000000E+00 0.  1.
         11    1    4    4    0    0 -0.27683373451E+01  0.39999509906E+00  0.45982377810E+01  0.53821444320E+01  0.51100000000E-03 0. -1.
        -11    1    4    4    0    0  0.17038149252E+01  0.32453721979E+01  0.70041086658E+01  0.79052491716E+01  0.51100000000E-03 0.  1.
         12    1    4    4    0    0 -0.35165209261E+01  0.79269198442E+01  0.31689803653E+02  0.32854917945E+02  0.00000000000E+00 0. -1.
</event>
<event>
 8    1  0.9117959E-009  0.9118800E+02  0.7816164E-02  0.1184000E+00
        -11   -1    0    0    0    0  0.00000000000E+00  0.00000000000E+00  0.45593999997E+02  0.45594000000E+02  0.51100000000E-03 0. -1.
         11   -1    0    0    0    0 -0.00000000000E+00 -0.00000000000E+00 -0.45593999997E+02  0.45594000000E+02  0.51100000000E-03 0.  1.
         23    2    1    2    0    0  0.00000000000E+00 -0.71054273576E-14  0.00000000000E+00  0.91188000000E+02  0.91188000000E+02 0.  0.
    9900012    2    3    3    0    0  0.25703389763E+02 -0.34900642995E+02  0.12263541939E+02  0.46142316659E+02  0.99999899488E+01 0.  0.
        -12    1    3    3    0    0 -0.25703389763E+02  0.34900642995E+02 -0.12263541939E+02  0.45045683341E+02  0.00000000000E+00 0.  1.
         11    1    4    4    0    0  0.78901364937E+01 -0.11354884162E+02  0.56261383388E+01  0.14927862576E+02  0.51100000000E-03 0. -1.
        -11    1    4    4    0    0  0.13681721989E+01  0.41733093371E+00  0.17130672514E+00  0.14406271305E+01  0.51100000000E-03 0.  1.
         12    1    4    4    0    0  0.16445081071E+02 -0.23963089767E+02  0.64660968753E+01  0.29773826953E+02  0.00000000000E+00 0. -1.
</event>
<event>
 8    1  0.9117959E-009  0.9118800E+02  0.7816164E-02  0.1184000E+00
        -11   -1    0    0    0    0  0.00000000000E+00  0.00000000000E+00  0.45593999997E+02  0.45594000000E+02  0.51100000000E-03 0. -1.
         11   -1    0    0    0    0 -0.00000000000E+00 -0.00000000000E+00 -0.45593999997E+02  0.45594000000E+02  0.51100000000E-03 0.  1.
         23    2    1    2    0    0 -0.71054273576E-14 -0.35527136788E-14  0.00000000000E+00  0.91188000000E+02  0.91188000000E+02 0.  0.
    9900012    2    3    3    0    0  0.24123389347E+02  0.17267374023E+02 -0.33897099842E+02  0.46142317666E+02  0.99999991285E+01 0.  0.
         12    1    3    3    0    0 -0.24123389347E+02 -0.17267374023E+02  0.33897099842E+02  0.45045682334E+02  0.00000000000E+00 0. -1.
         11    1    4    4    0    0  0.16149300682E+01  0.31273559572E+01 -0.91849753850E+00  0.36375805692E+01  0.51100000000E-03 0. -1.
        -11    1    4    4    0    0  0.63216616155E+01  0.32581199269E+01 -0.66338903903E+01  0.97255978228E+01  0.51100000000E-03 0.  1.
         12    1    4    4    0    0  0.16186797664E+02  0.10881898139E+02 -0.26344711913E+02  0.32779139274E+02  0.00000000000E+00 0. -1.
</event>
<event>
 8    1  0.9117959E-009  0.9118800E+02  0.7816164E-02  0.1184000E+00
        -11   -1    0    0    0    0  0.00000000000E+00  0.00000000000E+00  0.45593999997E+02  0.45594000000E+02  0.51100000000E-03 0. -1.
         11   -1    0    0    0    0 -0.00000000000E+00 -0.00000000000E+00 -0.45593999997E+02  0.45594000000E+02  0.51100000000E-03 0.  1.
         23    2    1    2    0    0  0.00000000000E+00  0.00000000000E+00  0.00000000000E+00  0.91188000000E+02  0.91188000000E+02 0.  0.
    9900012    2    3    3    0    0  0.58581550353E+01 -0.76466782063E+01  0.44003679535E+02  0.46142317847E+02  0.10000000780E+02 0.  0.
        -12    1    3    3    0    0 -0.58581550353E+01  0.76466782063E+01 -0.44003679535E+02  0.45045682153E+02  0.00000000000E+00 0.  1.
         11    1    4    4    0    0  0.79288628052E+01 -0.44945006250E+01  0.29012974902E+02  0.30410855203E+02  0.51100000000E-03 0. -1.
        -11    1    4    4    0    0 -0.10189905795E+01  0.32495331308E+00  0.24076525134E+01  0.26345260187E+01  0.51100000000E-03 0.  1.
         12    1    4    4    0    0 -0.10517171904E+01 -0.34771308945E+01  0.12583052120E+02  0.13096936625E+02  0.00000000000E+00 0. -1.
</event>
<event>
 8    1  0.9117959E-009  0.9118800E+02  0.7816164E-02  0.1184000E+00
        -11   -1    0    0    0    0  0.00000000000E+00  0.00000000000E+00  0.45593999997E+02  0.45594000000E+02  0.51100000000E-03 0. -1.
         11   -1    0    0    0    0 -0.00000000000E+00 -0.00000000000E+00 -0.45593999997E+02  0.45594000000E+02  0.51100000000E-03 0.  1.
         23    2    1    2    0    0  0.35527136788E-14  0.00000000000E+00 -0.35527136788E-14  0.91188000000E+02  0.91188000000E+02 0.  0.
    9900012    2    3    3    0    0  0.31028237531E+02  0.11779414873E+02 -0.30456643276E+02  0.46142320311E+02  0.10000023248E+02 0.  0.
         12    1    3    3    0    0 -0.31028237531E+02 -0.11779414873E+02  0.30456643276E+02  0.45045679689E+02  0.00000000000E+00 0. -1.
         11    1    4    4    0    0  0.72523190498E+01  0.35234910360E+01 -0.78103767783E+01  0.11225555949E+02  0.51100000000E-03 0. -1.
        -11    1    4    4    0    0  0.19981358154E+02  0.99912108486E+01 -0.19930065011E+02  0.29938043682E+02  0.51100000000E-03 0.  1.
         12    1    4    4    0    0  0.37945603271E+01 -0.17352870116E+01 -0.27162014876E+01  0.49787206801E+01  0.00000000000E+00 0. -1.
</event>
<event>
 8    1  0.9117959E-009  0.9118800E+02  0.7816164E-02  0.1184000E+00
        -11   -1    0    0    0    0  0.00000000000E+00  0.00000000000E+00  0.45593999997E+02  0.45594000000E+02  0.51100000000E-03 0. -1.
         11   -1    0    0    0    0 -0.00000000000E+00 -0.00000000000E+00 -0.45593999997E+02  0.45594000000E+02  0.51100000000E-03 0.  1.
         23    2    1    2    0    0  0.00000000000E+00  0.00000000000E+00  0.00000000000E+00  0.91188000000E+02  0.91188000000E+02 0.  0.
    9900012    2    3    3    0    0 -0.17250075846E+01 -0.68561144407E+01 -0.44487431132E+02  0.46142317798E+02  0.10000000333E+02 0.  0.
         12    1    3    3    0    0  0.17250075846E+01  0.68561144407E+01  0.44487431132E+02  0.45045682202E+02  0.00000000000E+00 0. -1.
         11    1    4    4    0    0  0.44989319398E-01 -0.28306359997E+01 -0.47845413568E+01  0.55593489239E+01  0.51100000000E-03 0. -1.
        -11    1    4    4    0    0  0.70248253953E+00 -0.52887143834E+01 -0.30751217588E+02  0.31210596997E+02  0.51100000000E-03 0.  1.
         12    1    4    4    0    0 -0.24724794435E+01  0.12632359424E+01 -0.89516721871E+01  0.93723718764E+01  0.00000000000E+00 0. -1.
</event>
<event>
 8    1  0.9117959E-009  0.9118800E+02  0.7816164E-02  0.1184000E+00
        -11   -1    0    0    0    0  0.00000000000E+00  0.00000000000E+00  0.45593999997E+02  0.45594000000E+02  0.51100000000E-03 0. -1.
         11   -1    0    0    0    0 -0.00000000000E+00 -0.00000000000E+00 -0.45593999997E+02  0.45594000000E+02  0.51100000000E-03 0.  1.
         23    2    1    2    0    0  0.35527136788E-14  0.17763568394E-14  0.71054273576E-14  0.91188000000E+02  0.91188000000E+02 0.  0.
    9900012    2    3    3    0    0 -0.20203761421E+02 -0.10625100027E+02 -0.38833346460E+02  0.46142317372E+02  0.99999964556E+01 0.  0.
         12    1    3    3    0    0  0.20203761421E+02  0.10625100027E+02  0.38833346460E+02  0.45045682628E+02  0.00000000000E+00 0. -1.
         11    1    4    4    0    0 -0.15132350378E+01 -0.18006973024E+01 -0.28047877624E+01  0.36604952817E+01  0.51100000000E-03 0. -1.
        -11    1    4    4    0    0 -0.94235628747E+01 -0.30234982641E+01 -0.92050363824E+01  0.13515834198E+02  0.51100000000E-03 0.  1.
        -12    1    4    4    0    0 -0.92669635083E+01 -0.58009044606E+01 -0.26823522315E+02  0.28965987893E+02  0.00000000000E+00 0.  1.
</event>
<event>
 8    1  0.9117959E-009  0.9118800E+02  0.7816164E-02  0.1184000E+00
        -11   -1    0    0    0    0  0.00000000000E+00  0.00000000000E+00  0.45593999997E+02  0.45594000000E+02  0.51100000000E-03 0. -1.
         11   -1    0    0    0    0 -0.00000000000E+00 -0.00000000000E+00 -0.45593999997E+02  0.45594000000E+02  0.51100000000E-03 0.  1.
         23    2    1    2    0    0  0.00000000000E+00  0.00000000000E+00  0.00000000000E+00  0.91188000000E+02  0.91188000000E+02 0.  0.
    9900012    2    3    3    0    0  0.38872355952E+02  0.15080655454E+02 -0.17047793668E+02  0.46142317686E+02  0.99999993139E+01 0.  0.
         12    1    3    3    0    0 -0.38872355952E+02 -0.15080655454E+02  0.17047793668E+02  0.45045682314E+02  0.00000000000E+00 0. -1.
         11    1    4    4    0    0  0.86680327572E+01  0.52140406221E+00 -0.54453313324E+01  0.10249794518E+02  0.51100000000E-03 0. -1.
        -11    1    4    4    0    0  0.25280047277E+02  0.12280458508E+02 -0.11755333886E+02  0.30464377993E+02  0.51100000000E-03 0.  1.
         12    1    4    4    0    0  0.49242759182E+01  0.22787928844E+01  0.15287155078E+00  0.54281451748E+01  0.00000000000E+00 0. -1.
</event>
<event>
 8    1  0.9117959E-009  0.9118800E+02  0.7816164E-02  0.1184000E+00
        -11   -1    0    0    0    0  0.00000000000E+00  0.00000000000E+00  0.45593999997E+02  0.45594000000E+02  0.51100000000E-03 0. -1.
         11   -1    0    0    0    0 -0.00000000000E+00 -0.00000000000E+00 -0.45593999997E+02  0.45594000000E+02  0.51100000000E-03 0.  1.
         23    2    1    2    0    0  0.00000000000E+00  0.00000000000E+00  0.00000000000E+00  0.91188000000E+02  0.91188000000E+02 0.  0.
    9900012    2    3    3    0    0 -0.36863708905E+01 -0.33476189482E+02 -0.29914367937E+02  0.46142312064E+02  0.99999480504E+01 0.  0.
         12    1    3    3    0    0  0.36863708905E+01  0.33476189482E+02  0.29914367937E+02  0.45045687936E+02  0.00000000000E+00 0. -1.
         11    1    4    4    0    0  0.15278509533E+01 -0.15024708837E+01 -0.31818204497E+01  0.38361085656E+01  0.51100000000E-03 0. -1.
        -11    1    4    4    0    0 -0.32270502264E+01 -0.15939507332E+02 -0.10239184327E+02  0.19217768942E+02  0.51100000000E-03 0.  1.
        -12    1    4    4    0    0 -0.19871716174E+01 -0.16034211266E+02 -0.16493363160E+02  0.23088434557E+02  0.00000000000E+00 0.  1.
</event>
<event>
 8    1  0.9117959E-009  0.9118800E+02  0.7816164E-02  0.1184000E+00
        -11   -1    0    0    0    0  0.00000000000E+00  0.00000000000E+00  0.45593999997E+02  0.45594000000E+02  0.51100000000E-03 0. -1.
         11   -1    0    0    0    0 -0.00000000000E+00 -0.00000000000E+00 -0.45593999997E+02  0.45594000000E+02  0.51100000000E-03 0.  1.
         23    2    1    2    0    0  0.00000000000E+00 -0.88817841970E-15  0.00000000000E+00  0.91188000000E+02  0.91188000000E+02 0.  0.
    9900012    2    3    3    0    0 -0.11578123009E+02 -0.76492901577E+01 -0.42854975571E+02  0.46142317593E+02  0.99999984628E+01 0.  0.
         12    1    3    3    0    0  0.11578123009E+02  0.76492901577E+01  0.42854975571E+02  0.45045682407E+02  0.00000000000E+00 0. -1.
         11    1    4    4    0    0 -0.35241600348E+00 -0.18353510415E+01 -0.14596090528E+01  0.23713222753E+01  0.51100000000E-03 0. -1.
        -11    1    4    4    0    0 -0.90282318054E+01 -0.62869909290E+01 -0.26287209469E+02  0.28496536744E+02  0.51100000000E-03 0.  1.
         12    1    4    4    0    0 -0.21974752002E+01  0.47305181282E+00 -0.15108157049E+02  0.15274458573E+02  0.00000000000E+00 0. -1.
</event>
<event>
 8    1  0.9117959E-009  0.9118800E+02  0.7816164E-02  0.1184000E+00
        -11   -1    0    0    0    0  0.00000000000E+00  0.00000000000E+00  0.45593999997E+02  0.45594000000E+02  0.51100000000E-03 0.  1.
         11   -1    0    0    0    0 -0.00000000000E+00 -0.00000000000E+00 -0.45593999997E+02  0.45594000000E+02  0.51100000000E-03 0. -1.
         23    2    1    2    0    0  0.00000000000E+00  0.00000000000E+00  0.00000000000E+00  0.91188000000E+02  0.91188000000E+02 0.  0.
    9900012    2    3    3    0    0  0.16093028330E+02  0.21008064758E+02 -0.36452557409E+02  0.46142319992E+02  0.10000020341E+02 0.  0.
         12    1    3    3    0    0 -0.16093028330E+02 -0.21008064758E+02  0.36452557409E+02  0.45045680008E+02  0.00000000000E+00 0. -1.
         11    1    4    4    0    0 -0.29519553485E+00  0.79851770654E+00 -0.12309364564E+00  0.86018790864E+00  0.51100000000E-03 0. -1.
        -11    1    4    4    0    0  0.65281099544E+01  0.46218070157E+01 -0.15626815729E+02  0.17554905005E+02  0.51100000000E-03 0.  1.
        -12    1    4    4    0    0  0.98601139104E+01  0.15587740036E+02 -0.20702648035E+02  0.27727227078E+02  0.00000000000E+00 0.  1.
</event>
<event>
 8    1  0.9117959E-009  0.9118800E+02  0.7816164E-02  0.1184000E+00
        -11   -1    0    0    0    0  0.00000000000E+00  0.00000000000E+00  0.45593999997E+02  0.45594000000E+02  0.51100000000E-03 0. -1.
         11   -1    0    0    0    0 -0.00000000000E+00 -0.00000000000E+00 -0.45593999997E+02  0.45594000000E+02  0.51100000000E-03 0.  1.
         23    2    1    2    0    0  0.00000000000E+00  0.00000000000E+00  0.35527136788E-14  0.91188000000E+02  0.91188000000E+02 0.  0.
    9900012    2    3    3    0    0  0.21178143039E+02 -0.31716164034E+02 -0.23972580826E+02  0.46142318353E+02  0.10000005394E+02 0.  0.
         12    1    3    3    0    0 -0.21178143039E+02  0.31716164034E+02  0.23972580826E+02  0.45045681647E+02  0.00000000000E+00 0. -1.
         11    1    4    4    0    0  0.85757479054E+01 -0.12385680488E+02 -0.74568984714E+01  0.16809338725E+02  0.51100000000E-03 0.  1.
        -11    1    4    4    0    0 -0.99984665961E+00 -0.16944230448E+01 -0.12393859036E+01  0.23252613781E+01  0.51100000000E-03 0. -1.
         12    1    4    4    0    0  0.13602241793E+02 -0.17636060501E+02 -0.15276296451E+02  0.27007718250E+02  0.00000000000E+00 0. -1.
</event>
<event>
 8    1  0.9117959E-009  0.9118800E+02  0.7816164E-02  0.1184000E+00
        -11   -1    0    0    0    0  0.00000000000E+00  0.00000000000E+00  0.45593999997E+02  0.45594000000E+02  0.51100000000E-03 0. -1.
         11   -1    0    0    0    0 -0.00000000000E+00 -0.00000000000E+00 -0.45593999997E+02  0.45594000000E+02  0.51100000000E-03 0.  1.
         23    2    1    2    0    0  0.00000000000E+00  0.00000000000E+00  0.00000000000E+00  0.91188000000E+02  0.91188000000E+02 0.  0.
    9900012    2    3    3    0    0  0.35747149508E+02 -0.18587102429E+02  0.20143840723E+02  0.46142318812E+02  0.10000009579E+02 0.  0.
        -12    1    3    3    0    0 -0.35747149508E+02  0.18587102429E+02 -0.20143840723E+02  0.45045681188E+02  0.00000000000E+00 0.  1.
         11    1    4    4    0    0  0.14290088575E+02 -0.67956591385E+01  0.11229773841E+02  0.19403490289E+02  0.51100000000E-03 0. -1.
        -11    1    4    4    0    0  0.11985220283E+02 -0.33373235412E+01  0.54220762674E+01  0.13571372258E+02  0.51100000000E-03 0.  1.
         12    1    4    4    0    0  0.94718406499E+01 -0.84541197496E+01  0.34919906146E+01  0.13167456265E+02  0.00000000000E+00 0. -1.
</event>
<event>
 8    1  0.9117959E-009  0.9118800E+02  0.7816164E-02  0.1184000E+00
        -11   -1    0    0    0    0  0.00000000000E+00  0.00000000000E+00  0.45593999997E+02  0.45594000000E+02  0.51100000000E-03 0. -1.
         11   -1    0    0    0    0 -0.00000000000E+00 -0.00000000000E+00 -0.45593999997E+02  0.45594000000E+02  0.51100000000E-03 0.  1.
         23    2    1    2    0    0  0.00000000000E+00  0.00000000000E+00  0.17763568394E-14  0.91188000000E+02  0.91188000000E+02 0.  0.
    9900012    2    3    3    0    0  0.21103557523E+02 -0.36583927943E+02  0.15664275871E+02  0.46142318049E+02  0.10000002626E+02 0.  0.
        -12    1    3    3    0    0 -0.21103557523E+02  0.36583927943E+02 -0.15664275871E+02  0.45045681951E+02  0.00000000000E+00 0.  1.
         11    1    4    4    0    0  0.62778279284E+01 -0.16399314165E+02  0.54413259726E+01  0.18383597504E+02  0.51100000000E-03 0. -1.
        -11    1    4    4    0    0  0.87222744381E+01 -0.12371809055E+02  0.28496580732E+01  0.15403255567E+02  0.51100000000E-03 0.  1.
        -12    1    4    4    0    0  0.61034551568E+01 -0.78128047224E+01  0.73732918250E+01  0.12355464978E+02  0.00000000000E+00 0.  1.
</event>
<event>
 8    1  0.9325690E-009  0.9118800E+02  0.7816164E-02  0.1184000E+00
        -11   -1    0    0    0    0  0.00000000000E+00  0.00000000000E+00  0.45593999997E+02  0.45594000000E+02  0.51100000000E-03 0. -1.
         11   -1    0    0    0    0 -0.00000000000E+00 -0.00000000000E+00 -0.45593999997E+02  0.45594000000E+02  0.51100000000E-03 0.  1.
         23    2    1    2    0    0 -0.17763568394E-14  0.00000000000E+00 -0.35527136788E-14  0.91188000000E+02  0.91188000000E+02 0.  0.
    9900012    2    3    3    0    0  0.71317545662E+01 -0.37917584813E+02  0.23248826577E+02  0.46142322090E+02  0.10000039471E+02 0.  0.
        -12    1    3    3    0    0 -0.71317545662E+01  0.37917584813E+02 -0.23248826577E+02  0.45045677910E+02  0.00000000000E+00 0.  1.
         11    1    4    4    0    0 -0.13704428247E+00  0.35135323312E+00  0.19566228898E+00  0.42486965322E+00  0.51100000000E-03 0. -1.
        -11    1    4    4    0    0 -0.87681157560E+00 -0.67935183991E+01  0.27179691335E+01  0.73693993819E+01  0.51100000000E-03 0.  1.
         12    1    4    4    0    0  0.81456104242E+01 -0.31475419647E+02  0.20335195154E+02  0.38348053055E+02  0.00000000000E+00 0. -1.
</event>
<event>
 8    1  0.9117959E-009  0.9118800E+02  0.7816164E-02  0.1184000E+00
        -11   -1    0    0    0    0  0.00000000000E+00  0.00000000000E+00  0.45593999997E+02  0.45594000000E+02  0.51100000000E-03 0.  1.
         11   -1    0    0    0    0 -0.00000000000E+00 -0.00000000000E+00 -0.45593999997E+02  0.45594000000E+02  0.51100000000E-03 0. -1.
         23    2    1    2    0    0  0.00000000000E+00 -0.71054273576E-14  0.00000000000E+00  0.91188000000E+02  0.91188000000E+02 0.  0.
    9900012    2    3    3    0    0  0.25793517191E+02 -0.36769654652E+02  0.34350542169E+01  0.46142327292E+02  0.10000086906E+02 0.  0.
        -12    1    3    3    0    0 -0.25793517191E+02  0.36769654652E+02 -0.34350542169E+01  0.45045672708E+02  0.00000000000E+00 0.  1.
         11    1    4    4    0    0  0.38659650551E+01 -0.39596841207E+01  0.13626577702E+01  0.56992649178E+01  0.51100000000E-03 0. -1.
        -11    1    4    4    0    0  0.44442005867E+01 -0.54508364559E+01  0.36749955847E+01  0.79352460411E+01  0.51100000000E-03 0.  1.
         12    1    4    4    0    0  0.17483351549E+02 -0.27359134075E+02 -0.16025991380E+01  0.32507816333E+02  0.00000000000E+00 0. -1.
</event>
<event>
 8    1  0.9117959E-009  0.9118800E+02  0.7816164E-02  0.1184000E+00
        -11   -1    0    0    0    0  0.00000000000E+00  0.00000000000E+00  0.45593999997E+02  0.45594000000E+02  0.51100000000E-03 0. -1.
         11   -1    0    0    0    0 -0.00000000000E+00 -0.00000000000E+00 -0.45593999997E+02  0.45594000000E+02  0.51100000000E-03 0.  1.
         23    2    1    2    0    0  0.00000000000E+00  0.00000000000E+00  0.00000000000E+00  0.91188000000E+02  0.91188000000E+02 0.  0.
    9900012    2    3    3    0    0  0.21689061271E+02 -0.50693178019E+01  0.39153545735E+02  0.46142317572E+02  0.99999982716E+01 0.  0.
        -12    1    3    3    0    0 -0.21689061271E+02  0.50693178019E+01 -0.39153545735E+02  0.45045682428E+02  0.00000000000E+00 0.  1.
         11    1    4    4    0    0  0.60916073779E+01  0.11199158133E+01  0.64025276310E+01  0.89081003701E+01  0.51100000000E-03 0. -1.
        -11    1    4    4    0    0  0.50772159924E+01 -0.45995666687E+01  0.10042144596E+02  0.12156430566E+02  0.51100000000E-03 0.  1.
         12    1    4    4    0    0  0.10520237901E+02 -0.15896669466E+01  0.22708873509E+02  0.25077786635E+02  0.00000000000E+00 0. -1.
</event>
<event>
 8    1  0.9117959E-009  0.9118800E+02  0.7816164E-02  0.1184000E+00
        -11   -1    0    0    0    0  0.00000000000E+00  0.00000000000E+00  0.45593999997E+02  0.45594000000E+02  0.51100000000E-03 0. -1.
         11   -1    0    0    0    0 -0.00000000000E+00 -0.00000000000E+00 -0.45593999997E+02  0.45594000000E+02  0.51100000000E-03 0.  1.
         23    2    1    2    0    0  0.00000000000E+00  0.00000000000E+00  0.71054273576E-14  0.91188000000E+02  0.91188000000E+02 0.  0.
    9900012    2    3    3    0    0  0.42147709141E+01 -0.52879582893E+01  0.44535229742E+02  0.46142317799E+02  0.10000000347E+02 0.  0.
        -12    1    3    3    0    0 -0.42147709141E+01  0.52879582893E+01 -0.44535229742E+02  0.45045682201E+02  0.00000000000E+00 0.  1.
         11    1    4    4    0    0 -0.44559568480E-01  0.52653694592E+00  0.81813080980E+01  0.81983552720E+01  0.51100000000E-03 0. -1.
        -11    1    4    4    0    0  0.51343044189E+01 -0.21414496857E+00  0.15275154778E+02  0.16116367261E+02  0.51100000000E-03 0.  1.
        -12    1    4    4    0    0 -0.87497393634E+00 -0.56003502667E+01  0.21078766867E+02  0.21827595266E+02  0.00000000000E+00 0.  1.
</event>
<event>
 8    1  0.9117959E-009  0.9118800E+02  0.7816164E-02  0.1184000E+00
        -11   -1    0    0    0    0  0.00000000000E+00  0.00000000000E+00  0.45593999997E+02  0.45594000000E+02  0.51100000000E-03 0. -1.
         11   -1    0    0    0    0 -0.00000000000E+00 -0.00000000000E+00 -0.45593999997E+02  0.45594000000E+02  0.51100000000E-03 0.  1.
         23    2    1    2    0    0 -0.17763568394E-14 -0.22204460493E-15  0.14210854715E-13  0.91188000000E+02  0.91188000000E+02 0.  0.
    9900012    2    3    3    0    0  0.87685067131E+01  0.12484977876E+01 -0.44166368000E+02  0.46142317421E+02  0.99999969010E+01 0.  0.
         12    1    3    3    0    0 -0.87685067131E+01 -0.12484977876E+01  0.44166368000E+02  0.45045682579E+02  0.00000000000E+00 0. -1.
         11    1    4    4    0    0  0.54432575129E+00  0.19686239591E+00 -0.14419636930E+01  0.15538033593E+01  0.51100000000E-03 0. -1.
        -11    1    4    4    0    0  0.93729963108E+01  0.14613077918E+01 -0.42213346524E+02  0.43266096489E+02  0.51100000000E-03 0.  1.
         12    1    4    4    0    0 -0.11488153490E+01 -0.40967240012E+00 -0.51105778228E+00  0.13224175734E+01  0.00000000000E+00 0. -1.
</event>
<event>
 8    1  0.9117959E-009  0.9118800E+02  0.7816164E-02  0.1184000E+00
        -11   -1    0    0    0    0  0.00000000000E+00  0.00000000000E+00  0.45593999997E+02  0.45594000000E+02  0.51100000000E-03 0. -1.
         11   -1    0    0    0    0 -0.00000000000E+00 -0.00000000000E+00 -0.45593999997E+02  0.45594000000E+02  0.51100000000E-03 0.  1.
         23    2    1    2    0    0  0.00000000000E+00  0.00000000000E+00  0.00000000000E+00  0.91188000000E+02  0.91188000000E+02 0.  0.
    9900012    2    3    3    0    0 -0.15711495282E+01  0.33021753556E+02  0.30597526490E+02  0.46142319341E+02  0.10000014407E+02 0.  0.
        -12    1    3    3    0    0  0.15711495282E+01 -0.33021753556E+02 -0.30597526490E+02  0.45045680659E+02  0.00000000000E+00 0.  1.
         11    1    4    4    0    0 -0.20321126764E+01  0.11309426898E+02  0.11770909799E+02  0.16449526937E+02  0.51100000000E-03 0. -1.
        -11    1    4    4    0    0 -0.13756489360E+01  0.55301241635E+01  0.90585225549E+01  0.10701939749E+02  0.51100000000E-03 0.  1.
        -12    1    4    4    0    0  0.18366120842E+01  0.16182202494E+02  0.97680941364E+01  0.18990852655E+02  0.00000000000E+00 0.  1.
</event>
<event>
 8    1  0.9117959E-009  0.9118800E+02  0.7816164E-02  0.1184000E+00
        -11   -1    0    0    0    0  0.00000000000E+00  0.00000000000E+00  0.45593999997E+02  0.45594000000E+02  0.51100000000E-03 0.  1.
         11   -1    0    0    0    0 -0.00000000000E+00 -0.00000000000E+00 -0.45593999997E+02  0.45594000000E+02  0.51100000000E-03 0. -1.
         23    2    1    2    0    0 -0.71054273576E-14  0.88817841970E-15  0.35527136788E-14  0.91188000000E+02  0.91188000000E+02 0.  0.
    9900012    2    3    3    0    0  0.41082189403E+02  0.66922326690E+01  0.17221536001E+02  0.46142316894E+02  0.99999920918E+01 0.  0.
        -12    1    3    3    0    0 -0.41082189403E+02 -0.66922326690E+01 -0.17221536001E+02  0.45045683106E+02  0.00000000000E+00 0.  1.
         11    1    4    4    0    0  0.28784584091E+02  0.37750274594E+01  0.10778115833E+02  0.30967255203E+02  0.51100000000E-03 0. -1.
        -11    1    4    4    0    0  0.18830722369E+01 -0.12761478770E+01  0.93488058673E-01  0.22766762466E+01  0.51100000000E-03 0.  1.
        -12    1    4    4    0    0  0.10414533075E+02  0.41933530867E+01  0.63499321091E+01  0.12898385445E+02  0.00000000000E+00 0.  1.
</event>
<event>
 8    1  0.9117959E-009  0.9118800E+02  0.7816164E-02  0.1184000E+00
        -11   -1    0    0    0    0  0.00000000000E+00  0.00000000000E+00  0.45593999997E+02  0.45594000000E+02  0.51100000000E-03 0. -1.
         11   -1    0    0    0    0 -0.00000000000E+00 -0.00000000000E+00 -0.45593999997E+02  0.45594000000E+02  0.51100000000E-03 0.  1.
         23    2    1    2    0    0  0.00000000000E+00  0.00000000000E+00  0.00000000000E+00  0.91188000000E+02  0.91188000000E+02 0.  0.
    9900012    2    3    3    0    0  0.36007742549E+02 -0.12952499043E+02 -0.23765284369E+02  0.46142317676E+02  0.99999992198E+01 0.  0.
         12    1    3    3    0    0 -0.36007742549E+02  0.12952499043E+02  0.23765284369E+02  0.45045682324E+02  0.00000000000E+00 0. -1.
         11    1    4    4    0    0  0.10774156754E+02 -0.19240408273E+01 -0.23905459871E+01  0.11202637959E+02  0.51100000000E-03 0. -1.
        -11    1    4    4    0    0  0.15864705127E+01 -0.12098596028E+01 -0.20540250404E+01  0.28635062552E+01  0.51100000000E-03 0.  1.
         12    1    4    4    0    0  0.23647115283E+02 -0.98185986132E+01 -0.19320713341E+02  0.32076173462E+02  0.00000000000E+00 0. -1.
</event>
<event>
 8    1  0.9117959E-009  0.9118800E+02  0.7816164E-02  0.1184000E+00
        -11   -1    0    0    0    0  0.00000000000E+00  0.00000000000E+00  0.45593999997E+02  0.45594000000E+02  0.51100000000E-03 0. -1.
         11   -1    0    0    0    0 -0.00000000000E+00 -0.00000000000E+00 -0.45593999997E+02  0.45594000000E+02  0.51100000000E-03 0.  1.
         23    2    1    2    0    0  0.00000000000E+00 -0.88817841970E-15  0.00000000000E+00  0.91188000000E+02  0.91188000000E+02 0.  0.
    9900012    2    3    3    0    0  0.32768111281E+02 -0.55350198575E+01  0.30409340860E+02  0.46142316818E+02  0.99999914041E+01 0.  0.
        -12    1    3    3    0    0 -0.32768111281E+02  0.55350198575E+01 -0.30409340860E+02  0.45045683182E+02  0.00000000000E+00 0.  1.
         11    1    4    4    0    0  0.95926852099E+01  0.41336312684E+00  0.10236678345E+02  0.14034958583E+02  0.51100000000E-03 0. -1.
        -11    1    4    4    0    0  0.77608123756E+01  0.13230103351E+01  0.53362730310E+01  0.95108556502E+01  0.51100000000E-03 0.  1.
         12    1    4    4    0    0  0.15414613695E+02 -0.72713933194E+01  0.14836389484E+02  0.22596502586E+02  0.00000000000E+00 0. -1.
</event>
<event>
 8    1  0.9117959E-009  0.9118800E+02  0.7816164E-02  0.1184000E+00
        -11   -1    0    0    0    0  0.00000000000E+00  0.00000000000E+00  0.45593999997E+02  0.45594000000E+02  0.51100000000E-03 0. -1.
         11   -1    0    0    0    0 -0.00000000000E+00 -0.00000000000E+00 -0.45593999997E+02  0.45594000000E+02  0.51100000000E-03 0.  1.
         23    2    1    2    0    0  0.88817841970E-15 -0.17763568394E-14 -0.71054273576E-14  0.91188000000E+02  0.91188000000E+02 0.  0.
    9900012    2    3    3    0    0  0.49153826678E+01 -0.10815271589E+02 -0.43450921775E+02  0.46142315530E+02  0.99999796552E+01 0.  0.
         12    1    3    3    0    0 -0.49153826678E+01  0.10815271589E+02  0.43450921775E+02  0.45045684470E+02  0.00000000000E+00 0. -1.
         11    1    4    4    0    0  0.68704286464E+00  0.11848375405E+00 -0.80293521582E+00  0.10633774117E+01  0.51100000000E-03 0. -1.
        -11    1    4    4    0    0  0.56708098913E+01 -0.49443162867E+01 -0.31024587452E+02  0.31923805776E+02  0.51100000000E-03 0.  1.
         12    1    4    4    0    0 -0.14424700881E+01 -0.59894390559E+01 -0.11623399106E+02  0.13155132342E+02  0.00000000000E+00 0. -1.
</event>
<event>
 8    1  0.9117959E-009  0.9118800E+02  0.7816164E-02  0.1184000E+00
        -11   -1    0    0    0    0  0.00000000000E+00  0.00000000000E+00  0.45593999997E+02  0.45594000000E+02  0.51100000000E-03 0. -1.
         11   -1    0    0    0    0 -0.00000000000E+00 -0.00000000000E+00 -0.45593999997E+02  0.45594000000E+02  0.51100000000E-03 0.  1.
         23    2    1    2    0    0  0.00000000000E+00 -0.44408920985E-15  0.00000000000E+00  0.91188000000E+02  0.91188000000E+02 0.  0.
    9900012    2    3    3    0    0 -0.39110937175E+02 -0.39048084464E+01 -0.22004556298E+02  0.46142318369E+02  0.10000005546E+02 0.  0.
         12    1    3    3    0    0  0.39110937175E+02  0.39048084464E+01  0.22004556298E+02  0.45045681631E+02  0.00000000000E+00 0. -1.
         11    1    4    4    0    0 -0.21014004214E+01 -0.54200854032E+00  0.45156497682E+00  0.22166569825E+01  0.51100000000E-03 0. -1.
        -11    1    4    4    0    0 -0.21644671845E+02 -0.35848889122E+01 -0.98466874866E+01  0.24047879377E+02  0.51100000000E-03 0.  1.
        -12    1    4    4    0    0 -0.15364864908E+02  0.22208900613E+00 -0.12609433788E+02  0.19877782010E+02  0.00000000000E+00 0.  1.
</event>
<event>
 8    1  0.9117959E-009  0.9118800E+02  0.7816164E-02  0.1184000E+00
        -11   -1    0    0    0    0  0.00000000000E+00  0.00000000000E+00  0.45593999997E+02  0.45594000000E+02  0.51100000000E-03 0. -1.
         11   -1    0    0    0    0 -0.00000000000E+00 -0.00000000000E+00 -0.45593999997E+02  0.45594000000E+02  0.51100000000E-03 0.  1.
         23    2    1    2    0    0  0.17763568394E-14  0.00000000000E+00 -0.35527136788E-14  0.91188000000E+02  0.91188000000E+02 0.  0.
    9900012    2    3    3    0    0 -0.14437485672E+02  0.36689103616E+02  0.21784887589E+02  0.46142327134E+02  0.10000085467E+02 0.  0.
        -12    1    3    3    0    0  0.14437485672E+02 -0.36689103616E+02 -0.21784887589E+02  0.45045672866E+02  0.00000000000E+00 0.  1.
         11    1    4    4    0    0 -0.41020914007E+01  0.19818104625E+02  0.12373266861E+02  0.23720922365E+02  0.51100000000E-03 0. -1.
        -11    1    4    4    0    0 -0.44574667449E+01  0.97800920137E+01  0.72382897860E+01  0.12958088164E+02  0.51100000000E-03 0.  1.
        -12    1    4    4    0    0 -0.58779275268E+01  0.70909069781E+01  0.21733309422E+01  0.94633166050E+01  0.00000000000E+00 0.  1.
</event>
<event>
 8    1  0.9117959E-009  0.9118800E+02  0.7816164E-02  0.1184000E+00
        -11   -1    0    0    0    0  0.00000000000E+00  0.00000000000E+00  0.45593999997E+02  0.45594000000E+02  0.51100000000E-03 0.  1.
         11   -1    0    0    0    0 -0.00000000000E+00 -0.00000000000E+00 -0.45593999997E+02  0.45594000000E+02  0.51100000000E-03 0. -1.
         23    2    1    2    0    0  0.00000000000E+00  0.71054273576E-14  0.00000000000E+00  0.91188000000E+02  0.91188000000E+02 0.  0.
    9900012    2    3    3    0    0 -0.72786903736E+01  0.44431967846E+02  0.13908536776E+01  0.46142316808E+02  0.99999913110E+01 0.  0.
        -12    1    3    3    0    0  0.72786903736E+01 -0.44431967846E+02 -0.13908536776E+01  0.45045683192E+02  0.00000000000E+00 0.  1.
         11    1    4    4    0    0 -0.48918274758E+01  0.23781424971E+02 -0.27462663756E+01  0.24434159060E+02  0.51100000000E-03 0. -1.
        -11    1    4    4    0    0 -0.27029095652E+01  0.69939660576E+01  0.23600933795E+00  0.75017985844E+01  0.51100000000E-03 0.  1.
         12    1    4    4    0    0  0.31604666752E+00  0.13656576818E+02  0.39011107153E+01  0.14206359164E+02  0.00000000000E+00 0. -1.
</event>
<event>
 8    1  0.9117959E-009  0.9118800E+02  0.7816164E-02  0.1184000E+00
        -11   -1    0    0    0    0  0.00000000000E+00  0.00000000000E+00  0.45593999997E+02  0.45594000000E+02  0.51100000000E-03 0. -1.
         11   -1    0    0    0    0 -0.00000000000E+00 -0.00000000000E+00 -0.45593999997E+02  0.45594000000E+02  0.51100000000E-03 0.  1.
         23    2    1    2    0    0  0.00000000000E+00  0.00000000000E+00  0.71054273576E-14  0.91188000000E+02  0.91188000000E+02 0.  0.
    9900012    2    3    3    0    0  0.21819363582E+02 -0.23782805009E+02  0.31423034699E+02  0.46142317067E+02  0.99999936672E+01 0.  0.
        -12    1    3    3    0    0 -0.21819363582E+02  0.23782805009E+02 -0.31423034699E+02  0.45045682933E+02  0.00000000000E+00 0.  1.
         11    1    4    4    0    0  0.81598604674E+01 -0.10534577986E+02  0.12234784134E+02  0.18090069078E+02  0.51100000000E-03 0. -1.
        -11    1    4    4    0    0  0.10231046189E+02 -0.13300735321E+02  0.14107466031E+02  0.21922692907E+02  0.51100000000E-03 0.  1.
         12    1    4    4    0    0  0.34284569255E+01  0.52508298484E-01  0.50807845346E+01  0.61295550816E+01  0.00000000000E+00 0. -1.
</event>
<event>
 8    1  0.9117959E-009  0.9118800E+02  0.7816164E-02  0.1184000E+00
        -11   -1    0    0    0    0  0.00000000000E+00  0.00000000000E+00  0.45593999997E+02  0.45594000000E+02  0.51100000000E-03 0. -1.
         11   -1    0    0    0    0 -0.00000000000E+00 -0.00000000000E+00 -0.45593999997E+02  0.45594000000E+02  0.51100000000E-03 0.  1.
         23    2    1    2    0    0  0.00000000000E+00  0.00000000000E+00  0.00000000000E+00  0.91188000000E+02  0.91188000000E+02 0.  0.
    9900012    2    3    3    0    0  0.11208167605E+01 -0.35001219713E+02 -0.28333229489E+02  0.46142317578E+02  0.99999983314E+01 0.  0.
         12    1    3    3    0    0 -0.11208167605E+01  0.35001219713E+02  0.28333229489E+02  0.45045682422E+02  0.00000000000E+00 0. -1.
         11    1    4    4    0    0 -0.28462317496E+01 -0.10713292695E+02 -0.10336200662E+02  0.15156276586E+02  0.51100000000E-03 0. -1.
        -11    1    4    4    0    0  0.42012647937E+01 -0.12994442960E+02 -0.12087487709E+02  0.18237695389E+02  0.51100000000E-03 0.  1.
         12    1    4    4    0    0 -0.23421628360E+00 -0.11293484057E+02 -0.59095411177E+01  0.12748345604E+02  0.00000000000E+00 0. -1.
</event>
<event>
 8    1  0.9117959E-009  0.9118800E+02  0.7816164E-02  0.1184000E+00
        -11   -1    0    0    0    0  0.00000000000E+00  0.00000000000E+00  0.45593999997E+02  0.45594000000E+02  0.51100000000E-03 0. -1.
         11   -1    0    0    0    0 -0.00000000000E+00 -0.00000000000E+00 -0.45593999997E+02  0.45594000000E+02  0.51100000000E-03 0.  1.
         23    2    1    2    0    0  0.00000000000E+00  0.88817841970E-15  0.00000000000E+00  0.91188000000E+02  0.91188000000E+02 0.  0.
    9900012    2    3    3    0    0  0.22027794042E+02  0.39356385148E+01  0.39094762473E+02  0.46142318590E+02  0.10000007559E+02 0.  0.
        -12    1    3    3    0    0 -0.22027794042E+02 -0.39356385148E+01 -0.39094762473E+02  0.45045681410E+02  0.00000000000E+00 0.  1.
         11    1    4    4    0    0  0.51141655262E+01  0.15190655515E+01  0.11469243264E+02  0.12649339527E+02  0.51100000000E-03 0. -1.
        -11    1    4    4    0    0  0.10086192480E+02  0.39758860308E+01  0.10962161666E+02  0.15417779902E+02  0.51100000000E-03 0.  1.
         12    1    4    4    0    0  0.68274360367E+01 -0.15593130676E+01  0.16663357543E+02  0.18075199160E+02  0.00000000000E+00 0. -1.
</event>
<event>
 8    1  0.9117959E-009  0.9118800E+02  0.7816164E-02  0.1184000E+00
        -11   -1    0    0    0    0  0.00000000000E+00  0.00000000000E+00  0.45593999997E+02  0.45594000000E+02  0.51100000000E-03 0. -1.
         11   -1    0    0    0    0 -0.00000000000E+00 -0.00000000000E+00 -0.45593999997E+02  0.45594000000E+02  0.51100000000E-03 0.  1.
         23    2    1    2    0    0  0.71054273576E-14  0.88817841970E-15  0.00000000000E+00  0.91188000000E+02  0.91188000000E+02 0.  0.
    9900012    2    3    3    0    0 -0.44669781125E+02 -0.51421277353E+01 -0.26986416003E+01  0.46142317744E+02  0.99999998442E+01 0.  0.
         12    1    3    3    0    0  0.44669781125E+02  0.51421277353E+01  0.26986416003E+01  0.45045682256E+02  0.00000000000E+00 0. -1.
         11    1    4    4    0    0 -0.28542887050E+02 -0.36995742865E+01 -0.44447009532E+01  0.29122819539E+02  0.51100000000E-03 0.  1.
        -11    1    4    4    0    0 -0.11091479298E+02 -0.32842525324E+01  0.12563587360E+01  0.11635534593E+02  0.51100000000E-03 0. -1.
        -12    1    4    4    0    0 -0.50354147764E+01  0.18416990837E+01  0.48970061692E+00  0.53839636124E+01  0.00000000000E+00 0.  1.
</event>
<event>
 8    1  0.9117959E-009  0.9118800E+02  0.7816164E-02  0.1184000E+00
        -11   -1    0    0    0    0  0.00000000000E+00  0.00000000000E+00  0.45593999997E+02  0.45594000000E+02  0.51100000000E-03 0. -1.
         11   -1    0    0    0    0 -0.00000000000E+00 -0.00000000000E+00 -0.45593999997E+02  0.45594000000E+02  0.51100000000E-03 0.  1.
         23    2    1    2    0    0  0.35527136788E-14  0.00000000000E+00 -0.71054273576E-14  0.91188000000E+02  0.91188000000E+02 0.  0.
    9900012    2    3    3    0    0  0.18655346701E+02 -0.21221100409E+02 -0.35082138028E+02  0.46142317946E+02  0.10000001687E+02 0.  0.
         12    1    3    3    0    0 -0.18655346701E+02  0.21221100409E+02  0.35082138028E+02  0.45045682054E+02  0.00000000000E+00 0. -1.
         11    1    4    4    0    0  0.47152511732E+01 -0.63583950427E+01 -0.48447046572E+01  0.92808374957E+01  0.51100000000E-03 0. -1.
        -11    1    4    4    0    0  0.16467022477E+01 -0.20092754537E+01 -0.13245354967E+01  0.29160265232E+01  0.51100000000E-03 0.  1.
        -12    1    4    4    0    0  0.12293393280E+02 -0.12853429913E+02 -0.28912897874E+02  0.33945453927E+02  0.00000000000E+00 0.  1.
</event>
<event>
 8    1  0.9117959E-009  0.9118800E+02  0.7816164E-02  0.1184000E+00
        -11   -1    0    0    0    0  0.00000000000E+00  0.00000000000E+00  0.45593999997E+02  0.45594000000E+02  0.51100000000E-03 0. -1.
         11   -1    0    0    0    0 -0.00000000000E+00 -0.00000000000E+00 -0.45593999997E+02  0.45594000000E+02  0.51100000000E-03 0.  1.
         23    2    1    2    0    0  0.00000000000E+00  0.71054273576E-14  0.00000000000E+00  0.91188000000E+02  0.91188000000E+02 0.  0.
    9900012    2    3    3    0    0 -0.17708487606E+02  0.35003651096E+02 -0.22141986531E+02  0.46142315513E+02  0.99999795025E+01 0.  0.
         12    1    3    3    0    0  0.17708487606E+02 -0.35003651096E+02  0.22141986531E+02  0.45045684487E+02  0.00000000000E+00 0. -1.
         11    1    4    4    0    0 -0.18469456116E+01  0.16154558337E+01 -0.24223038182E+01  0.34479648623E+01  0.51100000000E-03 0. -1.
        -11    1    4    4    0    0  0.40518541224E-01  0.72177191669E+01 -0.31413943542E+01  0.78718149416E+01  0.51100000000E-03 0.  1.
         12    1    4    4    0    0 -0.15902060535E+02  0.26170476095E+02 -0.16578288359E+02  0.34822535709E+02  0.00000000000E+00 0. -1.
</event>
<event>
 8    1  0.9117959E-009  0.9118800E+02  0.7816164E-02  0.1184000E+00
        -11   -1    0    0    0    0  0.00000000000E+00  0.00000000000E+00  0.45593999997E+02  0.45594000000E+02  0.51100000000E-03 0. -1.
         11   -1    0    0    0    0 -0.00000000000E+00 -0.00000000000E+00 -0.45593999997E+02  0.45594000000E+02  0.51100000000E-03 0.  1.
         23    2    1    2    0    0  0.44408920985E-15  0.35527136788E-14  0.00000000000E+00  0.91188000000E+02  0.91188000000E+02 0.  0.
    9900012    2    3    3    0    0 -0.27895979257E+01  0.27124784929E+02 -0.35854957478E+02  0.46142314415E+02  0.99999694908E+01 0.  0.
         12    1    3    3    0    0  0.27895979257E+01 -0.27124784929E+02  0.35854957478E+02  0.45045685585E+02  0.00000000000E+00 0. -1.
         11    1    4    4    0    0 -0.16702045615E+01  0.12201641373E+01 -0.20568990617E+01  0.29170563605E+01  0.51100000000E-03 0. -1.
        -11    1    4    4    0    0  0.13740692871E+01  0.47154377441E+01 -0.10745356119E+02  0.11814656064E+02  0.51100000000E-03 0.  1.
        -12    1    4    4    0    0 -0.24934626513E+01  0.21189183048E+02 -0.23052702297E+02  0.31410601991E+02  0.00000000000E+00 0.  1.
</event>
<event>
 8    1  0.9117959E-009  0.9118800E+02  0.7816164E-02  0.1184000E+00
        -11   -1    0    0    0    0  0.00000000000E+00  0.00000000000E+00  0.45593999997E+02  0.45594000000E+02  0.51100000000E-03 0. -1.
         11   -1    0    0    0    0 -0.00000000000E+00 -0.00000000000E+00 -0.45593999997E+02  0.45594000000E+02  0.51100000000E-03 0.  1.
         23    2    1    2    0    0  0.00000000000E+00  0.00000000000E+00  0.00000000000E+00  0.91188000000E+02  0.91188000000E+02 0.  0.
    9900012    2    3    3    0    0 -0.20225813697E+02  0.52045741194E+01 -0.39911681864E+02  0.46142317847E+02  0.10000000782E+02 0.  0.
         12    1    3    3    0    0  0.20225813697E+02 -0.52045741194E+01  0.39911681864E+02  0.45045682153E+02  0.00000000000E+00 0. -1.
         11    1    4    4    0    0 -0.67669730492E+01  0.12184464263E+00 -0.19921932291E+02  0.21040203346E+02  0.51100000000E-03 0. -1.
        -11    1    4    4    0    0 -0.58621058233E+01  0.32137945696E+00 -0.10614868238E+02  0.12130251334E+02  0.51100000000E-03 0.  1.
        -12    1    4    4    0    0 -0.75967348241E+01  0.47613500198E+01 -0.93748813343E+01  0.12971863167E+02  0.00000000000E+00 0.  1.
</event>
<event>
 8    1  0.9117959E-009  0.9118800E+02  0.7816164E-02  0.1184000E+00
        -11   -1    0    0    0    0  0.00000000000E+00  0.00000000000E+00  0.45593999997E+02  0.45594000000E+02  0.51100000000E-03 0. -1.
         11   -1    0    0    0    0 -0.00000000000E+00 -0.00000000000E+00 -0.45593999997E+02  0.45594000000E+02  0.51100000000E-03 0.  1.
         23    2    1    2    0    0  0.00000000000E+00  0.00000000000E+00  0.00000000000E+00  0.91188000000E+02  0.91188000000E+02 0.  0.
    9900012    2    3    3    0    0  0.41136727332E+02 -0.11928331381E+02  0.13949841770E+02  0.46142317515E+02  0.99999977536E+01 0.  0.
        -12    1    3    3    0    0 -0.41136727332E+02  0.11928331381E+02 -0.13949841770E+02  0.45045682485E+02  0.00000000000E+00 0.  1.
         11    1    4    4    0    0  0.24429058139E+02 -0.89200128187E+01  0.71778739880E+01  0.26979017505E+02  0.51100000000E-03 0. -1.
        -11    1    4    4    0    0  0.13351400619E+02 -0.40494854662E+01  0.70617024354E+01  0.15637323063E+02  0.51100000000E-03 0.  1.
        -12    1    4    4    0    0  0.33562685738E+01  0.10411669041E+01 -0.28973465318E+00  0.35259769470E+01  0.00000000000E+00 0.  1.
</event>
<event>
 8    1  0.9117959E-009  0.9118800E+02  0.7816164E-02  0.1184000E+00
        -11   -1    0    0    0    0  0.00000000000E+00  0.00000000000E+00  0.45593999997E+02  0.45594000000E+02  0.51100000000E-03 0. -1.
         11   -1    0    0    0    0 -0.00000000000E+00 -0.00000000000E+00 -0.45593999997E+02  0.45594000000E+02  0.51100000000E-03 0.  1.
         23    2    1    2    0    0  0.35527136788E-14  0.00000000000E+00  0.00000000000E+00  0.91188000000E+02  0.91188000000E+02 0.  0.
    9900012    2    3    3    0    0  0.29232945478E+02  0.18500921964E+02  0.28848990008E+02  0.46142318305E+02  0.10000004963E+02 0.  0.
        -12    1    3    3    0    0 -0.29232945478E+02 -0.18500921964E+02 -0.28848990008E+02  0.45045681695E+02  0.00000000000E+00 0.  1.
         11    1    4    4    0    0  0.45001841530E+01  0.36216359930E+01  0.40424281386E+01  0.70504702108E+01  0.51100000000E-03 0. -1.
        -11    1    4    4    0    0  0.19816117305E+02  0.87036366200E+01  0.21581752974E+02  0.30564748603E+02  0.51100000000E-03 0.  1.
        -12    1    4    4    0    0  0.49166440203E+01  0.61756493513E+01  0.32248088951E+01  0.85270994917E+01  0.00000000000E+00 0.  1.
</event>
<event>
 8    1  0.9117959E-009  0.9118800E+02  0.7816164E-02  0.1184000E+00
        -11   -1    0    0    0    0  0.00000000000E+00  0.00000000000E+00  0.45593999997E+02  0.45594000000E+02  0.51100000000E-03 0. -1.
         11   -1    0    0    0    0 -0.00000000000E+00 -0.00000000000E+00 -0.45593999997E+02  0.45594000000E+02  0.51100000000E-03 0.  1.
         23    2    1    2    0    0  0.00000000000E+00  0.00000000000E+00  0.00000000000E+00  0.91188000000E+02  0.91188000000E+02 0.  0.
    9900012    2    3    3    0    0  0.11278846527E+02 -0.17486622896E+02 -0.39951458020E+02  0.46142319217E+02  0.10000013278E+02 0.  0.
         12    1    3    3    0    0 -0.11278846527E+02  0.17486622896E+02  0.39951458020E+02  0.45045680783E+02  0.00000000000E+00 0. -1.
         11    1    4    4    0    0  0.73295296181E+00 -0.69249493837E+01 -0.91655047894E+01  0.11510804590E+02  0.51100000000E-03 0. -1.
        -11    1    4    4    0    0  0.75034496024E+01 -0.45972315460E+01 -0.13724943120E+02  0.16303691537E+02  0.51100000000E-03 0.  1.
        -12    1    4    4    0    0  0.30424439626E+01 -0.59644419663E+01 -0.17061010110E+02  0.18327823090E+02  0.00000000000E+00 0.  1.
</event>
<event>
 8    1  0.9117959E-009  0.9118800E+02  0.7816164E-02  0.1184000E+00
        -11   -1    0    0    0    0  0.00000000000E+00  0.00000000000E+00  0.45593999997E+02  0.45594000000E+02  0.51100000000E-03 0. -1.
         11   -1    0    0    0    0 -0.00000000000E+00 -0.00000000000E+00 -0.45593999997E+02  0.45594000000E+02  0.51100000000E-03 0.  1.
         23    2    1    2    0    0  0.00000000000E+00  0.00000000000E+00  0.00000000000E+00  0.91188000000E+02  0.91188000000E+02 0.  0.
    9900012    2    3    3    0    0 -0.42528099734E+02  0.47075304863E+01  0.14082379779E+02  0.46142317293E+02  0.99999957349E+01 0.  0.
         12    1    3    3    0    0  0.42528099734E+02 -0.47075304863E+01 -0.14082379779E+02  0.45045682707E+02  0.00000000000E+00 0. -1.
         11    1    4    4    0    0 -0.11745702149E+02  0.30316736988E+01  0.69230807457E-01  0.12130843234E+02  0.51100000000E-03 0. -1.
        -11    1    4    4    0    0 -0.96280822387E+01  0.33627467014E+00  0.28052976801E+01  0.10034079110E+02  0.51100000000E-03 0.  1.
         12    1    4    4    0    0 -0.21154315346E+02  0.13395821174E+01  0.11207851291E+02  0.23977394950E+02  0.00000000000E+00 0. -1.
</event>
<event>
 8    1  0.9117959E-009  0.9118800E+02  0.7816164E-02  0.1184000E+00
        -11   -1    0    0    0    0  0.00000000000E+00  0.00000000000E+00  0.45593999997E+02  0.45594000000E+02  0.51100000000E-03 0. -1.
         11   -1    0    0    0    0 -0.00000000000E+00 -0.00000000000E+00 -0.45593999997E+02  0.45594000000E+02  0.51100000000E-03 0.  1.
         23    2    1    2    0    0  0.00000000000E+00  0.00000000000E+00  0.00000000000E+00  0.91188000000E+02  0.91188000000E+02 0.  0.
    9900012    2    3    3    0    0 -0.79282176422E+01  0.31800507001E+02  0.30902824226E+02  0.46142318457E+02  0.10000006347E+02 0.  0.
        -12    1    3    3    0    0  0.79282176422E+01 -0.31800507001E+02 -0.30902824226E+02  0.45045681543E+02  0.00000000000E+00 0.  1.
         11    1    4    4    0    0 -0.13013196814E+01  0.31733030233E+01  0.56723099087E+01  0.66286035446E+01  0.51100000000E-03 0. -1.
        -11    1    4    4    0    0  0.14929959624E+01  0.43361628400E+01  0.22727503661E+01  0.51182750616E+01  0.51100000000E-03 0.  1.
        -12    1    4    4    0    0 -0.81198939232E+01  0.24291041138E+02  0.22957763951E+02  0.34395439851E+02  0.00000000000E+00 0.  1.
</event>
<event>
 8    1  0.9117959E-009  0.9118800E+02  0.7816164E-02  0.1184000E+00
        -11   -1    0    0    0    0  0.00000000000E+00  0.00000000000E+00  0.45593999997E+02  0.45594000000E+02  0.51100000000E-03 0.  1.
         11   -1    0    0    0    0 -0.00000000000E+00 -0.00000000000E+00 -0.45593999997E+02  0.45594000000E+02  0.51100000000E-03 0. -1.
         23    2    1    2    0    0  0.00000000000E+00 -0.17763568394E-14 -0.17763568394E-14  0.91188000000E+02  0.91188000000E+02 0.  0.
    9900012    2    3    3    0    0 -0.42477662562E+02  0.96712904585E+01  0.11455481775E+02  0.46142314984E+02  0.99999746759E+01 0.  0.
         12    1    3    3    0    0  0.42477662562E+02 -0.96712904585E+01 -0.11455481775E+02  0.45045685016E+02  0.00000000000E+00 0. -1.
         11    1    4    4    0    0 -0.12160381247E+02  0.44110066098E+01  0.60727730545E+01  0.14290221279E+02  0.51100000000E-03 0.  1.
        -11    1    4    4    0    0 -0.26626394783E+02  0.27275717584E+01  0.56950549984E+01  0.27364908158E+02  0.51100000000E-03 0. -1.
         12    1    4    4    0    0 -0.36908865328E+01  0.25327120903E+01 -0.31234627830E+00  0.44871855464E+01  0.00000000000E+00 0. -1.
</event>
<event>
 8    1  0.9117959E-009  0.9118800E+02  0.7816164E-02  0.1184000E+00
        -11   -1    0    0    0    0  0.00000000000E+00  0.00000000000E+00  0.45593999997E+02  0.45594000000E+02  0.51100000000E-03 0. -1.
         11   -1    0    0    0    0 -0.00000000000E+00 -0.00000000000E+00 -0.45593999997E+02  0.45594000000E+02  0.51100000000E-03 0.  1.
         23    2    1    2    0    0  0.00000000000E+00  0.00000000000E+00  0.00000000000E+00  0.91188000000E+02  0.91188000000E+02 0.  0.
    9900012    2    3    3    0    0  0.19132551266E+02  0.45461942557E+01  0.40526424165E+02  0.46142318123E+02  0.10000003303E+02 0.  0.
        -12    1    3    3    0    0 -0.19132551266E+02 -0.45461942557E+01 -0.40526424165E+02  0.45045681877E+02  0.00000000000E+00 0.  1.
         11    1    4    4    0    0  0.10414259468E+02  0.45413896180E+01  0.19365550836E+02  0.22452295637E+02  0.51100000000E-03 0. -1.
        -11    1    4    4    0    0  0.33419995469E+01 -0.32247183197E+00  0.22865043699E+01  0.40621486369E+01  0.51100000000E-03 0.  1.
         12    1    4    4    0    0  0.53762922511E+01  0.32727646972E+00  0.18874368958E+02  0.19627873849E+02  0.00000000000E+00 0. -1.
</event>
<event>
 8    1  0.9117959E-009  0.9118800E+02  0.7816164E-02  0.1184000E+00
        -11   -1    0    0    0    0  0.00000000000E+00  0.00000000000E+00  0.45593999997E+02  0.45594000000E+02  0.51100000000E-03 0. -1.
         11   -1    0    0    0    0 -0.00000000000E+00 -0.00000000000E+00 -0.45593999997E+02  0.45594000000E+02  0.51100000000E-03 0.  1.
         23    2    1    2    0    0  0.00000000000E+00  0.00000000000E+00  0.66613381478E-15  0.91188000000E+02  0.91188000000E+02 0.  0.
    9900012    2    3    3    0    0 -0.16758929017E+02 -0.41799847041E+02  0.10123132584E+01  0.46142315495E+02  0.99999793348E+01 0.  0.
         12    1    3    3    0    0  0.16758929017E+02  0.41799847041E+02 -0.10123132584E+01  0.45045684505E+02  0.00000000000E+00 0. -1.
         11    1    4    4    0    0 -0.36032995370E+00 -0.19227865594E+01 -0.19323181351E+00  0.19657783760E+01  0.51100000000E-03 0. -1.
        -11    1    4    4    0    0 -0.50017989439E+01 -0.46343774037E+01 -0.16863581331E+01  0.70241903882E+01  0.51100000000E-03 0.  1.
        -12    1    4    4    0    0 -0.11396800119E+02 -0.35242683077E+02  0.28919032050E+01  0.37152346731E+02  0.00000000000E+00 0.  1.
</event>
<event>
 8    1  0.9117959E-009  0.9118800E+02  0.7816164E-02  0.1184000E+00
        -11   -1    0    0    0    0  0.00000000000E+00  0.00000000000E+00  0.45593999997E+02  0.45594000000E+02  0.51100000000E-03 0. -1.
         11   -1    0    0    0    0 -0.00000000000E+00 -0.00000000000E+00 -0.45593999997E+02  0.45594000000E+02  0.51100000000E-03 0.  1.
         23    2    1    2    0    0  0.00000000000E+00  0.00000000000E+00  0.35527136788E-14  0.91188000000E+02  0.91188000000E+02 0.  0.
    9900012    2    3    3    0    0  0.27962658549E+02  0.15410546257E+02 -0.31776065573E+02  0.46142317051E+02  0.99999935225E+01 0.  0.
         12    1    3    3    0    0 -0.27962658549E+02 -0.15410546257E+02  0.31776065573E+02  0.45045682949E+02  0.00000000000E+00 0. -1.
         11    1    4    4    0    0  0.18305090412E+01  0.18130939442E+00 -0.36371362211E+01  0.40758307863E+01  0.51100000000E-03 0.  1.
        -11    1    4    4    0    0 -0.12155060722E+00 -0.59056136355E+00 -0.37527424800E+00  0.71018891612E+00  0.51100000000E-03 0. -1.
        -12    1    4    4    0    0  0.26253700115E+02  0.15819798226E+02 -0.27763655104E+02  0.41356297348E+02  0.00000000000E+00 0.  1.
</event>
<event>
 8    1  0.9117959E-009  0.9118800E+02  0.7816164E-02  0.1184000E+00
        -11   -1    0    0    0    0  0.00000000000E+00  0.00000000000E+00  0.45593999997E+02  0.45594000000E+02  0.51100000000E-03 0. -1.
         11   -1    0    0    0    0 -0.00000000000E+00 -0.00000000000E+00 -0.45593999997E+02  0.45594000000E+02  0.51100000000E-03 0.  1.
         23    2    1    2    0    0 -0.27755575616E-16  0.00000000000E+00 -0.71054273576E-14  0.91188000000E+02  0.91188000000E+02 0.  0.
    9900012    2    3    3    0    0 -0.24864901886E+00 -0.10398781520E+02 -0.43828267069E+02  0.46142317879E+02  0.10000001077E+02 0.  0.
         12    1    3    3    0    0  0.24864901886E+00  0.10398781520E+02  0.43828267069E+02  0.45045682121E+02  0.00000000000E+00 0. -1.
         11    1    4    4    0    0  0.13347207419E+01 -0.31439270992E+01 -0.21699993245E+02  0.21967145107E+02  0.51100000000E-03 0. -1.
        -11    1    4    4    0    0  0.14760437269E+00 -0.72257567578E+01 -0.12906144353E+02  0.14791954235E+02  0.51100000000E-03 0.  1.
        -12    1    4    4    0    0 -0.17309741335E+01 -0.29097662940E-01 -0.92221294719E+01  0.93832185374E+01  0.00000000000E+00 0.  1.
</event>
<event>
 8    1  0.9117959E-009  0.9118800E+02  0.7816164E-02  0.1184000E+00
        -11   -1    0    0    0    0  0.00000000000E+00  0.00000000000E+00  0.45593999997E+02  0.45594000000E+02  0.51100000000E-03 0. -1.
         11   -1    0    0    0    0 -0.00000000000E+00 -0.00000000000E+00 -0.45593999997E+02  0.45594000000E+02  0.51100000000E-03 0.  1.
         23    2    1    2    0    0 -0.17763568394E-14  0.35527136788E-14  0.35527136788E-14  0.91188000000E+02  0.91188000000E+02 0.  0.
    9900012    2    3    3    0    0 -0.14755053160E+02 -0.30519306178E+02 -0.29664354294E+02  0.46142316977E+02  0.99999928515E+01 0.  0.
         12    1    3    3    0    0  0.14755053160E+02  0.30519306178E+02  0.29664354294E+02  0.45045683023E+02  0.00000000000E+00 0. -1.
         11    1    4    4    0    0 -0.88667914544E+01 -0.14629882629E+02 -0.20454111099E+02  0.26665035487E+02  0.51100000000E-03 0. -1.
        -11    1    4    4    0    0 -0.10536579263E+01 -0.13503021769E+01 -0.17021973385E+01  0.24147436789E+01  0.51100000000E-03 0.  1.
        -12    1    4    4    0    0 -0.48346037797E+01 -0.14539121372E+02 -0.75080458563E+01  0.17062537811E+02  0.00000000000E+00 0.  1.
</event>
<event>
 8    1  0.9117959E-009  0.9118800E+02  0.7816164E-02  0.1184000E+00
        -11   -1    0    0    0    0  0.00000000000E+00  0.00000000000E+00  0.45593999997E+02  0.45594000000E+02  0.51100000000E-03 0.  1.
         11   -1    0    0    0    0 -0.00000000000E+00 -0.00000000000E+00 -0.45593999997E+02  0.45594000000E+02  0.51100000000E-03 0. -1.
         23    2    1    2    0    0 -0.35527136788E-14  0.35527136788E-14  0.00000000000E+00  0.91188000000E+02  0.91188000000E+02 0.  0.
    9900012    2    3    3    0    0 -0.22548865625E+02  0.31866455146E+02  0.22476456477E+02  0.46142318739E+02  0.10000008917E+02 0.  0.
        -12    1    3    3    0    0  0.22548865625E+02 -0.31866455146E+02 -0.22476456477E+02  0.45045681261E+02  0.00000000000E+00 0.  1.
         11    1    4    4    0    0 -0.25423208102E+01  0.51268512611E+01  0.17800466221E+01  0.59930430662E+01  0.51100000000E-03 0. -1.
        -11    1    4    4    0    0 -0.38821246338E+01  0.11481492299E+01  0.14631521517E+01  0.43046431684E+01  0.51100000000E-03 0.  1.
        -12    1    4    4    0    0 -0.16124420181E+02  0.25591454655E+02  0.19233257703E+02  0.35844632504E+02  0.00000000000E+00 0.  1.
</event>
<event>
 8    1  0.9117959E-009  0.9118800E+02  0.7816164E-02  0.1184000E+00
        -11   -1    0    0    0    0  0.00000000000E+00  0.00000000000E+00  0.45593999997E+02  0.45594000000E+02  0.51100000000E-03 0. -1.
         11   -1    0    0    0    0 -0.00000000000E+00 -0.00000000000E+00 -0.45593999997E+02  0.45594000000E+02  0.51100000000E-03 0.  1.
         23    2    1    2    0    0  0.00000000000E+00  0.00000000000E+00  0.35527136788E-14  0.91188000000E+02  0.91188000000E+02 0.  0.
    9900012    2    3    3    0    0 -0.32489442526E+02 -0.13919397415E+02 -0.27924896531E+02  0.46142319338E+02  0.10000014379E+02 0.  0.
         12    1    3    3    0    0  0.32489442526E+02  0.13919397415E+02  0.27924896531E+02  0.45045680662E+02  0.00000000000E+00 0. -1.
         11    1    4    4    0    0 -0.31911068276E+01 -0.20525373697E+01 -0.37092062005E+01  0.53060610002E+01  0.51100000000E-03 0. -1.
        -11    1    4    4    0    0 -0.24007647924E+02 -0.75482026647E+01 -0.14770575703E+02  0.29180685892E+02  0.51100000000E-03 0.  1.
        -12    1    4    4    0    0 -0.52906877747E+01 -0.43186573805E+01 -0.94451146276E+01  0.11655572445E+02  0.00000000000E+00 0.  1.
</event>
<event>
 8    1  0.9117959E-009  0.9118800E+02  0.7816164E-02  0.1184000E+00
        -11   -1    0    0    0    0  0.00000000000E+00  0.00000000000E+00  0.45593999997E+02  0.45594000000E+02  0.51100000000E-03 0. -1.
         11   -1    0    0    0    0 -0.00000000000E+00 -0.00000000000E+00 -0.45593999997E+02  0.45594000000E+02  0.51100000000E-03 0.  1.
         23    2    1    2    0    0  0.00000000000E+00  0.00000000000E+00  0.00000000000E+00  0.91188000000E+02  0.91188000000E+02 0.  0.
    9900012    2    3    3    0    0  0.21891021895E+02 -0.26660252418E+02 -0.28967704840E+02  0.46142314055E+02  0.99999662022E+01 0.  0.
         12    1    3    3    0    0 -0.21891021895E+02  0.26660252418E+02  0.28967704840E+02  0.45045685945E+02  0.00000000000E+00 0. -1.
         11    1    4    4    0    0  0.15013150807E+02 -0.19052684237E+02 -0.18610607387E+02  0.30573749874E+02  0.51100000000E-03 0. -1.
        -11    1    4    4    0    0  0.72404011599E+01 -0.61819066734E+01 -0.67428540118E+01  0.11666424455E+02  0.51100000000E-03 0.  1.
         12    1    4    4    0    0 -0.36253007229E+00 -0.14256615076E+01 -0.36142434412E+01  0.39021397258E+01  0.00000000000E+00 0. -1.
</event>
<event>
 8    1  0.9117959E-009  0.9118800E+02  0.7816164E-02  0.1184000E+00
        -11   -1    0    0    0    0  0.00000000000E+00  0.00000000000E+00  0.45593999997E+02  0.45594000000E+02  0.51100000000E-03 0. -1.
         11   -1    0    0    0    0 -0.00000000000E+00 -0.00000000000E+00 -0.45593999997E+02  0.45594000000E+02  0.51100000000E-03 0.  1.
         23    2    1    2    0    0  0.00000000000E+00  0.00000000000E+00  0.00000000000E+00  0.91188000000E+02  0.91188000000E+02 0.  0.
    9900012    2    3    3    0    0 -0.83191321011E+01 -0.24798487185E+02 -0.36673430845E+02  0.46142318126E+02  0.10000003325E+02 0.  0.
         12    1    3    3    0    0  0.83191321011E+01  0.24798487185E+02  0.36673430845E+02  0.45045681874E+02  0.00000000000E+00 0. -1.
         11    1    4    4    0    0 -0.30834962056E+01 -0.10337849022E+02 -0.18486456143E+02  0.21403927963E+02  0.51100000000E-03 0. -1.
        -11    1    4    4    0    0 -0.35687006451E+01 -0.12981523298E+02 -0.18033269927E+02  0.22504541674E+02  0.51100000000E-03 0.  1.
         12    1    4    4    0    0 -0.16669352503E+01 -0.14791148653E+01 -0.15370477460E+00  0.22338484889E+01  0.00000000000E+00 0. -1.
</event>
<event>
 8    1  0.9117959E-009  0.9118800E+02  0.7816164E-02  0.1184000E+00
        -11   -1    0    0    0    0  0.00000000000E+00  0.00000000000E+00  0.45593999997E+02  0.45594000000E+02  0.51100000000E-03 0. -1.
         11   -1    0    0    0    0 -0.00000000000E+00 -0.00000000000E+00 -0.45593999997E+02  0.45594000000E+02  0.51100000000E-03 0.  1.
         23    2    1    2    0    0  0.71054273576E-14 -0.17763568394E-14  0.00000000000E+00  0.91188000000E+02  0.91188000000E+02 0.  0.
    9900012    2    3    3    0    0  0.18350814578E+02 -0.83089303501E+01 -0.40290477288E+02  0.46142320081E+02  0.10000021157E+02 0.  0.
         12    1    3    3    0    0 -0.18350814578E+02  0.83089303501E+01  0.40290477288E+02  0.45045679919E+02  0.00000000000E+00 0. -1.
         11    1    4    4    0    0  0.38519245363E+00 -0.96006508018E+00 -0.54431706062E+01  0.55405960594E+01  0.51100000000E-03 0. -1.
        -11    1    4    4    0    0  0.87921937461E+01 -0.61214786284E+01 -0.24376749467E+02  0.26627074310E+02  0.51100000000E-03 0.  1.
         12    1    4    4    0    0  0.91734283781E+01 -0.12273866415E+01 -0.10470557215E+02  0.13974649712E+02  0.00000000000E+00 0. -1.
</event>
<event>
 8    1  0.9117959E-009  0.9118800E+02  0.7816164E-02  0.1184000E+00
        -11   -1    0    0    0    0  0.00000000000E+00  0.00000000000E+00  0.45593999997E+02  0.45594000000E+02  0.51100000000E-03 0.  1.
         11   -1    0    0    0    0 -0.00000000000E+00 -0.00000000000E+00 -0.45593999997E+02  0.45594000000E+02  0.51100000000E-03 0. -1.
         23    2    1    2    0    0 -0.71054273576E-14  0.00000000000E+00  0.00000000000E+00  0.91188000000E+02  0.91188000000E+02 0.  0.
    9900012    2    3    3    0    0 -0.37602753240E+02 -0.21485801335E+02  0.12389777351E+02  0.46142319929E+02  0.10000019767E+02 0.  0.
        -12    1    3    3    0    0  0.37602753240E+02  0.21485801335E+02 -0.12389777351E+02  0.45045680071E+02  0.00000000000E+00 0.  1.
         11    1    4    4    0    0 -0.24539331035E+02 -0.11977888012E+02  0.80390868034E+01  0.28465338322E+02  0.51100000000E-03 0. -1.
        -11    1    4    4    0    0 -0.72278141335E+01 -0.41172898650E+01 -0.56051084902E+00  0.83371185463E+01  0.51100000000E-03 0.  1.
        -12    1    4    4    0    0 -0.58356080714E+01 -0.53906234586E+01  0.49112013969E+01  0.93398630609E+01  0.00000000000E+00 0.  1.
</event>
<event>
 8    1  0.9117959E-009  0.9118800E+02  0.7816164E-02  0.1184000E+00
        -11   -1    0    0    0    0  0.00000000000E+00  0.00000000000E+00  0.45593999997E+02  0.45594000000E+02  0.51100000000E-03 0. -1.
         11   -1    0    0    0    0 -0.00000000000E+00 -0.00000000000E+00 -0.45593999997E+02  0.45594000000E+02  0.51100000000E-03 0.  1.
         23    2    1    2    0    0  0.00000000000E+00  0.17763568394E-14 -0.14210854715E-13  0.91188000000E+02  0.91188000000E+02 0.  0.
    9900012    2    3    3    0    0 -0.59316029819E+01 -0.10794297332E+02  0.43329121370E+02  0.46142317327E+02  0.99999960376E+01 0.  0.
        -12    1    3    3    0    0  0.59316029819E+01  0.10794297332E+02 -0.43329121370E+02  0.45045682673E+02  0.00000000000E+00 0.  1.
         11    1    4    4    0    0  0.10405371832E+01 -0.29742959768E+01  0.69013836264E+01  0.75867153899E+01  0.51100000000E-03 0. -1.
        -11    1    4    4    0    0 -0.34387483597E+01 -0.44572941508E+01  0.84351697824E+01  0.10141230248E+02  0.51100000000E-03 0.  1.
         12    1    4    4    0    0 -0.35333918055E+01 -0.33627072044E+01  0.27992567961E+02  0.28414371688E+02  0.00000000000E+00 0. -1.
</event>
<event>
 8    1  0.9394939E-009  0.9118800E+02  0.7816164E-02  0.1184000E+00
        -11   -1    0    0    0    0  0.00000000000E+00  0.00000000000E+00  0.45593999997E+02  0.45594000000E+02  0.51100000000E-03 0. -1.
         11   -1    0    0    0    0 -0.00000000000E+00 -0.00000000000E+00 -0.45593999997E+02  0.45594000000E+02  0.51100000000E-03 0.  1.
         23    2    1    2    0    0  0.00000000000E+00  0.00000000000E+00  0.00000000000E+00  0.91188000000E+02  0.91188000000E+02 0.  0.
    9900012    2    3    3    0    0  0.13966855471E+02  0.27564181909E+02  0.32775849910E+02  0.46142317483E+02  0.99999974674E+01 0.  0.
        -12    1    3    3    0    0 -0.13966855471E+02 -0.27564181909E+02 -0.32775849910E+02  0.45045682517E+02  0.00000000000E+00 0.  1.
         11    1    4    4    0    0  0.45443912622E+01  0.10896610762E+02  0.82476125138E+01  0.14401761368E+02  0.51100000000E-03 0. -1.
        -11    1    4    4    0    0  0.11931483753E+00 -0.54836992735E+00  0.90551101984E+00  0.10653150125E+01  0.51100000000E-03 0.  1.
         12    1    4    4    0    0  0.93031493714E+01  0.17215941074E+02  0.23622726377E+02  0.30675241103E+02  0.00000000000E+00 0. -1.
</event>
<event>
 8    1  0.1004261E-008  0.9118800E+02  0.7816164E-02  0.1184000E+00
        -11   -1    0    0    0    0  0.00000000000E+00  0.00000000000E+00  0.45593999997E+02  0.45594000000E+02  0.51100000000E-03 0. -1.
         11   -1    0    0    0    0 -0.00000000000E+00 -0.00000000000E+00 -0.45593999997E+02  0.45594000000E+02  0.51100000000E-03 0.  1.
         23    2    1    2    0    0  0.00000000000E+00  0.00000000000E+00  0.00000000000E+00  0.91188000000E+02  0.91188000000E+02 0.  0.
    9900012    2    3    3    0    0 -0.44559166980E+01 -0.53778239393E+01  0.44500981413E+02  0.46142317292E+02  0.99999957215E+01 0.  0.
        -12    1    3    3    0    0  0.44559166980E+01  0.53778239393E+01 -0.44500981413E+02  0.45045682708E+02  0.00000000000E+00 0.  1.
         11    1    4    4    0    0  0.54753276566E+00  0.49292821334E+00  0.46322807901E+01  0.46905006058E+01  0.51100000000E-03 0. -1.
        -11    1    4    4    0    0 -0.32456431552E+01  0.48266299820E+00  0.51050271394E+01  0.60686460942E+01  0.51100000000E-03 0.  1.
         12    1    4    4    0    0 -0.17578063085E+01 -0.63534151509E+01  0.34763673483E+02  0.35383170592E+02  0.00000000000E+00 0. -1.
</event>
<event>
 8    1  0.9117959E-009  0.9118800E+02  0.7816164E-02  0.1184000E+00
        -11   -1    0    0    0    0  0.00000000000E+00  0.00000000000E+00  0.45593999997E+02  0.45594000000E+02  0.51100000000E-03 0.  1.
         11   -1    0    0    0    0 -0.00000000000E+00 -0.00000000000E+00 -0.45593999997E+02  0.45594000000E+02  0.51100000000E-03 0. -1.
         23    2    1    2    0    0 -0.17763568394E-14  0.00000000000E+00 -0.35527136788E-14  0.91188000000E+02  0.91188000000E+02 0.  0.
    9900012    2    3    3    0    0 -0.15671240230E+02  0.37307691524E+02 -0.19790448895E+02  0.46142317803E+02  0.10000000378E+02 0.  0.
         12    1    3    3    0    0  0.15671240230E+02 -0.37307691524E+02  0.19790448895E+02  0.45045682197E+02  0.00000000000E+00 0. -1.
         11    1    4    4    0    0 -0.11066588200E+02  0.20687403672E+02 -0.10698153166E+02  0.25785432447E+02  0.51100000000E-03 0. -1.
        -11    1    4    4    0    0 -0.44063262710E+01  0.15251214456E+02 -0.99440702239E+01  0.18732319303E+02  0.51100000000E-03 0.  1.
         12    1    4    4    0    0 -0.19832575916E+00  0.13690733956E+01  0.85177449452E+00  0.16245660525E+01  0.00000000000E+00 0. -1.
</event>
<event>
 8    1  0.9117959E-009  0.9118800E+02  0.7816164E-02  0.1184000E+00
        -11   -1    0    0    0    0  0.00000000000E+00  0.00000000000E+00  0.45593999997E+02  0.45594000000E+02  0.51100000000E-03 0. -1.
         11   -1    0    0    0    0 -0.00000000000E+00 -0.00000000000E+00 -0.45593999997E+02  0.45594000000E+02  0.51100000000E-03 0.  1.
         23    2    1    2    0    0  0.00000000000E+00  0.00000000000E+00  0.00000000000E+00  0.91188000000E+02  0.91188000000E+02 0.  0.
    9900012    2    3    3    0    0 -0.41712868201E+02  0.12912285544E+02 -0.11064506731E+02  0.46142314294E+02  0.99999683871E+01 0.  0.
         12    1    3    3    0    0  0.41712868201E+02 -0.12912285544E+02  0.11064506731E+02  0.45045685706E+02  0.00000000000E+00 0. -1.
         11    1    4    4    0    0 -0.11149856034E+02  0.60619145457E+01 -0.40350395138E+01  0.13317193461E+02  0.51100000000E-03 0.  1.
        -11    1    4    4    0    0 -0.11458836926E+02  0.51810891975E+01 -0.56684949921E+00  0.12588484722E+02  0.51100000000E-03 0. -1.
         12    1    4    4    0    0 -0.19104175240E+02  0.16692818009E+01 -0.64626177177E+01  0.20236636111E+02  0.00000000000E+00 0. -1.
</event>
<event>
 8    1  0.9117959E-009  0.9118800E+02  0.7816164E-02  0.1184000E+00
        -11   -1    0    0    0    0  0.00000000000E+00  0.00000000000E+00  0.45593999997E+02  0.45594000000E+02  0.51100000000E-03 0. -1.
         11   -1    0    0    0    0 -0.00000000000E+00 -0.00000000000E+00 -0.45593999997E+02  0.45594000000E+02  0.51100000000E-03 0.  1.
         23    2    1    2    0    0  0.00000000000E+00  0.00000000000E+00 -0.11102230246E-15  0.91188000000E+02  0.91188000000E+02 0.  0.
    9900012    2    3    3    0    0 -0.21483903646E+02 -0.39583951869E+02  0.81592130076E+00  0.46142322194E+02  0.10000040420E+02 0.  0.
        -12    1    3    3    0    0  0.21483903646E+02  0.39583951869E+02 -0.81592130076E+00  0.45045677806E+02  0.00000000000E+00 0.  1.
         11    1    4    4    0    0 -0.15863229373E+02 -0.23730765674E+02  0.29360074797E+01  0.28695146381E+02  0.51100000000E-03 0. -1.
        -11    1    4    4    0    0 -0.87908105245E+00 -0.83207384419E+01 -0.36371675142E+00  0.83749484686E+01  0.51100000000E-03 0.  1.
        -12    1    4    4    0    0 -0.47415932210E+01 -0.75324477528E+01 -0.17563694275E+01  0.90722273444E+01  0.00000000000E+00 0.  1.
</event>
<event>
 8    1  0.9117959E-009  0.9118800E+02  0.7816164E-02  0.1184000E+00
        -11   -1    0    0    0    0  0.00000000000E+00  0.00000000000E+00  0.45593999997E+02  0.45594000000E+02  0.51100000000E-03 0.  1.
         11   -1    0    0    0    0 -0.00000000000E+00 -0.00000000000E+00 -0.45593999997E+02  0.45594000000E+02  0.51100000000E-03 0. -1.
         23    2    1    2    0    0  0.00000000000E+00  0.00000000000E+00  0.35527136788E-14  0.91188000000E+02  0.91188000000E+02 0.  0.
    9900012    2    3    3    0    0  0.13152522928E+02 -0.37974415082E+02 -0.20348677656E+02  0.46142314940E+02  0.99999742735E+01 0.  0.
         12    1    3    3    0    0 -0.13152522928E+02  0.37974415082E+02  0.20348677656E+02  0.45045685060E+02  0.00000000000E+00 0. -1.
         11    1    4    4    0    0  0.18794563285E+01 -0.65204201381E+01 -0.62767130469E+01  0.92436660369E+01  0.51100000000E-03 0. -1.
        -11    1    4    4    0    0 -0.43419191119E+00 -0.66134596190E+01 -0.32558911749E+01  0.73842534052E+01  0.51100000000E-03 0.  1.
        -12    1    4    4    0    0  0.11707258511E+02 -0.24840535325E+02 -0.10816073435E+02  0.29514395498E+02  0.00000000000E+00 0.  1.
</event>
<event>
 8    1  0.9117959E-009  0.9118800E+02  0.7816164E-02  0.1184000E+00
        -11   -1    0    0    0    0  0.00000000000E+00  0.00000000000E+00  0.45593999997E+02  0.45594000000E+02  0.51100000000E-03 0. -1.
         11   -1    0    0    0    0 -0.00000000000E+00 -0.00000000000E+00 -0.45593999997E+02  0.45594000000E+02  0.51100000000E-03 0.  1.
         23    2    1    2    0    0  0.88817841970E-15  0.71054273576E-14  0.35527136788E-14  0.91188000000E+02  0.91188000000E+02 0.  0.
    9900012    2    3    3    0    0 -0.68842251169E+01  0.32151727960E+02  0.30789400292E+02  0.46142319445E+02  0.10000015359E+02 0.  0.
        -12    1    3    3    0    0  0.68842251169E+01 -0.32151727960E+02 -0.30789400292E+02  0.45045680555E+02  0.00000000000E+00 0.  1.
         11    1    4    4    0    0  0.37974913008E+00 -0.37770917099E-02  0.70414169729E+00  0.80002466163E+00  0.51100000000E-03 0. -1.
        -11    1    4    4    0    0 -0.39238890446E+01  0.21060224665E+02  0.24288304326E+02  0.32385979921E+02  0.51100000000E-03 0.  1.
         12    1    4    4    0    0 -0.33400852024E+01  0.11095280387E+02  0.57969542687E+01  0.12956314863E+02  0.00000000000E+00 0. -1.
</event>
<event>
 8    1  0.9117959E-009  0.9118800E+02  0.7816164E-02  0.1184000E+00
        -11   -1    0    0    0    0  0.00000000000E+00  0.00000000000E+00  0.45593999997E+02  0.45594000000E+02  0.51100000000E-03 0. -1.
         11   -1    0    0    0    0 -0.00000000000E+00 -0.00000000000E+00 -0.45593999997E+02  0.45594000000E+02  0.51100000000E-03 0.  1.
         23    2    1    2    0    0  0.00000000000E+00  0.71054273576E-14  0.00000000000E+00  0.91188000000E+02  0.91188000000E+02 0.  0.
    9900012    2    3    3    0    0 -0.13128522973E+02  0.34967223090E+02  0.25180322833E+02  0.46142318031E+02  0.10000002464E+02 0.  0.
        -12    1    3    3    0    0  0.13128522973E+02 -0.34967223090E+02 -0.25180322833E+02  0.45045681969E+02  0.00000000000E+00 0.  1.
         11    1    4    4    0    0 -0.57556380101E+01  0.74610050363E+01  0.76226724814E+01  0.12120193937E+02  0.51100000000E-03 0. -1.
        -11    1    4    4    0    0 -0.24381958791E+01  0.28072238519E+01  0.38255690354E+01  0.53348180480E+01  0.51100000000E-03 0.  1.
         12    1    4    4    0    0 -0.49346890840E+01  0.24698994202E+02  0.13732081316E+02  0.28687306046E+02  0.00000000000E+00 0. -1.
</event>
<event>
 8    1  0.9117959E-009  0.9118800E+02  0.7816164E-02  0.1184000E+00
        -11   -1    0    0    0    0  0.00000000000E+00  0.00000000000E+00  0.45593999997E+02  0.45594000000E+02  0.51100000000E-03 0. -1.
         11   -1    0    0    0    0 -0.00000000000E+00 -0.00000000000E+00 -0.45593999997E+02  0.45594000000E+02  0.51100000000E-03 0.  1.
         23    2    1    2    0    0 -0.71054273576E-14  0.00000000000E+00  0.35527136788E-14  0.91188000000E+02  0.91188000000E+02 0.  0.
    9900012    2    3    3    0    0 -0.32734408629E+02  0.15115410411E+02  0.27001784778E+02  0.46142317394E+02  0.99999966566E+01 0.  0.
        -12    1    3    3    0    0  0.32734408629E+02 -0.15115410411E+02 -0.27001784778E+02  0.45045682606E+02  0.00000000000E+00 0.  1.
         11    1    4    4    0    0 -0.16265698995E+02  0.65438708863E+01  0.85179537913E+01  0.19492325336E+02  0.51100000000E-03 0. -1.
        -11    1    4    4    0    0 -0.33219868389E+01  0.41359405652E+01  0.45972310781E+01  0.70196962017E+01  0.51100000000E-03 0.  1.
        -12    1    4    4    0    0 -0.13146722796E+02  0.44355989596E+01  0.13886599909E+02  0.19630295857E+02  0.00000000000E+00 0.  1.
</event>
<event>
 8    1  0.9117959E-009  0.9118800E+02  0.7816164E-02  0.1184000E+00
        -11   -1    0    0    0    0  0.00000000000E+00  0.00000000000E+00  0.45593999997E+02  0.45594000000E+02  0.51100000000E-03 0. -1.
         11   -1    0    0    0    0 -0.00000000000E+00 -0.00000000000E+00 -0.45593999997E+02  0.45594000000E+02  0.51100000000E-03 0.  1.
         23    2    1    2    0    0  0.00000000000E+00  0.00000000000E+00  0.00000000000E+00  0.91188000000E+02  0.91188000000E+02 0.  0.
    9900012    2    3    3    0    0  0.27062523725E+02  0.32131223610E+02  0.16257854483E+02  0.46142317039E+02  0.99999934141E+01 0.  0.
        -12    1    3    3    0    0 -0.27062523725E+02 -0.32131223610E+02 -0.16257854483E+02  0.45045682961E+02  0.00000000000E+00 0.  1.
         11    1    4    4    0    0  0.21643585687E+01  0.61211998050E+01  0.36615708272E+01  0.74539007406E+01  0.51100000000E-03 0. -1.
        -11    1    4    4    0    0  0.22370295674E+02  0.22224776196E+02  0.13022443689E+02  0.34116782459E+02  0.51100000000E-03 0.  1.
        -12    1    4    4    0    0  0.25278694824E+01  0.37852476093E+01 -0.42616003311E+00  0.45716338389E+01  0.00000000000E+00 0.  1.
</event>
<event>
 8    1  0.9117959E-009  0.9118800E+02  0.7816164E-02  0.1184000E+00
        -11   -1    0    0    0    0  0.00000000000E+00  0.00000000000E+00  0.45593999997E+02  0.45594000000E+02  0.51100000000E-03 0. -1.
         11   -1    0    0    0    0 -0.00000000000E+00 -0.00000000000E+00 -0.45593999997E+02  0.45594000000E+02  0.51100000000E-03 0.  1.
         23    2    1    2    0    0  0.71054273576E-14  0.00000000000E+00  0.88817841970E-15  0.91188000000E+02  0.91188000000E+02 0.  0.
    9900012    2    3    3    0    0 -0.32847185971E+02  0.30171510096E+02 -0.63131384833E+01  0.46142319129E+02  0.10000012471E+02 0.  0.
         12    1    3    3    0    0  0.32847185971E+02 -0.30171510096E+02  0.63131384833E+01  0.45045680871E+02  0.00000000000E+00 0. -1.
         11    1    4    4    0    0 -0.21009488777E+02  0.23220637837E+02 -0.42917139560E+01  0.31607205653E+02  0.51100000000E-03 0. -1.
        -11    1    4    4    0    0 -0.92109696541E+01  0.63458637528E+01 -0.32733188477E-01  0.11185393174E+02  0.51100000000E-03 0.  1.
        -12    1    4    4    0    0 -0.26267275397E+01  0.60500850597E+00 -0.19886913389E+01  0.33497203020E+01  0.00000000000E+00 0.  1.
</event>
<event>
 8    1  0.9117959E-009  0.9118800E+02  0.7816164E-02  0.1184000E+00
        -11   -1    0    0    0    0  0.00000000000E+00  0.00000000000E+00  0.45593999997E+02  0.45594000000E+02  0.51100000000E-03 0. -1.
         11   -1    0    0    0    0 -0.00000000000E+00 -0.00000000000E+00 -0.45593999997E+02  0.45594000000E+02  0.51100000000E-03 0.  1.
         23    2    1    2    0    0  0.35527136788E-14  0.35527136788E-14 -0.71054273576E-14  0.91188000000E+02  0.91188000000E+02 0.  0.
    9900012    2    3    3    0    0  0.20790533518E+02  0.23423645522E+02 -0.32375917586E+02  0.46142317709E+02  0.99999995247E+01 0.  0.
         12    1    3    3    0    0 -0.20790533518E+02 -0.23423645522E+02  0.32375917586E+02  0.45045682291E+02  0.00000000000E+00 0. -1.
         11    1    4    4    0    0  0.10677816956E+02  0.11893597538E+02 -0.14154678202E+02  0.21350137063E+02  0.51100000000E-03 0.  1.
        -11    1    4    4    0    0  0.94900423017E+01  0.62391713558E+01 -0.10933024814E+02  0.15764491553E+02  0.51100000000E-03 0. -1.
         12    1    4    4    0    0  0.62267426032E+00  0.52908766288E+01 -0.72882145699E+01  0.90276890926E+01  0.00000000000E+00 0. -1.
</event>
<event>
 8    1  0.9117959E-009  0.9118800E+02  0.7816164E-02  0.1184000E+00
        -11   -1    0    0    0    0  0.00000000000E+00  0.00000000000E+00  0.45593999997E+02  0.45594000000E+02  0.51100000000E-03 0. -1.
         11   -1    0    0    0    0 -0.00000000000E+00 -0.00000000000E+00 -0.45593999997E+02  0.45594000000E+02  0.51100000000E-03 0.  1.
         23    2    1    2    0    0  0.00000000000E+00 -0.35527136788E-14 -0.35527136788E-14  0.91188000000E+02  0.91188000000E+02 0.  0.
    9900012    2    3    3    0    0 -0.15834288348E+02  0.30217761108E+02  0.29415568273E+02  0.46142318402E+02  0.10000005840E+02 0.  0.
        -12    1    3    3    0    0  0.15834288348E+02 -0.30217761108E+02 -0.29415568273E+02  0.45045681598E+02  0.00000000000E+00 0.  1.
         11    1    4    4    0    0 -0.13070673654E+02  0.22816612339E+02  0.20163328464E+02  0.33136084914E+02  0.51100000000E-03 0. -1.
        -11    1    4    4    0    0  0.15708406796E+00  0.25564928259E+00 -0.49113878781E+00  0.57554281344E+00  0.51100000000E-03 0.  1.
         12    1    4    4    0    0 -0.29206987612E+01  0.71454994867E+01  0.97433785963E+01  0.12430690674E+02  0.00000000000E+00 0. -1.
</event>
<event>
 8    1  0.9117959E-009  0.9118800E+02  0.7816164E-02  0.1184000E+00
        -11   -1    0    0    0    0  0.00000000000E+00  0.00000000000E+00  0.45593999997E+02  0.45594000000E+02  0.51100000000E-03 0. -1.
         11   -1    0    0    0    0 -0.00000000000E+00 -0.00000000000E+00 -0.45593999997E+02  0.45594000000E+02  0.51100000000E-03 0.  1.
         23    2    1    2    0    0  0.88817841970E-15 -0.35527136788E-14  0.00000000000E+00  0.91188000000E+02  0.91188000000E+02 0.  0.
    9900012    2    3    3    0    0 -0.54382548466E+01 -0.28780417680E+02  0.34223184881E+02  0.46142318287E+02  0.10000004794E+02 0.  0.
        -12    1    3    3    0    0  0.54382548466E+01  0.28780417680E+02 -0.34223184881E+02  0.45045681713E+02  0.00000000000E+00 0.  1.
         11    1    4    4    0    0  0.47597971271E+00 -0.42589498401E+01  0.27536292673E+01  0.50938870060E+01  0.51100000000E-03 0.  1.
        -11    1    4    4    0    0 -0.16539594541E+01 -0.20127058933E+02  0.23161360387E+02  0.30729183172E+02  0.51100000000E-03 0. -1.
        -12    1    4    4    0    0 -0.42602751052E+01 -0.43944089066E+01  0.83081952266E+01  0.10319248109E+02  0.00000000000E+00 0.  1.
</event>
<event>
 8    1  0.9117959E-009  0.9118800E+02  0.7816164E-02  0.1184000E+00
        -11   -1    0    0    0    0  0.00000000000E+00  0.00000000000E+00  0.45593999997E+02  0.45594000000E+02  0.51100000000E-03 0. -1.
         11   -1    0    0    0    0 -0.00000000000E+00 -0.00000000000E+00 -0.45593999997E+02  0.45594000000E+02  0.51100000000E-03 0.  1.
         23    2    1    2    0    0  0.00000000000E+00  0.00000000000E+00 -0.35527136788E-14  0.91188000000E+02  0.91188000000E+02 0.  0.
    9900012    2    3    3    0    0  0.29143777443E+02  0.12714505024E+02  0.31907602604E+02  0.46142317570E+02  0.99999982564E+01 0.  0.
        -12    1    3    3    0    0 -0.29143777443E+02 -0.12714505024E+02 -0.31907602604E+02  0.45045682430E+02  0.00000000000E+00 0.  1.
         11    1    4    4    0    0  0.10053144005E+02  0.38008310084E+01  0.12458810155E+02  0.16453995608E+02  0.51100000000E-03 0. -1.
        -11    1    4    4    0    0 -0.39496161366E+00  0.14258123945E+01  0.19600632338E+01  0.24557654208E+01  0.51100000000E-03 0.  1.
         12    1    4    4    0    0  0.19485595052E+02  0.74878616212E+01  0.17488729215E+02  0.27232556541E+02  0.00000000000E+00 0. -1.
</event>
<event>
 8    1  0.9117959E-009  0.9118800E+02  0.7816164E-02  0.1184000E+00
        -11   -1    0    0    0    0  0.00000000000E+00  0.00000000000E+00  0.45593999997E+02  0.45594000000E+02  0.51100000000E-03 0. -1.
         11   -1    0    0    0    0 -0.00000000000E+00 -0.00000000000E+00 -0.45593999997E+02  0.45594000000E+02  0.51100000000E-03 0.  1.
         23    2    1    2    0    0 -0.17763568394E-14 -0.35527136788E-14 -0.71054273576E-14  0.91188000000E+02  0.91188000000E+02 0.  0.
    9900012    2    3    3    0    0  0.11559633996E+02 -0.27489858223E+02  0.33760866028E+02  0.46142317431E+02  0.99999969862E+01 0.  0.
        -12    1    3    3    0    0 -0.11559633996E+02  0.27489858223E+02 -0.33760866028E+02  0.45045682569E+02  0.00000000000E+00 0.  1.
         11    1    4    4    0    0  0.55217017792E+01 -0.14775385540E+02  0.19131454445E+02  0.24795438247E+02  0.51100000000E-03 0. -1.
        -11    1    4    4    0    0  0.46860081123E+01 -0.10822918740E+02  0.14903811705E+02  0.19005731917E+02  0.51100000000E-03 0.  1.
        -12    1    4    4    0    0  0.13519241040E+01 -0.18915539419E+01 -0.27440012276E+00  0.23411472669E+01  0.00000000000E+00 0.  1.
</event>
<event>
 8    1  0.9117959E-009  0.9118800E+02  0.7816164E-02  0.1184000E+00
        -11   -1    0    0    0    0  0.00000000000E+00  0.00000000000E+00  0.45593999997E+02  0.45594000000E+02  0.51100000000E-03 0. -1.
         11   -1    0    0    0    0 -0.00000000000E+00 -0.00000000000E+00 -0.45593999997E+02  0.45594000000E+02  0.51100000000E-03 0.  1.
         23    2    1    2    0    0  0.00000000000E+00  0.00000000000E+00  0.00000000000E+00  0.91188000000E+02  0.91188000000E+02 0.  0.
    9900012    2    3    3    0    0 -0.14580614185E+02 -0.17312214755E+02  0.38946181957E+02  0.46142332298E+02  0.10000132557E+02 0.  0.
        -12    1    3    3    0    0  0.14580614185E+02  0.17312214755E+02 -0.38946181957E+02  0.45045667702E+02  0.00000000000E+00 0.  1.
         11    1    4    4    0    0 -0.58711282342E+01 -0.25646868894E+01  0.12037775374E+02  0.13636561216E+02  0.51100000000E-03 0.  1.
        -11    1    4    4    0    0 -0.51964190751E+01 -0.47223310159E+01  0.14909412291E+02  0.16480101837E+02  0.51100000000E-03 0. -1.
         12    1    4    4    0    0 -0.35130668760E+01 -0.10025196849E+02  0.11998994292E+02  0.16025669245E+02  0.00000000000E+00 0. -1.
</event>
<event>
 8    1  0.9117959E-009  0.9118800E+02  0.7816164E-02  0.1184000E+00
        -11   -1    0    0    0    0  0.00000000000E+00  0.00000000000E+00  0.45593999997E+02  0.45594000000E+02  0.51100000000E-03 0. -1.
         11   -1    0    0    0    0 -0.00000000000E+00 -0.00000000000E+00 -0.45593999997E+02  0.45594000000E+02  0.51100000000E-03 0.  1.
         23    2    1    2    0    0  0.17763568394E-14  0.17763568394E-14  0.14210854715E-13  0.91188000000E+02  0.91188000000E+02 0.  0.
    9900012    2    3    3    0    0  0.12685590980E+02  0.88366792060E+01  0.42309601376E+02  0.46142317782E+02  0.10000000190E+02 0.  0.
        -12    1    3    3    0    0 -0.12685590980E+02 -0.88366792060E+01 -0.42309601376E+02  0.45045682218E+02  0.00000000000E+00 0.  1.
         11    1    4    4    0    0  0.82183737222E+01  0.81224784798E+01  0.26055694262E+02  0.28502903835E+02  0.51100000000E-03 0. -1.
        -11    1    4    4    0    0  0.14269087455E+01  0.17374877720E+01  0.19373736428E+01  0.29678863218E+01  0.51100000000E-03 0.  1.
        -12    1    4    4    0    0  0.30403085124E+01 -0.10232870459E+01  0.14316533471E+02  0.14671527625E+02  0.00000000000E+00 0.  1.
</event>
<event>
 8    1  0.9117959E-009  0.9118800E+02  0.7816164E-02  0.1184000E+00
        -11   -1    0    0    0    0  0.00000000000E+00  0.00000000000E+00  0.45593999997E+02  0.45594000000E+02  0.51100000000E-03 0. -1.
         11   -1    0    0    0    0 -0.00000000000E+00 -0.00000000000E+00 -0.45593999997E+02  0.45594000000E+02  0.51100000000E-03 0.  1.
         23    2    1    2    0    0  0.00000000000E+00  0.35527136788E-14 -0.17763568394E-14  0.91188000000E+02  0.91188000000E+02 0.  0.
    9900012    2    3    3    0    0 -0.33300697737E+02 -0.25998337581E+02  0.15628930196E+02  0.46142317790E+02  0.10000000259E+02 0.  0.
        -12    1    3    3    0    0  0.33300697737E+02  0.25998337581E+02 -0.15628930196E+02  0.45045682210E+02  0.00000000000E+00 0.  1.
         11    1    4    4    0    0 -0.15634063839E+02 -0.14820750282E+02  0.12177228694E+02  0.24745979268E+02  0.51100000000E-03 0. -1.
        -11    1    4    4    0    0 -0.60222207054E+01 -0.51380587549E+01  0.38747432249E+00  0.79257130030E+01  0.51100000000E-03 0.  1.
        -12    1    4    4    0    0 -0.11644413193E+02 -0.60395285439E+01  0.30642271798E+01  0.13470625518E+02  0.00000000000E+00 0.  1.
</event>
<event>
 8    1  0.9117959E-009  0.9118800E+02  0.7816164E-02  0.1184000E+00
        -11   -1    0    0    0    0  0.00000000000E+00  0.00000000000E+00  0.45593999997E+02  0.45594000000E+02  0.51100000000E-03 0. -1.
         11   -1    0    0    0    0 -0.00000000000E+00 -0.00000000000E+00 -0.45593999997E+02  0.45594000000E+02  0.51100000000E-03 0.  1.
         23    2    1    2    0    0  0.00000000000E+00  0.00000000000E+00  0.00000000000E+00  0.91188000000E+02  0.91188000000E+02 0.  0.
    9900012    2    3    3    0    0  0.46251687181E+01  0.29482629507E+02 -0.33741604769E+02  0.46142317402E+02  0.99999967240E+01 0.  0.
         12    1    3    3    0    0 -0.46251687181E+01 -0.29482629507E+02  0.33741604769E+02  0.45045682598E+02  0.00000000000E+00 0. -1.
         11    1    4    4    0    0  0.13279184022E+01  0.72359422184E+01 -0.40579697323E+01  0.84017465851E+01  0.51100000000E-03 0. -1.
        -11    1    4    4    0    0  0.97165253282E+00  0.20158216906E+02 -0.25691075140E+02  0.32670003973E+02  0.51100000000E-03 0.  1.
         12    1    4    4    0    0  0.23255977830E+01  0.20884703828E+01 -0.39925598968E+01  0.50705668438E+01  0.00000000000E+00 0. -1.
</event>
<event>
 8    1  0.9557609E-009  0.9118800E+02  0.7816164E-02  0.1184000E+00
        -11   -1    0    0    0    0  0.00000000000E+00  0.00000000000E+00  0.45593999997E+02  0.45594000000E+02  0.51100000000E-03 0. -1.
         11   -1    0    0    0    0 -0.00000000000E+00 -0.00000000000E+00 -0.45593999997E+02  0.45594000000E+02  0.51100000000E-03 0.  1.
         23    2    1    2    0    0  0.00000000000E+00  0.00000000000E+00  0.00000000000E+00  0.91188000000E+02  0.91188000000E+02 0.  0.
    9900012    2    3    3    0    0 -0.37560974920E+02  0.70217678838E+01  0.23853329232E+02  0.46142319002E+02  0.10000011314E+02 0.  0.
        -12    1    3    3    0    0  0.37560974920E+02 -0.70217678838E+01 -0.23853329232E+02  0.45045680998E+02  0.00000000000E+00 0.  1.
         11    1    4    4    0    0 -0.21086138388E+02  0.47798448284E+01  0.11355467623E+02  0.24421686959E+02  0.51100000000E-03 0. -1.
        -11    1    4    4    0    0 -0.72014358264E+00  0.54545505570E+00 -0.66429261508E+00  0.11213442544E+01  0.51100000000E-03 0.  1.
         12    1    4    4    0    0 -0.15754692949E+02  0.16964679997E+01  0.13162154224E+02  0.20599287789E+02  0.00000000000E+00 0. -1.
</event>
<event>
 8    1  0.9117959E-009  0.9118800E+02  0.7816164E-02  0.1184000E+00
        -11   -1    0    0    0    0  0.00000000000E+00  0.00000000000E+00  0.45593999997E+02  0.45594000000E+02  0.51100000000E-03 0. -1.
         11   -1    0    0    0    0 -0.00000000000E+00 -0.00000000000E+00 -0.45593999997E+02  0.45594000000E+02  0.51100000000E-03 0.  1.
         23    2    1    2    0    0  0.00000000000E+00  0.71054273576E-14  0.00000000000E+00  0.91188000000E+02  0.91188000000E+02 0.  0.
    9900012    2    3    3    0    0 -0.35760396782E+01 -0.39125851995E+02  0.22033909428E+02  0.46142317424E+02  0.99999969214E+01 0.  0.
        -12    1    3    3    0    0  0.35760396782E+01  0.39125851995E+02 -0.22033909428E+02  0.45045682576E+02  0.00000000000E+00 0.  1.
         11    1    4    4    0    0  0.33246551437E+01 -0.10816241699E+02  0.52839048476E+01  0.12488557443E+02  0.51100000000E-03 0. -1.
        -11    1    4    4    0    0 -0.11802996246E+00 -0.17201180404E+01  0.67870606695E+00  0.18529380269E+01  0.51100000000E-03 0.  1.
        -12    1    4    4    0    0 -0.67826648595E+01 -0.26589492256E+02  0.16071298513E+02  0.31800821954E+02  0.00000000000E+00 0.  1.
</event>
<event>
 8    1  0.9117959E-009  0.9118800E+02  0.7816164E-02  0.1184000E+00
        -11   -1    0    0    0    0  0.00000000000E+00  0.00000000000E+00  0.45593999997E+02  0.45594000000E+02  0.51100000000E-03 0. -1.
         11   -1    0    0    0    0 -0.00000000000E+00 -0.00000000000E+00 -0.45593999997E+02  0.45594000000E+02  0.51100000000E-03 0.  1.
         23    2    1    2    0    0  0.00000000000E+00  0.00000000000E+00  0.00000000000E+00  0.91188000000E+02  0.91188000000E+02 0.  0.
    9900012    2    3    3    0    0 -0.34963770992E+01  0.10718098116E+02 -0.43612053686E+02  0.46142317557E+02  0.99999981412E+01 0.  0.
         12    1    3    3    0    0  0.34963770992E+01 -0.10718098116E+02  0.43612053686E+02  0.45045682443E+02  0.00000000000E+00 0. -1.
         11    1    4    4    0    0 -0.28738179544E+01  0.13336704627E+01 -0.55701962877E+01  0.64081661560E+01  0.51100000000E-03 0. -1.
        -11    1    4    4    0    0  0.30952162182E+00  0.64329858482E+01 -0.13064156889E+02  0.14565414722E+02  0.51100000000E-03 0.  1.
        -12    1    4    4    0    0 -0.93208076657E+00  0.29514418051E+01 -0.24977700509E+02  0.25168736679E+02  0.00000000000E+00 0.  1.
</event>
<event>
 8    1  0.9117959E-009  0.9118800E+02  0.7816164E-02  0.1184000E+00
        -11   -1    0    0    0    0  0.00000000000E+00  0.00000000000E+00  0.45593999997E+02  0.45594000000E+02  0.51100000000E-03 0. -1.
         11   -1    0    0    0    0 -0.00000000000E+00 -0.00000000000E+00 -0.45593999997E+02  0.45594000000E+02  0.51100000000E-03 0.  1.
         23    2    1    2    0    0  0.00000000000E+00  0.22204460493E-15  0.00000000000E+00  0.91188000000E+02  0.91188000000E+02 0.  0.
    9900012    2    3    3    0    0 -0.26690067561E+02  0.11106297328E+01  0.36270100975E+02  0.46142318414E+02  0.10000005953E+02 0.  0.
        -12    1    3    3    0    0  0.26690067561E+02 -0.11106297328E+01 -0.36270100975E+02  0.45045681586E+02  0.00000000000E+00 0.  1.
         11    1    4    4    0    0 -0.33257269335E+00 -0.14639695539E+01  0.12875813834E+01  0.19777961298E+01  0.51100000000E-03 0.  1.
        -11    1    4    4    0    0 -0.19627729225E+02 -0.23332278547E+00  0.24460620982E+02  0.31362783249E+02  0.51100000000E-03 0. -1.
        -12    1    4    4    0    0 -0.67297656426E+01  0.28079220722E+01  0.10521898610E+02  0.12801739035E+02  0.00000000000E+00 0.  1.
</event>
<event>
 8    1  0.9117959E-009  0.9118800E+02  0.7816164E-02  0.1184000E+00
        -11   -1    0    0    0    0  0.00000000000E+00  0.00000000000E+00  0.45593999997E+02  0.45594000000E+02  0.51100000000E-03 0. -1.
         11   -1    0    0    0    0 -0.00000000000E+00 -0.00000000000E+00 -0.45593999997E+02  0.45594000000E+02  0.51100000000E-03 0.  1.
         23    2    1    2    0    0 -0.35527136788E-14 -0.88817841970E-15  0.00000000000E+00  0.91188000000E+02  0.91188000000E+02 0.  0.
    9900012    2    3    3    0    0  0.30288188271E+02  0.52555301848E+01  0.32925968058E+02  0.46142308543E+02  0.99999159432E+01 0.  0.
        -12    1    3    3    0    0 -0.30288188271E+02 -0.52555301848E+01 -0.32925968058E+02  0.45045691457E+02  0.00000000000E+00 0.  1.
         11    1    4    4    0    0  0.17151916145E+02  0.55487390977E+01  0.19146726355E+02  0.26297791987E+02  0.51100000000E-03 0. -1.
        -11    1    4    4    0    0  0.10638993700E+02  0.20653614983E+01  0.10174208049E+02  0.14865006383E+02  0.51100000000E-03 0.  1.
        -12    1    4    4    0    0  0.24972784256E+01 -0.23585704112E+01  0.36050336533E+01  0.49795101727E+01  0.00000000000E+00 0.  1.
</event>
<event>
 8    1  0.9117959E-009  0.9118800E+02  0.7816164E-02  0.1184000E+00
        -11   -1    0    0    0    0  0.00000000000E+00  0.00000000000E+00  0.45593999997E+02  0.45594000000E+02  0.51100000000E-03 0. -1.
         11   -1    0    0    0    0 -0.00000000000E+00 -0.00000000000E+00 -0.45593999997E+02  0.45594000000E+02  0.51100000000E-03 0.  1.
         23    2    1    2    0    0  0.00000000000E+00  0.00000000000E+00 -0.71054273576E-14  0.91188000000E+02  0.91188000000E+02 0.  0.
    9900012    2    3    3    0    0 -0.11344913453E+02  0.27028375056E+01  0.43509781662E+02  0.46142317720E+02  0.99999996232E+01 0.  0.
        -12    1    3    3    0    0  0.11344913453E+02 -0.27028375056E+01 -0.43509781662E+02  0.45045682280E+02  0.00000000000E+00 0.  1.
         11    1    4    4    0    0 -0.56717201987E+01  0.49341033136E+01  0.22323743327E+02  0.23555536545E+02  0.51100000000E-03 0. -1.
        -11    1    4    4    0    0 -0.96259204364E+00  0.15058822268E+01  0.40653045212E+01  0.44408294085E+01  0.51100000000E-03 0.  1.
        -12    1    4    4    0    0 -0.47106012102E+01 -0.37371480349E+01  0.17120733814E+02  0.18145951767E+02  0.00000000000E+00 0.  1.
</event>
<event>
 8    1  0.9117959E-009  0.9118800E+02  0.7816164E-02  0.1184000E+00
        -11   -1    0    0    0    0  0.00000000000E+00  0.00000000000E+00  0.45593999997E+02  0.45594000000E+02  0.51100000000E-03 0. -1.
         11   -1    0    0    0    0 -0.00000000000E+00 -0.00000000000E+00 -0.45593999997E+02  0.45594000000E+02  0.51100000000E-03 0.  1.
         23    2    1    2    0    0  0.35527136788E-14  0.00000000000E+00 -0.71054273576E-14  0.91188000000E+02  0.91188000000E+02 0.  0.
    9900012    2    3    3    0    0  0.16086777408E+02 -0.17450693054E+02 -0.38285799092E+02  0.46142317548E+02  0.99999980607E+01 0.  0.
         12    1    3    3    0    0 -0.16086777408E+02  0.17450693054E+02  0.38285799092E+02  0.45045682452E+02  0.00000000000E+00 0. -1.
         11    1    4    4    0    0  0.41680630222E+01 -0.86897707631E+00 -0.25225533395E+01  0.49488530114E+01  0.51100000000E-03 0. -1.
        -11    1    4    4    0    0  0.34045592179E+01 -0.45365086560E+01 -0.10762896880E+02  0.12165972372E+02  0.51100000000E-03 0.  1.
         12    1    4    4    0    0  0.85141551681E+01 -0.12045207321E+02 -0.25000348873E+02  0.29027492165E+02  0.00000000000E+00 0. -1.
</event>
<event>
 8    1  0.9117959E-009  0.9118800E+02  0.7816164E-02  0.1184000E+00
        -11   -1    0    0    0    0  0.00000000000E+00  0.00000000000E+00  0.45593999997E+02  0.45594000000E+02  0.51100000000E-03 0. -1.
         11   -1    0    0    0    0 -0.00000000000E+00 -0.00000000000E+00 -0.45593999997E+02  0.45594000000E+02  0.51100000000E-03 0.  1.
         23    2    1    2    0    0  0.00000000000E+00  0.00000000000E+00  0.00000000000E+00  0.91188000000E+02  0.91188000000E+02 0.  0.
    9900012    2    3    3    0    0 -0.26074219066E+02  0.27194548540E+02 -0.24692205133E+02  0.46142319136E+02  0.10000012536E+02 0.  0.
         12    1    3    3    0    0  0.26074219066E+02 -0.27194548540E+02  0.24692205133E+02  0.45045680864E+02  0.00000000000E+00 0. -1.
         11    1    4    4    0    0 -0.43448919027E+01  0.74374009156E+01 -0.56230560348E+01  0.10286485185E+02  0.51100000000E-03 0. -1.
        -11    1    4    4    0    0 -0.67154020159E+01  0.10864092767E+02 -0.97866357500E+01  0.16090474681E+02  0.51100000000E-03 0.  1.
         12    1    4    4    0    0 -0.15013925147E+02  0.88930548570E+01 -0.92825133478E+01  0.19765359270E+02  0.00000000000E+00 0. -1.
</event>
<event>
 8    1  0.9117959E-009  0.9118800E+02  0.7816164E-02  0.1184000E+00
        -11   -1    0    0    0    0  0.00000000000E+00  0.00000000000E+00  0.45593999997E+02  0.45594000000E+02  0.51100000000E-03 0. -1.
         11   -1    0    0    0    0 -0.00000000000E+00 -0.00000000000E+00 -0.45593999997E+02  0.45594000000E+02  0.51100000000E-03 0.  1.
         23    2    1    2    0    0 -0.88817841970E-15 -0.17763568394E-14  0.00000000000E+00  0.91188000000E+02  0.91188000000E+02 0.  0.
    9900012    2    3    3    0    0  0.59583765867E+01  0.91888420796E+01  0.43694116119E+02  0.46142324805E+02  0.10000064232E+02 0.  0.
        -12    1    3    3    0    0 -0.59583765867E+01 -0.91888420796E+01 -0.43694116119E+02  0.45045675195E+02  0.00000000000E+00 0.  1.
         11    1    4    4    0    0  0.52081761362E+01  0.38028067664E+01  0.93563563171E+01  0.11363443218E+02  0.51100000000E-03 0. -1.
        -11    1    4    4    0    0  0.81729562912E+00  0.27595365806E+01  0.16612471938E+02  0.16859929965E+02  0.51100000000E-03 0.  1.
         12    1    4    4    0    0 -0.67095178542E-01  0.26264987326E+01  0.17725287865E+02  0.17918951622E+02  0.00000000000E+00 0. -1.
</event>
<event>
 8    1  0.9117959E-009  0.9118800E+02  0.7816164E-02  0.1184000E+00
        -11   -1    0    0    0    0  0.00000000000E+00  0.00000000000E+00  0.45593999997E+02  0.45594000000E+02  0.51100000000E-03 0. -1.
         11   -1    0    0    0    0 -0.00000000000E+00 -0.00000000000E+00 -0.45593999997E+02  0.45594000000E+02  0.51100000000E-03 0.  1.
         23    2    1    2    0    0  0.00000000000E+00  0.35527136788E-14  0.00000000000E+00  0.91188000000E+02  0.91188000000E+02 0.  0.
    9900012    2    3    3    0    0  0.30419745170E+02  0.22382928929E+02 -0.24551113813E+02  0.46142316599E+02  0.99999894013E+01 0.  0.
         12    1    3    3    0    0 -0.30419745170E+02 -0.22382928929E+02  0.24551113813E+02  0.45045683401E+02  0.00000000000E+00 0. -1.
         11    1    4    4    0    0  0.13220970619E+02  0.75383817138E+01 -0.56289235722E+01  0.16226707732E+02  0.51100000000E-03 0. -1.
        -11    1    4    4    0    0  0.15226215949E+00 -0.30237356088E+00 -0.11739339755E+00  0.35832248945E+00  0.51100000000E-03 0.  1.
        -12    1    4    4    0    0  0.17046512392E+02  0.15146920776E+02 -0.18804796843E+02  0.29557286378E+02  0.00000000000E+00 0.  1.
</event>
<event>
 8    1  0.9117959E-009  0.9118800E+02  0.7816164E-02  0.1184000E+00
        -11   -1    0    0    0    0  0.00000000000E+00  0.00000000000E+00  0.45593999997E+02  0.45594000000E+02  0.51100000000E-03 0. -1.
         11   -1    0    0    0    0 -0.00000000000E+00 -0.00000000000E+00 -0.45593999997E+02  0.45594000000E+02  0.51100000000E-03 0.  1.
         23    2    1    2    0    0  0.71054273576E-14  0.44408920985E-15 -0.35527136788E-14  0.91188000000E+02  0.91188000000E+02 0.  0.
    9900012    2    3    3    0    0 -0.37681429275E+02 -0.20100749072E+01  0.24600462230E+02  0.46142320348E+02  0.10000023594E+02 0.  0.
        -12    1    3    3    0    0  0.37681429275E+02  0.20100749072E+01 -0.24600462230E+02  0.45045679652E+02  0.00000000000E+00 0.  1.
         11    1    4    4    0    0 -0.53967274059E+01  0.34335954938E+00  0.81399169340E+01  0.97724516079E+01  0.51100000000E-03 0. -1.
        -11    1    4    4    0    0 -0.26329888087E+01 -0.67542787037E+00  0.10862109521E+01  0.29272320318E+01  0.51100000000E-03 0.  1.
         12    1    4    4    0    0 -0.29651713060E+02 -0.16780065862E+01  0.15374334344E+02  0.33442636709E+02  0.00000000000E+00 0. -1.
</event>
<event>
 8    1  0.9117959E-009  0.9118800E+02  0.7816164E-02  0.1184000E+00
        -11   -1    0    0    0    0  0.00000000000E+00  0.00000000000E+00  0.45593999997E+02  0.45594000000E+02  0.51100000000E-03 0.  1.
         11   -1    0    0    0    0 -0.00000000000E+00 -0.00000000000E+00 -0.45593999997E+02  0.45594000000E+02  0.51100000000E-03 0. -1.
         23    2    1    2    0    0  0.00000000000E+00 -0.71054273576E-14 -0.44408920985E-15  0.91188000000E+02  0.91188000000E+02 0.  0.
    9900012    2    3    3    0    0 -0.70863858670E+01  0.44413101567E+02  0.25245205023E+01  0.46142315864E+02  0.99999827024E+01 0.  0.
        -12    1    3    3    0    0  0.70863858670E+01 -0.44413101567E+02 -0.25245205023E+01  0.45045684136E+02  0.00000000000E+00 0.  1.
         11    1    4    4    0    0  0.96115019875E+00  0.22255641273E+02 -0.63314451062E-01  0.22276476094E+02  0.51100000000E-03 0. -1.
        -11    1    4    4    0    0 -0.13752644730E+01  0.23562469400E+01 -0.40262598147E+00  0.27577817091E+01  0.51100000000E-03 0.  1.
         12    1    4    4    0    0 -0.66722715928E+01  0.19801213354E+02  0.29904609349E+01  0.21108058061E+02  0.00000000000E+00 0. -1.
</event>
<event>
 8    1  0.9117959E-009  0.9118800E+02  0.7816164E-02  0.1184000E+00
        -11   -1    0    0    0    0  0.00000000000E+00  0.00000000000E+00  0.45593999997E+02  0.45594000000E+02  0.51100000000E-03 0. -1.
         11   -1    0    0    0    0 -0.00000000000E+00 -0.00000000000E+00 -0.45593999997E+02  0.45594000000E+02  0.51100000000E-03 0.  1.
         23    2    1    2    0    0  0.00000000000E+00  0.00000000000E+00  0.00000000000E+00  0.91188000000E+02  0.91188000000E+02 0.  0.
    9900012    2    3    3    0    0  0.29943406383E+02 -0.18725346330E+02 -0.27961889725E+02  0.46142318099E+02  0.10000003079E+02 0.  0.
         12    1    3    3    0    0 -0.29943406383E+02  0.18725346330E+02  0.27961889725E+02  0.45045681901E+02  0.00000000000E+00 0. -1.
         11    1    4    4    0    0  0.99953629713E+01 -0.62431957882E+01 -0.14481526710E+02  0.18670816551E+02  0.51100000000E-03 0. -1.
        -11    1    4    4    0    0  0.18047641196E+01 -0.28011341824E+01 -0.24461775896E+01  0.41336801153E+01  0.51100000000E-03 0.  1.
        -12    1    4    4    0    0  0.18143279292E+02 -0.96810163590E+01 -0.11034185425E+02  0.23337821432E+02  0.00000000000E+00 0.  1.
</event>
<event>
 8    1  0.9117959E-009  0.9118800E+02  0.7816164E-02  0.1184000E+00
        -11   -1    0    0    0    0  0.00000000000E+00  0.00000000000E+00  0.45593999997E+02  0.45594000000E+02  0.51100000000E-03 0. -1.
         11   -1    0    0    0    0 -0.00000000000E+00 -0.00000000000E+00 -0.45593999997E+02  0.45594000000E+02  0.51100000000E-03 0.  1.
         23    2    1    2    0    0  0.00000000000E+00 -0.35527136788E-14 -0.35527136788E-14  0.91188000000E+02  0.91188000000E+02 0.  0.
    9900012    2    3    3    0    0  0.29543915718E+02  0.23092836592E+02  0.24959795396E+02  0.46142318253E+02  0.10000004488E+02 0.  0.
        -12    1    3    3    0    0 -0.29543915718E+02 -0.23092836592E+02 -0.24959795396E+02  0.45045681747E+02  0.00000000000E+00 0.  1.
         11    1    4    4    0    0  0.11000436711E+02  0.78269322349E+01  0.14072774291E+02  0.19501626921E+02  0.51100000000E-03 0. -1.
        -11    1    4    4    0    0  0.23225079495E+01  0.69456465250E+00  0.17949862863E+01  0.30163619247E+01  0.51100000000E-03 0.  1.
        -12    1    4    4    0    0  0.16220971057E+02  0.14571339705E+02  0.90920348186E+01  0.23624329408E+02  0.00000000000E+00 0.  1.
</event>
<event>
 8    1  0.9117959E-009  0.9118800E+02  0.7816164E-02  0.1184000E+00
        -11   -1    0    0    0    0  0.00000000000E+00  0.00000000000E+00  0.45593999997E+02  0.45594000000E+02  0.51100000000E-03 0. -1.
         11   -1    0    0    0    0 -0.00000000000E+00 -0.00000000000E+00 -0.45593999997E+02  0.45594000000E+02  0.51100000000E-03 0.  1.
         23    2    1    2    0    0 -0.44408920985E-15  0.00000000000E+00 -0.71054273576E-14  0.91188000000E+02  0.91188000000E+02 0.  0.
    9900012    2    3    3    0    0 -0.24876268197E+01 -0.12272863535E+02 -0.43270105650E+02  0.46142317527E+02  0.99999978646E+01 0.  0.
         12    1    3    3    0    0  0.24876268197E+01  0.12272863535E+02  0.43270105650E+02  0.45045682473E+02  0.00000000000E+00 0. -1.
         11    1    4    4    0    0  0.11927154795E+01 -0.39096084852E+01 -0.11751248378E+02  0.12441842606E+02  0.51100000000E-03 0. -1.
        -11    1    4    4    0    0 -0.19661840777E+00 -0.55221891296E+01 -0.77972908265E+01  0.95567241289E+01  0.51100000000E-03 0.  1.
         12    1    4    4    0    0 -0.34837238915E+01 -0.28410659200E+01 -0.23721566445E+02  0.24143750792E+02  0.00000000000E+00 0. -1.
</event>
<event>
 8    1  0.9117959E-009  0.9118800E+02  0.7816164E-02  0.1184000E+00
        -11   -1    0    0    0    0  0.00000000000E+00  0.00000000000E+00  0.45593999997E+02  0.45594000000E+02  0.51100000000E-03 0. -1.
         11   -1    0    0    0    0 -0.00000000000E+00 -0.00000000000E+00 -0.45593999997E+02  0.45594000000E+02  0.51100000000E-03 0.  1.
         23    2    1    2    0    0 -0.17763568394E-14  0.00000000000E+00  0.00000000000E+00  0.91188000000E+02  0.91188000000E+02 0.  0.
    9900012    2    3    3    0    0 -0.85488496360E+01  0.23170920624E+02  0.37671460853E+02  0.46142319237E+02  0.10000013457E+02 0.  0.
        -12    1    3    3    0    0  0.85488496360E+01 -0.23170920624E+02 -0.37671460853E+02  0.45045680763E+02  0.00000000000E+00 0.  1.
         11    1    4    4    0    0 -0.49632539500E+01  0.57428088912E+01  0.15686990661E+02  0.17426859155E+02  0.51100000000E-03 0. -1.
        -11    1    4    4    0    0 -0.20927872083E+01  0.30801738980E+01  0.69183453174E+01  0.78568907166E+01  0.51100000000E-03 0.  1.
        -12    1    4    4    0    0 -0.14928084777E+01  0.14347937835E+02  0.15066124874E+02  0.20858569366E+02  0.00000000000E+00 0.  1.
</event>
<event>
 8    1  0.9117959E-009  0.9118800E+02  0.7816164E-02  0.1184000E+00
        -11   -1    0    0    0    0  0.00000000000E+00  0.00000000000E+00  0.45593999997E+02  0.45594000000E+02  0.51100000000E-03 0. -1.
         11   -1    0    0    0    0 -0.00000000000E+00 -0.00000000000E+00 -0.45593999997E+02  0.45594000000E+02  0.51100000000E-03 0.  1.
         23    2    1    2    0    0  0.00000000000E+00 -0.24980018054E-15  0.00000000000E+00  0.91188000000E+02  0.91188000000E+02 0.  0.
    9900012    2    3    3    0    0 -0.36677329723E+02 -0.13531867376E+00 -0.26150882359E+02  0.46142317910E+02  0.10000001362E+02 0.  0.
         12    1    3    3    0    0  0.36677329723E+02  0.13531867376E+00  0.26150882359E+02  0.45045682090E+02  0.00000000000E+00 0. -1.
         11    1    4    4    0    0 -0.35432932302E+01  0.24968484823E+00 -0.44461622226E+01  0.56908372152E+01  0.51100000000E-03 0. -1.
        -11    1    4    4    0    0 -0.29908905999E+02 -0.13963933333E+01 -0.16337742743E+02  0.34108861174E+02  0.51100000000E-03 0.  1.
        -12    1    4    4    0    0 -0.32251304943E+01  0.10113898113E+01 -0.53669773930E+01  0.63426195213E+01  0.00000000000E+00 0.  1.
</event>
<event>
 8    1  0.9117959E-009  0.9118800E+02  0.7816164E-02  0.1184000E+00
        -11   -1    0    0    0    0  0.00000000000E+00  0.00000000000E+00  0.45593999997E+02  0.45594000000E+02  0.51100000000E-03 0. -1.
         11   -1    0    0    0    0 -0.00000000000E+00 -0.00000000000E+00 -0.45593999997E+02  0.45594000000E+02  0.51100000000E-03 0.  1.
         23    2    1    2    0    0  0.17763568394E-14  0.35527136788E-14  0.71054273576E-14  0.91188000000E+02  0.91188000000E+02 0.  0.
    9900012    2    3    3    0    0 -0.12787020905E+02 -0.22799987682E+02 -0.36684693434E+02  0.46142311258E+02  0.99999406959E+01 0.  0.
         12    1    3    3    0    0  0.12787020905E+02  0.22799987682E+02  0.36684693434E+02  0.45045688742E+02  0.00000000000E+00 0. -1.
         11    1    4    4    0    0 -0.27733807317E+00 -0.18528282900E+00  0.21903818730E+00  0.39902897410E+00  0.51100000000E-03 0. -1.
        -11    1    4    4    0    0 -0.12889047685E+02 -0.22193612878E+02 -0.37126908648E+02  0.45134148367E+02  0.51100000000E-03 0.  1.
        -12    1    4    4    0    0  0.37936485389E+00 -0.42109197431E+00  0.22317702599E+00  0.60913391642E+00  0.00000000000E+00 0.  1.
</event>
<event>
 8    1  0.9117959E-009  0.9118800E+02  0.7816164E-02  0.1184000E+00
        -11   -1    0    0    0    0  0.00000000000E+00  0.00000000000E+00  0.45593999997E+02  0.45594000000E+02  0.51100000000E-03 0. -1.
         11   -1    0    0    0    0 -0.00000000000E+00 -0.00000000000E+00 -0.45593999997E+02  0.45594000000E+02  0.51100000000E-03 0.  1.
         23    2    1    2    0    0  0.71054273576E-14 -0.88817841970E-15  0.35527136788E-14  0.91188000000E+02  0.91188000000E+02 0.  0.
    9900012    2    3    3    0    0 -0.40971314991E+02  0.41332268139E+01 -0.18258733995E+02  0.46142316710E+02  0.99999904172E+01 0.  0.
         12    1    3    3    0    0  0.40971314991E+02 -0.41332268139E+01  0.18258733995E+02  0.45045683290E+02  0.00000000000E+00 0. -1.
         11    1    4    4    0    0  0.15534503763E+00  0.24019280310E+00 -0.81253183728E+00  0.86141332186E+00  0.51100000000E-03 0. -1.
        -11    1    4    4    0    0 -0.40705918126E+01  0.20362509854E+01 -0.82578850852E+00  0.46257931971E+01  0.51100000000E-03 0.  1.
         12    1    4    4    0    0 -0.37056068216E+02  0.18567830254E+01 -0.16620413649E+02  0.40655110191E+02  0.00000000000E+00 0. -1.
</event>
<event>
 8    1  0.9117959E-009  0.9118800E+02  0.7816164E-02  0.1184000E+00
        -11   -1    0    0    0    0  0.00000000000E+00  0.00000000000E+00  0.45593999997E+02  0.45594000000E+02  0.51100000000E-03 0. -1.
         11   -1    0    0    0    0 -0.00000000000E+00 -0.00000000000E+00 -0.45593999997E+02  0.45594000000E+02  0.51100000000E-03 0.  1.
         23    2    1    2    0    0  0.88817841970E-15  0.00000000000E+00  0.00000000000E+00  0.91188000000E+02  0.91188000000E+02 0.  0.
    9900012    2    3    3    0    0  0.74054835822E+01  0.39542460119E+02  0.20264899496E+02  0.46142317733E+02  0.99999997428E+01 0.  0.
        -12    1    3    3    0    0 -0.74054835822E+01 -0.39542460119E+02 -0.20264899496E+02  0.45045682267E+02  0.00000000000E+00 0.  1.
         11    1    4    4    0    0  0.49139524330E+01  0.26674762387E+02  0.12837735033E+02  0.30008287488E+02  0.51100000000E-03 0. -1.
        -11    1    4    4    0    0  0.23264679009E+01  0.10464391737E+02  0.83149675846E+01  0.13566673635E+02  0.51100000000E-03 0.  1.
        -12    1    4    4    0    0  0.16506324833E+00  0.24033059951E+01 -0.88780312183E+00  0.25673566104E+01  0.00000000000E+00 0.  1.
</event>
<event>
 8    1  0.9117959E-009  0.9118800E+02  0.7816164E-02  0.1184000E+00
        -11   -1    0    0    0    0  0.00000000000E+00  0.00000000000E+00  0.45593999997E+02  0.45594000000E+02  0.51100000000E-03 0. -1.
         11   -1    0    0    0    0 -0.00000000000E+00 -0.00000000000E+00 -0.45593999997E+02  0.45594000000E+02  0.51100000000E-03 0.  1.
         23    2    1    2    0    0  0.17763568394E-14  0.00000000000E+00  0.71054273576E-14  0.91188000000E+02  0.91188000000E+02 0.  0.
    9900012    2    3    3    0    0  0.93000902677E+01  0.27837972773E+02  0.34171171094E+02  0.46142319396E+02  0.10000014910E+02 0.  0.
        -12    1    3    3    0    0 -0.93000902677E+01 -0.27837972773E+02 -0.34171171094E+02  0.45045680604E+02  0.00000000000E+00 0.  1.
         11    1    4    4    0    0  0.58745546394E+01  0.19710510276E+02  0.29268427510E+02  0.35772272178E+02  0.51100000000E-03 0. -1.
        -11    1    4    4    0    0  0.23127205546E+01  0.25766195720E+01  0.21436169032E+01  0.40721908687E+01  0.51100000000E-03 0.  1.
         12    1    4    4    0    0  0.11128150737E+01  0.55508429246E+01  0.27591266809E+01  0.62978563498E+01  0.00000000000E+00 0. -1.
</event>
<event>
 8    1  0.9117959E-009  0.9118800E+02  0.7816164E-02  0.1184000E+00
        -11   -1    0    0    0    0  0.00000000000E+00  0.00000000000E+00  0.45593999997E+02  0.45594000000E+02  0.51100000000E-03 0. -1.
         11   -1    0    0    0    0 -0.00000000000E+00 -0.00000000000E+00 -0.45593999997E+02  0.45594000000E+02  0.51100000000E-03 0.  1.
         23    2    1    2    0    0 -0.44408920985E-15  0.00000000000E+00 -0.71054273576E-14  0.91188000000E+02  0.91188000000E+02 0.  0.
    9900012    2    3    3    0    0  0.27156325438E+01  0.30915369321E+01  0.44857344554E+02  0.46142316288E+02  0.99999865637E+01 0.  0.
        -12    1    3    3    0    0 -0.27156325438E+01 -0.30915369321E+01 -0.44857344554E+02  0.45045683712E+02  0.00000000000E+00 0.  1.
         11    1    4    4    0    0  0.14323175950E+01  0.88063919278E+00  0.12013118961E+02  0.12130213787E+02  0.51100000000E-03 0. -1.
        -11    1    4    4    0    0  0.24553387882E+01  0.12857866829E+00  0.22753889409E+01  0.33500173331E+01  0.51100000000E-03 0.  1.
         12    1    4    4    0    0 -0.11720238394E+01  0.20823190711E+01  0.30568836652E+02  0.30662085168E+02  0.00000000000E+00 0. -1.
</event>
<event>
 8    1  0.9117959E-009  0.9118800E+02  0.7816164E-02  0.1184000E+00
        -11   -1    0    0    0    0  0.00000000000E+00  0.00000000000E+00  0.45593999997E+02  0.45594000000E+02  0.51100000000E-03 0. -1.
         11   -1    0    0    0    0 -0.00000000000E+00 -0.00000000000E+00 -0.45593999997E+02  0.45594000000E+02  0.51100000000E-03 0.  1.
         23    2    1    2    0    0  0.35527136788E-14  0.71054273576E-14  0.17763568394E-14  0.91188000000E+02  0.91188000000E+02 0.  0.
    9900012    2    3    3    0    0 -0.17939065925E+02 -0.40511309723E+02 -0.81324753908E+01  0.46142318101E+02  0.10000003102E+02 0.  0.
         12    1    3    3    0    0  0.17939065925E+02  0.40511309723E+02  0.81324753908E+01  0.45045681899E+02  0.00000000000E+00 0. -1.
         11    1    4    4    0    0 -0.31920611185E+01 -0.26791884525E+01 -0.17541143304E+01  0.45215287562E+01  0.51100000000E-03 0. -1.
        -11    1    4    4    0    0 -0.81773974046E+01 -0.16724271291E+02 -0.58280228640E+01  0.19507355774E+02  0.51100000000E-03 0.  1.
        -12    1    4    4    0    0 -0.65696074017E+01 -0.21107849980E+02 -0.55033819647E+00  0.22113433571E+02  0.00000000000E+00 0.  1.
</event>
<event>
 8    1  0.9117959E-009  0.9118800E+02  0.7816164E-02  0.1184000E+00
        -11   -1    0    0    0    0  0.00000000000E+00  0.00000000000E+00  0.45593999997E+02  0.45594000000E+02  0.51100000000E-03 0. -1.
         11   -1    0    0    0    0 -0.00000000000E+00 -0.00000000000E+00 -0.45593999997E+02  0.45594000000E+02  0.51100000000E-03 0.  1.
         23    2    1    2    0    0  0.00000000000E+00  0.00000000000E+00  0.00000000000E+00  0.91188000000E+02  0.91188000000E+02 0.  0.
    9900012    2    3    3    0    0  0.34376983475E+02  0.11257469788E+02  0.26844100855E+02  0.46142319079E+02  0.10000012022E+02 0.  0.
        -12    1    3    3    0    0 -0.34376983475E+02 -0.11257469788E+02 -0.26844100855E+02  0.45045680921E+02  0.00000000000E+00 0.  1.
         11    1    4    4    0    0  0.10079030976E+02  0.10738696687E+01  0.64661118772E+01  0.12022922463E+02  0.51100000000E-03 0. -1.
        -11    1    4    4    0    0  0.24647135538E+01  0.26714841245E+01  0.56972973795E+01  0.67580202739E+01  0.51100000000E-03 0.  1.
        -12    1    4    4    0    0  0.21833238945E+02  0.75121159950E+01  0.14680691599E+02  0.27361376342E+02  0.00000000000E+00 0.  1.
</event>
<event>
 8    1  0.9117959E-009  0.9118800E+02  0.7816164E-02  0.1184000E+00
        -11   -1    0    0    0    0  0.00000000000E+00  0.00000000000E+00  0.45593999997E+02  0.45594000000E+02  0.51100000000E-03 0. -1.
         11   -1    0    0    0    0 -0.00000000000E+00 -0.00000000000E+00 -0.45593999997E+02  0.45594000000E+02  0.51100000000E-03 0.  1.
         23    2    1    2    0    0 -0.49960036108E-15  0.00000000000E+00  0.00000000000E+00  0.91188000000E+02  0.91188000000E+02 0.  0.
    9900012    2    3    3    0    0 -0.34835089559E+00 -0.43019961631E+02  0.13351968555E+02  0.46142317506E+02  0.99999976756E+01 0.  0.
        -12    1    3    3    0    0  0.34835089559E+00  0.43019961631E+02 -0.13351968555E+02  0.45045682494E+02  0.00000000000E+00 0.  1.
         11    1    4    4    0    0 -0.34012080780E+01 -0.23282174812E+02  0.60776045554E+01  0.24301546407E+02  0.51100000000E-03 0. -1.
        -11    1    4    4    0    0  0.33234375185E+01 -0.68211289818E+01  0.17332666592E+01  0.77831388976E+01  0.51100000000E-03 0.  1.
         12    1    4    4    0    0 -0.27058033605E+00 -0.12916657836E+02  0.55410973400E+01  0.14057632202E+02  0.00000000000E+00 0. -1.
</event>
<event>
 8    1  0.9117959E-009  0.9118800E+02  0.7816164E-02  0.1184000E+00
        -11   -1    0    0    0    0  0.00000000000E+00  0.00000000000E+00  0.45593999997E+02  0.45594000000E+02  0.51100000000E-03 0. -1.
         11   -1    0    0    0    0 -0.00000000000E+00 -0.00000000000E+00 -0.45593999997E+02  0.45594000000E+02  0.51100000000E-03 0.  1.
         23    2    1    2    0    0  0.35527136788E-14  0.00000000000E+00  0.00000000000E+00  0.91188000000E+02  0.91188000000E+02 0.  0.
    9900012    2    3    3    0    0 -0.17600064350E+02 -0.10598629072E+01 -0.41451512290E+02  0.46142318236E+02  0.10000004327E+02 0.  0.
         12    1    3    3    0    0  0.17600064350E+02  0.10598629072E+01  0.41451512290E+02  0.45045681764E+02  0.00000000000E+00 0. -1.
         11    1    4    4    0    0 -0.13290945743E+02  0.67255447333E+00 -0.27380454407E+02  0.30443239842E+02  0.51100000000E-03 0.  1.
        -11    1    4    4    0    0 -0.40409214983E+01 -0.36060405151E+00 -0.13648675269E+02  0.14238869994E+02  0.51100000000E-03 0. -1.
        -12    1    4    4    0    0 -0.26819710874E+00 -0.13718133290E+01 -0.42238261318E+00  0.14602083998E+01  0.00000000000E+00 0.  1.
</event>
<event>
 8    1  0.9117959E-009  0.9118800E+02  0.7816164E-02  0.1184000E+00
        -11   -1    0    0    0    0  0.00000000000E+00  0.00000000000E+00  0.45593999997E+02  0.45594000000E+02  0.51100000000E-03 0. -1.
         11   -1    0    0    0    0 -0.00000000000E+00 -0.00000000000E+00 -0.45593999997E+02  0.45594000000E+02  0.51100000000E-03 0.  1.
         23    2    1    2    0    0  0.00000000000E+00  0.71054273576E-14  0.00000000000E+00  0.91188000000E+02  0.91188000000E+02 0.  0.
    9900012    2    3    3    0    0 -0.74912939231E+01 -0.36571064114E+02 -0.25210141792E+02  0.46142318029E+02  0.10000002439E+02 0.  0.
         12    1    3    3    0    0  0.74912939231E+01  0.36571064114E+02  0.25210141792E+02  0.45045681971E+02  0.00000000000E+00 0. -1.
         11    1    4    4    0    0 -0.98852810430E+00 -0.11005677961E+02 -0.11116417696E+02  0.15674082999E+02  0.51100000000E-03 0. -1.
        -11    1    4    4    0    0  0.20474445408E-01 -0.10255810460E+02 -0.67548069515E+01  0.12280451320E+02  0.51100000000E-03 0.  1.
         12    1    4    4    0    0 -0.65232402642E+01 -0.15309575693E+02 -0.73389171445E+01  0.18187783710E+02  0.00000000000E+00 0. -1.
</event>
<event>
 8    1  0.9117959E-009  0.9118800E+02  0.7816164E-02  0.1184000E+00
        -11   -1    0    0    0    0  0.00000000000E+00  0.00000000000E+00  0.45593999997E+02  0.45594000000E+02  0.51100000000E-03 0. -1.
         11   -1    0    0    0    0 -0.00000000000E+00 -0.00000000000E+00 -0.45593999997E+02  0.45594000000E+02  0.51100000000E-03 0.  1.
         23    2    1    2    0    0  0.00000000000E+00  0.00000000000E+00  0.00000000000E+00  0.91188000000E+02  0.91188000000E+02 0.  0.
    9900012    2    3    3    0    0 -0.19925014178E+02  0.24650735099E+02  0.32007006891E+02  0.46142318508E+02  0.10000006813E+02 0.  0.
        -12    1    3    3    0    0  0.19925014178E+02 -0.24650735099E+02 -0.32007006891E+02  0.45045681492E+02  0.00000000000E+00 0.  1.
         11    1    4    4    0    0 -0.67356589283E+01  0.57934440759E+01  0.48642160566E+01  0.10128854504E+02  0.51100000000E-03 0. -1.
        -11    1    4    4    0    0 -0.27786140794E-01  0.27491461118E+00  0.22876292199E+01  0.23042564575E+01  0.51100000000E-03 0.  1.
        -12    1    4    4    0    0 -0.13161569109E+02  0.18582376412E+02  0.24855161614E+02  0.33709207547E+02  0.00000000000E+00 0.  1.
</event>
<event>
 8    1  0.9117959E-009  0.9118800E+02  0.7816164E-02  0.1184000E+00
        -11   -1    0    0    0    0  0.00000000000E+00  0.00000000000E+00  0.45593999997E+02  0.45594000000E+02  0.51100000000E-03 0. -1.
         11   -1    0    0    0    0 -0.00000000000E+00 -0.00000000000E+00 -0.45593999997E+02  0.45594000000E+02  0.51100000000E-03 0.  1.
         23    2    1    2    0    0  0.00000000000E+00  0.00000000000E+00  0.00000000000E+00  0.91188000000E+02  0.91188000000E+02 0.  0.
    9900012    2    3    3    0    0  0.13528816067E+02  0.18444715721E+02  0.38805637031E+02  0.46142313552E+02  0.99999616139E+01 0.  0.
        -12    1    3    3    0    0 -0.13528816067E+02 -0.18444715721E+02 -0.38805637031E+02  0.45045686448E+02  0.00000000000E+00 0.  1.
         11    1    4    4    0    0  0.10413734970E+02  0.10391982954E+02  0.22433482951E+02  0.26827231377E+02  0.51100000000E-03 0.  1.
        -11    1    4    4    0    0  0.10882101004E+01 -0.44573961356E+00  0.39983612905E+01  0.41677065991E+01  0.51100000000E-03 0. -1.
        -12    1    4    4    0    0  0.20268709966E+01  0.84984723804E+01  0.12373792789E+02  0.15147375576E+02  0.00000000000E+00 0.  1.
</event>
<event>
 8    1  0.9117959E-009  0.9118800E+02  0.7816164E-02  0.1184000E+00
        -11   -1    0    0    0    0  0.00000000000E+00  0.00000000000E+00  0.45593999997E+02  0.45594000000E+02  0.51100000000E-03 0. -1.
         11   -1    0    0    0    0 -0.00000000000E+00 -0.00000000000E+00 -0.45593999997E+02  0.45594000000E+02  0.51100000000E-03 0.  1.
         23    2    1    2    0    0  0.00000000000E+00  0.00000000000E+00  0.00000000000E+00  0.91188000000E+02  0.91188000000E+02 0.  0.
    9900012    2    3    3    0    0  0.45502710286E+01  0.43401078109E+02 -0.11169369939E+02  0.46142319050E+02  0.10000011752E+02 0.  0.
         12    1    3    3    0    0 -0.45502710286E+01 -0.43401078109E+02  0.11169369939E+02  0.45045680950E+02  0.00000000000E+00 0. -1.
         11    1    4    4    0    0  0.45724182445E+01  0.30993654028E+02 -0.10120562302E+02  0.32923234655E+02  0.51100000000E-03 0. -1.
        -11    1    4    4    0    0  0.19235954994E+00  0.84820373877E+01 -0.27736565254E+01  0.89260927188E+01  0.51100000000E-03 0.  1.
         12    1    4    4    0    0 -0.21450676579E+00  0.39253866932E+01  0.17248488880E+01  0.42929916760E+01  0.00000000000E+00 0. -1.
</event>
<event>
 8    1  0.9117959E-009  0.9118800E+02  0.7816164E-02  0.1184000E+00
        -11   -1    0    0    0    0  0.00000000000E+00  0.00000000000E+00  0.45593999997E+02  0.45594000000E+02  0.51100000000E-03 0. -1.
         11   -1    0    0    0    0 -0.00000000000E+00 -0.00000000000E+00 -0.45593999997E+02  0.45594000000E+02  0.51100000000E-03 0.  1.
         23    2    1    2    0    0  0.00000000000E+00  0.00000000000E+00  0.00000000000E+00  0.91188000000E+02  0.91188000000E+02 0.  0.
    9900012    2    3    3    0    0 -0.25132700335E+02 -0.11761062300E+02 -0.35484337526E+02  0.46142318495E+02  0.10000006693E+02 0.  0.
         12    1    3    3    0    0  0.25132700335E+02  0.11761062300E+02  0.35484337526E+02  0.45045681505E+02  0.00000000000E+00 0. -1.
         11    1    4    4    0    0 -0.12116476066E+01  0.33712168042E+00 -0.43373636608E+01  0.45160231108E+01  0.51100000000E-03 0. -1.
        -11    1    4    4    0    0 -0.18070785112E+02 -0.96602354060E+01 -0.27563074262E+02  0.34345254195E+02  0.51100000000E-03 0.  1.
         12    1    4    4    0    0 -0.58502676165E+01 -0.24379485745E+01 -0.35838996035E+01  0.72810411896E+01  0.00000000000E+00 0. -1.
</event>
<event>
 8    1  0.9117959E-009  0.9118800E+02  0.7816164E-02  0.1184000E+00
        -11   -1    0    0    0    0  0.00000000000E+00  0.00000000000E+00  0.45593999997E+02  0.45594000000E+02  0.51100000000E-03 0. -1.
         11   -1    0    0    0    0 -0.00000000000E+00 -0.00000000000E+00 -0.45593999997E+02  0.45594000000E+02  0.51100000000E-03 0.  1.
         23    2    1    2    0    0 -0.71054273576E-14 -0.88817841970E-15 -0.71054273576E-14  0.91188000000E+02  0.91188000000E+02 0.  0.
    9900012    2    3    3    0    0 -0.36830870479E+02 -0.72531520092E+01 -0.24899642751E+02  0.46142318260E+02  0.10000004548E+02 0.  0.
         12    1    3    3    0    0  0.36830870479E+02  0.72531520092E+01  0.24899642751E+02  0.45045681740E+02  0.00000000000E+00 0. -1.
         11    1    4    4    0    0 -0.12451396985E+01 -0.13974073884E+01 -0.85246325715E+00  0.20566511965E+01  0.51100000000E-03 0. -1.
        -11    1    4    4    0    0 -0.10561964911E+02 -0.30892831721E+01 -0.33765022339E+01  0.11510844491E+02  0.51100000000E-03 0.  1.
        -12    1    4    4    0    0 -0.25023765869E+02 -0.27664614487E+01 -0.20670677260E+02  0.32574822573E+02  0.00000000000E+00 0.  1.
</event>
<event>
 8    1  0.9117959E-009  0.9118800E+02  0.7816164E-02  0.1184000E+00
        -11   -1    0    0    0    0  0.00000000000E+00  0.00000000000E+00  0.45593999997E+02  0.45594000000E+02  0.51100000000E-03 0. -1.
         11   -1    0    0    0    0 -0.00000000000E+00 -0.00000000000E+00 -0.45593999997E+02  0.45594000000E+02  0.51100000000E-03 0.  1.
         23    2    1    2    0    0 -0.71054273576E-14 -0.44408920985E-15  0.00000000000E+00  0.91188000000E+02  0.91188000000E+02 0.  0.
    9900012    2    3    3    0    0 -0.31119330519E+02 -0.24415762774E+01 -0.32476752843E+02  0.46142317611E+02  0.99999986308E+01 0.  0.
         12    1    3    3    0    0  0.31119330519E+02  0.24415762774E+01  0.32476752843E+02  0.45045682389E+02  0.00000000000E+00 0. -1.
         11    1    4    4    0    0 -0.89085521930E+01 -0.19120428629E+01 -0.56282426492E+01  0.10709590359E+02  0.51100000000E-03 0. -1.
        -11    1    4    4    0    0 -0.19906521984E+02  0.15870695367E+01 -0.22642564548E+02  0.30190629950E+02  0.51100000000E-03 0.  1.
        -12    1    4    4    0    0 -0.23042563419E+01 -0.21166029512E+01 -0.42059456461E+01  0.52420973016E+01  0.00000000000E+00 0.  1.
</event>
<event>
 8    1  0.9117959E-009  0.9118800E+02  0.7816164E-02  0.1184000E+00
        -11   -1    0    0    0    0  0.00000000000E+00  0.00000000000E+00  0.45593999997E+02  0.45594000000E+02  0.51100000000E-03 0. -1.
         11   -1    0    0    0    0 -0.00000000000E+00 -0.00000000000E+00 -0.45593999997E+02  0.45594000000E+02  0.51100000000E-03 0.  1.
         23    2    1    2    0    0  0.00000000000E+00  0.00000000000E+00  0.00000000000E+00  0.91188000000E+02  0.91188000000E+02 0.  0.
    9900012    2    3    3    0    0 -0.12426270977E+02  0.46287113536E+01 -0.43049695584E+02  0.46142317976E+02  0.10000001958E+02 0.  0.
         12    1    3    3    0    0  0.12426270977E+02 -0.46287113536E+01  0.43049695584E+02  0.45045682024E+02  0.00000000000E+00 0. -1.
         11    1    4    4    0    0 -0.62741096574E-01 -0.12427159214E+01 -0.51885681927E+00  0.13481438968E+01  0.51100000000E-03 0. -1.
        -11    1    4    4    0    0  0.16854469107E+00 -0.72659273606E-01 -0.70365414045E+00  0.72719742397E+00  0.51100000000E-03 0.  1.
        -12    1    4    4    0    0 -0.12532074571E+02  0.59440865486E+01 -0.41827184624E+02  0.44066976655E+02  0.00000000000E+00 0.  1.
</event>
<event>
 8    1  0.9117959E-009  0.9118800E+02  0.7816164E-02  0.1184000E+00
        -11   -1    0    0    0    0  0.00000000000E+00  0.00000000000E+00  0.45593999997E+02  0.45594000000E+02  0.51100000000E-03 0. -1.
         11   -1    0    0    0    0 -0.00000000000E+00 -0.00000000000E+00 -0.45593999997E+02  0.45594000000E+02  0.51100000000E-03 0.  1.
         23    2    1    2    0    0  0.00000000000E+00  0.88817841970E-15  0.00000000000E+00  0.91188000000E+02  0.91188000000E+02 0.  0.
    9900012    2    3    3    0    0  0.18140412180E+02 -0.63732319560E+01  0.40735984334E+02  0.46142322524E+02  0.10000043430E+02 0.  0.
        -12    1    3    3    0    0 -0.18140412180E+02  0.63732319560E+01 -0.40735984334E+02  0.45045677476E+02  0.00000000000E+00 0.  1.
         11    1    4    4    0    0  0.26622892391E+01  0.16092227813E+00  0.77029206253E+01  0.81516051421E+01  0.51100000000E-03 0. -1.
        -11    1    4    4    0    0  0.20354301204E+01 -0.21969252400E+00  0.33065010736E+00  0.20737816507E+01  0.51100000000E-03 0.  1.
        -12    1    4    4    0    0  0.13442692821E+02 -0.63144617102E+01  0.32702413601E+02  0.35916935731E+02  0.00000000000E+00 0.  1.
</event>
<event>
 8    1  0.9117959E-009  0.9118800E+02  0.7816164E-02  0.1184000E+00
        -11   -1    0    0    0    0  0.00000000000E+00  0.00000000000E+00  0.45593999997E+02  0.45594000000E+02  0.51100000000E-03 0. -1.
         11   -1    0    0    0    0 -0.00000000000E+00 -0.00000000000E+00 -0.45593999997E+02  0.45594000000E+02  0.51100000000E-03 0.  1.
         23    2    1    2    0    0  0.00000000000E+00  0.00000000000E+00  0.00000000000E+00  0.91188000000E+02  0.91188000000E+02 0.  0.
    9900012    2    3    3    0    0  0.37650994982E+02  0.22770124026E+02  0.96455972820E+01  0.46142317430E+02  0.99999969793E+01 0.  0.
        -12    1    3    3    0    0 -0.37650994982E+02 -0.22770124026E+02 -0.96455972820E+01  0.45045682570E+02  0.00000000000E+00 0.  1.
         11    1    4    4    0    0  0.16757991263E+02  0.77395912309E+01  0.14859989481E+01  0.18518632151E+02  0.51100000000E-03 0. -1.
        -11    1    4    4    0    0  0.15343931695E+02  0.10740093242E+02  0.85711601345E+01  0.20597345193E+02  0.51100000000E-03 0.  1.
        -12    1    4    4    0    0  0.55490720241E+01  0.42904395535E+01 -0.41156180060E+00  0.70263400862E+01  0.00000000000E+00 0.  1.
</event>
<event>
 8    1  0.9117959E-009  0.9118800E+02  0.7816164E-02  0.1184000E+00
        -11   -1    0    0    0    0  0.00000000000E+00  0.00000000000E+00  0.45593999997E+02  0.45594000000E+02  0.51100000000E-03 0. -1.
         11   -1    0    0    0    0 -0.00000000000E+00 -0.00000000000E+00 -0.45593999997E+02  0.45594000000E+02  0.51100000000E-03 0.  1.
         23    2    1    2    0    0  0.00000000000E+00 -0.88817841970E-15  0.00000000000E+00  0.91188000000E+02  0.91188000000E+02 0.  0.
    9900012    2    3    3    0    0 -0.36917274681E+01 -0.62870077405E+01 -0.44451751280E+02  0.46142317522E+02  0.99999978233E+01 0.  0.
         12    1    3    3    0    0  0.36917274681E+01  0.62870077405E+01  0.44451751280E+02  0.45045682478E+02  0.00000000000E+00 0. -1.
         11    1    4    4    0    0 -0.23523718483E+01 -0.45253024737E+00 -0.35930482515E+01  0.43183831391E+01  0.51100000000E-03 0. -1.
        -11    1    4    4    0    0 -0.27748909619E+01 -0.61383447527E+01 -0.24809480158E+02  0.25707773185E+02  0.51100000000E-03 0.  1.
        -12    1    4    4    0    0  0.14355353422E+01  0.30386725958E+00 -0.16049222871E+02  0.16116161199E+02  0.00000000000E+00 0.  1.
</event>
<event>
 8    1  0.9117959E-009  0.9118800E+02  0.7816164E-02  0.1184000E+00
        -11   -1    0    0    0    0  0.00000000000E+00  0.00000000000E+00  0.45593999997E+02  0.45594000000E+02  0.51100000000E-03 0. -1.
         11   -1    0    0    0    0 -0.00000000000E+00 -0.00000000000E+00 -0.45593999997E+02  0.45594000000E+02  0.51100000000E-03 0.  1.
         23    2    1    2    0    0  0.35527136788E-14  0.00000000000E+00  0.00000000000E+00  0.91188000000E+02  0.91188000000E+02 0.  0.
    9900012    2    3    3    0    0  0.21834870815E+02  0.10434605875E+02 -0.37993039649E+02  0.46142316022E+02  0.99999841435E+01 0.  0.
         12    1    3    3    0    0 -0.21834870815E+02 -0.10434605875E+02  0.37993039649E+02  0.45045683978E+02  0.00000000000E+00 0. -1.
         11    1    4    4    0    0  0.67197376211E+01  0.48926481639E+00 -0.14066077955E+02  0.15596435588E+02  0.51100000000E-03 0. -1.
        -11    1    4    4    0    0  0.81167762902E+01  0.54906854444E+01 -0.17480097991E+02  0.20039548648E+02  0.51100000000E-03 0.  1.
         12    1    4    4    0    0  0.69983569032E+01  0.44546556140E+01 -0.64468637028E+01  0.10506331785E+02  0.00000000000E+00 0. -1.
</event>
<event>
 8    1  0.9117959E-009  0.9118800E+02  0.7816164E-02  0.1184000E+00
        -11   -1    0    0    0    0  0.00000000000E+00  0.00000000000E+00  0.45593999997E+02  0.45594000000E+02  0.51100000000E-03 0. -1.
         11   -1    0    0    0    0 -0.00000000000E+00 -0.00000000000E+00 -0.45593999997E+02  0.45594000000E+02  0.51100000000E-03 0.  1.
         23    2    1    2    0    0  0.44408920985E-15  0.00000000000E+00  0.00000000000E+00  0.91188000000E+02  0.91188000000E+02 0.  0.
    9900012    2    3    3    0    0 -0.10673324716E+01 -0.53154079687E+01  0.44718237345E+02  0.46142317502E+02  0.99999976402E+01 0.  0.
        -12    1    3    3    0    0  0.10673324716E+01  0.53154079687E+01 -0.44718237345E+02  0.45045682498E+02  0.00000000000E+00 0.  1.
         11    1    4    4    0    0  0.55376128988E+00 -0.40183816725E+01  0.15814668614E+02  0.16326597516E+02  0.51100000000E-03 0. -1.
        -11    1    4    4    0    0 -0.27630402292E+01  0.15770500813E+01  0.22276766769E+02  0.22502795742E+02  0.51100000000E-03 0.  1.
         12    1    4    4    0    0  0.11419464678E+01 -0.28740763776E+01  0.66268019621E+01  0.73129242444E+01  0.00000000000E+00 0. -1.
</event>
<event>
 8    1  0.9117959E-009  0.9118800E+02  0.7816164E-02  0.1184000E+00
        -11   -1    0    0    0    0  0.00000000000E+00  0.00000000000E+00  0.45593999997E+02  0.45594000000E+02  0.51100000000E-03 0. -1.
         11   -1    0    0    0    0 -0.00000000000E+00 -0.00000000000E+00 -0.45593999997E+02  0.45594000000E+02  0.51100000000E-03 0.  1.
         23    2    1    2    0    0  0.00000000000E+00  0.00000000000E+00  0.00000000000E+00  0.91188000000E+02  0.91188000000E+02 0.  0.
    9900012    2    3    3    0    0  0.33895311757E+02 -0.10262336804E+02  0.27837130779E+02  0.46142316902E+02  0.99999921661E+01 0.  0.
        -12    1    3    3    0    0 -0.33895311757E+02  0.10262336804E+02 -0.27837130779E+02  0.45045683098E+02  0.00000000000E+00 0.  1.
         11    1    4    4    0    0  0.10381749951E+02 -0.19824275084E+01  0.71079747767E+01  0.12737113352E+02  0.51100000000E-03 0. -1.
        -11    1    4    4    0    0  0.17064508826E+02 -0.48727019772E+01  0.98199269508E+01  0.20282298972E+02  0.51100000000E-03 0.  1.
        -12    1    4    4    0    0  0.64490529806E+01 -0.34072073181E+01  0.10909229051E+02  0.13122904577E+02  0.00000000000E+00 0.  1.
</event>
<event>
 8    1  0.9117959E-009  0.9118800E+02  0.7816164E-02  0.1184000E+00
        -11   -1    0    0    0    0  0.00000000000E+00  0.00000000000E+00  0.45593999997E+02  0.45594000000E+02  0.51100000000E-03 0. -1.
         11   -1    0    0    0    0 -0.00000000000E+00 -0.00000000000E+00 -0.45593999997E+02  0.45594000000E+02  0.51100000000E-03 0.  1.
         23    2    1    2    0    0  0.00000000000E+00  0.00000000000E+00  0.71054273576E-14  0.91188000000E+02  0.91188000000E+02 0.  0.
    9900012    2    3    3    0    0 -0.25798236010E+01  0.16592425515E+02  0.41798916211E+02  0.46142317957E+02  0.10000001785E+02 0.  0.
        -12    1    3    3    0    0  0.25798236010E+01 -0.16592425515E+02 -0.41798916211E+02  0.45045682043E+02  0.00000000000E+00 0.  1.
         11    1    4    4    0    0 -0.10085789284E+01  0.44807180075E+01  0.16639135959E+02  0.17261370486E+02  0.51100000000E-03 0. -1.
        -11    1    4    4    0    0 -0.64629320892E+00 -0.72385998713E+00  0.56505050749E+00  0.11229205359E+01  0.51100000000E-03 0.  1.
        -12    1    4    4    0    0 -0.92495146371E+00  0.12835567495E+02  0.24594729745E+02  0.27758026935E+02  0.00000000000E+00 0.  1.
</event>
<event>
 8    1  0.9117959E-009  0.9118800E+02  0.7816164E-02  0.1184000E+00
        -11   -1    0    0    0    0  0.00000000000E+00  0.00000000000E+00  0.45593999997E+02  0.45594000000E+02  0.51100000000E-03 0. -1.
         11   -1    0    0    0    0 -0.00000000000E+00 -0.00000000000E+00 -0.45593999997E+02  0.45594000000E+02  0.51100000000E-03 0.  1.
         23    2    1    2    0    0 -0.44408920985E-15  0.71054273576E-14 -0.71054273576E-14  0.91188000000E+02  0.91188000000E+02 0.  0.
    9900012    2    3    3    0    0  0.16010436145E+01 -0.21151874543E+02  0.39738499379E+02  0.46142317963E+02  0.10000001837E+02 0.  0.
        -12    1    3    3    0    0 -0.16010436145E+01  0.21151874543E+02 -0.39738499379E+02  0.45045682037E+02  0.00000000000E+00 0.  1.
         11    1    4    4    0    0 -0.13282228340E+00 -0.43775993930E+01  0.38791919907E+01  0.58505682601E+01  0.51100000000E-03 0. -1.
        -11    1    4    4    0    0  0.99428268240E-01  0.11098330294E+00 -0.30878285056E+00  0.34285621473E+00  0.51100000000E-03 0.  1.
        -12    1    4    4    0    0  0.16344376297E+01 -0.16885258453E+02  0.36168090239E+02  0.39948893488E+02  0.00000000000E+00 0.  1.
</event>
<event>
 8    1  0.9117959E-009  0.9118800E+02  0.7816164E-02  0.1184000E+00
        -11   -1    0    0    0    0  0.00000000000E+00  0.00000000000E+00  0.45593999997E+02  0.45594000000E+02  0.51100000000E-03 0. -1.
         11   -1    0    0    0    0 -0.00000000000E+00 -0.00000000000E+00 -0.45593999997E+02  0.45594000000E+02  0.51100000000E-03 0.  1.
         23    2    1    2    0    0  0.00000000000E+00  0.35527136788E-14  0.00000000000E+00  0.91188000000E+02  0.91188000000E+02 0.  0.
    9900012    2    3    3    0    0  0.16829316463E+02  0.30760471846E+02  0.28278630842E+02  0.46142317820E+02  0.10000000537E+02 0.  0.
        -12    1    3    3    0    0 -0.16829316463E+02 -0.30760471846E+02 -0.28278630842E+02  0.45045682180E+02  0.00000000000E+00 0.  1.
         11    1    4    4    0    0  0.13451611653E+02  0.16945165851E+02  0.17440180415E+02  0.27789285614E+02  0.51100000000E-03 0. -1.
        -11    1    4    4    0    0  0.28838820189E+01  0.13524601277E+02  0.11090944490E+02  0.17726834606E+02  0.51100000000E-03 0.  1.
        -12    1    4    4    0    0  0.49382279089E+00  0.29070471787E+00 -0.25249406353E+00  0.62619759973E+00  0.00000000000E+00 0.  1.
</event>
<event>
 8    1  0.9117959E-009  0.9118800E+02  0.7816164E-02  0.1184000E+00
        -11   -1    0    0    0    0  0.00000000000E+00  0.00000000000E+00  0.45593999997E+02  0.45594000000E+02  0.51100000000E-03 0. -1.
         11   -1    0    0    0    0 -0.00000000000E+00 -0.00000000000E+00 -0.45593999997E+02  0.45594000000E+02  0.51100000000E-03 0.  1.
         23    2    1    2    0    0  0.00000000000E+00  0.35527136788E-14 -0.71054273576E-14  0.91188000000E+02  0.91188000000E+02 0.  0.
    9900012    2    3    3    0    0 -0.16493097189E+02  0.24027322100E+02 -0.34347911300E+02  0.46142317933E+02  0.10000001570E+02 0.  0.
         12    1    3    3    0    0  0.16493097189E+02 -0.24027322100E+02  0.34347911300E+02  0.45045682067E+02  0.00000000000E+00 0. -1.
         11    1    4    4    0    0 -0.47173062981E+01  0.90872148723E+01 -0.69685188225E+01  0.12385100229E+02  0.51100000000E-03 0.  1.
        -11    1    4    4    0    0 -0.20650822012E+01  0.35618659882E+01 -0.27839217196E+01  0.49700778885E+01  0.51100000000E-03 0. -1.
        -12    1    4    4    0    0 -0.97107086893E+01  0.11378241240E+02 -0.24595470758E+02  0.28787139816E+02  0.00000000000E+00 0.  1.
</event>
<event>
 8    1  0.9117959E-009  0.9118800E+02  0.7816164E-02  0.1184000E+00
        -11   -1    0    0    0    0  0.00000000000E+00  0.00000000000E+00  0.45593999997E+02  0.45594000000E+02  0.51100000000E-03 0. -1.
         11   -1    0    0    0    0 -0.00000000000E+00 -0.00000000000E+00 -0.45593999997E+02  0.45594000000E+02  0.51100000000E-03 0.  1.
         23    2    1    2    0    0 -0.35527136788E-14  0.00000000000E+00  0.00000000000E+00  0.91188000000E+02  0.91188000000E+02 0.  0.
    9900012    2    3    3    0    0 -0.16230586863E+02 -0.44677408478E+01  0.41781824644E+02  0.46142317312E+02  0.99999959087E+01 0.  0.
        -12    1    3    3    0    0  0.16230586863E+02  0.44677408478E+01 -0.41781824644E+02  0.45045682688E+02  0.00000000000E+00 0.  1.
         11    1    4    4    0    0 -0.60378507738E+01  0.67345245534E+00  0.10996910121E+02  0.12563487281E+02  0.51100000000E-03 0. -1.
        -11    1    4    4    0    0 -0.11205920653E+02 -0.44417547557E+01  0.29048565313E+02  0.31450293957E+02  0.51100000000E-03 0.  1.
        -12    1    4    4    0    0  0.10131845639E+01 -0.69943854740E+00  0.17363492104E+01  0.21285360750E+01  0.00000000000E+00 0.  1.
</event>
<event>
 8    1  0.9117959E-009  0.9118800E+02  0.7816164E-02  0.1184000E+00
        -11   -1    0    0    0    0  0.00000000000E+00  0.00000000000E+00  0.45593999997E+02  0.45594000000E+02  0.51100000000E-03 0. -1.
         11   -1    0    0    0    0 -0.00000000000E+00 -0.00000000000E+00 -0.45593999997E+02  0.45594000000E+02  0.51100000000E-03 0.  1.
         23    2    1    2    0    0  0.00000000000E+00  0.00000000000E+00 -0.71054273576E-14  0.91188000000E+02  0.91188000000E+02 0.  0.
    9900012    2    3    3    0    0  0.24618009663E+01  0.41384487597E+01 -0.44787568432E+02  0.46142317541E+02  0.99999979947E+01 0.  0.
         12    1    3    3    0    0 -0.24618009663E+01 -0.41384487597E+01  0.44787568432E+02  0.45045682459E+02  0.00000000000E+00 0. -1.
         11    1    4    4    0    0 -0.23280323365E+00  0.25749549723E+01 -0.10684782793E+02  0.10993142137E+02  0.51100000000E-03 0. -1.
        -11    1    4    4    0    0 -0.24589664575E+01 -0.11117733836E+01 -0.10148732918E+02  0.10501396868E+02  0.51100000000E-03 0.  1.
         12    1    4    4    0    0  0.51535706575E+01  0.26752671709E+01 -0.23954052722E+02  0.24647778536E+02  0.00000000000E+00 0. -1.
</event>
<event>
 8    1  0.9117959E-009  0.9118800E+02  0.7816164E-02  0.1184000E+00
        -11   -1    0    0    0    0  0.00000000000E+00  0.00000000000E+00  0.45593999997E+02  0.45594000000E+02  0.51100000000E-03 0. -1.
         11   -1    0    0    0    0 -0.00000000000E+00 -0.00000000000E+00 -0.45593999997E+02  0.45594000000E+02  0.51100000000E-03 0.  1.
         23    2    1    2    0    0 -0.71054273576E-14  0.17763568394E-14  0.00000000000E+00  0.91188000000E+02  0.91188000000E+02 0.  0.
    9900012    2    3    3    0    0 -0.35429855773E+02 -0.13645111153E+02 -0.24241488511E+02  0.46142317591E+02  0.99999984445E+01 0.  0.
         12    1    3    3    0    0  0.35429855773E+02  0.13645111153E+02  0.24241488511E+02  0.45045682409E+02  0.00000000000E+00 0. -1.
         11    1    4    4    0    0 -0.85511391776E+00 -0.12079847763E+01 -0.23781079101E+01  0.28010434708E+01  0.51100000000E-03 0.  1.
        -11    1    4    4    0    0 -0.85124876141E+01 -0.57503402221E+01 -0.38931373747E+01  0.10985689643E+02  0.51100000000E-03 0. -1.
        -12    1    4    4    0    0 -0.26062254241E+02 -0.66867861549E+01 -0.17970243226E+02  0.32355584477E+02  0.00000000000E+00 0.  1.
</event>
<event>
 8    1  0.9117959E-009  0.9118800E+02  0.7816164E-02  0.1184000E+00
        -11   -1    0    0    0    0  0.00000000000E+00  0.00000000000E+00  0.45593999997E+02  0.45594000000E+02  0.51100000000E-03 0. -1.
         11   -1    0    0    0    0 -0.00000000000E+00 -0.00000000000E+00 -0.45593999997E+02  0.45594000000E+02  0.51100000000E-03 0.  1.
         23    2    1    2    0    0 -0.35527136788E-14  0.00000000000E+00  0.71054273576E-14  0.91188000000E+02  0.91188000000E+02 0.  0.
    9900012    2    3    3    0    0 -0.17878917393E+02  0.22854136562E+02 -0.34454988609E+02  0.46142317797E+02  0.10000000326E+02 0.  0.
         12    1    3    3    0    0  0.17878917393E+02 -0.22854136562E+02  0.34454988609E+02  0.45045682203E+02  0.00000000000E+00 0. -1.
         11    1    4    4    0    0 -0.49155593870E+00  0.32372363644E+01 -0.80284606307E+01  0.86704963456E+01  0.51100000000E-03 0. -1.
        -11    1    4    4    0    0 -0.73901535239E+01  0.54185374079E+01 -0.10090735529E+02  0.13630768889E+02  0.51100000000E-03 0.  1.
        -12    1    4    4    0    0 -0.99972079301E+01  0.14198362790E+02 -0.16335792449E+02  0.23841052562E+02  0.00000000000E+00 0.  1.
</event>
<event>
 8    1  0.9117959E-009  0.9118800E+02  0.7816164E-02  0.1184000E+00
        -11   -1    0    0    0    0  0.00000000000E+00  0.00000000000E+00  0.45593999997E+02  0.45594000000E+02  0.51100000000E-03 0. -1.
         11   -1    0    0    0    0 -0.00000000000E+00 -0.00000000000E+00 -0.45593999997E+02  0.45594000000E+02  0.51100000000E-03 0.  1.
         23    2    1    2    0    0  0.00000000000E+00  0.00000000000E+00  0.35527136788E-14  0.91188000000E+02  0.91188000000E+02 0.  0.
    9900012    2    3    3    0    0  0.33240844165E+02  0.13940086418E+02  0.27015429893E+02  0.46142321156E+02  0.10000030960E+02 0.  0.
        -12    1    3    3    0    0 -0.33240844165E+02 -0.13940086418E+02 -0.27015429893E+02  0.45045678844E+02  0.00000000000E+00 0.  1.
         11    1    4    4    0    0  0.10617925501E+02  0.51932213872E+01  0.56638665212E+01  0.13106840754E+02  0.51100000000E-03 0. -1.
        -11    1    4    4    0    0 -0.31477891816E+00  0.50359741696E+00  0.14559318447E+01  0.15723975080E+01  0.51100000000E-03 0.  1.
        -12    1    4    4    0    0  0.22937697582E+02  0.82432676142E+01  0.19895631527E+02  0.31463082894E+02  0.00000000000E+00 0.  1.
</event>
<event>
 8    1  0.9117959E-009  0.9118800E+02  0.7816164E-02  0.1184000E+00
        -11   -1    0    0    0    0  0.00000000000E+00  0.00000000000E+00  0.45593999997E+02  0.45594000000E+02  0.51100000000E-03 0. -1.
         11   -1    0    0    0    0 -0.00000000000E+00 -0.00000000000E+00 -0.45593999997E+02  0.45594000000E+02  0.51100000000E-03 0.  1.
         23    2    1    2    0    0 -0.35527136788E-14  0.35527136788E-14  0.00000000000E+00  0.91188000000E+02  0.91188000000E+02 0.  0.
    9900012    2    3    3    0    0 -0.13995188546E+02  0.25497539013E+02 -0.34396557904E+02  0.46142323251E+02  0.10000050061E+02 0.  0.
         12    1    3    3    0    0  0.13995188546E+02 -0.25497539013E+02  0.34396557904E+02  0.45045676749E+02  0.00000000000E+00 0. -1.
         11    1    4    4    0    0 -0.69411396792E+01  0.76490713681E+01 -0.83735361984E+01  0.13296759815E+02  0.51100000000E-03 0. -1.
        -11    1    4    4    0    0 -0.10906754638E+01  0.29825064973E+01 -0.13985174219E+01  0.34699811547E+01  0.51100000000E-03 0.  1.
        -12    1    4    4    0    0 -0.59633734025E+01  0.14865961148E+02 -0.24624504283E+02  0.29375582282E+02  0.00000000000E+00 0.  1.
</event>
<event>
 8    1  0.9117959E-009  0.9118800E+02  0.7816164E-02  0.1184000E+00
        -11   -1    0    0    0    0  0.00000000000E+00  0.00000000000E+00  0.45593999997E+02  0.45594000000E+02  0.51100000000E-03 0. -1.
         11   -1    0    0    0    0 -0.00000000000E+00 -0.00000000000E+00 -0.45593999997E+02  0.45594000000E+02  0.51100000000E-03 0.  1.
         23    2    1    2    0    0  0.00000000000E+00 -0.71054273576E-14  0.00000000000E+00  0.91188000000E+02  0.91188000000E+02 0.  0.
    9900012    2    3    3    0    0 -0.83182222323E+01  0.40122455806E+02 -0.18711206061E+02  0.46142317485E+02  0.99999974779E+01 0.  0.
         12    1    3    3    0    0  0.83182222323E+01 -0.40122455806E+02  0.18711206061E+02  0.45045682515E+02  0.00000000000E+00 0. -1.
         11    1    4    4    0    0 -0.25915322929E+00 -0.45147726772E-01 -0.12691716322E+01  0.12961464449E+01  0.51100000000E-03 0.  1.
        -11    1    4    4    0    0 -0.30096002212E+01  0.18896494226E+02 -0.53772556990E+01  0.19875866438E+02  0.51100000000E-03 0. -1.
        -12    1    4    4    0    0 -0.50494687818E+01  0.21271109307E+02 -0.12064778729E+02  0.24970304602E+02  0.00000000000E+00 0.  1.
</event>
<event>
 8    1  0.9117959E-009  0.9118800E+02  0.7816164E-02  0.1184000E+00
        -11   -1    0    0    0    0  0.00000000000E+00  0.00000000000E+00  0.45593999997E+02  0.45594000000E+02  0.51100000000E-03 0. -1.
         11   -1    0    0    0    0 -0.00000000000E+00 -0.00000000000E+00 -0.45593999997E+02  0.45594000000E+02  0.51100000000E-03 0.  1.
         23    2    1    2    0    0 -0.88817841970E-15  0.00000000000E+00  0.35527136788E-14  0.91188000000E+02  0.91188000000E+02 0.  0.
    9900012    2    3    3    0    0 -0.66082840583E+01  0.38285080408E+02  0.22796862583E+02  0.46142314927E+02  0.99999741596E+01 0.  0.
        -12    1    3    3    0    0  0.66082840583E+01 -0.38285080408E+02 -0.22796862583E+02  0.45045685073E+02  0.00000000000E+00 0.  1.
         11    1    4    4    0    0 -0.16048322124E+01  0.56565243946E+01  0.33656690059E+01  0.67749157024E+01  0.51100000000E-03 0.  1.
        -11    1    4    4    0    0 -0.44747011434E+01  0.93981362344E+01  0.95183325429E+01  0.14104842064E+02  0.51100000000E-03 0. -1.
         12    1    4    4    0    0 -0.52875070253E+00  0.23230419779E+02  0.99128610344E+01  0.25262557161E+02  0.00000000000E+00 0. -1.
</event>
<event>
 8    1  0.9117959E-009  0.9118800E+02  0.7816164E-02  0.1184000E+00
        -11   -1    0    0    0    0  0.00000000000E+00  0.00000000000E+00  0.45593999997E+02  0.45594000000E+02  0.51100000000E-03 0.  1.
         11   -1    0    0    0    0 -0.00000000000E+00 -0.00000000000E+00 -0.45593999997E+02  0.45594000000E+02  0.51100000000E-03 0. -1.
         23    2    1    2    0    0  0.00000000000E+00  0.00000000000E+00  0.17763568394E-14  0.91188000000E+02  0.91188000000E+02 0.  0.
    9900012    2    3    3    0    0 -0.44005521484E+02 -0.43341826988E+01 -0.85931641153E+01  0.46142317296E+02  0.99999957583E+01 0.  0.
         12    1    3    3    0    0  0.44005521484E+02  0.43341826988E+01  0.85931641153E+01  0.45045682704E+02  0.00000000000E+00 0. -1.
         11    1    4    4    0    0 -0.33028124280E+01  0.51860419853E+00 -0.30542579789E+01  0.45283564692E+01  0.51100000000E-03 0. -1.
        -11    1    4    4    0    0 -0.14548213585E+02  0.35902825051E-01 -0.66248312142E+00  0.14563333810E+02  0.51100000000E-03 0.  1.
        -12    1    4    4    0    0 -0.26154495471E+02 -0.48886897224E+01 -0.48764230149E+01  0.27050627016E+02  0.00000000000E+00 0.  1.
</event>
<event>
 8    1  0.9117959E-009  0.9118800E+02  0.7816164E-02  0.1184000E+00
        -11   -1    0    0    0    0  0.00000000000E+00  0.00000000000E+00  0.45593999997E+02  0.45594000000E+02  0.51100000000E-03 0. -1.
         11   -1    0    0    0    0 -0.00000000000E+00 -0.00000000000E+00 -0.45593999997E+02  0.45594000000E+02  0.51100000000E-03 0.  1.
         23    2    1    2    0    0  0.35527136788E-14 -0.35527136788E-14  0.00000000000E+00  0.91188000000E+02  0.91188000000E+02 0.  0.
    9900012    2    3    3    0    0 -0.22706597104E+02  0.16630262053E+02  0.35170415376E+02  0.46142320010E+02  0.10000020507E+02 0.  0.
        -12    1    3    3    0    0  0.22706597104E+02 -0.16630262053E+02 -0.35170415376E+02  0.45045679990E+02  0.00000000000E+00 0.  1.
         11    1    4    4    0    0 -0.12691425974E+02  0.11992546424E+02  0.17726470665E+02  0.24882146721E+02  0.51100000000E-03 0. -1.
        -11    1    4    4    0    0 -0.68598529788E+01  0.16250446416E+01  0.14097490294E+02  0.15761902988E+02  0.51100000000E-03 0.  1.
        -12    1    4    4    0    0 -0.31553181519E+01  0.30126709883E+01  0.33464544178E+01  0.54982703002E+01  0.00000000000E+00 0.  1.
</event>
<event>
 8    1  0.9117959E-009  0.9118800E+02  0.7816164E-02  0.1184000E+00
        -11   -1    0    0    0    0  0.00000000000E+00  0.00000000000E+00  0.45593999997E+02  0.45594000000E+02  0.51100000000E-03 0. -1.
         11   -1    0    0    0    0 -0.00000000000E+00 -0.00000000000E+00 -0.45593999997E+02  0.45594000000E+02  0.51100000000E-03 0.  1.
         23    2    1    2    0    0  0.00000000000E+00  0.00000000000E+00  0.71054273576E-14  0.91188000000E+02  0.91188000000E+02 0.  0.
    9900012    2    3    3    0    0  0.33006349420E+02  0.13337621505E+01  0.30625403588E+02  0.46142319092E+02  0.10000012140E+02 0.  0.
        -12    1    3    3    0    0 -0.33006349420E+02 -0.13337621505E+01 -0.30625403588E+02  0.45045680908E+02  0.00000000000E+00 0.  1.
         11    1    4    4    0    0  0.27309891714E+02 -0.18904695417E+01  0.24621267899E+02  0.36818621562E+02  0.51100000000E-03 0. -1.
        -11    1    4    4    0    0  0.45368620473E+01  0.10318711027E+01  0.38777585031E+01  0.60568049727E+01  0.51100000000E-03 0.  1.
        -12    1    4    4    0    0  0.11595956585E+01  0.21923605896E+01  0.21263771861E+01  0.32668925578E+01  0.00000000000E+00 0.  1.
</event>
<event>
 8    1  0.9117959E-009  0.9118800E+02  0.7816164E-02  0.1184000E+00
        -11   -1    0    0    0    0  0.00000000000E+00  0.00000000000E+00  0.45593999997E+02  0.45594000000E+02  0.51100000000E-03 0. -1.
         11   -1    0    0    0    0 -0.00000000000E+00 -0.00000000000E+00 -0.45593999997E+02  0.45594000000E+02  0.51100000000E-03 0.  1.
         23    2    1    2    0    0  0.17763568394E-14  0.00000000000E+00  0.00000000000E+00  0.91188000000E+02  0.91188000000E+02 0.  0.
    9900012    2    3    3    0    0  0.11999639955E+02 -0.34582065135E+02 -0.26252673428E+02  0.46142318186E+02  0.10000003870E+02 0.  0.
         12    1    3    3    0    0 -0.11999639955E+02  0.34582065135E+02  0.26252673428E+02  0.45045681814E+02  0.00000000000E+00 0. -1.
         11    1    4    4    0    0  0.28251704595E+00 -0.61820667882E+00 -0.73642110797E+00  0.10021535253E+01  0.51100000000E-03 0. -1.
        -11    1    4    4    0    0  0.20959602796E+00 -0.14956337406E+02 -0.11520818965E+02  0.18880286782E+02  0.51100000000E-03 0.  1.
        -12    1    4    4    0    0  0.11507526881E+02 -0.19007521050E+02 -0.13995433355E+02  0.26259877878E+02  0.00000000000E+00 0.  1.
</event>
<event>
 8    1  0.9117959E-009  0.9118800E+02  0.7816164E-02  0.1184000E+00
        -11   -1    0    0    0    0  0.00000000000E+00  0.00000000000E+00  0.45593999997E+02  0.45594000000E+02  0.51100000000E-03 0.  1.
         11   -1    0    0    0    0 -0.00000000000E+00 -0.00000000000E+00 -0.45593999997E+02  0.45594000000E+02  0.51100000000E-03 0. -1.
         23    2    1    2    0    0  0.00000000000E+00  0.00000000000E+00  0.44408920985E-15  0.91188000000E+02  0.91188000000E+02 0.  0.
    9900012    2    3    3    0    0 -0.36457308793E+02 -0.26184112969E+02  0.37908246937E+01  0.46142317762E+02  0.10000000009E+02 0.  0.
        -12    1    3    3    0    0  0.36457308793E+02  0.26184112969E+02 -0.37908246937E+01  0.45045682238E+02  0.00000000000E+00 0.  1.
         11    1    4    4    0    0 -0.15434733512E+02 -0.76712000504E+01  0.11492971690E+01  0.17274234948E+02  0.51100000000E-03 0. -1.
        -11    1    4    4    0    0 -0.94785365641E+01 -0.76037817649E+01  0.43197650540E+01  0.12896531429E+02  0.51100000000E-03 0.  1.
         12    1    4    4    0    0 -0.11544038718E+02 -0.10909131154E+02 -0.16782375293E+01  0.15971551385E+02  0.00000000000E+00 0. -1.
</event>
<event>
 8    1  0.9117959E-009  0.9118800E+02  0.7816164E-02  0.1184000E+00
        -11   -1    0    0    0    0  0.00000000000E+00  0.00000000000E+00  0.45593999997E+02  0.45594000000E+02  0.51100000000E-03 0. -1.
         11   -1    0    0    0    0 -0.00000000000E+00 -0.00000000000E+00 -0.45593999997E+02  0.45594000000E+02  0.51100000000E-03 0.  1.
         23    2    1    2    0    0  0.88817841970E-15 -0.71054273576E-14 -0.17763568394E-14  0.91188000000E+02  0.91188000000E+02 0.  0.
    9900012    2    3    3    0    0 -0.49307025941E+01  0.44335603987E+02  0.62574587267E+01  0.46142318756E+02  0.10000009075E+02 0.  0.
        -12    1    3    3    0    0  0.49307025941E+01 -0.44335603987E+02 -0.62574587267E+01  0.45045681244E+02  0.00000000000E+00 0.  1.
         11    1    4    4    0    0 -0.64480082814E+00  0.16334755045E+02 -0.11233402005E+01  0.16386027095E+02  0.51100000000E-03 0. -1.
        -11    1    4    4    0    0 -0.30647492979E+01  0.55889874424E+01  0.13582280743E+01  0.65172273747E+01  0.51100000000E-03 0.  1.
         12    1    4    4    0    0 -0.12211524681E+01  0.22411861500E+02  0.60225708530E+01  0.23239064286E+02  0.00000000000E+00 0. -1.
</event>
<event>
 8    1  0.9117959E-009  0.9118800E+02  0.7816164E-02  0.1184000E+00
        -11   -1    0    0    0    0  0.00000000000E+00  0.00000000000E+00  0.45593999997E+02  0.45594000000E+02  0.51100000000E-03 0. -1.
         11   -1    0    0    0    0 -0.00000000000E+00 -0.00000000000E+00 -0.45593999997E+02  0.45594000000E+02  0.51100000000E-03 0.  1.
         23    2    1    2    0    0  0.00000000000E+00 -0.44408920985E-15  0.71054273576E-14  0.91188000000E+02  0.91188000000E+02 0.  0.
    9900012    2    3    3    0    0 -0.13327110701E+02  0.39859446140E+01 -0.42844065691E+02  0.46142316533E+02  0.99999888034E+01 0.  0.
         12    1    3    3    0    0  0.13327110701E+02 -0.39859446140E+01  0.42844065691E+02  0.45045683467E+02  0.00000000000E+00 0. -1.
         11    1    4    4    0    0  0.14408760736E+01 -0.50045488107E+00 -0.30167501468E+01  0.33804379386E+01  0.51100000000E-03 0. -1.
        -11    1    4    4    0    0 -0.37751768248E+01  0.61098943733E+00 -0.79927738014E+01  0.88605700410E+01  0.51100000000E-03 0.  1.
        -12    1    4    4    0    0 -0.10992809949E+02  0.38754100578E+01 -0.31834541742E+02  0.33901308554E+02  0.00000000000E+00 0.  1.
</event>
<event>
 8    1  0.9117959E-009  0.9118800E+02  0.7816164E-02  0.1184000E+00
        -11   -1    0    0    0    0  0.00000000000E+00  0.00000000000E+00  0.45593999997E+02  0.45594000000E+02  0.51100000000E-03 0. -1.
         11   -1    0    0    0    0 -0.00000000000E+00 -0.00000000000E+00 -0.45593999997E+02  0.45594000000E+02  0.51100000000E-03 0.  1.
         23    2    1    2    0    0  0.00000000000E+00  0.44408920985E-15  0.35527136788E-14  0.91188000000E+02  0.91188000000E+02 0.  0.
    9900012    2    3    3    0    0 -0.34943196958E+02  0.14642532678E+01  0.28389126841E+02  0.46142316810E+02  0.99999913266E+01 0.  0.
        -12    1    3    3    0    0  0.34943196958E+02 -0.14642532678E+01 -0.28389126841E+02  0.45045683190E+02  0.00000000000E+00 0.  1.
         11    1    4    4    0    0 -0.92964171567E+00 -0.13089915601E+01  0.76733695654E+00  0.17794659002E+01  0.51100000000E-03 0. -1.
        -11    1    4    4    0    0 -0.12823914707E+02  0.28775999251E+01  0.13836146472E+02  0.19083299484E+02  0.51100000000E-03 0.  1.
         12    1    4    4    0    0 -0.21189640535E+02 -0.10435509718E+00  0.13785643413E+02  0.25279551425E+02  0.00000000000E+00 0. -1.
</event>
<event>
 8    1  0.9117959E-009  0.9118800E+02  0.7816164E-02  0.1184000E+00
        -11   -1    0    0    0    0  0.00000000000E+00  0.00000000000E+00  0.45593999997E+02  0.45594000000E+02  0.51100000000E-03 0. -1.
         11   -1    0    0    0    0 -0.00000000000E+00 -0.00000000000E+00 -0.45593999997E+02  0.45594000000E+02  0.51100000000E-03 0.  1.
         23    2    1    2    0    0 -0.71054273576E-14  0.00000000000E+00  0.00000000000E+00  0.91188000000E+02  0.91188000000E+02 0.  0.
    9900012    2    3    3    0    0 -0.26417300925E+02  0.14659706201E+01 -0.36456696094E+02  0.46142317098E+02  0.99999939505E+01 0.  0.
         12    1    3    3    0    0  0.26417300925E+02 -0.14659706201E+01  0.36456696094E+02  0.45045682902E+02  0.00000000000E+00 0. -1.
         11    1    4    4    0    0 -0.19617232769E+01 -0.10650414012E+01 -0.51976883850E+00  0.22919056063E+01  0.51100000000E-03 0. -1.
        -11    1    4    4    0    0 -0.10649319781E+02 -0.73853793761E+00 -0.18624780221E+02  0.21467088498E+02  0.51100000000E-03 0.  1.
         12    1    4    4    0    0 -0.13806257868E+02  0.32695499589E+01 -0.17312147035E+02  0.22383322993E+02  0.00000000000E+00 0. -1.
</event>
<event>
 8    1  0.9117959E-009  0.9118800E+02  0.7816164E-02  0.1184000E+00
        -11   -1    0    0    0    0  0.00000000000E+00  0.00000000000E+00  0.45593999997E+02  0.45594000000E+02  0.51100000000E-03 0. -1.
         11   -1    0    0    0    0 -0.00000000000E+00 -0.00000000000E+00 -0.45593999997E+02  0.45594000000E+02  0.51100000000E-03 0.  1.
         23    2    1    2    0    0  0.00000000000E+00  0.00000000000E+00  0.00000000000E+00  0.91188000000E+02  0.91188000000E+02 0.  0.
    9900012    2    3    3    0    0 -0.21255078245E+02  0.16428498838E+02 -0.36158533944E+02  0.46142317607E+02  0.99999985967E+01 0.  0.
         12    1    3    3    0    0  0.21255078245E+02 -0.16428498838E+02  0.36158533944E+02  0.45045682393E+02  0.00000000000E+00 0. -1.
         11    1    4    4    0    0 -0.12333539764E+02  0.95611452529E+01 -0.16512351908E+02  0.22719803421E+02  0.51100000000E-03 0. -1.
        -11    1    4    4    0    0 -0.92121492840E+01  0.56288846797E+01 -0.19283348221E+02  0.22099673211E+02  0.51100000000E-03 0.  1.
         12    1    4    4    0    0  0.29061080354E+00  0.12384689053E+01 -0.36283381410E+00  0.13228409750E+01  0.00000000000E+00 0. -1.
</event>
<event>
 8    1  0.9117959E-009  0.9118800E+02  0.7816164E-02  0.1184000E+00
        -11   -1    0    0    0    0  0.00000000000E+00  0.00000000000E+00  0.45593999997E+02  0.45594000000E+02  0.51100000000E-03 0.  1.
         11   -1    0    0    0    0 -0.00000000000E+00 -0.00000000000E+00 -0.45593999997E+02  0.45594000000E+02  0.51100000000E-03 0. -1.
         23    2    1    2    0    0  0.71054273576E-14  0.00000000000E+00  0.00000000000E+00  0.91188000000E+02  0.91188000000E+02 0.  0.
    9900012    2    3    3    0    0 -0.38786017397E+02 -0.21887964871E+02 -0.67583508522E+01  0.46142318099E+02  0.10000003080E+02 0.  0.
         12    1    3    3    0    0  0.38786017397E+02  0.21887964871E+02  0.67583508522E+01  0.45045681901E+02  0.00000000000E+00 0. -1.
         11    1    4    4    0    0 -0.52228705981E+01  0.45526207373E+00 -0.48513555021E+00  0.52650733711E+01  0.51100000000E-03 0. -1.
        -11    1    4    4    0    0 -0.62457186525E+01 -0.30585186994E+01 -0.10805795280E+01  0.70378399028E+01  0.51100000000E-03 0.  1.
        -12    1    4    4    0    0 -0.27317428146E+02 -0.19284708245E+02 -0.51926357740E+01  0.33839404825E+02  0.00000000000E+00 0.  1.
</event>
<event>
 8    1  0.9117959E-009  0.9118800E+02  0.7816164E-02  0.1184000E+00
        -11   -1    0    0    0    0  0.00000000000E+00  0.00000000000E+00  0.45593999997E+02  0.45594000000E+02  0.51100000000E-03 0. -1.
         11   -1    0    0    0    0 -0.00000000000E+00 -0.00000000000E+00 -0.45593999997E+02  0.45594000000E+02  0.51100000000E-03 0.  1.
         23    2    1    2    0    0  0.35527136788E-14  0.00000000000E+00  0.00000000000E+00  0.91188000000E+02  0.91188000000E+02 0.  0.
    9900012    2    3    3    0    0 -0.19435851640E+02 -0.20800691558E+02 -0.34909775042E+02  0.46142317724E+02  0.99999996619E+01 0.  0.
         12    1    3    3    0    0  0.19435851640E+02  0.20800691558E+02  0.34909775042E+02  0.45045682276E+02  0.00000000000E+00 0. -1.
         11    1    4    4    0    0 -0.70609440359E+00 -0.24539316646E+01 -0.12190936238E+01  0.28295829102E+01  0.51100000000E-03 0. -1.
        -11    1    4    4    0    0 -0.71771831410E+01 -0.34139438737E+01 -0.13532776549E+02  0.15694043838E+02  0.51100000000E-03 0.  1.
        -12    1    4    4    0    0 -0.11552574095E+02 -0.14932816019E+02 -0.20157904869E+02  0.27618690976E+02  0.00000000000E+00 0.  1.
</event>
<event>
 8    1  0.9117959E-009  0.9118800E+02  0.7816164E-02  0.1184000E+00
        -11   -1    0    0    0    0  0.00000000000E+00  0.00000000000E+00  0.45593999997E+02  0.45594000000E+02  0.51100000000E-03 0. -1.
         11   -1    0    0    0    0 -0.00000000000E+00 -0.00000000000E+00 -0.45593999997E+02  0.45594000000E+02  0.51100000000E-03 0.  1.
         23    2    1    2    0    0  0.00000000000E+00  0.35527136788E-14  0.35527136788E-14  0.91188000000E+02  0.91188000000E+02 0.  0.
    9900012    2    3    3    0    0 -0.27910270105E+02  0.29272065882E+02  0.19831192065E+02  0.46142320995E+02  0.10000029487E+02 0.  0.
        -12    1    3    3    0    0  0.27910270105E+02 -0.29272065882E+02 -0.19831192065E+02  0.45045679005E+02  0.00000000000E+00 0.  1.
         11    1    4    4    0    0 -0.66585772782E+01  0.66154622953E+01  0.87816805024E+01  0.12853750638E+02  0.51100000000E-03 0. -1.
        -11    1    4    4    0    0 -0.79519183627E+01  0.11795128918E+02  0.47226531367E+01  0.14988713245E+02  0.51100000000E-03 0.  1.
        -12    1    4    4    0    0 -0.13299774464E+02  0.10861474669E+02  0.63268584257E+01  0.18299857112E+02  0.00000000000E+00 0.  1.
</event>
<event>
 8    1  0.9117959E-009  0.9118800E+02  0.7816164E-02  0.1184000E+00
        -11   -1    0    0    0    0  0.00000000000E+00  0.00000000000E+00  0.45593999997E+02  0.45594000000E+02  0.51100000000E-03 0.  1.
         11   -1    0    0    0    0 -0.00000000000E+00 -0.00000000000E+00 -0.45593999997E+02  0.45594000000E+02  0.51100000000E-03 0. -1.
         23    2    1    2    0    0  0.71054273576E-14  0.00000000000E+00  0.00000000000E+00  0.91188000000E+02  0.91188000000E+02 0.  0.
    9900012    2    3    3    0    0 -0.40370398759E+02  0.13808386008E+02 -0.14445512230E+02  0.46142318257E+02  0.10000004523E+02 0.  0.
        -12    1    3    3    0    0  0.40370398759E+02 -0.13808386008E+02  0.14445512230E+02  0.45045681743E+02  0.00000000000E+00 0.  1.
         11    1    4    4    0    0 -0.63804686536E+01  0.22274090502E+01 -0.57921506532E+01  0.89006033934E+01  0.51100000000E-03 0. -1.
        -11    1    4    4    0    0 -0.44188902864E+01  0.18754323061E+01  0.43170156090E+00  0.48197722142E+01  0.51100000000E-03 0.  1.
        -12    1    4    4    0    0 -0.29571039819E+02  0.97055446518E+01 -0.90850631380E+01  0.32421942650E+02  0.00000000000E+00 0.  1.
</event>
<event>
 8    1  0.9117959E-009  0.9118800E+02  0.7816164E-02  0.1184000E+00
        -11   -1    0    0    0    0  0.00000000000E+00  0.00000000000E+00  0.45593999997E+02  0.45594000000E+02  0.51100000000E-03 0. -1.
         11   -1    0    0    0    0 -0.00000000000E+00 -0.00000000000E+00 -0.45593999997E+02  0.45594000000E+02  0.51100000000E-03 0.  1.
         23    2    1    2    0    0  0.00000000000E+00  0.00000000000E+00  0.00000000000E+00  0.91188000000E+02  0.91188000000E+02 0.  0.
    9900012    2    3    3    0    0 -0.64374946607E+01 -0.14549198638E+02 -0.42142531865E+02  0.46142317515E+02  0.99999977576E+01 0.  0.
         12    1    3    3    0    0  0.64374946607E+01  0.14549198638E+02  0.42142531865E+02  0.45045682485E+02  0.00000000000E+00 0. -1.
         11    1    4    4    0    0 -0.77540068127E+00 -0.10376426733E+02 -0.21815257383E+02  0.24169752438E+02  0.51100000000E-03 0. -1.
        -11    1    4    4    0    0 -0.55383200855E+01 -0.33917290443E+01 -0.20138198226E+02  0.21159485895E+02  0.51100000000E-03 0.  1.
         12    1    4    4    0    0 -0.12377389398E+00 -0.78104286004E+00 -0.18907625620E+00  0.81307918231E+00  0.00000000000E+00 0. -1.
</event>
<event>
 8    1  0.9117959E-009  0.9118800E+02  0.7816164E-02  0.1184000E+00
        -11   -1    0    0    0    0  0.00000000000E+00  0.00000000000E+00  0.45593999997E+02  0.45594000000E+02  0.51100000000E-03 0. -1.
         11   -1    0    0    0    0 -0.00000000000E+00 -0.00000000000E+00 -0.45593999997E+02  0.45594000000E+02  0.51100000000E-03 0.  1.
         23    2    1    2    0    0  0.00000000000E+00 -0.22204460493E-15  0.00000000000E+00  0.91188000000E+02  0.91188000000E+02 0.  0.
    9900012    2    3    3    0    0 -0.78642385691E+01  0.12859833306E+01 -0.44335238845E+02  0.46142318688E+02  0.10000008454E+02 0.  0.
         12    1    3    3    0    0  0.78642385691E+01 -0.12859833306E+01  0.44335238845E+02  0.45045681312E+02  0.00000000000E+00 0. -1.
         11    1    4    4    0    0 -0.18889677546E+01  0.75908775795E+00 -0.82005351019E+01  0.84494490720E+01  0.51100000000E-03 0. -1.
        -11    1    4    4    0    0 -0.24550311011E+01  0.15238291685E+01 -0.32164144840E+02  0.32293675025E+02  0.51100000000E-03 0.  1.
         12    1    4    4    0    0 -0.35202397134E+01 -0.99693359581E+00 -0.39705589029E+01  0.53991945914E+01  0.00000000000E+00 0. -1.
</event>
<event>
 8    1  0.9117959E-009  0.9118800E+02  0.7816164E-02  0.1184000E+00
        -11   -1    0    0    0    0  0.00000000000E+00  0.00000000000E+00  0.45593999997E+02  0.45594000000E+02  0.51100000000E-03 0. -1.
         11   -1    0    0    0    0 -0.00000000000E+00 -0.00000000000E+00 -0.45593999997E+02  0.45594000000E+02  0.51100000000E-03 0.  1.
         23    2    1    2    0    0  0.00000000000E+00 -0.17763568394E-14 -0.71054273576E-14  0.91188000000E+02  0.91188000000E+02 0.  0.
    9900012    2    3    3    0    0  0.80404162657E+01  0.11769469966E+02  0.42731064661E+02  0.46142327577E+02  0.10000089509E+02 0.  0.
        -12    1    3    3    0    0 -0.80404162657E+01 -0.11769469966E+02 -0.42731064661E+02  0.45045672423E+02  0.00000000000E+00 0.  1.
         11    1    4    4    0    0 -0.55549235183E+00  0.20715680148E+01  0.61616240801E+01  0.65242300203E+01  0.51100000000E-03 0. -1.
        -11    1    4    4    0    0  0.65613400574E+01  0.32730842879E+01  0.26543562267E+02  0.27537700742E+02  0.51100000000E-03 0.  1.
        -12    1    4    4    0    0  0.20345685601E+01  0.64248176630E+01  0.10025878314E+02  0.12080396814E+02  0.00000000000E+00 0.  1.
</event>
<event>
 8    1  0.9117959E-009  0.9118800E+02  0.7816164E-02  0.1184000E+00
        -11   -1    0    0    0    0  0.00000000000E+00  0.00000000000E+00  0.45593999997E+02  0.45594000000E+02  0.51100000000E-03 0. -1.
         11   -1    0    0    0    0 -0.00000000000E+00 -0.00000000000E+00 -0.45593999997E+02  0.45594000000E+02  0.51100000000E-03 0.  1.
         23    2    1    2    0    0  0.00000000000E+00  0.00000000000E+00  0.71054273576E-14  0.91188000000E+02  0.91188000000E+02 0.  0.
    9900012    2    3    3    0    0  0.68109393058E+01 -0.88977397881E+01  0.43629743072E+02  0.46142321538E+02  0.10000034437E+02 0.  0.
        -12    1    3    3    0    0 -0.68109393058E+01  0.88977397881E+01 -0.43629743072E+02  0.45045678462E+02  0.00000000000E+00 0.  1.
         11    1    4    4    0    0 -0.40315935241E+00 -0.47186799287E+01  0.24335518237E+02  0.24792053683E+02  0.51100000000E-03 0. -1.
        -11    1    4    4    0    0  0.30087118207E+00 -0.90007380390E+00  0.53227477795E+00  0.10881052435E+01  0.51100000000E-03 0.  1.
         12    1    4    4    0    0  0.69132274761E+01 -0.32789860555E+01  0.18761950058E+02  0.20262162611E+02  0.00000000000E+00 0. -1.
</event>
<event>
 8    1  0.9117959E-009  0.9118800E+02  0.7816164E-02  0.1184000E+00
        -11   -1    0    0    0    0  0.00000000000E+00  0.00000000000E+00  0.45593999997E+02  0.45594000000E+02  0.51100000000E-03 0. -1.
         11   -1    0    0    0    0 -0.00000000000E+00 -0.00000000000E+00 -0.45593999997E+02  0.45594000000E+02  0.51100000000E-03 0.  1.
         23    2    1    2    0    0 -0.88817841970E-15 -0.44408920985E-15  0.00000000000E+00  0.91188000000E+02  0.91188000000E+02 0.  0.
    9900012    2    3    3    0    0 -0.61114941786E+01  0.32533208787E+01 -0.44510437047E+02  0.46142318032E+02  0.10000002468E+02 0.  0.
         12    1    3    3    0    0  0.61114941786E+01 -0.32533208787E+01  0.44510437047E+02  0.45045681968E+02  0.00000000000E+00 0. -1.
         11    1    4    4    0    0  0.41927696973E+00  0.29322639377E+01 -0.14468527521E+02  0.14768623967E+02  0.51100000000E-03 0. -1.
        -11    1    4    4    0    0 -0.61525814712E+01 -0.12886028077E+01 -0.15324138698E+02  0.16563332486E+02  0.51100000000E-03 0.  1.
        -12    1    4    4    0    0 -0.37818967714E+00  0.16096597486E+01 -0.14717770828E+02  0.14810361579E+02  0.00000000000E+00 0.  1.
</event>
<event>
 8    1  0.9117959E-009  0.9118800E+02  0.7816164E-02  0.1184000E+00
        -11   -1    0    0    0    0  0.00000000000E+00  0.00000000000E+00  0.45593999997E+02  0.45594000000E+02  0.51100000000E-03 0.  1.
         11   -1    0    0    0    0 -0.00000000000E+00 -0.00000000000E+00 -0.45593999997E+02  0.45594000000E+02  0.51100000000E-03 0. -1.
         23    2    1    2    0    0  0.66613381478E-15  0.71054273576E-14 -0.17763568394E-14  0.91188000000E+02  0.91188000000E+02 0.  0.
    9900012    2    3    3    0    0  0.16483752271E+01  0.43637073052E+02 -0.11054516695E+02  0.46142316247E+02  0.99999861954E+01 0.  0.
        -12    1    3    3    0    0 -0.16483752271E+01 -0.43637073052E+02  0.11054516695E+02  0.45045683753E+02  0.00000000000E+00 0.  1.
         11    1    4    4    0    0  0.43425976624E+01  0.21554994972E+02 -0.89756682778E+01  0.23749496500E+02  0.51100000000E-03 0. -1.
        -11    1    4    4    0    0 -0.15371700861E+00  0.27323503887E+01 -0.71988178769E+00  0.28297698873E+01  0.51100000000E-03 0.  1.
        -12    1    4    4    0    0 -0.25405054267E+01  0.19349727691E+02 -0.13589666294E+01  0.19563049860E+02  0.00000000000E+00 0.  1.
</event>
<event>
 8    1  0.9117959E-009  0.9118800E+02  0.7816164E-02  0.1184000E+00
        -11   -1    0    0    0    0  0.00000000000E+00  0.00000000000E+00  0.45593999997E+02  0.45594000000E+02  0.51100000000E-03 0. -1.
         11   -1    0    0    0    0 -0.00000000000E+00 -0.00000000000E+00 -0.45593999997E+02  0.45594000000E+02  0.51100000000E-03 0.  1.
         23    2    1    2    0    0 -0.71054273576E-14  0.00000000000E+00 -0.35527136788E-14  0.91188000000E+02  0.91188000000E+02 0.  0.
    9900012    2    3    3    0    0  0.43798267644E+02 -0.48414416822E+01  0.93480294303E+01  0.46142318072E+02  0.10000002831E+02 0.  0.
        -12    1    3    3    0    0 -0.43798267644E+02  0.48414416822E+01 -0.93480294303E+01  0.45045681928E+02  0.00000000000E+00 0.  1.
         11    1    4    4    0    0  0.54213768778E+01 -0.19458639034E+01  0.11412526687E+01  0.58719819053E+01  0.51100000000E-03 0. -1.
        -11    1    4    4    0    0  0.16601899160E+02 -0.16544107027E+01 -0.72998672454E+00  0.16700090161E+02  0.51100000000E-03 0.  1.
        -12    1    4    4    0    0  0.21774991606E+02 -0.12411670762E+01  0.89367634862E+01  0.23570246005E+02  0.00000000000E+00 0.  1.
</event>
<event>
 8    1  0.9117959E-009  0.9118800E+02  0.7816164E-02  0.1184000E+00
        -11   -1    0    0    0    0  0.00000000000E+00  0.00000000000E+00  0.45593999997E+02  0.45594000000E+02  0.51100000000E-03 0. -1.
         11   -1    0    0    0    0 -0.00000000000E+00 -0.00000000000E+00 -0.45593999997E+02  0.45594000000E+02  0.51100000000E-03 0.  1.
         23    2    1    2    0    0  0.35527136788E-14  0.00000000000E+00  0.00000000000E+00  0.91188000000E+02  0.91188000000E+02 0.  0.
    9900012    2    3    3    0    0  0.21242064950E+02 -0.23976248545E+02 -0.31670612441E+02  0.46142317521E+02  0.99999978094E+01 0.  0.
         12    1    3    3    0    0 -0.21242064950E+02  0.23976248545E+02  0.31670612441E+02  0.45045682479E+02  0.00000000000E+00 0. -1.
         11    1    4    4    0    0  0.90749439275E+01 -0.12873959451E+02 -0.11134266689E+02  0.19288995157E+02  0.51100000000E-03 0. -1.
        -11    1    4    4    0    0  0.25556465250E+01 -0.57256218107E+01 -0.68548697104E+01  0.92899576580E+01  0.51100000000E-03 0.  1.
        -12    1    4    4    0    0  0.96114744980E+01 -0.53766672834E+01 -0.13681476042E+02  0.17563364705E+02  0.00000000000E+00 0.  1.
</event>
<event>
 8    1  0.9117959E-009  0.9118800E+02  0.7816164E-02  0.1184000E+00
        -11   -1    0    0    0    0  0.00000000000E+00  0.00000000000E+00  0.45593999997E+02  0.45594000000E+02  0.51100000000E-03 0. -1.
         11   -1    0    0    0    0 -0.00000000000E+00 -0.00000000000E+00 -0.45593999997E+02  0.45594000000E+02  0.51100000000E-03 0.  1.
         23    2    1    2    0    0  0.00000000000E+00  0.35527136788E-14  0.00000000000E+00  0.91188000000E+02  0.91188000000E+02 0.  0.
    9900012    2    3    3    0    0  0.10239452132E+02 -0.16837741155E+02 -0.40506263526E+02  0.46142319941E+02  0.10000019875E+02 0.  0.
         12    1    3    3    0    0 -0.10239452132E+02  0.16837741155E+02  0.40506263526E+02  0.45045680059E+02  0.00000000000E+00 0. -1.
         11    1    4    4    0    0  0.26551101238E+01 -0.35539288413E+01 -0.41996542901E+01  0.61087737227E+01  0.51100000000E-03 0. -1.
        -11    1    4    4    0    0  0.75971728277E+01 -0.69279020269E+01 -0.19117070408E+02  0.21706571418E+02  0.51100000000E-03 0.  1.
         12    1    4    4    0    0 -0.12830819766E-01 -0.63559102864E+01 -0.17189538828E+02  0.18326974800E+02  0.00000000000E+00 0. -1.
</event>
<event>
 8    1  0.9117959E-009  0.9118800E+02  0.7816164E-02  0.1184000E+00
        -11   -1    0    0    0    0  0.00000000000E+00  0.00000000000E+00  0.45593999997E+02  0.45594000000E+02  0.51100000000E-03 0.  1.
         11   -1    0    0    0    0 -0.00000000000E+00 -0.00000000000E+00 -0.45593999997E+02  0.45594000000E+02  0.51100000000E-03 0. -1.
         23    2    1    2    0    0  0.71054273576E-14 -0.88817841970E-15 -0.17763568394E-14  0.91188000000E+02  0.91188000000E+02 0.  0.
    9900012    2    3    3    0    0  0.42833239841E+02 -0.67194387590E+01 -0.12217862078E+02  0.46142318228E+02  0.10000004258E+02 0.  0.
         12    1    3    3    0    0 -0.42833239841E+02  0.67194387590E+01  0.12217862078E+02  0.45045681772E+02  0.00000000000E+00 0. -1.
         11    1    4    4    0    0  0.15761197313E+02 -0.37794244883E+00 -0.82304172487E+01  0.17784767347E+02  0.51100000000E-03 0.  1.
        -11    1    4    4    0    0  0.11654421686E+02 -0.44178436982E+01 -0.74672029013E+00  0.12486011342E+02  0.51100000000E-03 0. -1.
        -12    1    4    4    0    0  0.15417620842E+02 -0.19236526120E+01 -0.32407245395E+01  0.15871539539E+02  0.00000000000E+00 0.  1.
</event>
<event>
 8    1  0.9117959E-009  0.9118800E+02  0.7816164E-02  0.1184000E+00
        -11   -1    0    0    0    0  0.00000000000E+00  0.00000000000E+00  0.45593999997E+02  0.45594000000E+02  0.51100000000E-03 0. -1.
         11   -1    0    0    0    0 -0.00000000000E+00 -0.00000000000E+00 -0.45593999997E+02  0.45594000000E+02  0.51100000000E-03 0.  1.
         23    2    1    2    0    0  0.88817841970E-15  0.00000000000E+00  0.00000000000E+00  0.91188000000E+02  0.91188000000E+02 0.  0.
    9900012    2    3    3    0    0  0.65406498839E+01  0.21221315741E+01  0.44517749963E+02  0.46142316466E+02  0.99999881880E+01 0.  0.
        -12    1    3    3    0    0 -0.65406498839E+01 -0.21221315741E+01 -0.44517749963E+02  0.45045683534E+02  0.00000000000E+00 0.  1.
         11    1    4    4    0    0  0.48451055659E+01  0.53259598535E+01  0.28381456632E+02  0.29280505070E+02  0.51100000000E-03 0. -1.
        -11    1    4    4    0    0  0.24186347552E+01 -0.11077288794E+01  0.94612479279E+01  0.98281264727E+01  0.51100000000E-03 0.  1.
        -12    1    4    4    0    0 -0.72309043715E+00 -0.20960994000E+01  0.66750454028E+01  0.70336849236E+01  0.00000000000E+00 0.  1.
</event>
<event>
 8    1  0.9117959E-009  0.9118800E+02  0.7816164E-02  0.1184000E+00
        -11   -1    0    0    0    0  0.00000000000E+00  0.00000000000E+00  0.45593999997E+02  0.45594000000E+02  0.51100000000E-03 0. -1.
         11   -1    0    0    0    0 -0.00000000000E+00 -0.00000000000E+00 -0.45593999997E+02  0.45594000000E+02  0.51100000000E-03 0.  1.
         23    2    1    2    0    0  0.00000000000E+00  0.00000000000E+00  0.00000000000E+00  0.91188000000E+02  0.91188000000E+02 0.  0.
    9900012    2    3    3    0    0  0.29798629703E+02 -0.23933915428E+02 -0.23839522684E+02  0.46142317835E+02  0.10000000676E+02 0.  0.
         12    1    3    3    0    0 -0.29798629703E+02  0.23933915428E+02  0.23839522684E+02  0.45045682165E+02  0.00000000000E+00 0. -1.
         11    1    4    4    0    0  0.26299757354E+02 -0.20010946324E+02 -0.16935528879E+02  0.37133911030E+02  0.51100000000E-03 0. -1.
        -11    1    4    4    0    0  0.16303582026E+01 -0.84525574993E+00 -0.99445313989E+00  0.20884114681E+01  0.51100000000E-03 0.  1.
         12    1    4    4    0    0  0.18685141463E+01 -0.30777133542E+01 -0.59095406643E+01  0.69199953373E+01  0.00000000000E+00 0. -1.
</event>
<event>
 8    1  0.9117959E-009  0.9118800E+02  0.7816164E-02  0.1184000E+00
        -11   -1    0    0    0    0  0.00000000000E+00  0.00000000000E+00  0.45593999997E+02  0.45594000000E+02  0.51100000000E-03 0. -1.
         11   -1    0    0    0    0 -0.00000000000E+00 -0.00000000000E+00 -0.45593999997E+02  0.45594000000E+02  0.51100000000E-03 0.  1.
         23    2    1    2    0    0 -0.17763568394E-14  0.00000000000E+00  0.35527136788E-14  0.91188000000E+02  0.91188000000E+02 0.  0.
    9900012    2    3    3    0    0 -0.15041463709E+02 -0.32965584683E+02 -0.26760756295E+02  0.46142317837E+02  0.10000000694E+02 0.  0.
         12    1    3    3    0    0  0.15041463709E+02  0.32965584683E+02  0.26760756295E+02  0.45045682163E+02  0.00000000000E+00 0. -1.
         11    1    4    4    0    0 -0.56730637750E+01 -0.66819105979E+01 -0.29503270020E+01  0.92485680791E+01  0.51100000000E-03 0. -1.
        -11    1    4    4    0    0 -0.34900564954E+01 -0.10103684472E+02 -0.11688254018E+02  0.15839198733E+02  0.51100000000E-03 0.  1.
        -12    1    4    4    0    0 -0.58783434385E+01 -0.16179989613E+02 -0.12122175276E+02  0.21054551025E+02  0.00000000000E+00 0.  1.
</event>
<event>
 8    1  0.9117959E-009  0.9118800E+02  0.7816164E-02  0.1184000E+00
        -11   -1    0    0    0    0  0.00000000000E+00  0.00000000000E+00  0.45593999997E+02  0.45594000000E+02  0.51100000000E-03 0. -1.
         11   -1    0    0    0    0 -0.00000000000E+00 -0.00000000000E+00 -0.45593999997E+02  0.45594000000E+02  0.51100000000E-03 0.  1.
         23    2    1    2    0    0  0.00000000000E+00  0.00000000000E+00  0.00000000000E+00  0.91188000000E+02  0.91188000000E+02 0.  0.
    9900012    2    3    3    0    0  0.23055782473E+02 -0.24759573376E+02  0.29740677734E+02  0.46142317729E+02  0.99999997097E+01 0.  0.
        -12    1    3    3    0    0 -0.23055782473E+02  0.24759573376E+02 -0.29740677734E+02  0.45045682271E+02  0.00000000000E+00 0.  1.
         11    1    4    4    0    0  0.86432276019E+01 -0.14415864741E+02  0.15380177751E+02  0.22783160613E+02  0.51100000000E-03 0. -1.
        -11    1    4    4    0    0  0.11661500781E+02 -0.10274687289E+02  0.11135404249E+02  0.19119545690E+02  0.51100000000E-03 0.  1.
        -12    1    4    4    0    0  0.27510540902E+01 -0.69021345563E-01  0.32250957330E+01  0.42396114256E+01  0.00000000000E+00 0.  1.
</event>
<event>
 8    1  0.9117959E-009  0.9118800E+02  0.7816164E-02  0.1184000E+00
        -11   -1    0    0    0    0  0.00000000000E+00  0.00000000000E+00  0.45593999997E+02  0.45594000000E+02  0.51100000000E-03 0. -1.
         11   -1    0    0    0    0 -0.00000000000E+00 -0.00000000000E+00 -0.45593999997E+02  0.45594000000E+02  0.51100000000E-03 0.  1.
         23    2    1    2    0    0  0.00000000000E+00  0.17763568394E-14  0.00000000000E+00  0.91188000000E+02  0.91188000000E+02 0.  0.
    9900012    2    3    3    0    0 -0.41451652514E+02  0.11498046333E+02 -0.13366713684E+02  0.46142316518E+02  0.99999886681E+01 0.  0.
         12    1    3    3    0    0  0.41451652514E+02 -0.11498046333E+02  0.13366713684E+02  0.45045683482E+02  0.00000000000E+00 0. -1.
         11    1    4    4    0    0 -0.20994515028E+02  0.82006961544E+01 -0.52158092123E+01  0.23134946395E+02  0.51100000000E-03 0. -1.
        -11    1    4    4    0    0 -0.76244874636E+01  0.65574233227E+00 -0.14654058583E+00  0.76540369410E+01  0.51100000000E-03 0.  1.
        -12    1    4    4    0    0 -0.12832650022E+02  0.26416078459E+01 -0.80043638855E+01  0.15353333183E+02  0.00000000000E+00 0.  1.
</event>
<event>
 8    1  0.9117959E-009  0.9118800E+02  0.7816164E-02  0.1184000E+00
        -11   -1    0    0    0    0  0.00000000000E+00  0.00000000000E+00  0.45593999997E+02  0.45594000000E+02  0.51100000000E-03 0. -1.
         11   -1    0    0    0    0 -0.00000000000E+00 -0.00000000000E+00 -0.45593999997E+02  0.45594000000E+02  0.51100000000E-03 0.  1.
         23    2    1    2    0    0  0.00000000000E+00  0.00000000000E+00 -0.71054273576E-14  0.91188000000E+02  0.91188000000E+02 0.  0.
    9900012    2    3    3    0    0 -0.27739436393E+02  0.37913147844E+01 -0.35288284618E+02  0.46142318403E+02  0.10000005857E+02 0.  0.
         12    1    3    3    0    0  0.27739436393E+02 -0.37913147844E+01  0.35288284618E+02  0.45045681597E+02  0.00000000000E+00 0. -1.
         11    1    4    4    0    0 -0.35364875859E+01 -0.68781421052E+00 -0.97392245172E+01  0.10384234555E+02  0.51100000000E-03 0. -1.
        -11    1    4    4    0    0 -0.56304784116E+01 -0.29394877337E+00 -0.78322209493E+01  0.96505118146E+01  0.51100000000E-03 0.  1.
        -12    1    4    4    0    0 -0.18572470395E+02  0.47730777683E+01 -0.17716839152E+02  0.26107572034E+02  0.00000000000E+00 0.  1.
</event>
<event>
 8    1  0.9117959E-009  0.9118800E+02  0.7816164E-02  0.1184000E+00
        -11   -1    0    0    0    0  0.00000000000E+00  0.00000000000E+00  0.45593999997E+02  0.45594000000E+02  0.51100000000E-03 0. -1.
         11   -1    0    0    0    0 -0.00000000000E+00 -0.00000000000E+00 -0.45593999997E+02  0.45594000000E+02  0.51100000000E-03 0.  1.
         23    2    1    2    0    0  0.35527136788E-14 -0.35527136788E-14 -0.35527136788E-14  0.91188000000E+02  0.91188000000E+02 0.  0.
    9900012    2    3    3    0    0  0.21182452662E+02 -0.31547965017E+02 -0.24189731263E+02  0.46142317676E+02  0.99999992223E+01 0.  0.
         12    1    3    3    0    0 -0.21182452662E+02  0.31547965017E+02  0.24189731263E+02  0.45045682324E+02  0.00000000000E+00 0. -1.
         11    1    4    4    0    0  0.51705953208E+00  0.33220973876E+00 -0.12919148157E+01  0.14306495106E+01  0.51100000000E-03 0. -1.
        -11    1    4    4    0    0  0.11579305469E+02 -0.20835834234E+02 -0.16810181590E+02  0.29168382004E+02  0.51100000000E-03 0.  1.
        -12    1    4    4    0    0  0.90860876608E+01 -0.11044340521E+02 -0.60876348573E+01  0.15543286161E+02  0.00000000000E+00 0.  1.
</event>
<event>
 8    1  0.9117959E-009  0.9118800E+02  0.7816164E-02  0.1184000E+00
        -11   -1    0    0    0    0  0.00000000000E+00  0.00000000000E+00  0.45593999997E+02  0.45594000000E+02  0.51100000000E-03 0. -1.
         11   -1    0    0    0    0 -0.00000000000E+00 -0.00000000000E+00 -0.45593999997E+02  0.45594000000E+02  0.51100000000E-03 0.  1.
         23    2    1    2    0    0  0.35527136788E-14  0.17763568394E-14  0.00000000000E+00  0.91188000000E+02  0.91188000000E+02 0.  0.
    9900012    2    3    3    0    0 -0.31715706386E+02 -0.11077047422E+02  0.30008788610E+02  0.46142307587E+02  0.99999072243E+01 0.  0.
        -12    1    3    3    0    0  0.31715706386E+02  0.11077047422E+02 -0.30008788610E+02  0.45045692413E+02  0.00000000000E+00 0.  1.
         11    1    4    4    0    0 -0.60737257855E+01  0.90922621785E-01  0.57371155377E+01  0.83554118267E+01  0.51100000000E-03 0. -1.
        -11    1    4    4    0    0 -0.43203672660E+01 -0.53151758207E+01  0.58766611038E+01  0.90250658340E+01  0.51100000000E-03 0.  1.
        -12    1    4    4    0    0 -0.21321613335E+02 -0.58527942226E+01  0.18395011968E+02  0.28761829926E+02  0.00000000000E+00 0.  1.
</event>
<event>
 8    1  0.9117959E-009  0.9118800E+02  0.7816164E-02  0.1184000E+00
        -11   -1    0    0    0    0  0.00000000000E+00  0.00000000000E+00  0.45593999997E+02  0.45594000000E+02  0.51100000000E-03 0. -1.
         11   -1    0    0    0    0 -0.00000000000E+00 -0.00000000000E+00 -0.45593999997E+02  0.45594000000E+02  0.51100000000E-03 0.  1.
         23    2    1    2    0    0  0.11102230246E-15  0.22204460493E-15  0.71054273576E-14  0.91188000000E+02  0.91188000000E+02 0.  0.
    9900012    2    3    3    0    0 -0.83795200706E+00  0.16470789937E+01  0.45007761179E+02  0.46142316532E+02  0.99999887903E+01 0.  0.
        -12    1    3    3    0    0  0.83795200706E+00 -0.16470789937E+01 -0.45007761179E+02  0.45045683468E+02  0.00000000000E+00 0.  1.
         11    1    4    4    0    0  0.31504719555E+01  0.28183058849E+01  0.14099139231E+02  0.14719172834E+02  0.51100000000E-03 0. -1.
        -11    1    4    4    0    0 -0.10671430064E+01 -0.18382573362E+01  0.66822497190E+01  0.70121641309E+01  0.51100000000E-03 0.  1.
         12    1    4    4    0    0 -0.29212809561E+01  0.66703044500E+00  0.24226372229E+02  0.24410979567E+02  0.00000000000E+00 0. -1.
</event>
<event>
 8    1  0.9117959E-009  0.9118800E+02  0.7816164E-02  0.1184000E+00
        -11   -1    0    0    0    0  0.00000000000E+00  0.00000000000E+00  0.45593999997E+02  0.45594000000E+02  0.51100000000E-03 0. -1.
         11   -1    0    0    0    0 -0.00000000000E+00 -0.00000000000E+00 -0.45593999997E+02  0.45594000000E+02  0.51100000000E-03 0.  1.
         23    2    1    2    0    0  0.00000000000E+00  0.35527136788E-14  0.00000000000E+00  0.91188000000E+02  0.91188000000E+02 0.  0.
    9900012    2    3    3    0    0  0.20632148923E+01  0.20764432573E+02  0.39921107907E+02  0.46142319049E+02  0.10000011747E+02 0.  0.
        -12    1    3    3    0    0 -0.20632148923E+01 -0.20764432573E+02 -0.39921107907E+02  0.45045680951E+02  0.00000000000E+00 0.  1.
         11    1    4    4    0    0 -0.18206543638E+01  0.13562877283E+02  0.23981830995E+02  0.27611494719E+02  0.51100000000E-03 0. -1.
        -11    1    4    4    0    0 -0.73180028520E-01  0.44388564281E+01  0.94776232804E+01  0.10465856153E+02  0.51100000000E-03 0.  1.
        -12    1    4    4    0    0  0.39570492846E+01  0.27626988623E+01  0.64616536318E+01  0.80649681774E+01  0.00000000000E+00 0.  1.
</event>
<event>
 8    1  0.9117959E-009  0.9118800E+02  0.7816164E-02  0.1184000E+00
        -11   -1    0    0    0    0  0.00000000000E+00  0.00000000000E+00  0.45593999997E+02  0.45594000000E+02  0.51100000000E-03 0. -1.
         11   -1    0    0    0    0 -0.00000000000E+00 -0.00000000000E+00 -0.45593999997E+02  0.45594000000E+02  0.51100000000E-03 0.  1.
         23    2    1    2    0    0  0.17763568394E-14  0.00000000000E+00  0.00000000000E+00  0.91188000000E+02  0.91188000000E+02 0.  0.
    9900012    2    3    3    0    0 -0.82441352679E+01 -0.31855420327E+02  0.30763288917E+02  0.46142317460E+02  0.99999972561E+01 0.  0.
        -12    1    3    3    0    0  0.82441352679E+01  0.31855420327E+02 -0.30763288917E+02  0.45045682540E+02  0.00000000000E+00 0.  1.
         11    1    4    4    0    0 -0.22964493563E+01 -0.33022421979E+01  0.85174239983E+00  0.41114411775E+01  0.51100000000E-03 0. -1.
        -11    1    4    4    0    0 -0.20516393098E+00 -0.68393147172E+01  0.49076489756E+01  0.84204119120E+01  0.51100000000E-03 0.  1.
         12    1    4    4    0    0 -0.57425219806E+01 -0.21713863412E+02  0.25003897541E+02  0.33610464371E+02  0.00000000000E+00 0. -1.
</event>
<event>
 8    1  0.9117959E-009  0.9118800E+02  0.7816164E-02  0.1184000E+00
        -11   -1    0    0    0    0  0.00000000000E+00  0.00000000000E+00  0.45593999997E+02  0.45594000000E+02  0.51100000000E-03 0. -1.
         11   -1    0    0    0    0 -0.00000000000E+00 -0.00000000000E+00 -0.45593999997E+02  0.45594000000E+02  0.51100000000E-03 0.  1.
         23    2    1    2    0    0  0.00000000000E+00  0.00000000000E+00  0.00000000000E+00  0.91188000000E+02  0.91188000000E+02 0.  0.
    9900012    2    3    3    0    0  0.10002124072E+02 -0.15651150091E+02 -0.41037940364E+02  0.46142317250E+02  0.99999953373E+01 0.  0.
         12    1    3    3    0    0 -0.10002124072E+02  0.15651150091E+02  0.41037940364E+02  0.45045682750E+02  0.00000000000E+00 0. -1.
         11    1    4    4    0    0  0.41208646371E+01 -0.25720014772E+01 -0.46589329369E+01  0.67307037765E+01  0.51100000000E-03 0. -1.
        -11    1    4    4    0    0  0.93318567527E+00 -0.53906522011E+01 -0.88546989930E+01  0.10408441823E+02  0.51100000000E-03 0.  1.
         12    1    4    4    0    0  0.49480737591E+01 -0.76884964123E+01 -0.27524308434E+02  0.29003171651E+02  0.00000000000E+00 0. -1.
</event>
<event>
 8    1  0.9117959E-009  0.9118800E+02  0.7816164E-02  0.1184000E+00
        -11   -1    0    0    0    0  0.00000000000E+00  0.00000000000E+00  0.45593999997E+02  0.45594000000E+02  0.51100000000E-03 0. -1.
         11   -1    0    0    0    0 -0.00000000000E+00 -0.00000000000E+00 -0.45593999997E+02  0.45594000000E+02  0.51100000000E-03 0.  1.
         23    2    1    2    0    0  0.00000000000E+00  0.00000000000E+00  0.00000000000E+00  0.91188000000E+02  0.91188000000E+02 0.  0.
    9900012    2    3    3    0    0  0.10278599997E+02  0.99408605108E+01  0.42715841229E+02  0.46142318548E+02  0.10000007174E+02 0.  0.
        -12    1    3    3    0    0 -0.10278599997E+02 -0.99408605108E+01 -0.42715841229E+02  0.45045681452E+02  0.00000000000E+00 0.  1.
         11    1    4    4    0    0  0.17471382352E+01  0.56074965141E+01  0.95670709110E+01  0.11226101516E+02  0.51100000000E-03 0. -1.
        -11    1    4    4    0    0  0.47030251260E+01  0.42584749479E+01  0.26449710068E+02  0.27200003992E+02  0.51100000000E-03 0.  1.
        -12    1    4    4    0    0  0.38284366362E+01  0.74889048720E-01  0.66990602500E+01  0.77162130401E+01  0.00000000000E+00 0.  1.
</event>
<event>
 8    1  0.9117959E-009  0.9118800E+02  0.7816164E-02  0.1184000E+00
        -11   -1    0    0    0    0  0.00000000000E+00  0.00000000000E+00  0.45593999997E+02  0.45594000000E+02  0.51100000000E-03 0. -1.
         11   -1    0    0    0    0 -0.00000000000E+00 -0.00000000000E+00 -0.45593999997E+02  0.45594000000E+02  0.51100000000E-03 0.  1.
         23    2    1    2    0    0  0.00000000000E+00  0.00000000000E+00  0.71054273576E-14  0.91188000000E+02  0.91188000000E+02 0.  0.
    9900012    2    3    3    0    0 -0.10034004799E+02 -0.24982191005E+02  0.36115405183E+02  0.46142316397E+02  0.99999875623E+01 0.  0.
        -12    1    3    3    0    0  0.10034004799E+02  0.24982191005E+02 -0.36115405183E+02  0.45045683603E+02  0.00000000000E+00 0.  1.
         11    1    4    4    0    0 -0.10317532679E+02 -0.17031719620E+02  0.20497938249E+02  0.28577901017E+02  0.51100000000E-03 0. -1.
        -11    1    4    4    0    0  0.34065131438E+00 -0.17226140509E+01  0.43336823681E+01  0.46759219000E+01  0.51100000000E-03 0.  1.
         12    1    4    4    0    0 -0.57123433808E-01 -0.62278573337E+01  0.11283784566E+02  0.12888493480E+02  0.00000000000E+00 0. -1.
</event>
<event>
 8    1  0.9117959E-009  0.9118800E+02  0.7816164E-02  0.1184000E+00
        -11   -1    0    0    0    0  0.00000000000E+00  0.00000000000E+00  0.45593999997E+02  0.45594000000E+02  0.51100000000E-03 0. -1.
         11   -1    0    0    0    0 -0.00000000000E+00 -0.00000000000E+00 -0.45593999997E+02  0.45594000000E+02  0.51100000000E-03 0.  1.
         23    2    1    2    0    0  0.00000000000E+00  0.00000000000E+00  0.00000000000E+00  0.91188000000E+02  0.91188000000E+02 0.  0.
    9900012    2    3    3    0    0 -0.11569497476E+02  0.18492228559E+02  0.39411906668E+02  0.46142310127E+02  0.99999303834E+01 0.  0.
        -12    1    3    3    0    0  0.11569497476E+02 -0.18492228559E+02 -0.39411906668E+02  0.45045689873E+02  0.00000000000E+00 0.  1.
         11    1    4    4    0    0 -0.10111185376E+01  0.13313435499E+01  0.65172266850E+01  0.67282300993E+01  0.51100000000E-03 0. -1.
        -11    1    4    4    0    0 -0.40048395994E+01  0.11055582080E+02  0.12619606594E+02  0.17248742162E+02  0.51100000000E-03 0.  1.
        -12    1    4    4    0    0 -0.65535393390E+01  0.61053029298E+01  0.20275073389E+02  0.22165337865E+02  0.00000000000E+00 0.  1.
</event>
<event>
 8    1  0.9117959E-009  0.9118800E+02  0.7816164E-02  0.1184000E+00
        -11   -1    0    0    0    0  0.00000000000E+00  0.00000000000E+00  0.45593999997E+02  0.45594000000E+02  0.51100000000E-03 0.  1.
         11   -1    0    0    0    0 -0.00000000000E+00 -0.00000000000E+00 -0.45593999997E+02  0.45594000000E+02  0.51100000000E-03 0. -1.
         23    2    1    2    0    0  0.00000000000E+00 -0.71054273576E-14 -0.88817841970E-15  0.91188000000E+02  0.91188000000E+02 0.  0.
    9900012    2    3    3    0    0  0.51506113696E+01 -0.44561079801E+02  0.41103329594E+01  0.46142317993E+02  0.10000002111E+02 0.  0.
         12    1    3    3    0    0 -0.51506113696E+01  0.44561079801E+02 -0.41103329594E+01  0.45045682007E+02  0.00000000000E+00 0. -1.
         11    1    4    4    0    0  0.20588384548E+01 -0.17518240339E+02 -0.26285132445E+01  0.17833581875E+02  0.51100000000E-03 0. -1.
        -11    1    4    4    0    0  0.16272913429E+01 -0.74281205680E+01  0.29210630240E+00  0.76098869006E+01  0.51100000000E-03 0.  1.
        -12    1    4    4    0    0  0.14644815719E+01 -0.19614718893E+02  0.64467399015E+01  0.20698849217E+02  0.00000000000E+00 0.  1.
</event>
<event>
 8    1  0.9117959E-009  0.9118800E+02  0.7816164E-02  0.1184000E+00
        -11   -1    0    0    0    0  0.00000000000E+00  0.00000000000E+00  0.45593999997E+02  0.45594000000E+02  0.51100000000E-03 0.  1.
         11   -1    0    0    0    0 -0.00000000000E+00 -0.00000000000E+00 -0.45593999997E+02  0.45594000000E+02  0.51100000000E-03 0. -1.
         23    2    1    2    0    0 -0.22204460493E-15  0.71054273576E-14 -0.71054273576E-14  0.91188000000E+02  0.91188000000E+02 0.  0.
    9900012    2    3    3    0    0 -0.14238870516E+01  0.31646209712E+02 -0.32025043712E+02  0.46142317984E+02  0.10000002035E+02 0.  0.
         12    1    3    3    0    0  0.14238870516E+01 -0.31646209712E+02  0.32025043712E+02  0.45045682016E+02  0.00000000000E+00 0. -1.
         11    1    4    4    0    0 -0.12552734061E+01 -0.26432164391E-01 -0.21026806303E+01  0.24490153281E+01  0.51100000000E-03 0. -1.
        -11    1    4    4    0    0 -0.11980348373E+01  0.74759053347E+01 -0.61114906997E+01  0.97300959337E+01  0.51100000000E-03 0.  1.
         12    1    4    4    0    0  0.10294211918E+01  0.24196736542E+02 -0.23810872382E+02  0.33963206723E+02  0.00000000000E+00 0. -1.
</event>
<event>
 8    1  0.9117959E-009  0.9118800E+02  0.7816164E-02  0.1184000E+00
        -11   -1    0    0    0    0  0.00000000000E+00  0.00000000000E+00  0.45593999997E+02  0.45594000000E+02  0.51100000000E-03 0. -1.
         11   -1    0    0    0    0 -0.00000000000E+00 -0.00000000000E+00 -0.45593999997E+02  0.45594000000E+02  0.51100000000E-03 0.  1.
         23    2    1    2    0    0  0.35527136788E-14 -0.35527136788E-14 -0.35527136788E-14  0.91188000000E+02  0.91188000000E+02 0.  0.
    9900012    2    3    3    0    0 -0.17383768551E+02  0.29409695603E+02  0.29359629816E+02  0.46142317994E+02  0.10000002119E+02 0.  0.
        -12    1    3    3    0    0  0.17383768551E+02 -0.29409695603E+02 -0.29359629816E+02  0.45045682006E+02  0.00000000000E+00 0.  1.
         11    1    4    4    0    0 -0.12530062081E+02  0.25960107141E+02  0.24731695660E+02  0.37981395301E+02  0.51100000000E-03 0. -1.
        -11    1    4    4    0    0 -0.20373533435E+01  0.11902350893E+01  0.37736758362E+01  0.44506289209E+01  0.51100000000E-03 0.  1.
        -12    1    4    4    0    0 -0.28163531267E+01  0.22593533726E+01  0.85425832024E+00  0.37102937720E+01  0.00000000000E+00 0.  1.
</event>
<event>
 8    1  0.9117959E-009  0.9118800E+02  0.7816164E-02  0.1184000E+00
        -11   -1    0    0    0    0  0.00000000000E+00  0.00000000000E+00  0.45593999997E+02  0.45594000000E+02  0.51100000000E-03 0. -1.
         11   -1    0    0    0    0 -0.00000000000E+00 -0.00000000000E+00 -0.45593999997E+02  0.45594000000E+02  0.51100000000E-03 0.  1.
         23    2    1    2    0    0  0.33306690739E-15  0.00000000000E+00  0.00000000000E+00  0.91188000000E+02  0.91188000000E+02 0.  0.
    9900012    2    3    3    0    0 -0.74265485025E+00  0.19391103717E+02  0.40651530335E+02  0.46142319207E+02  0.10000013181E+02 0.  0.
        -12    1    3    3    0    0  0.74265485025E+00 -0.19391103717E+02 -0.40651530335E+02  0.45045680793E+02  0.00000000000E+00 0.  1.
         11    1    4    4    0    0  0.12968178832E+01  0.32364030756E+01  0.43005537170E+01  0.55363168284E+01  0.51100000000E-03 0. -1.
        -11    1    4    4    0    0 -0.37601175601E+01  0.34979485749E+01  0.79446263319E+01  0.94599797099E+01  0.51100000000E-03 0.  1.
        -12    1    4    4    0    0  0.17206448267E+01  0.12656752066E+02  0.28406350286E+02  0.31146022668E+02  0.00000000000E+00 0.  1.
</event>
<event>
 8    1  0.9117959E-009  0.9118800E+02  0.7816164E-02  0.1184000E+00
        -11   -1    0    0    0    0  0.00000000000E+00  0.00000000000E+00  0.45593999997E+02  0.45594000000E+02  0.51100000000E-03 0. -1.
         11   -1    0    0    0    0 -0.00000000000E+00 -0.00000000000E+00 -0.45593999997E+02  0.45594000000E+02  0.51100000000E-03 0.  1.
         23    2    1    2    0    0  0.00000000000E+00  0.00000000000E+00  0.00000000000E+00  0.91188000000E+02  0.91188000000E+02 0.  0.
    9900012    2    3    3    0    0  0.18438735998E+02 -0.12479666688E+02  0.39158452624E+02  0.46142317879E+02  0.10000001073E+02 0.  0.
        -12    1    3    3    0    0 -0.18438735998E+02  0.12479666688E+02 -0.39158452624E+02  0.45045682121E+02  0.00000000000E+00 0.  1.
         11    1    4    4    0    0  0.59031908075E+01 -0.85247452510E+01  0.17506798925E+02  0.20347160789E+02  0.51100000000E-03 0. -1.
        -11    1    4    4    0    0  0.37722127796E+01 -0.32787954350E+01  0.10205864137E+02  0.11363967256E+02  0.51100000000E-03 0.  1.
        -12    1    4    4    0    0  0.87633324112E+01 -0.67612600210E+00  0.11445789562E+02  0.14431189834E+02  0.00000000000E+00 0.  1.
</event>
<event>
 8    1  0.9117959E-009  0.9118800E+02  0.7816164E-02  0.1184000E+00
        -11   -1    0    0    0    0  0.00000000000E+00  0.00000000000E+00  0.45593999997E+02  0.45594000000E+02  0.51100000000E-03 0. -1.
         11   -1    0    0    0    0 -0.00000000000E+00 -0.00000000000E+00 -0.45593999997E+02  0.45594000000E+02  0.51100000000E-03 0.  1.
         23    2    1    2    0    0  0.00000000000E+00 -0.35527136788E-14  0.00000000000E+00  0.91188000000E+02  0.91188000000E+02 0.  0.
    9900012    2    3    3    0    0  0.23781611346E+02 -0.23150966756E+02  0.30456218026E+02  0.46142317451E+02  0.99999971677E+01 0.  0.
        -12    1    3    3    0    0 -0.23781611346E+02  0.23150966756E+02 -0.30456218026E+02  0.45045682549E+02  0.00000000000E+00 0.  1.
         11    1    4    4    0    0  0.14703625511E+02 -0.13674407135E+02  0.14492254309E+02  0.24763106608E+02  0.51100000000E-03 0. -1.
        -11    1    4    4    0    0  0.36981735968E+01 -0.51180243263E+01  0.11564025020E+02  0.13175634174E+02  0.51100000000E-03 0.  1.
        -12    1    4    4    0    0  0.53798122376E+01 -0.43585352946E+01  0.43999386975E+01  0.82035766692E+01  0.00000000000E+00 0.  1.
</event>
<event>
 8    1  0.9117959E-009  0.9118800E+02  0.7816164E-02  0.1184000E+00
        -11   -1    0    0    0    0  0.00000000000E+00  0.00000000000E+00  0.45593999997E+02  0.45594000000E+02  0.51100000000E-03 0. -1.
         11   -1    0    0    0    0 -0.00000000000E+00 -0.00000000000E+00 -0.45593999997E+02  0.45594000000E+02  0.51100000000E-03 0.  1.
         23    2    1    2    0    0  0.35527136788E-14  0.00000000000E+00  0.00000000000E+00  0.91188000000E+02  0.91188000000E+02 0.  0.
    9900012    2    3    3    0    0 -0.18805806122E+02 -0.31758213864E+02 -0.25823846336E+02  0.46142317284E+02  0.99999956521E+01 0.  0.
         12    1    3    3    0    0  0.18805806122E+02  0.31758213864E+02  0.25823846336E+02  0.45045682716E+02  0.00000000000E+00 0. -1.
         11    1    4    4    0    0 -0.68739152259E+01 -0.99834027535E+01 -0.10861526349E+02  0.16275496796E+02  0.51100000000E-03 0. -1.
        -11    1    4    4    0    0 -0.82507040322E+01 -0.18820407155E+02 -0.14444803901E+02  0.25118403662E+02  0.51100000000E-03 0.  1.
         12    1    4    4    0    0 -0.36811868642E+01 -0.29544039555E+01 -0.51751608638E+00  0.47484168268E+01  0.00000000000E+00 0. -1.
</event>
<event>
 8    1  0.9117959E-009  0.9118800E+02  0.7816164E-02  0.1184000E+00
        -11   -1    0    0    0    0  0.00000000000E+00  0.00000000000E+00  0.45593999997E+02  0.45594000000E+02  0.51100000000E-03 0. -1.
         11   -1    0    0    0    0 -0.00000000000E+00 -0.00000000000E+00 -0.45593999997E+02  0.45594000000E+02  0.51100000000E-03 0.  1.
         23    2    1    2    0    0  0.00000000000E+00 -0.17763568394E-14  0.00000000000E+00  0.91188000000E+02  0.91188000000E+02 0.  0.
    9900012    2    3    3    0    0 -0.10394293718E+02 -0.15884436580E+02 -0.40850419771E+02  0.46142318045E+02  0.10000002588E+02 0.  0.
         12    1    3    3    0    0  0.10394293718E+02  0.15884436580E+02  0.40850419771E+02  0.45045681955E+02  0.00000000000E+00 0. -1.
         11    1    4    4    0    0 -0.91040801371E+01 -0.98822900747E+01 -0.34452870204E+02  0.36980321765E+02  0.51100000000E-03 0.  1.
        -11    1    4    4    0    0 -0.16290086979E+01 -0.59499431192E+01 -0.62708530882E+01  0.87965385905E+01  0.51100000000E-03 0. -1.
        -12    1    4    4    0    0  0.33879511747E+00 -0.52203385959E-01 -0.12669647825E+00  0.36545768938E+00  0.00000000000E+00 0.  1.
</event>
<event>
 8    1  0.9117959E-009  0.9118800E+02  0.7816164E-02  0.1184000E+00
        -11   -1    0    0    0    0  0.00000000000E+00  0.00000000000E+00  0.45593999997E+02  0.45594000000E+02  0.51100000000E-03 0. -1.
         11   -1    0    0    0    0 -0.00000000000E+00 -0.00000000000E+00 -0.45593999997E+02  0.45594000000E+02  0.51100000000E-03 0.  1.
         23    2    1    2    0    0  0.35527136788E-14  0.00000000000E+00  0.00000000000E+00  0.91188000000E+02  0.91188000000E+02 0.  0.
    9900012    2    3    3    0    0 -0.25639667591E+02 -0.15535730727E+02 -0.33620861500E+02  0.46142314176E+02  0.99999673041E+01 0.  0.
         12    1    3    3    0    0  0.25639667591E+02  0.15535730727E+02  0.33620861500E+02  0.45045685824E+02  0.00000000000E+00 0. -1.
         11    1    4    4    0    0 -0.93352161156E+01 -0.30168012904E+01 -0.98134336856E+01  0.13876268624E+02  0.51100000000E-03 0.  1.
        -11    1    4    4    0    0 -0.15755764384E+02 -0.13437290714E+02 -0.22565710509E+02  0.30627049876E+02  0.51100000000E-03 0. -1.
        -12    1    4    4    0    0 -0.54868709088E+00  0.91836127739E+00 -0.12417173059E+01  0.16389956764E+01  0.00000000000E+00 0.  1.
</event>
<event>
 8    1  0.9117959E-009  0.9118800E+02  0.7816164E-02  0.1184000E+00
        -11   -1    0    0    0    0  0.00000000000E+00  0.00000000000E+00  0.45593999997E+02  0.45594000000E+02  0.51100000000E-03 0. -1.
         11   -1    0    0    0    0 -0.00000000000E+00 -0.00000000000E+00 -0.45593999997E+02  0.45594000000E+02  0.51100000000E-03 0.  1.
         23    2    1    2    0    0  0.00000000000E+00  0.00000000000E+00 -0.35527136788E-14  0.91188000000E+02  0.91188000000E+02 0.  0.
    9900012    2    3    3    0    0  0.19441246788E+02  0.29158733517E+02 -0.28300524587E+02  0.46142317534E+02  0.99999979279E+01 0.  0.
         12    1    3    3    0    0 -0.19441246788E+02 -0.29158733517E+02  0.28300524587E+02  0.45045682466E+02  0.00000000000E+00 0. -1.
         11    1    4    4    0    0  0.92256654404E+01  0.75230135179E+01 -0.77578173059E+01  0.14208883307E+02  0.51100000000E-03 0.  1.
        -11    1    4    4    0    0  0.34651887272E+01  0.29358887753E+01 -0.44085692499E+01  0.63294912046E+01  0.51100000000E-03 0. -1.
        -12    1    4    4    0    0  0.67503926203E+01  0.18699831223E+02 -0.16134138031E+02  0.25603943023E+02  0.00000000000E+00 0.  1.
</event>
<event>
 8    1  0.9117959E-009  0.9118800E+02  0.7816164E-02  0.1184000E+00
        -11   -1    0    0    0    0  0.00000000000E+00  0.00000000000E+00  0.45593999997E+02  0.45594000000E+02  0.51100000000E-03 0. -1.
         11   -1    0    0    0    0 -0.00000000000E+00 -0.00000000000E+00 -0.45593999997E+02  0.45594000000E+02  0.51100000000E-03 0.  1.
         23    2    1    2    0    0  0.35527136788E-14 -0.35527136788E-14  0.00000000000E+00  0.91188000000E+02  0.91188000000E+02 0.  0.
    9900012    2    3    3    0    0 -0.23001091370E+02  0.23172920068E+02  0.31033520775E+02  0.46142313854E+02  0.99999643689E+01 0.  0.
        -12    1    3    3    0    0  0.23001091370E+02 -0.23172920068E+02 -0.31033520775E+02  0.45045686146E+02  0.00000000000E+00 0.  1.
         11    1    4    4    0    0 -0.16652713639E+02  0.16883590689E+02  0.19487980690E+02  0.30694460375E+02  0.51100000000E-03 0. -1.
        -11    1    4    4    0    0 -0.59431461152E+01  0.61530177540E+01  0.74909779168E+01  0.11370811916E+02  0.51100000000E-03 0.  1.
        -12    1    4    4    0    0 -0.40523161588E+00  0.13631162514E+00  0.40545621683E+01  0.40770415620E+01  0.00000000000E+00 0.  1.
</event>
<event>
 8    1  0.9117959E-009  0.9118800E+02  0.7816164E-02  0.1184000E+00
        -11   -1    0    0    0    0  0.00000000000E+00  0.00000000000E+00  0.45593999997E+02  0.45594000000E+02  0.51100000000E-03 0.  1.
         11   -1    0    0    0    0 -0.00000000000E+00 -0.00000000000E+00 -0.45593999997E+02  0.45594000000E+02  0.51100000000E-03 0. -1.
         23    2    1    2    0    0  0.00000000000E+00  0.17763568394E-14  0.00000000000E+00  0.91188000000E+02  0.91188000000E+02 0.  0.
    9900012    2    3    3    0    0  0.42349883843E+02  0.98073081837E+01  0.11807521124E+02  0.46142317516E+02  0.99999977671E+01 0.  0.
        -12    1    3    3    0    0 -0.42349883843E+02 -0.98073081837E+01 -0.11807521124E+02  0.45045682484E+02  0.00000000000E+00 0.  1.
         11    1    4    4    0    0  0.15906616402E+02  0.79365733459E+01  0.36811914299E+01  0.18153809860E+02  0.51100000000E-03 0. -1.
        -11    1    4    4    0    0  0.13752078390E+02  0.59207904160E+00  0.61681226757E+01  0.15083632031E+02  0.51100000000E-03 0.  1.
         12    1    4    4    0    0  0.12691189052E+02  0.12786557962E+01  0.19582070185E+01  0.12904875626E+02  0.00000000000E+00 0. -1.
</event>
<event>
 8    1  0.9117959E-009  0.9118800E+02  0.7816164E-02  0.1184000E+00
        -11   -1    0    0    0    0  0.00000000000E+00  0.00000000000E+00  0.45593999997E+02  0.45594000000E+02  0.51100000000E-03 0. -1.
         11   -1    0    0    0    0 -0.00000000000E+00 -0.00000000000E+00 -0.45593999997E+02  0.45594000000E+02  0.51100000000E-03 0.  1.
         23    2    1    2    0    0  0.00000000000E+00  0.00000000000E+00 -0.71054273576E-14  0.91188000000E+02  0.91188000000E+02 0.  0.
    9900012    2    3    3    0    0  0.15371719588E+02  0.12547303320E+02 -0.40439940771E+02  0.46142318816E+02  0.10000009623E+02 0.  0.
         12    1    3    3    0    0 -0.15371719588E+02 -0.12547303320E+02  0.40439940771E+02  0.45045681184E+02  0.00000000000E+00 0. -1.
         11    1    4    4    0    0  0.94292782031E+01  0.40776481982E+01 -0.23283153740E+02  0.25448845762E+02  0.51100000000E-03 0.  1.
        -11    1    4    4    0    0  0.53281434457E+01  0.44004773204E+01 -0.13596629446E+02  0.15251939083E+02  0.51100000000E-03 0. -1.
         12    1    4    4    0    0  0.61429793958E+00  0.40691778012E+01 -0.35601575851E+01  0.54415339719E+01  0.00000000000E+00 0. -1.
</event>
<event>
 8    1  0.9117959E-009  0.9118800E+02  0.7816164E-02  0.1184000E+00
        -11   -1    0    0    0    0  0.00000000000E+00  0.00000000000E+00  0.45593999997E+02  0.45594000000E+02  0.51100000000E-03 0. -1.
         11   -1    0    0    0    0 -0.00000000000E+00 -0.00000000000E+00 -0.45593999997E+02  0.45594000000E+02  0.51100000000E-03 0.  1.
         23    2    1    2    0    0  0.00000000000E+00 -0.71054273576E-14  0.00000000000E+00  0.91188000000E+02  0.91188000000E+02 0.  0.
    9900012    2    3    3    0    0 -0.24179716384E+01 -0.35638175930E+02 -0.27444259325E+02  0.46142317184E+02  0.99999947418E+01 0.  0.
         12    1    3    3    0    0  0.24179716384E+01  0.35638175930E+02  0.27444259325E+02  0.45045682816E+02  0.00000000000E+00 0. -1.
         11    1    4    4    0    0  0.74525988562E-01 -0.36862136064E+01 -0.49463795261E+00  0.37199989032E+01  0.51100000000E-03 0. -1.
        -11    1    4    4    0    0 -0.76620587451E+00 -0.85234624054E+01 -0.35502230974E+01  0.92650184631E+01  0.51100000000E-03 0.  1.
        -12    1    4    4    0    0 -0.17262917525E+01 -0.23428499918E+02 -0.23399398275E+02  0.33157299818E+02  0.00000000000E+00 0.  1.
</event>
<event>
 8    1  0.9117959E-009  0.9118800E+02  0.7816164E-02  0.1184000E+00
        -11   -1    0    0    0    0  0.00000000000E+00  0.00000000000E+00  0.45593999997E+02  0.45594000000E+02  0.51100000000E-03 0. -1.
         11   -1    0    0    0    0 -0.00000000000E+00 -0.00000000000E+00 -0.45593999997E+02  0.45594000000E+02  0.51100000000E-03 0.  1.
         23    2    1    2    0    0  0.17763568394E-14  0.71054273576E-14  0.71054273576E-14  0.91188000000E+02  0.91188000000E+02 0.  0.
    9900012    2    3    3    0    0  0.49627985523E+01  0.34489060630E+02  0.28548010152E+02  0.46142317007E+02  0.99999931254E+01 0.  0.
        -12    1    3    3    0    0 -0.49627985523E+01 -0.34489060630E+02 -0.28548010152E+02  0.45045682993E+02  0.00000000000E+00 0.  1.
         11    1    4    4    0    0  0.68060274143E+01  0.28727355297E+02  0.22825612854E+02  0.37317443025E+02  0.51100000000E-03 0. -1.
        -11    1    4    4    0    0 -0.20645303271E+01  0.54524272411E+01  0.59907358294E+01  0.83594356466E+01  0.51100000000E-03 0.  1.
        -12    1    4    4    0    0  0.22130146514E+00  0.30927809213E+00 -0.26833853103E+00  0.46543833532E+00  0.00000000000E+00 0.  1.
</event>
<event>
 8    1  0.9117959E-009  0.9118800E+02  0.7816164E-02  0.1184000E+00
        -11   -1    0    0    0    0  0.00000000000E+00  0.00000000000E+00  0.45593999997E+02  0.45594000000E+02  0.51100000000E-03 0.  1.
         11   -1    0    0    0    0 -0.00000000000E+00 -0.00000000000E+00 -0.45593999997E+02  0.45594000000E+02  0.51100000000E-03 0. -1.
         23    2    1    2    0    0  0.71054273576E-14  0.35527136788E-14  0.00000000000E+00  0.91188000000E+02  0.91188000000E+02 0.  0.
    9900012    2    3    3    0    0 -0.38910405528E+02 -0.18605725922E+02  0.12996954363E+02  0.46142317431E+02  0.99999969889E+01 0.  0.
         12    1    3    3    0    0  0.38910405528E+02  0.18605725922E+02 -0.12996954363E+02  0.45045682569E+02  0.00000000000E+00 0. -1.
         11    1    4    4    0    0 -0.68289583139E+01  0.31159323589E+00  0.12603859627E+01  0.69512829775E+01  0.51100000000E-03 0. -1.
        -11    1    4    4    0    0 -0.13120949362E+02 -0.70513679955E+01  0.62950340920E+01  0.16171226213E+02  0.51100000000E-03 0.  1.
        -12    1    4    4    0    0 -0.18960497852E+02 -0.11865951162E+02  0.54415343078E+01  0.23019808240E+02  0.00000000000E+00 0.  1.
</event>
<event>
 8    1  0.9117959E-009  0.9118800E+02  0.7816164E-02  0.1184000E+00
        -11   -1    0    0    0    0  0.00000000000E+00  0.00000000000E+00  0.45593999997E+02  0.45594000000E+02  0.51100000000E-03 0. -1.
         11   -1    0    0    0    0 -0.00000000000E+00 -0.00000000000E+00 -0.45593999997E+02  0.45594000000E+02  0.51100000000E-03 0.  1.
         23    2    1    2    0    0  0.00000000000E+00 -0.88817841970E-15  0.71054273576E-14  0.91188000000E+02  0.91188000000E+02 0.  0.
    9900012    2    3    3    0    0 -0.20958460237E+02  0.75817813336E+01 -0.39145532521E+02  0.46142321184E+02  0.10000031212E+02 0.  0.
         12    1    3    3    0    0  0.20958460237E+02 -0.75817813336E+01  0.39145532521E+02  0.45045678816E+02  0.00000000000E+00 0. -1.
         11    1    4    4    0    0 -0.18651440956E+01  0.13041885164E+01 -0.11488831994E+02  0.11712084829E+02  0.51100000000E-03 0. -1.
        -11    1    4    4    0    0 -0.23711424602E+01  0.16380921794E+01 -0.61769649994E+01  0.68161983114E+01  0.51100000000E-03 0.  1.
         12    1    4    4    0    0 -0.16722173681E+02  0.46395006378E+01 -0.21479735527E+02  0.27614038044E+02  0.00000000000E+00 0. -1.
</event>
<event>
 8    1  0.9117959E-009  0.9118800E+02  0.7816164E-02  0.1184000E+00
        -11   -1    0    0    0    0  0.00000000000E+00  0.00000000000E+00  0.45593999997E+02  0.45594000000E+02  0.51100000000E-03 0. -1.
         11   -1    0    0    0    0 -0.00000000000E+00 -0.00000000000E+00 -0.45593999997E+02  0.45594000000E+02  0.51100000000E-03 0.  1.
         23    2    1    2    0    0 -0.17763568394E-14  0.71054273576E-14  0.35527136788E-14  0.91188000000E+02  0.91188000000E+02 0.  0.
    9900012    2    3    3    0    0 -0.68698043509E+01  0.37981035433E+02  0.23224129059E+02  0.46142318354E+02  0.10000005404E+02 0.  0.
        -12    1    3    3    0    0  0.68698043509E+01 -0.37981035433E+02 -0.23224129059E+02  0.45045681646E+02  0.00000000000E+00 0.  1.
         11    1    4    4    0    0 -0.18184853971E+01  0.31572896572E+01  0.44215052395E+01  0.57293172336E+01  0.51100000000E-03 0. -1.
        -11    1    4    4    0    0  0.14996005515E+01  0.93665732222E+01  0.49425858379E+01  0.10696291449E+02  0.51100000000E-03 0.  1.
         12    1    4    4    0    0 -0.65509195052E+01  0.25457172554E+02  0.13860037982E+02  0.29716709671E+02  0.00000000000E+00 0. -1.
</event>
<event>
 8    1  0.9117959E-009  0.9118800E+02  0.7816164E-02  0.1184000E+00
        -11   -1    0    0    0    0  0.00000000000E+00  0.00000000000E+00  0.45593999997E+02  0.45594000000E+02  0.51100000000E-03 0. -1.
         11   -1    0    0    0    0 -0.00000000000E+00 -0.00000000000E+00 -0.45593999997E+02  0.45594000000E+02  0.51100000000E-03 0.  1.
         23    2    1    2    0    0  0.00000000000E+00  0.00000000000E+00  0.00000000000E+00  0.91188000000E+02  0.91188000000E+02 0.  0.
    9900012    2    3    3    0    0 -0.37142551912E+02 -0.85557504385E+01 -0.24007154219E+02  0.46142317834E+02  0.10000000668E+02 0.  0.
         12    1    3    3    0    0  0.37142551912E+02  0.85557504385E+01  0.24007154219E+02  0.45045682166E+02  0.00000000000E+00 0. -1.
         11    1    4    4    0    0 -0.80650966728E+01 -0.27352638130E+01 -0.45801008252E+01  0.96697867762E+01  0.51100000000E-03 0. -1.
        -11    1    4    4    0    0 -0.28189857644E+02 -0.53923621154E+01 -0.15901066606E+02  0.32811424270E+02  0.51100000000E-03 0.  1.
         12    1    4    4    0    0 -0.88759759527E+00 -0.42812450998E+00 -0.35259867878E+01  0.36611067883E+01  0.00000000000E+00 0. -1.
</event>
<event>
 8    1  0.1183965E-008  0.9118800E+02  0.7816164E-02  0.1184000E+00
        -11   -1    0    0    0    0  0.00000000000E+00  0.00000000000E+00  0.45593999997E+02  0.45594000000E+02  0.51100000000E-03 0. -1.
         11   -1    0    0    0    0 -0.00000000000E+00 -0.00000000000E+00 -0.45593999997E+02  0.45594000000E+02  0.51100000000E-03 0.  1.
         23    2    1    2    0    0  0.00000000000E+00  0.88817841970E-15 -0.71054273576E-14  0.91188000000E+02  0.91188000000E+02 0.  0.
    9900012    2    3    3    0    0 -0.23000356887E+02 -0.45887866499E+01  0.38458290165E+02  0.46142318051E+02  0.10000002641E+02 0.  0.
        -12    1    3    3    0    0  0.23000356887E+02  0.45887866499E+01 -0.38458290165E+02  0.45045681949E+02  0.00000000000E+00 0.  1.
         11    1    4    4    0    0 -0.38201205743E+01 -0.27268125510E+01  0.89883971060E+01  0.10140025182E+02  0.51100000000E-03 0. -1.
        -11    1    4    4    0    0  0.67327955947E+00 -0.37307589119E+00  0.11860270354E+01  0.14139134965E+01  0.51100000000E-03 0.  1.
         12    1    4    4    0    0 -0.19853515872E+02 -0.14888982077E+01  0.28283866024E+02  0.34588379372E+02  0.00000000000E+00 0. -1.
</event>
<event>
 8    1  0.9117959E-009  0.9118800E+02  0.7816164E-02  0.1184000E+00
        -11   -1    0    0    0    0  0.00000000000E+00  0.00000000000E+00  0.45593999997E+02  0.45594000000E+02  0.51100000000E-03 0. -1.
         11   -1    0    0    0    0 -0.00000000000E+00 -0.00000000000E+00 -0.45593999997E+02  0.45594000000E+02  0.51100000000E-03 0.  1.
         23    2    1    2    0    0  0.00000000000E+00  0.00000000000E+00  0.00000000000E+00  0.91188000000E+02  0.91188000000E+02 0.  0.
    9900012    2    3    3    0    0 -0.10378217399E+02  0.21464488510E+02 -0.38218868481E+02  0.46142316840E+02  0.99999916011E+01 0.  0.
         12    1    3    3    0    0  0.10378217399E+02 -0.21464488510E+02  0.38218868481E+02  0.45045683160E+02  0.00000000000E+00 0. -1.
         11    1    4    4    0    0  0.11807800198E+01  0.30853046127E+01 -0.51459384096E+01  0.61150656893E+01  0.51100000000E-03 0. -1.
        -11    1    4    4    0    0 -0.11200464858E+02  0.13151380486E+02 -0.24444909561E+02  0.29932638130E+02  0.51100000000E-03 0.  1.
        -12    1    4    4    0    0 -0.35853256050E+00  0.52278034112E+01 -0.86280205108E+01  0.10094613021E+02  0.00000000000E+00 0.  1.
</event>
<event>
 8    1  0.1025157E-008  0.9118800E+02  0.7816164E-02  0.1184000E+00
        -11   -1    0    0    0    0  0.00000000000E+00  0.00000000000E+00  0.45593999997E+02  0.45594000000E+02  0.51100000000E-03 0. -1.
         11   -1    0    0    0    0 -0.00000000000E+00 -0.00000000000E+00 -0.45593999997E+02  0.45594000000E+02  0.51100000000E-03 0.  1.
         23    2    1    2    0    0 -0.35527136788E-14  0.17763568394E-14  0.71054273576E-14  0.91188000000E+02  0.91188000000E+02 0.  0.
    9900012    2    3    3    0    0 -0.93708147101E+01  0.12725387801E+02  0.42182529817E+02  0.46142317801E+02  0.10000000365E+02 0.  0.
        -12    1    3    3    0    0  0.93708147101E+01 -0.12725387801E+02 -0.42182529817E+02  0.45045682199E+02  0.00000000000E+00 0.  1.
         11    1    4    4    0    0 -0.10622634429E+01 -0.42381145339E+00  0.48933090130E+01  0.50251858800E+01  0.51100000000E-03 0. -1.
        -11    1    4    4    0    0 -0.28722835458E+01  0.33294792059E+00  0.33012990448E+01  0.43885581607E+01  0.51100000000E-03 0.  1.
         12    1    4    4    0    0 -0.54362677214E+01  0.12816251334E+02  0.33987921759E+02  0.36728573761E+02  0.00000000000E+00 0. -1.
</event>
<event>
 8    1  0.9117959E-009  0.9118800E+02  0.7816164E-02  0.1184000E+00
        -11   -1    0    0    0    0  0.00000000000E+00  0.00000000000E+00  0.45593999997E+02  0.45594000000E+02  0.51100000000E-03 0.  1.
         11   -1    0    0    0    0 -0.00000000000E+00 -0.00000000000E+00 -0.45593999997E+02  0.45594000000E+02  0.51100000000E-03 0. -1.
         23    2    1    2    0    0 -0.71054273576E-14  0.00000000000E+00  0.00000000000E+00  0.91188000000E+02  0.91188000000E+02 0.  0.
    9900012    2    3    3    0    0  0.41334810819E+02  0.38445444885E+01 -0.17486176986E+02  0.46142317705E+02  0.99999994914E+01 0.  0.
         12    1    3    3    0    0 -0.41334810819E+02 -0.38445444885E+01  0.17486176986E+02  0.45045682295E+02  0.00000000000E+00 0. -1.
         11    1    4    4    0    0  0.18310867456E+02  0.61389204665E+00 -0.11413780137E+02  0.21585622709E+02  0.51100000000E-03 0. -1.
        -11    1    4    4    0    0  0.40076414667E+01  0.23172678082E+01 -0.22134868151E+01  0.51313199435E+01  0.51100000000E-03 0.  1.
        -12    1    4    4    0    0  0.19016301896E+02  0.91338463358E+00 -0.38589100341E+01  0.19425375053E+02  0.00000000000E+00 0.  1.
</event>
<event>
 8    1  0.9117959E-009  0.9118800E+02  0.7816164E-02  0.1184000E+00
        -11   -1    0    0    0    0  0.00000000000E+00  0.00000000000E+00  0.45593999997E+02  0.45594000000E+02  0.51100000000E-03 0. -1.
         11   -1    0    0    0    0 -0.00000000000E+00 -0.00000000000E+00 -0.45593999997E+02  0.45594000000E+02  0.51100000000E-03 0.  1.
         23    2    1    2    0    0  0.00000000000E+00  0.22204460493E-15  0.35527136788E-14  0.91188000000E+02  0.91188000000E+02 0.  0.
    9900012    2    3    3    0    0 -0.37078725031E+02  0.55493314425E+00  0.25572920379E+02  0.46142311445E+02  0.99999424052E+01 0.  0.
        -12    1    3    3    0    0  0.37078725031E+02 -0.55493314425E+00 -0.25572920379E+02  0.45045688555E+02  0.00000000000E+00 0.  1.
         11    1    4    4    0    0 -0.92552997281E+01 -0.88506797938E+00  0.54735110044E+01  0.10789033384E+02  0.51100000000E-03 0. -1.
        -11    1    4    4    0    0 -0.13187866190E+01 -0.19594717515E+01  0.16046071718E+01  0.28554320388E+01  0.51100000000E-03 0.  1.
         12    1    4    4    0    0 -0.26504638683E+02  0.33994728751E+01  0.18494802203E+02  0.32497846022E+02  0.00000000000E+00 0. -1.
</event>
<event>
 8    1  0.9117959E-009  0.9118800E+02  0.7816164E-02  0.1184000E+00
        -11   -1    0    0    0    0  0.00000000000E+00  0.00000000000E+00  0.45593999997E+02  0.45594000000E+02  0.51100000000E-03 0. -1.
         11   -1    0    0    0    0 -0.00000000000E+00 -0.00000000000E+00 -0.45593999997E+02  0.45594000000E+02  0.51100000000E-03 0.  1.
         23    2    1    2    0    0  0.00000000000E+00  0.00000000000E+00 -0.17763568394E-14  0.91188000000E+02  0.91188000000E+02 0.  0.
    9900012    2    3    3    0    0 -0.24637234247E+02 -0.34913777789E+02  0.14253004573E+02  0.46142319516E+02  0.10000016004E+02 0.  0.
        -12    1    3    3    0    0  0.24637234247E+02  0.34913777789E+02 -0.14253004573E+02  0.45045680484E+02  0.00000000000E+00 0.  1.
         11    1    4    4    0    0 -0.10578976784E+02 -0.20211783373E+02  0.42162659132E+01  0.23199306788E+02  0.51100000000E-03 0. -1.
        -11    1    4    4    0    0 -0.73965600495E+01 -0.86410967003E+01  0.38170189156E+01  0.11997803400E+02  0.51100000000E-03 0.  1.
        -12    1    4    4    0    0 -0.66616974136E+01 -0.60608977161E+01  0.62197197446E+01  0.10945209329E+02  0.00000000000E+00 0.  1.
</event>
<event>
 8    1  0.9117959E-009  0.9118800E+02  0.7816164E-02  0.1184000E+00
        -11   -1    0    0    0    0  0.00000000000E+00  0.00000000000E+00  0.45593999997E+02  0.45594000000E+02  0.51100000000E-03 0. -1.
         11   -1    0    0    0    0 -0.00000000000E+00 -0.00000000000E+00 -0.45593999997E+02  0.45594000000E+02  0.51100000000E-03 0.  1.
         23    2    1    2    0    0  0.00000000000E+00  0.00000000000E+00 -0.35527136788E-14  0.91188000000E+02  0.91188000000E+02 0.  0.
    9900012    2    3    3    0    0 -0.16045816331E+02  0.34453137651E+02  0.24179051360E+02  0.46142318294E+02  0.10000004859E+02 0.  0.
        -12    1    3    3    0    0  0.16045816331E+02 -0.34453137651E+02 -0.24179051360E+02  0.45045681706E+02  0.00000000000E+00 0.  1.
         11    1    4    4    0    0 -0.47934079695E+01  0.13425764472E+02  0.58249599382E+01  0.15399937343E+02  0.51100000000E-03 0. -1.
        -11    1    4    4    0    0  0.61985858805E+00  0.52053588008E+00  0.13605976239E+01  0.15831640556E+01  0.51100000000E-03 0.  1.
         12    1    4    4    0    0 -0.11872266950E+02  0.20506837299E+02  0.16993493797E+02  0.29159216896E+02  0.00000000000E+00 0. -1.
</event>
<event>
 8    1  0.9117959E-009  0.9118800E+02  0.7816164E-02  0.1184000E+00
        -11   -1    0    0    0    0  0.00000000000E+00  0.00000000000E+00  0.45593999997E+02  0.45594000000E+02  0.51100000000E-03 0. -1.
         11   -1    0    0    0    0 -0.00000000000E+00 -0.00000000000E+00 -0.45593999997E+02  0.45594000000E+02  0.51100000000E-03 0.  1.
         23    2    1    2    0    0 -0.44408920985E-15  0.00000000000E+00  0.00000000000E+00  0.91188000000E+02  0.91188000000E+02 0.  0.
    9900012    2    3    3    0    0  0.24108300621E+01  0.22134350245E+02  0.39158293128E+02  0.46142317820E+02  0.10000000537E+02 0.  0.
        -12    1    3    3    0    0 -0.24108300621E+01 -0.22134350245E+02 -0.39158293128E+02  0.45045682180E+02  0.00000000000E+00 0.  1.
         11    1    4    4    0    0  0.33781483455E+01  0.47454980882E+01  0.78819299227E+01  0.98008396537E+01  0.51100000000E-03 0. -1.
        -11    1    4    4    0    0 -0.12071668750E+00  0.12179866227E+02  0.15546015494E+02  0.19749488901E+02  0.51100000000E-03 0.  1.
        -12    1    4    4    0    0 -0.84660159592E+00  0.52089859301E+01  0.15730347711E+02  0.16591989266E+02  0.00000000000E+00 0.  1.
</event>
<event>
 8    1  0.9117959E-009  0.9118800E+02  0.7816164E-02  0.1184000E+00
        -11   -1    0    0    0    0  0.00000000000E+00  0.00000000000E+00  0.45593999997E+02  0.45594000000E+02  0.51100000000E-03 0. -1.
         11   -1    0    0    0    0 -0.00000000000E+00 -0.00000000000E+00 -0.45593999997E+02  0.45594000000E+02  0.51100000000E-03 0.  1.
         23    2    1    2    0    0  0.00000000000E+00  0.00000000000E+00  0.00000000000E+00  0.91188000000E+02  0.91188000000E+02 0.  0.
    9900012    2    3    3    0    0  0.60159931122E+01  0.20137826118E+02  0.39842053969E+02  0.46142317872E+02  0.10000001010E+02 0.  0.
        -12    1    3    3    0    0 -0.60159931122E+01 -0.20137826118E+02 -0.39842053969E+02  0.45045682128E+02  0.00000000000E+00 0.  1.
         11    1    4    4    0    0 -0.19707763350E+00 -0.55852191098E+00  0.36613743661E+00  0.69630683056E+00  0.51100000000E-03 0.  1.
        -11    1    4    4    0    0  0.54118509040E+01  0.19181413983E+02  0.31405949288E+02  0.37196080755E+02  0.51100000000E-03 0. -1.
         12    1    4    4    0    0  0.80121984169E+00  0.15149340464E+01  0.80699672446E+01  0.82499302863E+01  0.00000000000E+00 0. -1.
</event>
<event>
 8    1  0.9117959E-009  0.9118800E+02  0.7816164E-02  0.1184000E+00
        -11   -1    0    0    0    0  0.00000000000E+00  0.00000000000E+00  0.45593999997E+02  0.45594000000E+02  0.51100000000E-03 0. -1.
         11   -1    0    0    0    0 -0.00000000000E+00 -0.00000000000E+00 -0.45593999997E+02  0.45594000000E+02  0.51100000000E-03 0.  1.
         23    2    1    2    0    0 -0.17763568394E-14 -0.17763568394E-14  0.00000000000E+00  0.91188000000E+02  0.91188000000E+02 0.  0.
    9900012    2    3    3    0    0 -0.13018047165E+02 -0.10181769802E+02 -0.41904372656E+02  0.46142307243E+02  0.99999040851E+01 0.  0.
         12    1    3    3    0    0  0.13018047165E+02  0.10181769802E+02  0.41904372656E+02  0.45045692757E+02  0.00000000000E+00 0. -1.
         11    1    4    4    0    0 -0.52157111290E+01 -0.33659374140E+01 -0.86476549620E+01  0.10644957203E+02  0.51100000000E-03 0. -1.
        -11    1    4    4    0    0 -0.12718924809E+01  0.94024310332E+00 -0.10031159823E+02  0.10155094054E+02  0.51100000000E-03 0.  1.
        -12    1    4    4    0    0 -0.65304435553E+01 -0.77560754917E+01 -0.23225557870E+02  0.25342255986E+02  0.00000000000E+00 0.  1.
</event>
<event>
 8    1  0.9117959E-009  0.9118800E+02  0.7816164E-02  0.1184000E+00
        -11   -1    0    0    0    0  0.00000000000E+00  0.00000000000E+00  0.45593999997E+02  0.45594000000E+02  0.51100000000E-03 0. -1.
         11   -1    0    0    0    0 -0.00000000000E+00 -0.00000000000E+00 -0.45593999997E+02  0.45594000000E+02  0.51100000000E-03 0.  1.
         23    2    1    2    0    0 -0.88817841970E-15  0.44408920985E-15  0.71054273576E-14  0.91188000000E+02  0.91188000000E+02 0.  0.
    9900012    2    3    3    0    0  0.40262873820E+01 -0.51861324170E+00  0.44862382864E+02  0.46142319341E+02  0.10000014409E+02 0.  0.
        -12    1    3    3    0    0 -0.40262873820E+01  0.51861324170E+00 -0.44862382864E+02  0.45045680659E+02  0.00000000000E+00 0.  1.
         11    1    4    4    0    0  0.32011011843E+01 -0.55838990317E+00  0.19751746201E+02  0.20017250718E+02  0.51100000000E-03 0. -1.
        -11    1    4    4    0    0 -0.27402283680E+01  0.16444789038E+01  0.13526144126E+02  0.13898551635E+02  0.51100000000E-03 0.  1.
        -12    1    4    4    0    0  0.35654145657E+01 -0.16047022423E+01  0.11584492537E+02  0.12226516988E+02  0.00000000000E+00 0.  1.
</event>
<event>
 8    1  0.2153104E-008  0.9118800E+02  0.7816164E-02  0.1184000E+00
        -11   -1    0    0    0    0  0.00000000000E+00  0.00000000000E+00  0.45593999997E+02  0.45594000000E+02  0.51100000000E-03 0. -1.
         11   -1    0    0    0    0 -0.00000000000E+00 -0.00000000000E+00 -0.45593999997E+02  0.45594000000E+02  0.51100000000E-03 0.  1.
         23    2    1    2    0    0 -0.88817841970E-15  0.00000000000E+00  0.00000000000E+00  0.91188000000E+02  0.91188000000E+02 0.  0.
    9900012    2    3    3    0    0  0.69862510007E+01  0.22301025433E+02  0.38509350750E+02  0.46142317259E+02  0.99999954226E+01 0.  0.
        -12    1    3    3    0    0 -0.69862510007E+01 -0.22301025433E+02 -0.38509350750E+02  0.45045682741E+02  0.00000000000E+00 0.  1.
         11    1    4    4    0    0  0.12948401005E+01  0.65415989977E+01  0.67400258263E+01  0.94814068963E+01  0.51100000000E-03 0.  1.
        -11    1    4    4    0    0  0.33275674538E+01  0.49667185408E+01  0.53433944735E+01  0.80182830446E+01  0.51100000000E-03 0. -1.
         12    1    4    4    0    0  0.23638434464E+01  0.10792707895E+02  0.26425930450E+02  0.28642627318E+02  0.00000000000E+00 0. -1.
</event>
<event>
 8    1  0.1424146E-008  0.9118800E+02  0.7816164E-02  0.1184000E+00
        -11   -1    0    0    0    0  0.00000000000E+00  0.00000000000E+00  0.45593999997E+02  0.45594000000E+02  0.51100000000E-03 0. -1.
         11   -1    0    0    0    0 -0.00000000000E+00 -0.00000000000E+00 -0.45593999997E+02  0.45594000000E+02  0.51100000000E-03 0.  1.
         23    2    1    2    0    0  0.00000000000E+00  0.00000000000E+00 -0.71054273576E-14  0.91188000000E+02  0.91188000000E+02 0.  0.
    9900012    2    3    3    0    0  0.94989644384E+01  0.23861610918E+01  0.43968049837E+02  0.46142317670E+02  0.99999991671E+01 0.  0.
        -12    1    3    3    0    0 -0.94989644384E+01 -0.23861610918E+01 -0.43968049837E+02  0.45045682330E+02  0.00000000000E+00 0.  1.
         11    1    4    4    0    0  0.27030253787E+01  0.23617845951E+01  0.48973710489E+01  0.60719532379E+01  0.51100000000E-03 0. -1.
        -11    1    4    4    0    0  0.14918385828E+00 -0.11479684000E+01  0.14819626985E+01  0.18805055097E+01  0.51100000000E-03 0.  1.
         12    1    4    4    0    0  0.66467552014E+01  0.11723448967E+01  0.37588716089E+02  0.38189858922E+02  0.00000000000E+00 0. -1.
</event>
<event>
 8    1  0.9117959E-009  0.9118800E+02  0.7816164E-02  0.1184000E+00
        -11   -1    0    0    0    0  0.00000000000E+00  0.00000000000E+00  0.45593999997E+02  0.45594000000E+02  0.51100000000E-03 0. -1.
         11   -1    0    0    0    0 -0.00000000000E+00 -0.00000000000E+00 -0.45593999997E+02  0.45594000000E+02  0.51100000000E-03 0.  1.
         23    2    1    2    0    0  0.35527136788E-14  0.88817841970E-15  0.00000000000E+00  0.91188000000E+02  0.91188000000E+02 0.  0.
    9900012    2    3    3    0    0 -0.23541274457E+02 -0.57754367943E+01 -0.37967963175E+02  0.46142317622E+02  0.99999987351E+01 0.  0.
         12    1    3    3    0    0  0.23541274457E+02  0.57754367943E+01  0.37967963175E+02  0.45045682378E+02  0.00000000000E+00 0. -1.
         11    1    4    4    0    0 -0.29847125753E+01  0.79879283124E+00 -0.10445359524E+02  0.10892755160E+02  0.51100000000E-03 0. -1.
        -11    1    4    4    0    0 -0.19058321951E+01  0.54047495275E+00 -0.34390160442E+01  0.39687707346E+01  0.51100000000E-03 0.  1.
        -12    1    4    4    0    0 -0.18650729686E+02 -0.71147045783E+01 -0.24083587607E+02  0.31280791727E+02  0.00000000000E+00 0.  1.
</event>
<event>
 8    1  0.9117959E-009  0.9118800E+02  0.7816164E-02  0.1184000E+00
        -11   -1    0    0    0    0  0.00000000000E+00  0.00000000000E+00  0.45593999997E+02  0.45594000000E+02  0.51100000000E-03 0. -1.
         11   -1    0    0    0    0 -0.00000000000E+00 -0.00000000000E+00 -0.45593999997E+02  0.45594000000E+02  0.51100000000E-03 0.  1.
         23    2    1    2    0    0  0.00000000000E+00 -0.71054273576E-14  0.35527136788E-14  0.91188000000E+02  0.91188000000E+02 0.  0.
    9900012    2    3    3    0    0 -0.22174584546E+02  0.32109064070E+02 -0.22503532072E+02  0.46142321506E+02  0.10000034150E+02 0.  0.
         12    1    3    3    0    0  0.22174584546E+02 -0.32109064070E+02  0.22503532072E+02  0.45045678494E+02  0.00000000000E+00 0. -1.
         11    1    4    4    0    0 -0.63492904665E-01 -0.26120940190E+00 -0.11844171414E+00  0.29375227889E+00  0.51100000000E-03 0. -1.
        -11    1    4    4    0    0 -0.16879850086E+02  0.21905638972E+02 -0.11784284917E+02  0.30060867070E+02  0.51100000000E-03 0.  1.
        -12    1    4    4    0    0 -0.52312415555E+01  0.10464634500E+02 -0.10600805440E+02  0.15787702157E+02  0.00000000000E+00 0.  1.
</event>
<event>
 8    1  0.9117959E-009  0.9118800E+02  0.7816164E-02  0.1184000E+00
        -11   -1    0    0    0    0  0.00000000000E+00  0.00000000000E+00  0.45593999997E+02  0.45594000000E+02  0.51100000000E-03 0. -1.
         11   -1    0    0    0    0 -0.00000000000E+00 -0.00000000000E+00 -0.45593999997E+02  0.45594000000E+02  0.51100000000E-03 0.  1.
         23    2    1    2    0    0  0.00000000000E+00  0.00000000000E+00 -0.35527136788E-14  0.91188000000E+02  0.91188000000E+02 0.  0.
    9900012    2    3    3    0    0 -0.26177711634E+02 -0.25810242142E+02  0.26032141252E+02  0.46142316922E+02  0.99999923504E+01 0.  0.
        -12    1    3    3    0    0  0.26177711634E+02  0.25810242142E+02 -0.26032141252E+02  0.45045683078E+02  0.00000000000E+00 0.  1.
         11    1    4    4    0    0 -0.65999081165E+01 -0.11126596546E+02  0.11769744871E+02  0.17489620706E+02  0.51100000000E-03 0.  1.
        -11    1    4    4    0    0 -0.16539155672E+02 -0.14069764485E+02  0.11949571508E+02  0.24784959199E+02  0.51100000000E-03 0. -1.
        -12    1    4    4    0    0 -0.30386478446E+01 -0.61388111086E+00  0.23128248731E+01  0.38677370174E+01  0.00000000000E+00 0.  1.
</event>
<event>
 8    1  0.9117959E-009  0.9118800E+02  0.7816164E-02  0.1184000E+00
        -11   -1    0    0    0    0  0.00000000000E+00  0.00000000000E+00  0.45593999997E+02  0.45594000000E+02  0.51100000000E-03 0. -1.
         11   -1    0    0    0    0 -0.00000000000E+00 -0.00000000000E+00 -0.45593999997E+02  0.45594000000E+02  0.51100000000E-03 0.  1.
         23    2    1    2    0    0  0.00000000000E+00 -0.35527136788E-14  0.71054273576E-14  0.91188000000E+02  0.91188000000E+02 0.  0.
    9900012    2    3    3    0    0  0.16968836844E+02 -0.21565738639E+02 -0.35722415376E+02  0.46142317996E+02  0.10000002143E+02 0.  0.
         12    1    3    3    0    0 -0.16968836844E+02  0.21565738639E+02  0.35722415376E+02  0.45045682004E+02  0.00000000000E+00 0. -1.
         11    1    4    4    0    0  0.31843717138E+01 -0.31660140711E+01 -0.20829956237E+01  0.49500241756E+01  0.51100000000E-03 0.  1.
        -11    1    4    4    0    0  0.89862880908E+01 -0.85458818733E+01 -0.21636115918E+02  0.24938062934E+02  0.51100000000E-03 0. -1.
         12    1    4    4    0    0  0.47981770394E+01 -0.98538426949E+01 -0.12003303835E+02  0.16254230886E+02  0.00000000000E+00 0. -1.
</event>
<event>
 8    1  0.1500696E-008  0.9118800E+02  0.7816164E-02  0.1184000E+00
        -11   -1    0    0    0    0  0.00000000000E+00  0.00000000000E+00  0.45593999997E+02  0.45594000000E+02  0.51100000000E-03 0. -1.
         11   -1    0    0    0    0 -0.00000000000E+00 -0.00000000000E+00 -0.45593999997E+02  0.45594000000E+02  0.51100000000E-03 0.  1.
         23    2    1    2    0    0 -0.17763568394E-14  0.26645352591E-14  0.71054273576E-14  0.91188000000E+02  0.91188000000E+02 0.  0.
    9900012    2    3    3    0    0 -0.10090125698E+02  0.74045908793E+01  0.43272102619E+02  0.46142317990E+02  0.10000002089E+02 0.  0.
        -12    1    3    3    0    0  0.10090125698E+02 -0.74045908793E+01 -0.43272102619E+02  0.45045682010E+02  0.00000000000E+00 0.  1.
         11    1    4    4    0    0 -0.60851994773E+00 -0.87142101578E+00  0.15169161191E+01  0.18522164795E+01  0.51100000000E-03 0. -1.
        -11    1    4    4    0    0 -0.11070878780E+01 -0.13337500127E+01  0.27101318150E+01  0.32170401586E+01  0.51100000000E-03 0.  1.
         12    1    4    4    0    0 -0.83745178727E+01  0.96097619078E+01  0.39045054684E+02  0.41073061352E+02  0.00000000000E+00 0. -1.
</event>
<event>
 8    1  0.9117959E-009  0.9118800E+02  0.7816164E-02  0.1184000E+00
        -11   -1    0    0    0    0  0.00000000000E+00  0.00000000000E+00  0.45593999997E+02  0.45594000000E+02  0.51100000000E-03 0.  1.
         11   -1    0    0    0    0 -0.00000000000E+00 -0.00000000000E+00 -0.45593999997E+02  0.45594000000E+02  0.51100000000E-03 0. -1.
         23    2    1    2    0    0  0.00000000000E+00  0.00000000000E+00  0.00000000000E+00  0.91188000000E+02  0.91188000000E+02 0.  0.
    9900012    2    3    3    0    0 -0.63271359340E+01 -0.44399754733E+02 -0.42121993691E+01  0.46142317710E+02  0.99999995312E+01 0.  0.
         12    1    3    3    0    0  0.63271359340E+01  0.44399754733E+02  0.42121993691E+01  0.45045682290E+02  0.00000000000E+00 0. -1.
         11    1    4    4    0    0 -0.97823682448E+00 -0.46836947705E+01 -0.22595641881E+01  0.52914624225E+01  0.51100000000E-03 0. -1.
        -11    1    4    4    0    0 -0.85498341195E+00 -0.22807690653E+02  0.20109184936E+01  0.22912126550E+02  0.51100000000E-03 0.  1.
         12    1    4    4    0    0 -0.44939156976E+01 -0.16908369309E+02 -0.39635536746E+01  0.17938728738E+02  0.00000000000E+00 0. -1.
</event>
<event>
 8    1  0.9117959E-009  0.9118800E+02  0.7816164E-02  0.1184000E+00
        -11   -1    0    0    0    0  0.00000000000E+00  0.00000000000E+00  0.45593999997E+02  0.45594000000E+02  0.51100000000E-03 0. -1.
         11   -1    0    0    0    0 -0.00000000000E+00 -0.00000000000E+00 -0.45593999997E+02  0.45594000000E+02  0.51100000000E-03 0.  1.
         23    2    1    2    0    0  0.35527136788E-14  0.00000000000E+00  0.71054273576E-14  0.91188000000E+02  0.91188000000E+02 0.  0.
    9900012    2    3    3    0    0 -0.22733318135E+02 -0.19362505138E+02 -0.33725407114E+02  0.46142318257E+02  0.10000004524E+02 0.  0.
         12    1    3    3    0    0  0.22733318135E+02  0.19362505138E+02  0.33725407114E+02  0.45045681743E+02  0.00000000000E+00 0. -1.
         11    1    4    4    0    0 -0.43249206307E-02 -0.14890179729E+01  0.15843515328E+00  0.14974295268E+01  0.51100000000E-03 0. -1.
        -11    1    4    4    0    0 -0.11796878188E+02 -0.76336768826E+01 -0.17566880558E+02  0.22495213947E+02  0.51100000000E-03 0.  1.
         12    1    4    4    0    0 -0.10932115027E+02 -0.10239810283E+02 -0.16316961709E+02  0.22149674783E+02  0.00000000000E+00 0. -1.
</event>
<event>
 8    1  0.9117959E-009  0.9118800E+02  0.7816164E-02  0.1184000E+00
        -11   -1    0    0    0    0  0.00000000000E+00  0.00000000000E+00  0.45593999997E+02  0.45594000000E+02  0.51100000000E-03 0. -1.
         11   -1    0    0    0    0 -0.00000000000E+00 -0.00000000000E+00 -0.45593999997E+02  0.45594000000E+02  0.51100000000E-03 0.  1.
         23    2    1    2    0    0  0.00000000000E+00  0.00000000000E+00  0.00000000000E+00  0.91188000000E+02  0.91188000000E+02 0.  0.
    9900012    2    3    3    0    0  0.91674671727E+01  0.84720615753E+01  0.43281583632E+02  0.46142314709E+02  0.99999721650E+01 0.  0.
        -12    1    3    3    0    0 -0.91674671727E+01 -0.84720615753E+01 -0.43281583632E+02  0.45045685291E+02  0.00000000000E+00 0.  1.
         11    1    4    4    0    0  0.34408216138E+00 -0.37233644592E-01  0.56515543940E+01  0.56621414860E+01  0.51100000000E-03 0.  1.
        -11    1    4    4    0    0  0.79456959602E+01  0.60484353464E+01  0.36092931965E+02  0.37448863702E+02  0.51100000000E-03 0. -1.
         12    1    4    4    0    0  0.87768905109E+00  0.24608598734E+01  0.15370972725E+01  0.30313095210E+01  0.00000000000E+00 0. -1.
</event>
<event>
 8    1  0.9117959E-009  0.9118800E+02  0.7816164E-02  0.1184000E+00
        -11   -1    0    0    0    0  0.00000000000E+00  0.00000000000E+00  0.45593999997E+02  0.45594000000E+02  0.51100000000E-03 0.  1.
         11   -1    0    0    0    0 -0.00000000000E+00 -0.00000000000E+00 -0.45593999997E+02  0.45594000000E+02  0.51100000000E-03 0. -1.
         23    2    1    2    0    0  0.00000000000E+00  0.88817841970E-15  0.00000000000E+00  0.91188000000E+02  0.91188000000E+02 0.  0.
    9900012    2    3    3    0    0  0.33100046020E+02 -0.67822018794E+01  0.29790974924E+02  0.46142317679E+02  0.99999992501E+01 0.  0.
        -12    1    3    3    0    0 -0.33100046020E+02  0.67822018794E+01 -0.29790974924E+02  0.45045682321E+02  0.00000000000E+00 0.  1.
         11    1    4    4    0    0  0.38301606372E+01 -0.25534889289E+01  0.63975662000E+01  0.78815791414E+01  0.51100000000E-03 0. -1.
        -11    1    4    4    0    0  0.40995712445E+01 -0.12180806461E+01  0.90017819973E+00  0.43704148432E+01  0.51100000000E-03 0.  1.
         12    1    4    4    0    0  0.25170314138E+02 -0.30106323043E+01  0.22493230524E+02  0.33890323694E+02  0.00000000000E+00 0. -1.
</event>
<event>
 8    1  0.9117959E-009  0.9118800E+02  0.7816164E-02  0.1184000E+00
        -11   -1    0    0    0    0  0.00000000000E+00  0.00000000000E+00  0.45593999997E+02  0.45594000000E+02  0.51100000000E-03 0. -1.
         11   -1    0    0    0    0 -0.00000000000E+00 -0.00000000000E+00 -0.45593999997E+02  0.45594000000E+02  0.51100000000E-03 0.  1.
         23    2    1    2    0    0  0.00000000000E+00  0.00000000000E+00  0.71054273576E-14  0.91188000000E+02  0.91188000000E+02 0.  0.
    9900012    2    3    3    0    0  0.17013580600E+02  0.12854755639E+02 -0.39678796227E+02  0.46142317217E+02  0.99999950359E+01 0.  0.
         12    1    3    3    0    0 -0.17013580600E+02 -0.12854755639E+02  0.39678796227E+02  0.45045682783E+02  0.00000000000E+00 0. -1.
         11    1    4    4    0    0  0.35638768413E+01  0.26817356468E+00 -0.48918491471E+01  0.60583267937E+01  0.51100000000E-03 0. -1.
        -11    1    4    4    0    0  0.50899736275E+01  0.49463932078E+01 -0.21415862795E+02  0.22561334553E+02  0.51100000000E-03 0.  1.
        -12    1    4    4    0    0  0.83597301314E+01  0.76401888661E+01 -0.13371084285E+02  0.17522655870E+02  0.00000000000E+00 0.  1.
</event>
<event>
 8    1  0.9117959E-009  0.9118800E+02  0.7816164E-02  0.1184000E+00
        -11   -1    0    0    0    0  0.00000000000E+00  0.00000000000E+00  0.45593999997E+02  0.45594000000E+02  0.51100000000E-03 0. -1.
         11   -1    0    0    0    0 -0.00000000000E+00 -0.00000000000E+00 -0.45593999997E+02  0.45594000000E+02  0.51100000000E-03 0.  1.
         23    2    1    2    0    0  0.00000000000E+00  0.00000000000E+00  0.00000000000E+00  0.91188000000E+02  0.91188000000E+02 0.  0.
    9900012    2    3    3    0    0  0.18113254162E+02 -0.57226431210E+01 -0.40844524221E+02  0.46142314530E+02  0.99999705399E+01 0.  0.
         12    1    3    3    0    0 -0.18113254162E+02  0.57226431210E+01  0.40844524221E+02  0.45045685470E+02  0.00000000000E+00 0. -1.
         11    1    4    4    0    0 -0.22078544360E+00  0.15536973965E-01 -0.54276305519E+00  0.58615663851E+00  0.51100000000E-03 0. -1.
        -11    1    4    4    0    0  0.43006444156E+01 -0.46884301979E+01 -0.73248409247E+01  0.97020727138E+01  0.51100000000E-03 0.  1.
        -12    1    4    4    0    0  0.14033395190E+02 -0.10497498970E+01 -0.32976920241E+02  0.35854085178E+02  0.00000000000E+00 0.  1.
</event>
<event>
 8    1  0.1312721E-008  0.9118800E+02  0.7816164E-02  0.1184000E+00
        -11   -1    0    0    0    0  0.00000000000E+00  0.00000000000E+00  0.45593999997E+02  0.45594000000E+02  0.51100000000E-03 0. -1.
         11   -1    0    0    0    0 -0.00000000000E+00 -0.00000000000E+00 -0.45593999997E+02  0.45594000000E+02  0.51100000000E-03 0.  1.
         23    2    1    2    0    0  0.00000000000E+00 -0.71054273576E-14 -0.71054273576E-14  0.91188000000E+02  0.91188000000E+02 0.  0.
    9900012    2    3    3    0    0  0.16480178648E+02  0.16487882356E+02  0.38544352452E+02  0.46142315869E+02  0.99999827452E+01 0.  0.
        -12    1    3    3    0    0 -0.16480178648E+02 -0.16487882356E+02 -0.38544352452E+02  0.45045684131E+02  0.00000000000E+00 0.  1.
         11    1    4    4    0    0  0.74146853895E+00  0.23009675260E+00  0.31258343098E+00  0.83691622774E+00  0.51100000000E-03 0. -1.
        -11    1    4    4    0    0 -0.43371121348E+00 -0.72569270908E+00  0.16028181148E+01  0.18121151991E+01  0.51100000000E-03 0.  1.
         12    1    4    4    0    0  0.16172421322E+02  0.16983478313E+02  0.36628950907E+02  0.43493284442E+02  0.00000000000E+00 0. -1.
</event>
<event>
 8    1  0.9117959E-009  0.9118800E+02  0.7816164E-02  0.1184000E+00
        -11   -1    0    0    0    0  0.00000000000E+00  0.00000000000E+00  0.45593999997E+02  0.45594000000E+02  0.51100000000E-03 0. -1.
         11   -1    0    0    0    0 -0.00000000000E+00 -0.00000000000E+00 -0.45593999997E+02  0.45594000000E+02  0.51100000000E-03 0.  1.
         23    2    1    2    0    0  0.00000000000E+00  0.00000000000E+00  0.00000000000E+00  0.91188000000E+02  0.91188000000E+02 0.  0.
    9900012    2    3    3    0    0 -0.49048923949E+01 -0.31150301589E+01  0.44669364461E+02  0.46142317592E+02  0.99999984539E+01 0.  0.
        -12    1    3    3    0    0  0.49048923949E+01  0.31150301589E+01 -0.44669364461E+02  0.45045682408E+02  0.00000000000E+00 0.  1.
         11    1    4    4    0    0 -0.31081272530E+01 -0.18165073817E+01  0.38193112098E+02  0.38362403028E+02  0.51100000000E-03 0. -1.
        -11    1    4    4    0    0  0.59111753287E+00 -0.11720944641E-01  0.41926065957E+01  0.42340887622E+01  0.51100000000E-03 0.  1.
        -12    1    4    4    0    0 -0.23878826748E+01 -0.12868018326E+01  0.22836457677E+01  0.35458258019E+01  0.00000000000E+00 0.  1.
</event>
<event>
 8    1  0.9117959E-009  0.9118800E+02  0.7816164E-02  0.1184000E+00
        -11   -1    0    0    0    0  0.00000000000E+00  0.00000000000E+00  0.45593999997E+02  0.45594000000E+02  0.51100000000E-03 0. -1.
         11   -1    0    0    0    0 -0.00000000000E+00 -0.00000000000E+00 -0.45593999997E+02  0.45594000000E+02  0.51100000000E-03 0.  1.
         23    2    1    2    0    0  0.00000000000E+00  0.44408920985E-15  0.00000000000E+00  0.91188000000E+02  0.91188000000E+02 0.  0.
    9900012    2    3    3    0    0  0.15119265698E+01  0.35418498269E+01  0.44880761757E+02  0.46142318764E+02  0.10000009141E+02 0.  0.
        -12    1    3    3    0    0 -0.15119265698E+01 -0.35418498269E+01 -0.44880761757E+02  0.45045681236E+02  0.00000000000E+00 0.  1.
         11    1    4    4    0    0 -0.90481669753E-01 -0.25011086030E+01  0.10308242771E+02  0.10607714196E+02  0.51100000000E-03 0. -1.
        -11    1    4    4    0    0  0.11892926368E+01  0.63494180235E+01  0.21440401369E+02  0.22392416961E+02  0.51100000000E-03 0.  1.
        -12    1    4    4    0    0  0.41311560277E+00 -0.30645959359E+00  0.13132117617E+02  0.13142187607E+02  0.00000000000E+00 0.  1.
</event>
<event>
 8    1  0.9117959E-009  0.9118800E+02  0.7816164E-02  0.1184000E+00
        -11   -1    0    0    0    0  0.00000000000E+00  0.00000000000E+00  0.45593999997E+02  0.45594000000E+02  0.51100000000E-03 0. -1.
         11   -1    0    0    0    0 -0.00000000000E+00 -0.00000000000E+00 -0.45593999997E+02  0.45594000000E+02  0.51100000000E-03 0.  1.
         23    2    1    2    0    0  0.00000000000E+00 -0.44408920985E-15  0.00000000000E+00  0.91188000000E+02  0.91188000000E+02 0.  0.
    9900012    2    3    3    0    0 -0.32482443172E+02 -0.35960156564E+01 -0.31001178146E+02  0.46142317749E+02  0.99999998879E+01 0.  0.
         12    1    3    3    0    0  0.32482443172E+02  0.35960156564E+01  0.31001178146E+02  0.45045682251E+02  0.00000000000E+00 0. -1.
         11    1    4    4    0    0 -0.27389703128E+02 -0.31479881036E+01 -0.25160186559E+02  0.37324799457E+02  0.51100000000E-03 0. -1.
        -11    1    4    4    0    0 -0.41464254390E+01 -0.55143655837E+00 -0.16121436990E+01  0.44828488449E+01  0.51100000000E-03 0.  1.
         12    1    4    4    0    0 -0.94631460497E+00  0.10340900551E+00 -0.42288478884E+01  0.43346694473E+01  0.00000000000E+00 0. -1.
</event>
<event>
 8    1  0.9117959E-009  0.9118800E+02  0.7816164E-02  0.1184000E+00
        -11   -1    0    0    0    0  0.00000000000E+00  0.00000000000E+00  0.45593999997E+02  0.45594000000E+02  0.51100000000E-03 0. -1.
         11   -1    0    0    0    0 -0.00000000000E+00 -0.00000000000E+00 -0.45593999997E+02  0.45594000000E+02  0.51100000000E-03 0.  1.
         23    2    1    2    0    0  0.00000000000E+00 -0.35527136788E-14  0.00000000000E+00  0.91188000000E+02  0.91188000000E+02 0.  0.
    9900012    2    3    3    0    0  0.30807472040E+02  0.18107089958E+02  0.27425287403E+02  0.46142318416E+02  0.10000005972E+02 0.  0.
        -12    1    3    3    0    0 -0.30807472040E+02 -0.18107089958E+02 -0.27425287403E+02  0.45045681584E+02  0.00000000000E+00 0.  1.
         11    1    4    4    0    0  0.19419375959E+02  0.12702130307E+02  0.14731660672E+02  0.27485961933E+02  0.51100000000E-03 0. -1.
        -11    1    4    4    0    0  0.10504025241E+02  0.58465166769E+01  0.12914555942E+02  0.17643754106E+02  0.51100000000E-03 0.  1.
        -12    1    4    4    0    0  0.88407083934E+00 -0.44155702586E+00 -0.22092921125E+00  0.10126023763E+01  0.00000000000E+00 0.  1.
</event>
<event>
 8    1  0.9117959E-009  0.9118800E+02  0.7816164E-02  0.1184000E+00
        -11   -1    0    0    0    0  0.00000000000E+00  0.00000000000E+00  0.45593999997E+02  0.45594000000E+02  0.51100000000E-03 0. -1.
         11   -1    0    0    0    0 -0.00000000000E+00 -0.00000000000E+00 -0.45593999997E+02  0.45594000000E+02  0.51100000000E-03 0.  1.
         23    2    1    2    0    0 -0.17763568394E-14  0.00000000000E+00 -0.71054273576E-14  0.91188000000E+02  0.91188000000E+02 0.  0.
    9900012    2    3    3    0    0 -0.91006407747E+01 -0.42487106612E+01 -0.43911732348E+02  0.46142318269E+02  0.10000004631E+02 0.  0.
         12    1    3    3    0    0  0.91006407747E+01  0.42487106612E+01  0.43911732348E+02  0.45045681731E+02  0.00000000000E+00 0. -1.
         11    1    4    4    0    0 -0.42309401292E+01 -0.33418345387E+00 -0.58017667869E+01  0.71883955838E+01  0.51100000000E-03 0. -1.
        -11    1    4    4    0    0 -0.30520169907E+01 -0.24526530062E+01 -0.98769260035E+01  0.10624687385E+02  0.51100000000E-03 0.  1.
        -12    1    4    4    0    0 -0.18176836547E+01 -0.14618742011E+01 -0.28233039558E+02  0.28329235301E+02  0.00000000000E+00 0.  1.
</event>
<event>
 8    1  0.9117959E-009  0.9118800E+02  0.7816164E-02  0.1184000E+00
        -11   -1    0    0    0    0  0.00000000000E+00  0.00000000000E+00  0.45593999997E+02  0.45594000000E+02  0.51100000000E-03 0. -1.
         11   -1    0    0    0    0 -0.00000000000E+00 -0.00000000000E+00 -0.45593999997E+02  0.45594000000E+02  0.51100000000E-03 0.  1.
         23    2    1    2    0    0  0.35527136788E-14  0.35527136788E-14 -0.71054273576E-14  0.91188000000E+02  0.91188000000E+02 0.  0.
    9900012    2    3    3    0    0 -0.17476057884E+02 -0.19947231335E+02  0.36411659730E+02  0.46142316507E+02  0.99999885624E+01 0.  0.
        -12    1    3    3    0    0  0.17476057884E+02  0.19947231335E+02 -0.36411659730E+02  0.45045683493E+02  0.00000000000E+00 0.  1.
         11    1    4    4    0    0 -0.66187457486E+01 -0.51464817345E+01  0.93546549530E+01  0.12561991844E+02  0.51100000000E-03 0. -1.
        -11    1    4    4    0    0 -0.85787993178E+01 -0.56793256061E+01  0.16489723369E+02  0.19436087932E+02  0.51100000000E-03 0.  1.
         12    1    4    4    0    0 -0.22785128178E+01 -0.91214239944E+01  0.10567281408E+02  0.14144236731E+02  0.00000000000E+00 0. -1.
</event>
<event>
 8    1  0.9117959E-009  0.9118800E+02  0.7816164E-02  0.1184000E+00
        -11   -1    0    0    0    0  0.00000000000E+00  0.00000000000E+00  0.45593999997E+02  0.45594000000E+02  0.51100000000E-03 0. -1.
         11   -1    0    0    0    0 -0.00000000000E+00 -0.00000000000E+00 -0.45593999997E+02  0.45594000000E+02  0.51100000000E-03 0.  1.
         23    2    1    2    0    0  0.00000000000E+00  0.00000000000E+00  0.00000000000E+00  0.91188000000E+02  0.91188000000E+02 0.  0.
    9900012    2    3    3    0    0  0.12432145418E+02 -0.32019929994E+02  0.29142398831E+02  0.46142316898E+02  0.99999921290E+01 0.  0.
        -12    1    3    3    0    0 -0.12432145418E+02  0.32019929994E+02 -0.29142398831E+02  0.45045683102E+02  0.00000000000E+00 0.  1.
         11    1    4    4    0    0  0.58340607347E+01 -0.25026817937E+02  0.20927537077E+02  0.33141208323E+02  0.51100000000E-03 0. -1.
        -11    1    4    4    0    0 -0.19181190822E+00 -0.19845343917E+00  0.85942891875E+00  0.90265935057E+00  0.51100000000E-03 0.  1.
        -12    1    4    4    0    0  0.67898965910E+01 -0.67946586175E+01  0.73554328353E+01  0.12098449225E+02  0.00000000000E+00 0.  1.
</event>
<event>
 8    1  0.9117959E-009  0.9118800E+02  0.7816164E-02  0.1184000E+00
        -11   -1    0    0    0    0  0.00000000000E+00  0.00000000000E+00  0.45593999997E+02  0.45594000000E+02  0.51100000000E-03 0. -1.
         11   -1    0    0    0    0 -0.00000000000E+00 -0.00000000000E+00 -0.45593999997E+02  0.45594000000E+02  0.51100000000E-03 0.  1.
         23    2    1    2    0    0  0.11102230246E-15 -0.88817841970E-15 -0.71054273576E-14  0.91188000000E+02  0.91188000000E+02 0.  0.
    9900012    2    3    3    0    0 -0.63338956395E+00  0.67406709220E+01  0.44533983673E+02  0.46142317314E+02  0.99999959227E+01 0.  0.
        -12    1    3    3    0    0  0.63338956395E+00 -0.67406709220E+01 -0.44533983673E+02  0.45045682686E+02  0.00000000000E+00 0.  1.
         11    1    4    4    0    0  0.95487058590E+00  0.67400358579E+01  0.28531983825E+02  0.29332813750E+02  0.51100000000E-03 0. -1.
        -11    1    4    4    0    0  0.37949936163E+00 -0.21687404117E+01  0.75462260986E+01  0.78608513109E+01  0.51100000000E-03 0.  1.
        -12    1    4    4    0    0 -0.19677595115E+01  0.21693754758E+01  0.84557737496E+01  0.89486522535E+01  0.00000000000E+00 0.  1.
</event>
<event>
 8    1  0.9117959E-009  0.9118800E+02  0.7816164E-02  0.1184000E+00
        -11   -1    0    0    0    0  0.00000000000E+00  0.00000000000E+00  0.45593999997E+02  0.45594000000E+02  0.51100000000E-03 0. -1.
         11   -1    0    0    0    0 -0.00000000000E+00 -0.00000000000E+00 -0.45593999997E+02  0.45594000000E+02  0.51100000000E-03 0.  1.
         23    2    1    2    0    0  0.00000000000E+00  0.00000000000E+00  0.71054273576E-14  0.91188000000E+02  0.91188000000E+02 0.  0.
    9900012    2    3    3    0    0  0.23332133830E+02 -0.17567923322E+02 -0.34294213564E+02  0.46142317822E+02  0.10000000554E+02 0.  0.
         12    1    3    3    0    0 -0.23332133830E+02  0.17567923322E+02  0.34294213564E+02  0.45045682178E+02  0.00000000000E+00 0. -1.
         11    1    4    4    0    0  0.62223312925E+01 -0.56964658363E+01 -0.87375868756E+01  0.12145474647E+02  0.51100000000E-03 0. -1.
        -11    1    4    4    0    0  0.29271233256E+01 -0.56846118595E+01 -0.11159686466E+02  0.12861627628E+02  0.51100000000E-03 0.  1.
         12    1    4    4    0    0  0.14182679212E+02 -0.61868456260E+01 -0.14396940222E+02  0.21135215546E+02  0.00000000000E+00 0. -1.
</event>
<event>
 8    1  0.9117959E-009  0.9118800E+02  0.7816164E-02  0.1184000E+00
        -11   -1    0    0    0    0  0.00000000000E+00  0.00000000000E+00  0.45593999997E+02  0.45594000000E+02  0.51100000000E-03 0. -1.
         11   -1    0    0    0    0 -0.00000000000E+00 -0.00000000000E+00 -0.45593999997E+02  0.45594000000E+02  0.51100000000E-03 0.  1.
         23    2    1    2    0    0  0.88817841970E-15  0.44408920985E-15  0.00000000000E+00  0.91188000000E+02  0.91188000000E+02 0.  0.
    9900012    2    3    3    0    0  0.68641231039E+01 -0.27821969422E+01  0.44432607775E+02  0.46142318303E+02  0.10000004945E+02 0.  0.
        -12    1    3    3    0    0 -0.68641231039E+01  0.27821969422E+01 -0.44432607775E+02  0.45045681697E+02  0.00000000000E+00 0.  1.
         11    1    4    4    0    0  0.66940577622E+01 -0.22020432114E+01  0.22297886913E+02  0.23384934566E+02  0.51100000000E-03 0. -1.
        -11    1    4    4    0    0  0.21048993819E+01 -0.19201800516E+01  0.14103275948E+02  0.14388192574E+02  0.51100000000E-03 0.  1.
        -12    1    4    4    0    0 -0.19348340402E+01  0.13400263209E+01  0.80314449144E+01  0.83691911627E+01  0.00000000000E+00 0.  1.
</event>
<event>
 8    1  0.9117959E-009  0.9118800E+02  0.7816164E-02  0.1184000E+00
        -11   -1    0    0    0    0  0.00000000000E+00  0.00000000000E+00  0.45593999997E+02  0.45594000000E+02  0.51100000000E-03 0. -1.
         11   -1    0    0    0    0 -0.00000000000E+00 -0.00000000000E+00 -0.45593999997E+02  0.45594000000E+02  0.51100000000E-03 0.  1.
         23    2    1    2    0    0 -0.17763568394E-14  0.00000000000E+00 -0.71054273576E-14  0.91188000000E+02  0.91188000000E+02 0.  0.
    9900012    2    3    3    0    0  0.88069364516E+01  0.98822956741E+01 -0.43056841473E+02  0.46142317686E+02  0.99999993184E+01 0.  0.
         12    1    3    3    0    0 -0.88069364516E+01 -0.98822956741E+01  0.43056841473E+02  0.45045682314E+02  0.00000000000E+00 0. -1.
         11    1    4    4    0    0 -0.95710438268E+00 -0.54861610230E+00 -0.60917652504E+01  0.61908507133E+01  0.51100000000E-03 0. -1.
        -11    1    4    4    0    0  0.67898020992E+00  0.31920532578E+01 -0.11649186550E+02  0.12097676044E+02  0.51100000000E-03 0.  1.
         12    1    4    4    0    0  0.90850606244E+01  0.72388585186E+01 -0.25315889673E+02  0.27853790929E+02  0.00000000000E+00 0. -1.
</event>
<event>
 8    1  0.9117959E-009  0.9118800E+02  0.7816164E-02  0.1184000E+00
        -11   -1    0    0    0    0  0.00000000000E+00  0.00000000000E+00  0.45593999997E+02  0.45594000000E+02  0.51100000000E-03 0. -1.
         11   -1    0    0    0    0 -0.00000000000E+00 -0.00000000000E+00 -0.45593999997E+02  0.45594000000E+02  0.51100000000E-03 0.  1.
         23    2    1    2    0    0  0.00000000000E+00  0.00000000000E+00  0.00000000000E+00  0.91188000000E+02  0.91188000000E+02 0.  0.
    9900012    2    3    3    0    0  0.83145785521E+01 -0.31730537315E+02  0.30873196424E+02  0.46142317940E+02  0.10000001628E+02 0.  0.
        -12    1    3    3    0    0 -0.83145785521E+01  0.31730537315E+02 -0.30873196424E+02  0.45045682060E+02  0.00000000000E+00 0.  1.
         11    1    4    4    0    0  0.65071555689E+01 -0.21159215991E+02  0.20071097196E+02  0.29881506620E+02  0.51100000000E-03 0. -1.
        -11    1    4    4    0    0  0.26163154204E+01 -0.10613605061E+02  0.10909412553E+02  0.15443736636E+02  0.51100000000E-03 0.  1.
        -12    1    4    4    0    0 -0.80889243717E+00  0.42283736420E-01 -0.10731332498E+00  0.81707468386E+00  0.00000000000E+00 0.  1.
</event>
<event>
 8    1  0.9117959E-009  0.9118800E+02  0.7816164E-02  0.1184000E+00
        -11   -1    0    0    0    0  0.00000000000E+00  0.00000000000E+00  0.45593999997E+02  0.45594000000E+02  0.51100000000E-03 0. -1.
         11   -1    0    0    0    0 -0.00000000000E+00 -0.00000000000E+00 -0.45593999997E+02  0.45594000000E+02  0.51100000000E-03 0.  1.
         23    2    1    2    0    0  0.00000000000E+00 -0.35527136788E-14  0.00000000000E+00  0.91188000000E+02  0.91188000000E+02 0.  0.
    9900012    2    3    3    0    0  0.21772636663E+02  0.17029905184E+02 -0.35567515200E+02  0.46142317462E+02  0.99999972736E+01 0.  0.
         12    1    3    3    0    0 -0.21772636663E+02 -0.17029905184E+02  0.35567515200E+02  0.45045682538E+02  0.00000000000E+00 0. -1.
         11    1    4    4    0    0  0.70418118715E+01  0.51827672826E+00 -0.10369674739E+02  0.12545352911E+02  0.51100000000E-03 0. -1.
        -11    1    4    4    0    0  0.69003046268E+01  0.84267475304E+01 -0.11011174589E+02  0.15487744961E+02  0.51100000000E-03 0.  1.
         12    1    4    4    0    0  0.78305201647E+01  0.80848809253E+01 -0.14186665871E+02  0.18109219590E+02  0.00000000000E+00 0. -1.
</event>
<event>
 8    1  0.9117959E-009  0.9118800E+02  0.7816164E-02  0.1184000E+00
        -11   -1    0    0    0    0  0.00000000000E+00  0.00000000000E+00  0.45593999997E+02  0.45594000000E+02  0.51100000000E-03 0. -1.
         11   -1    0    0    0    0 -0.00000000000E+00 -0.00000000000E+00 -0.45593999997E+02  0.45594000000E+02  0.51100000000E-03 0.  1.
         23    2    1    2    0    0  0.00000000000E+00  0.00000000000E+00  0.00000000000E+00  0.91188000000E+02  0.91188000000E+02 0.  0.
    9900012    2    3    3    0    0  0.70038579871E+00  0.37380704124E+02  0.25125800452E+02  0.46142318416E+02  0.10000005968E+02 0.  0.
        -12    1    3    3    0    0 -0.70038579871E+00 -0.37380704124E+02 -0.25125800452E+02  0.45045681584E+02  0.00000000000E+00 0.  1.
         11    1    4    4    0    0  0.14764335809E+00  0.27607119445E+02  0.19215444420E+02  0.33636411033E+02  0.51100000000E-03 0. -1.
        -11    1    4    4    0    0  0.12835158373E+01  0.72783045140E+01  0.64971463369E+01  0.98404288670E+01  0.51100000000E-03 0.  1.
         12    1    4    4    0    0 -0.73077339672E+00  0.24952801645E+01 -0.58679030512E+00  0.26654785159E+01  0.00000000000E+00 0. -1.
</event>
<event>
 8    1  0.9117959E-009  0.9118800E+02  0.7816164E-02  0.1184000E+00
        -11   -1    0    0    0    0  0.00000000000E+00  0.00000000000E+00  0.45593999997E+02  0.45594000000E+02  0.51100000000E-03 0. -1.
         11   -1    0    0    0    0 -0.00000000000E+00 -0.00000000000E+00 -0.45593999997E+02  0.45594000000E+02  0.51100000000E-03 0.  1.
         23    2    1    2    0    0  0.00000000000E+00  0.00000000000E+00 -0.71054273576E-14  0.91188000000E+02  0.91188000000E+02 0.  0.
    9900012    2    3    3    0    0  0.11328592359E+02  0.22286059543E+02  0.37471430281E+02  0.46142317165E+02  0.99999945603E+01 0.  0.
        -12    1    3    3    0    0 -0.11328592359E+02 -0.22286059543E+02 -0.37471430281E+02  0.45045682835E+02  0.00000000000E+00 0.  1.
         11    1    4    4    0    0  0.61349238874E+01  0.63713310729E+01  0.91019410299E+01  0.12691590977E+02  0.51100000000E-03 0. -1.
        -11    1    4    4    0    0  0.58324693055E+01  0.12352632478E+02  0.25086196313E+02  0.28564356689E+02  0.51100000000E-03 0.  1.
        -12    1    4    4    0    0 -0.63880083374E+00  0.35620959925E+01  0.32832929383E+01  0.48863694993E+01  0.00000000000E+00 0.  1.
</event>
<event>
 8    1  0.9117959E-009  0.9118800E+02  0.7816164E-02  0.1184000E+00
        -11   -1    0    0    0    0  0.00000000000E+00  0.00000000000E+00  0.45593999997E+02  0.45594000000E+02  0.51100000000E-03 0. -1.
         11   -1    0    0    0    0 -0.00000000000E+00 -0.00000000000E+00 -0.45593999997E+02  0.45594000000E+02  0.51100000000E-03 0.  1.
         23    2    1    2    0    0  0.00000000000E+00  0.00000000000E+00  0.71054273576E-14  0.91188000000E+02  0.91188000000E+02 0.  0.
    9900012    2    3    3    0    0 -0.17038621080E+02  0.18543497684E+02 -0.37348864570E+02  0.46142316530E+02  0.99999887722E+01 0.  0.
         12    1    3    3    0    0  0.17038621080E+02 -0.18543497684E+02  0.37348864570E+02  0.45045683470E+02  0.00000000000E+00 0. -1.
         11    1    4    4    0    0 -0.22640258290E+01  0.63279729644E+00 -0.25453345149E+01  0.34648193931E+01  0.51100000000E-03 0. -1.
        -11    1    4    4    0    0 -0.99183302104E+01  0.17091918713E+02 -0.27278324126E+02  0.33684030739E+02  0.51100000000E-03 0.  1.
        -12    1    4    4    0    0 -0.48562650405E+01  0.81878167429E+00 -0.75252059288E+01  0.89934663976E+01  0.00000000000E+00 0.  1.
</event>
<event>
 8    1  0.9117959E-009  0.9118800E+02  0.7816164E-02  0.1184000E+00
        -11   -1    0    0    0    0  0.00000000000E+00  0.00000000000E+00  0.45593999997E+02  0.45594000000E+02  0.51100000000E-03 0. -1.
         11   -1    0    0    0    0 -0.00000000000E+00 -0.00000000000E+00 -0.45593999997E+02  0.45594000000E+02  0.51100000000E-03 0.  1.
         23    2    1    2    0    0  0.17763568394E-14  0.00000000000E+00  0.00000000000E+00  0.91188000000E+02  0.91188000000E+02 0.  0.
    9900012    2    3    3    0    0 -0.10808164568E+02 -0.10782727391E+02  0.42379592182E+02  0.46142318023E+02  0.10000002384E+02 0.  0.
        -12    1    3    3    0    0  0.10808164568E+02  0.10782727391E+02 -0.42379592182E+02  0.45045681977E+02  0.00000000000E+00 0.  1.
         11    1    4    4    0    0 -0.27511170498E+01  0.31681208658E+00  0.56032314294E+01  0.62502174068E+01  0.51100000000E-03 0. -1.
        -11    1    4    4    0    0  0.90758694009E-01  0.29932517501E+00  0.67525362438E+01  0.67597765263E+01  0.51100000000E-03 0.  1.
        -12    1    4    4    0    0 -0.81478062120E+01 -0.11398864653E+02  0.30023824509E+02  0.33132324089E+02  0.00000000000E+00 0.  1.
</event>
<event>
 8    1  0.9117959E-009  0.9118800E+02  0.7816164E-02  0.1184000E+00
        -11   -1    0    0    0    0  0.00000000000E+00  0.00000000000E+00  0.45593999997E+02  0.45594000000E+02  0.51100000000E-03 0. -1.
         11   -1    0    0    0    0 -0.00000000000E+00 -0.00000000000E+00 -0.45593999997E+02  0.45594000000E+02  0.51100000000E-03 0.  1.
         23    2    1    2    0    0  0.00000000000E+00  0.00000000000E+00  0.00000000000E+00  0.91188000000E+02  0.91188000000E+02 0.  0.
    9900012    2    3    3    0    0  0.39691633840E+02 -0.16177070533E+02 -0.13856047131E+02  0.46142318186E+02  0.10000003878E+02 0.  0.
         12    1    3    3    0    0 -0.39691633840E+02  0.16177070533E+02  0.13856047131E+02  0.45045681814E+02  0.00000000000E+00 0. -1.
         11    1    4    4    0    0  0.68823506174E+01 -0.31779996159E+01  0.11050263036E+01  0.76607777002E+01  0.51100000000E-03 0. -1.
        -11    1    4    4    0    0  0.26037722795E+02 -0.91007125753E+01 -0.10729543831E+02  0.29595761331E+02  0.51100000000E-03 0.  1.
        -12    1    4    4    0    0  0.67715604283E+01 -0.38983583420E+01 -0.42315296044E+01  0.88857791549E+01  0.00000000000E+00 0.  1.
</event>
<event>
 8    1  0.9117959E-009  0.9118800E+02  0.7816164E-02  0.1184000E+00
        -11   -1    0    0    0    0  0.00000000000E+00  0.00000000000E+00  0.45593999997E+02  0.45594000000E+02  0.51100000000E-03 0. -1.
         11   -1    0    0    0    0 -0.00000000000E+00 -0.00000000000E+00 -0.45593999997E+02  0.45594000000E+02  0.51100000000E-03 0.  1.
         23    2    1    2    0    0 -0.35527136788E-14  0.00000000000E+00  0.00000000000E+00  0.91188000000E+02  0.91188000000E+02 0.  0.
    9900012    2    3    3    0    0  0.21232699116E+02 -0.20365500489E+02  0.34110591242E+02  0.46142317001E+02  0.99999930722E+01 0.  0.
        -12    1    3    3    0    0 -0.21232699116E+02  0.20365500489E+02 -0.34110591242E+02  0.45045682999E+02  0.00000000000E+00 0.  1.
         11    1    4    4    0    0  0.73286592743E+01 -0.78725507682E+01  0.12835317135E+02  0.16746094129E+02  0.51100000000E-03 0. -1.
        -11    1    4    4    0    0  0.51297834706E+01 -0.95532344437E+01  0.94707722957E+01  0.14397030768E+02  0.51100000000E-03 0.  1.
        -12    1    4    4    0    0  0.87742563716E+01 -0.29397152775E+01  0.11804501811E+02  0.14999192105E+02  0.00000000000E+00 0.  1.
</event>
<event>
 8    1  0.9117959E-009  0.9118800E+02  0.7816164E-02  0.1184000E+00
        -11   -1    0    0    0    0  0.00000000000E+00  0.00000000000E+00  0.45593999997E+02  0.45594000000E+02  0.51100000000E-03 0.  1.
         11   -1    0    0    0    0 -0.00000000000E+00 -0.00000000000E+00 -0.45593999997E+02  0.45594000000E+02  0.51100000000E-03 0. -1.
         23    2    1    2    0    0  0.88817841970E-15  0.00000000000E+00 -0.17763568394E-14  0.91188000000E+02  0.91188000000E+02 0.  0.
    9900012    2    3    3    0    0 -0.38175761627E+01  0.43347232144E+02  0.11642897402E+02  0.46142317829E+02  0.10000000619E+02 0.  0.
         12    1    3    3    0    0  0.38175761627E+01 -0.43347232144E+02 -0.11642897402E+02  0.45045682171E+02  0.00000000000E+00 0. -1.
         11    1    4    4    0    0  0.10337507498E+01  0.22924638948E+00  0.69839534278E+00  0.12684442580E+01  0.51100000000E-03 0. -1.
        -11    1    4    4    0    0 -0.37260075427E+01  0.18715357041E+02  0.43856000949E+01  0.19580122825E+02  0.51100000000E-03 0.  1.
         12    1    4    4    0    0 -0.11253193698E+01  0.24402628714E+02  0.65589019648E+01  0.25293750746E+02  0.00000000000E+00 0. -1.
</event>
<event>
 8    1  0.9117959E-009  0.9118800E+02  0.7816164E-02  0.1184000E+00
        -11   -1    0    0    0    0  0.00000000000E+00  0.00000000000E+00  0.45593999997E+02  0.45594000000E+02  0.51100000000E-03 0. -1.
         11   -1    0    0    0    0 -0.00000000000E+00 -0.00000000000E+00 -0.45593999997E+02  0.45594000000E+02  0.51100000000E-03 0.  1.
         23    2    1    2    0    0  0.00000000000E+00  0.35527136788E-14  0.00000000000E+00  0.91188000000E+02  0.91188000000E+02 0.  0.
    9900012    2    3    3    0    0 -0.36057196645E+02  0.22926020433E+02 -0.14261475673E+02  0.46142317286E+02  0.99999956694E+01 0.  0.
         12    1    3    3    0    0  0.36057196645E+02 -0.22926020433E+02  0.14261475673E+02  0.45045682714E+02  0.00000000000E+00 0. -1.
         11    1    4    4    0    0 -0.12576259099E+02  0.73286712112E+01 -0.89398127413E+01  0.17081919294E+02  0.51100000000E-03 0. -1.
        -11    1    4    4    0    0 -0.15182450236E+02  0.93140362482E+01 -0.55267924573E+01  0.18649490651E+02  0.51100000000E-03 0.  1.
         12    1    4    4    0    0 -0.82984873099E+01  0.62833129733E+01  0.20512952596E+00  0.10410907342E+02  0.00000000000E+00 0. -1.
</event>
<event>
 8    1  0.9117959E-009  0.9118800E+02  0.7816164E-02  0.1184000E+00
        -11   -1    0    0    0    0  0.00000000000E+00  0.00000000000E+00  0.45593999997E+02  0.45594000000E+02  0.51100000000E-03 0. -1.
         11   -1    0    0    0    0 -0.00000000000E+00 -0.00000000000E+00 -0.45593999997E+02  0.45594000000E+02  0.51100000000E-03 0.  1.
         23    2    1    2    0    0 -0.88817841970E-15  0.88817841970E-15  0.71054273576E-14  0.91188000000E+02  0.91188000000E+02 0.  0.
    9900012    2    3    3    0    0  0.64255709717E+01 -0.59667672847E+01 -0.44183969741E+02  0.46142318118E+02  0.10000003251E+02 0.  0.
         12    1    3    3    0    0 -0.64255709717E+01  0.59667672847E+01  0.44183969741E+02  0.45045681882E+02  0.00000000000E+00 0. -1.
         11    1    4    4    0    0  0.44771150875E+01  0.15001146941E+01 -0.10447753180E+02  0.11465184272E+02  0.51100000000E-03 0. -1.
        -11    1    4    4    0    0  0.21020330152E+01 -0.45096415541E+01 -0.18599926285E+02  0.19253900068E+02  0.51100000000E-03 0.  1.
        -12    1    4    4    0    0 -0.15357713105E+00 -0.29572404247E+01 -0.15136290276E+02  0.15423233778E+02  0.00000000000E+00 0.  1.
</event>
<event>
 8    1  0.9117959E-009  0.9118800E+02  0.7816164E-02  0.1184000E+00
        -11   -1    0    0    0    0  0.00000000000E+00  0.00000000000E+00  0.45593999997E+02  0.45594000000E+02  0.51100000000E-03 0. -1.
         11   -1    0    0    0    0 -0.00000000000E+00 -0.00000000000E+00 -0.45593999997E+02  0.45594000000E+02  0.51100000000E-03 0.  1.
         23    2    1    2    0    0  0.00000000000E+00  0.35527136788E-14  0.35527136788E-14  0.91188000000E+02  0.91188000000E+02 0.  0.
    9900012    2    3    3    0    0 -0.11783024032E+02  0.31605988358E+02  0.29855242193E+02  0.46142316057E+02  0.99999844620E+01 0.  0.
        -12    1    3    3    0    0  0.11783024032E+02 -0.31605988358E+02 -0.29855242193E+02  0.45045683943E+02  0.00000000000E+00 0.  1.
         11    1    4    4    0    0 -0.34966700776E+01  0.12265720853E+02  0.85136131735E+01  0.15334804179E+02  0.51100000000E-03 0. -1.
        -11    1    4    4    0    0 -0.16657406886E+01  0.48992985244E+01  0.14960822916E+01  0.53866576424E+01  0.51100000000E-03 0.  1.
        -12    1    4    4    0    0 -0.66206132661E+01  0.14440968980E+02  0.19845546728E+02  0.25420854235E+02  0.00000000000E+00 0.  1.
</event>
<event>
 8    1  0.9117959E-009  0.9118800E+02  0.7816164E-02  0.1184000E+00
        -11   -1    0    0    0    0  0.00000000000E+00  0.00000000000E+00  0.45593999997E+02  0.45594000000E+02  0.51100000000E-03 0. -1.
         11   -1    0    0    0    0 -0.00000000000E+00 -0.00000000000E+00 -0.45593999997E+02  0.45594000000E+02  0.51100000000E-03 0.  1.
         23    2    1    2    0    0 -0.44408920985E-15  0.00000000000E+00  0.00000000000E+00  0.91188000000E+02  0.91188000000E+02 0.  0.
    9900012    2    3    3    0    0  0.24367835272E+01 -0.32974886353E+02  0.30591378997E+02  0.46142317489E+02  0.99999975164E+01 0.  0.
        -12    1    3    3    0    0 -0.24367835272E+01  0.32974886353E+02 -0.30591378997E+02  0.45045682511E+02  0.00000000000E+00 0.  1.
         11    1    4    4    0    0  0.20785718531E+01 -0.15442133485E+02  0.15354716759E+02  0.21875723406E+02  0.51100000000E-03 0. -1.
        -11    1    4    4    0    0  0.10879666352E+01 -0.25836758316E+01  0.61461655879E+01  0.67553241149E+01  0.51100000000E-03 0.  1.
         12    1    4    4    0    0 -0.72975496109E+00 -0.14949077036E+02  0.90904966503E+01  0.17511269968E+02  0.00000000000E+00 0. -1.
</event>
<event>
 8    1  0.9117959E-009  0.9118800E+02  0.7816164E-02  0.1184000E+00
        -11   -1    0    0    0    0  0.00000000000E+00  0.00000000000E+00  0.45593999997E+02  0.45594000000E+02  0.51100000000E-03 0. -1.
         11   -1    0    0    0    0 -0.00000000000E+00 -0.00000000000E+00 -0.45593999997E+02  0.45594000000E+02  0.51100000000E-03 0.  1.
         23    2    1    2    0    0  0.00000000000E+00  0.00000000000E+00  0.00000000000E+00  0.91188000000E+02  0.91188000000E+02 0.  0.
    9900012    2    3    3    0    0  0.13852378080E+02  0.36536051704E+02 -0.22412979951E+02  0.46142321818E+02  0.10000036997E+02 0.  0.
         12    1    3    3    0    0 -0.13852378080E+02 -0.36536051704E+02  0.22412979951E+02  0.45045678182E+02  0.00000000000E+00 0. -1.
         11    1    4    4    0    0  0.38656160608E-01  0.28760651971E+01 -0.24521697119E+01  0.37797330427E+01  0.51100000000E-03 0. -1.
        -11    1    4    4    0    0  0.71147585033E+01  0.26835535347E+02 -0.15687722038E+02  0.31888404929E+02  0.51100000000E-03 0.  1.
        -12    1    4    4    0    0  0.66989634162E+01  0.68244511594E+01 -0.42730882016E+01  0.10474183847E+02  0.00000000000E+00 0.  1.
</event>
<event>
 8    1  0.9117959E-009  0.9118800E+02  0.7816164E-02  0.1184000E+00
        -11   -1    0    0    0    0  0.00000000000E+00  0.00000000000E+00  0.45593999997E+02  0.45594000000E+02  0.51100000000E-03 0.  1.
         11   -1    0    0    0    0 -0.00000000000E+00 -0.00000000000E+00 -0.45593999997E+02  0.45594000000E+02  0.51100000000E-03 0. -1.
         23    2    1    2    0    0  0.00000000000E+00 -0.88817841970E-15  0.35527136788E-14  0.91188000000E+02  0.91188000000E+02 0.  0.
    9900012    2    3    3    0    0 -0.40146464388E+02  0.26250077100E+01 -0.20260417537E+02  0.46142314445E+02  0.99999697612E+01 0.  0.
         12    1    3    3    0    0  0.40146464388E+02 -0.26250077100E+01  0.20260417537E+02  0.45045685555E+02  0.00000000000E+00 0. -1.
         11    1    4    4    0    0 -0.20464493302E+01 -0.16443878755E+01 -0.40967703654E+00  0.26570287695E+01  0.51100000000E-03 0. -1.
        -11    1    4    4    0    0 -0.26990110385E+01  0.11330666646E+01 -0.35269549637E+00  0.29483715890E+01  0.51100000000E-03 0.  1.
        -12    1    4    4    0    0 -0.35401004019E+02  0.31363289208E+01 -0.19498045004E+02  0.40536914087E+02  0.00000000000E+00 0.  1.
</event>
<event>
 8    1  0.9117959E-009  0.9118800E+02  0.7816164E-02  0.1184000E+00
        -11   -1    0    0    0    0  0.00000000000E+00  0.00000000000E+00  0.45593999997E+02  0.45594000000E+02  0.51100000000E-03 0. -1.
         11   -1    0    0    0    0 -0.00000000000E+00 -0.00000000000E+00 -0.45593999997E+02  0.45594000000E+02  0.51100000000E-03 0.  1.
         23    2    1    2    0    0  0.00000000000E+00  0.00000000000E+00  0.00000000000E+00  0.91188000000E+02  0.91188000000E+02 0.  0.
    9900012    2    3    3    0    0  0.24201958223E+02  0.31505062602E+02 -0.21232279398E+02  0.46142318300E+02  0.10000004913E+02 0.  0.
         12    1    3    3    0    0 -0.24201958223E+02 -0.31505062602E+02  0.21232279398E+02  0.45045681700E+02  0.00000000000E+00 0. -1.
         11    1    4    4    0    0  0.87662102980E+01  0.15515691193E+02 -0.83273863642E+01  0.19670497709E+02  0.51100000000E-03 0. -1.
        -11    1    4    4    0    0  0.15630860335E+01  0.42615235556E+01 -0.71478593288E+00  0.45950778181E+01  0.51100000000E-03 0.  1.
         12    1    4    4    0    0  0.13872661891E+02  0.11727847853E+02 -0.12190107101E+02  0.21876742773E+02  0.00000000000E+00 0. -1.
</event>
<event>
 8    1  0.9117959E-009  0.9118800E+02  0.7816164E-02  0.1184000E+00
        -11   -1    0    0    0    0  0.00000000000E+00  0.00000000000E+00  0.45593999997E+02  0.45594000000E+02  0.51100000000E-03 0. -1.
         11   -1    0    0    0    0 -0.00000000000E+00 -0.00000000000E+00 -0.45593999997E+02  0.45594000000E+02  0.51100000000E-03 0.  1.
         23    2    1    2    0    0  0.71054273576E-14 -0.17763568394E-14 -0.71054273576E-14  0.91188000000E+02  0.91188000000E+02 0.  0.
    9900012    2    3    3    0    0 -0.31368837499E+02  0.11459324497E+02  0.30229016365E+02  0.46142317472E+02  0.99999973662E+01 0.  0.
        -12    1    3    3    0    0  0.31368837499E+02 -0.11459324497E+02 -0.30229016365E+02  0.45045682528E+02  0.00000000000E+00 0.  1.
         11    1    4    4    0    0 -0.17997737524E+02  0.21586353121E+01  0.16915584172E+02  0.24793451767E+02  0.51100000000E-03 0. -1.
        -11    1    4    4    0    0 -0.71844379080E+01  0.28271185523E+01  0.66011312752E+01  0.10157936884E+02  0.51100000000E-03 0.  1.
        -12    1    4    4    0    0 -0.61866620671E+01  0.64735706323E+01  0.67123009181E+01  0.11190928821E+02  0.00000000000E+00 0.  1.
</event>
<event>
 8    1  0.9117959E-009  0.9118800E+02  0.7816164E-02  0.1184000E+00
        -11   -1    0    0    0    0  0.00000000000E+00  0.00000000000E+00  0.45593999997E+02  0.45594000000E+02  0.51100000000E-03 0. -1.
         11   -1    0    0    0    0 -0.00000000000E+00 -0.00000000000E+00 -0.45593999997E+02  0.45594000000E+02  0.51100000000E-03 0.  1.
         23    2    1    2    0    0  0.00000000000E+00  0.35527136788E-14  0.00000000000E+00  0.91188000000E+02  0.91188000000E+02 0.  0.
    9900012    2    3    3    0    0 -0.27381619067E+02 -0.30242070270E+02  0.19099153655E+02  0.46142317107E+02  0.99999940394E+01 0.  0.
        -12    1    3    3    0    0  0.27381619067E+02  0.30242070270E+02 -0.19099153655E+02  0.45045682893E+02  0.00000000000E+00 0.  1.
         11    1    4    4    0    0 -0.15483009982E+01 -0.22223364768E+00  0.16224121242E+01  0.22536293256E+01  0.51100000000E-03 0. -1.
        -11    1    4    4    0    0 -0.12785795046E+02 -0.20205444674E+02  0.96838392951E+01  0.25797544325E+02  0.51100000000E-03 0.  1.
        -12    1    4    4    0    0 -0.13047523022E+02 -0.98143919483E+01  0.77929022353E+01  0.18091143457E+02  0.00000000000E+00 0.  1.
</event>
<event>
 8    1  0.9117959E-009  0.9118800E+02  0.7816164E-02  0.1184000E+00
        -11   -1    0    0    0    0  0.00000000000E+00  0.00000000000E+00  0.45593999997E+02  0.45594000000E+02  0.51100000000E-03 0. -1.
         11   -1    0    0    0    0 -0.00000000000E+00 -0.00000000000E+00 -0.45593999997E+02  0.45594000000E+02  0.51100000000E-03 0.  1.
         23    2    1    2    0    0  0.00000000000E+00  0.35527136788E-14  0.35527136788E-14  0.91188000000E+02  0.91188000000E+02 0.  0.
    9900012    2    3    3    0    0  0.27951829310E+02  0.26177291365E+02  0.23718307841E+02  0.46142317944E+02  0.10000001672E+02 0.  0.
        -12    1    3    3    0    0 -0.27951829310E+02 -0.26177291365E+02 -0.23718307841E+02  0.45045682056E+02  0.00000000000E+00 0.  1.
         11    1    4    4    0    0  0.11003052692E+01  0.23936532776E+01  0.12959708491E+01  0.29359476156E+01  0.51100000000E-03 0. -1.
        -11    1    4    4    0    0  0.37840539334E+01  0.60246336479E+01  0.12831815000E+01  0.72292343844E+01  0.51100000000E-03 0.  1.
        -12    1    4    4    0    0  0.23067470108E+02  0.17759004440E+02  0.21139155491E+02  0.35977135944E+02  0.00000000000E+00 0.  1.
</event>
<event>
 8    1  0.9117959E-009  0.9118800E+02  0.7816164E-02  0.1184000E+00
        -11   -1    0    0    0    0  0.00000000000E+00  0.00000000000E+00  0.45593999997E+02  0.45594000000E+02  0.51100000000E-03 0. -1.
         11   -1    0    0    0    0 -0.00000000000E+00 -0.00000000000E+00 -0.45593999997E+02  0.45594000000E+02  0.51100000000E-03 0.  1.
         23    2    1    2    0    0  0.00000000000E+00 -0.35527136788E-14  0.00000000000E+00  0.91188000000E+02  0.91188000000E+02 0.  0.
    9900012    2    3    3    0    0 -0.14435742899E+02 -0.22204095730E+02 -0.36437629229E+02  0.46142319141E+02  0.10000012582E+02 0.  0.
         12    1    3    3    0    0  0.14435742899E+02  0.22204095730E+02  0.36437629229E+02  0.45045680859E+02  0.00000000000E+00 0. -1.
         11    1    4    4    0    0 -0.81998005067E+01 -0.72261486118E+01 -0.15531946343E+02  0.18991980138E+02  0.51100000000E-03 0. -1.
        -11    1    4    4    0    0 -0.12983643075E+01 -0.65896378252E+01 -0.45333183221E+01  0.81030890290E+01  0.51100000000E-03 0.  1.
        -12    1    4    4    0    0 -0.49375780844E+01 -0.83883092932E+01 -0.16372364564E+02  0.19047249974E+02  0.00000000000E+00 0.  1.
</event>
<event>
 8    1  0.9117959E-009  0.9118800E+02  0.7816164E-02  0.1184000E+00
        -11   -1    0    0    0    0  0.00000000000E+00  0.00000000000E+00  0.45593999997E+02  0.45594000000E+02  0.51100000000E-03 0. -1.
         11   -1    0    0    0    0 -0.00000000000E+00 -0.00000000000E+00 -0.45593999997E+02  0.45594000000E+02  0.51100000000E-03 0.  1.
         23    2    1    2    0    0  0.00000000000E+00  0.00000000000E+00  0.00000000000E+00  0.91188000000E+02  0.91188000000E+02 0.  0.
    9900012    2    3    3    0    0  0.71020395573E+01  0.62013413074E+01  0.44047905121E+02  0.46142317127E+02  0.99999942212E+01 0.  0.
        -12    1    3    3    0    0 -0.71020395573E+01 -0.62013413074E+01 -0.44047905121E+02  0.45045682873E+02  0.00000000000E+00 0.  1.
         11    1    4    4    0    0  0.20103182177E+01  0.98600494486E+00  0.20058453328E+02  0.20183040784E+02  0.51100000000E-03 0. -1.
        -11    1    4    4    0    0  0.38292788200E+01 -0.25768533288E+00  0.60826175181E+01  0.71922190001E+01  0.51100000000E-03 0.  1.
        -12    1    4    4    0    0  0.12624425196E+01  0.54730216954E+01  0.17906834275E+02  0.18767057344E+02  0.00000000000E+00 0.  1.
</event>
<event>
 8    1  0.9117959E-009  0.9118800E+02  0.7816164E-02  0.1184000E+00
        -11   -1    0    0    0    0  0.00000000000E+00  0.00000000000E+00  0.45593999997E+02  0.45594000000E+02  0.51100000000E-03 0. -1.
         11   -1    0    0    0    0 -0.00000000000E+00 -0.00000000000E+00 -0.45593999997E+02  0.45594000000E+02  0.51100000000E-03 0.  1.
         23    2    1    2    0    0  0.00000000000E+00  0.35527136788E-14 -0.71054273576E-14  0.91188000000E+02  0.91188000000E+02 0.  0.
    9900012    2    3    3    0    0 -0.17251814256E+02 -0.17636915589E+02  0.37688559765E+02  0.46142318478E+02  0.10000006539E+02 0.  0.
        -12    1    3    3    0    0  0.17251814256E+02  0.17636915589E+02 -0.37688559765E+02  0.45045681522E+02  0.00000000000E+00 0.  1.
         11    1    4    4    0    0 -0.64795144588E+01 -0.10453605255E+02  0.22421510023E+02  0.25573151593E+02  0.51100000000E-03 0. -1.
        -11    1    4    4    0    0 -0.73433646601E+01 -0.22223167423E+01  0.74292265482E+01  0.10679752038E+02  0.51100000000E-03 0.  1.
        -12    1    4    4    0    0 -0.34289351372E+01 -0.49609935917E+01  0.78378231939E+01  0.98894148467E+01  0.00000000000E+00 0.  1.
</event>
<event>
 8    1  0.9117959E-009  0.9118800E+02  0.7816164E-02  0.1184000E+00
        -11   -1    0    0    0    0  0.00000000000E+00  0.00000000000E+00  0.45593999997E+02  0.45594000000E+02  0.51100000000E-03 0. -1.
         11   -1    0    0    0    0 -0.00000000000E+00 -0.00000000000E+00 -0.45593999997E+02  0.45594000000E+02  0.51100000000E-03 0.  1.
         23    2    1    2    0    0  0.00000000000E+00 -0.17763568394E-14 -0.14210854715E-13  0.91188000000E+02  0.91188000000E+02 0.  0.
    9900012    2    3    3    0    0 -0.12258804987E+02  0.95998838737E+01  0.42269106596E+02  0.46142318270E+02  0.10000004641E+02 0.  0.
        -12    1    3    3    0    0  0.12258804987E+02 -0.95998838737E+01 -0.42269106596E+02  0.45045681730E+02  0.00000000000E+00 0.  1.
         11    1    4    4    0    0 -0.36787348424E+01  0.58019425696E+00  0.94335256435E+01  0.10142047217E+02  0.51100000000E-03 0. -1.
        -11    1    4    4    0    0 -0.58767839729E+00 -0.13269517229E+01  0.56628750946E+01  0.58458807182E+01  0.51100000000E-03 0.  1.
         12    1    4    4    0    0 -0.79923917472E+01  0.10346641340E+02  0.27172705858E+02  0.30154390335E+02  0.00000000000E+00 0. -1.
</event>
<event>
 8    1  0.9117959E-009  0.9118800E+02  0.7816164E-02  0.1184000E+00
        -11   -1    0    0    0    0  0.00000000000E+00  0.00000000000E+00  0.45593999997E+02  0.45594000000E+02  0.51100000000E-03 0. -1.
         11   -1    0    0    0    0 -0.00000000000E+00 -0.00000000000E+00 -0.45593999997E+02  0.45594000000E+02  0.51100000000E-03 0.  1.
         23    2    1    2    0    0  0.00000000000E+00  0.00000000000E+00  0.00000000000E+00  0.91188000000E+02  0.91188000000E+02 0.  0.
    9900012    2    3    3    0    0  0.11562327592E+02  0.81905512852E+01  0.42759103368E+02  0.46142317959E+02  0.10000001801E+02 0.  0.
        -12    1    3    3    0    0 -0.11562327592E+02 -0.81905512852E+01 -0.42759103368E+02  0.45045682041E+02  0.00000000000E+00 0.  1.
         11    1    4    4    0    0  0.68052521861E+01  0.71754423982E+01  0.18805540275E+02  0.21247276913E+02  0.51100000000E-03 0. -1.
        -11    1    4    4    0    0  0.32537090846E+01  0.84602868855E+00  0.22649726322E+02  0.22897870864E+02  0.51100000000E-03 0.  1.
         12    1    4    4    0    0  0.15033663213E+01  0.16908019849E+00  0.13038367712E+01  0.19971701819E+01  0.00000000000E+00 0. -1.
</event>
<event>
 8    1  0.9117959E-009  0.9118800E+02  0.7816164E-02  0.1184000E+00
        -11   -1    0    0    0    0  0.00000000000E+00  0.00000000000E+00  0.45593999997E+02  0.45594000000E+02  0.51100000000E-03 0. -1.
         11   -1    0    0    0    0 -0.00000000000E+00 -0.00000000000E+00 -0.45593999997E+02  0.45594000000E+02  0.51100000000E-03 0.  1.
         23    2    1    2    0    0 -0.35527136788E-14  0.35527136788E-14  0.35527136788E-14  0.91188000000E+02  0.91188000000E+02 0.  0.
    9900012    2    3    3    0    0  0.23891215840E+02 -0.25299894043E+02 -0.28604872052E+02  0.46142317210E+02  0.99999949753E+01 0.  0.
         12    1    3    3    0    0 -0.23891215840E+02  0.25299894043E+02  0.28604872052E+02  0.45045682790E+02  0.00000000000E+00 0. -1.
         11    1    4    4    0    0  0.79537881053E+01 -0.10410433347E+02 -0.10889396492E+02  0.17035810046E+02  0.51100000000E-03 0. -1.
        -11    1    4    4    0    0  0.99132874339E+01 -0.12380914205E+02 -0.15599482984E+02  0.22246441826E+02  0.51100000000E-03 0.  1.
        -12    1    4    4    0    0  0.60241403006E+01 -0.25085464905E+01 -0.21159925763E+01  0.68600653379E+01  0.00000000000E+00 0.  1.
</event>
<event>
 8    1  0.9117959E-009  0.9118800E+02  0.7816164E-02  0.1184000E+00
        -11   -1    0    0    0    0  0.00000000000E+00  0.00000000000E+00  0.45593999997E+02  0.45594000000E+02  0.51100000000E-03 0. -1.
         11   -1    0    0    0    0 -0.00000000000E+00 -0.00000000000E+00 -0.45593999997E+02  0.45594000000E+02  0.51100000000E-03 0.  1.
         23    2    1    2    0    0  0.00000000000E+00  0.35527136788E-14  0.00000000000E+00  0.91188000000E+02  0.91188000000E+02 0.  0.
    9900012    2    3    3    0    0 -0.80685450606E+01  0.17141988796E+02  0.40867641067E+02  0.46142320011E+02  0.10000020515E+02 0.  0.
        -12    1    3    3    0    0  0.80685450606E+01 -0.17141988796E+02 -0.40867641067E+02  0.45045679989E+02  0.00000000000E+00 0.  1.
         11    1    4    4    0    0 -0.60772367002E+00  0.51880716044E+00  0.19698101866E+01  0.21257096136E+01  0.51100000000E-03 0. -1.
        -11    1    4    4    0    0 -0.27653725776E+01  0.82099330254E+01  0.85330543932E+01  0.12159905564E+02  0.51100000000E-03 0.  1.
        -12    1    4    4    0    0 -0.46954488130E+01  0.84132486102E+01  0.30364776487E+02  0.31856704834E+02  0.00000000000E+00 0.  1.
</event>
<event>
 8    1  0.9117959E-009  0.9118800E+02  0.7816164E-02  0.1184000E+00
        -11   -1    0    0    0    0  0.00000000000E+00  0.00000000000E+00  0.45593999997E+02  0.45594000000E+02  0.51100000000E-03 0. -1.
         11   -1    0    0    0    0 -0.00000000000E+00 -0.00000000000E+00 -0.45593999997E+02  0.45594000000E+02  0.51100000000E-03 0.  1.
         23    2    1    2    0    0  0.00000000000E+00  0.00000000000E+00  0.35527136788E-14  0.91188000000E+02  0.91188000000E+02 0.  0.
    9900012    2    3    3    0    0 -0.25647764802E+02 -0.21166959505E+02 -0.30385284237E+02  0.46142317497E+02  0.99999975935E+01 0.  0.
         12    1    3    3    0    0  0.25647764802E+02  0.21166959505E+02  0.30385284237E+02  0.45045682503E+02  0.00000000000E+00 0. -1.
         11    1    4    4    0    0 -0.16894103404E+02 -0.82738934938E+01 -0.14297007687E+02  0.23627790257E+02  0.51100000000E-03 0. -1.
        -11    1    4    4    0    0 -0.48400354313E+01 -0.56067539707E+01 -0.65271089258E+01  0.98724254494E+01  0.51100000000E-03 0.  1.
         12    1    4    4    0    0 -0.39136259662E+01 -0.72863120403E+01 -0.95611676237E+01  0.12642101790E+02  0.00000000000E+00 0. -1.
</event>
<event>
 8    1  0.9117959E-009  0.9118800E+02  0.7816164E-02  0.1184000E+00
        -11   -1    0    0    0    0  0.00000000000E+00  0.00000000000E+00  0.45593999997E+02  0.45594000000E+02  0.51100000000E-03 0. -1.
         11   -1    0    0    0    0 -0.00000000000E+00 -0.00000000000E+00 -0.45593999997E+02  0.45594000000E+02  0.51100000000E-03 0.  1.
         23    2    1    2    0    0  0.71054273576E-14 -0.71054273576E-14  0.35527136788E-14  0.91188000000E+02  0.91188000000E+02 0.  0.
    9900012    2    3    3    0    0  0.17168228638E+02 -0.36314729421E+02  0.20386411266E+02  0.46142318611E+02  0.10000007746E+02 0.  0.
        -12    1    3    3    0    0 -0.17168228638E+02  0.36314729421E+02 -0.20386411266E+02  0.45045681389E+02  0.00000000000E+00 0.  1.
         11    1    4    4    0    0  0.51549506149E+00 -0.35006808335E+01 -0.63747571985E+00  0.35953966417E+01  0.51100000000E-03 0.  1.
        -11    1    4    4    0    0  0.52362142010E+01 -0.71127760477E+01  0.42503307755E+01  0.98017770953E+01  0.51100000000E-03 0. -1.
        -12    1    4    4    0    0  0.11416519376E+02 -0.25701272540E+02  0.16773556211E+02  0.32745144874E+02  0.00000000000E+00 0.  1.
</event>
<event>
 8    1  0.9117959E-009  0.9118800E+02  0.7816164E-02  0.1184000E+00
        -11   -1    0    0    0    0  0.00000000000E+00  0.00000000000E+00  0.45593999997E+02  0.45594000000E+02  0.51100000000E-03 0. -1.
         11   -1    0    0    0    0 -0.00000000000E+00 -0.00000000000E+00 -0.45593999997E+02  0.45594000000E+02  0.51100000000E-03 0.  1.
         23    2    1    2    0    0  0.00000000000E+00  0.71054273576E-14 -0.17763568394E-14  0.91188000000E+02  0.91188000000E+02 0.  0.
    9900012    2    3    3    0    0  0.10066875076E+02 -0.41323178580E+02  0.14837992406E+02  0.46142322289E+02  0.10000041293E+02 0.  0.
        -12    1    3    3    0    0 -0.10066875076E+02  0.41323178580E+02 -0.14837992406E+02  0.45045677711E+02  0.00000000000E+00 0.  1.
         11    1    4    4    0    0  0.25604447814E+01 -0.17157638054E+01  0.17809020466E+01  0.35596819064E+01  0.51100000000E-03 0. -1.
        -11    1    4    4    0    0  0.32022290887E+01 -0.14469706364E+02  0.68947920701E+01  0.16345177617E+02  0.51100000000E-03 0.  1.
         12    1    4    4    0    0  0.43042012062E+01 -0.25137708411E+02  0.61622982896E+01  0.26237462765E+02  0.00000000000E+00 0. -1.
</event>
<event>
 8    1  0.9117959E-009  0.9118800E+02  0.7816164E-02  0.1184000E+00
        -11   -1    0    0    0    0  0.00000000000E+00  0.00000000000E+00  0.45593999997E+02  0.45594000000E+02  0.51100000000E-03 0. -1.
         11   -1    0    0    0    0 -0.00000000000E+00 -0.00000000000E+00 -0.45593999997E+02  0.45594000000E+02  0.51100000000E-03 0.  1.
         23    2    1    2    0    0  0.35527136788E-14  0.35527136788E-14  0.00000000000E+00  0.91188000000E+02  0.91188000000E+02 0.  0.
    9900012    2    3    3    0    0  0.20536089790E+02  0.13588535887E+02 -0.37719148806E+02  0.46142317876E+02  0.10000001045E+02 0.  0.
         12    1    3    3    0    0 -0.20536089790E+02 -0.13588535887E+02  0.37719148806E+02  0.45045682124E+02  0.00000000000E+00 0. -1.
         11    1    4    4    0    0  0.74373371527E+01  0.12311335272E+01 -0.11082924628E+02  0.13403764107E+02  0.51100000000E-03 0. -1.
        -11    1    4    4    0    0  0.51228544632E+01  0.19856914160E+01 -0.48665353716E+01  0.73396031933E+01  0.51100000000E-03 0.  1.
        -12    1    4    4    0    0  0.79758981740E+01  0.10371710944E+02 -0.21769688807E+02  0.25398950575E+02  0.00000000000E+00 0.  1.
</event>
<event>
 8    1  0.9117959E-009  0.9118800E+02  0.7816164E-02  0.1184000E+00
        -11   -1    0    0    0    0  0.00000000000E+00  0.00000000000E+00  0.45593999997E+02  0.45594000000E+02  0.51100000000E-03 0.  1.
         11   -1    0    0    0    0 -0.00000000000E+00 -0.00000000000E+00 -0.45593999997E+02  0.45594000000E+02  0.51100000000E-03 0. -1.
         23    2    1    2    0    0  0.71054273576E-14 -0.35527136788E-14 -0.17763568394E-14  0.91188000000E+02  0.91188000000E+02 0.  0.
    9900012    2    3    3    0    0 -0.37267866024E+02  0.23694212012E+02  0.88771616020E+01  0.46142317422E+02  0.99999969046E+01 0.  0.
         12    1    3    3    0    0  0.37267866024E+02 -0.23694212012E+02 -0.88771616020E+01  0.45045682578E+02  0.00000000000E+00 0. -1.
         11    1    4    4    0    0 -0.21306978777E+01  0.27849477010E+01 -0.28635796256E+00  0.35182109498E+01  0.51100000000E-03 0. -1.
        -11    1    4    4    0    0 -0.20930467799E+02  0.80051202872E+01  0.56864872754E+01  0.23119311644E+02  0.51100000000E-03 0.  1.
         12    1    4    4    0    0 -0.14206700347E+02  0.12904144024E+02  0.34770322891E+01  0.19504794828E+02  0.00000000000E+00 0. -1.
</event>
<event>
 8    1  0.9117959E-009  0.9118800E+02  0.7816164E-02  0.1184000E+00
        -11   -1    0    0    0    0  0.00000000000E+00  0.00000000000E+00  0.45593999997E+02  0.45594000000E+02  0.51100000000E-03 0. -1.
         11   -1    0    0    0    0 -0.00000000000E+00 -0.00000000000E+00 -0.45593999997E+02  0.45594000000E+02  0.51100000000E-03 0.  1.
         23    2    1    2    0    0  0.00000000000E+00  0.00000000000E+00  0.00000000000E+00  0.91188000000E+02  0.91188000000E+02 0.  0.
    9900012    2    3    3    0    0  0.34141459757E+01  0.36907933977E+02  0.25598081339E+02  0.46142314841E+02  0.99999733714E+01 0.  0.
        -12    1    3    3    0    0 -0.34141459757E+01 -0.36907933977E+02 -0.25598081339E+02  0.45045685159E+02  0.00000000000E+00 0.  1.
         11    1    4    4    0    0  0.26556151537E+01  0.22421064821E+02  0.19559730053E+02  0.29872051814E+02  0.51100000000E-03 0. -1.
        -11    1    4    4    0    0 -0.63718291968E+00  0.11174152150E+02  0.59474563455E+01  0.12674380284E+02  0.51100000000E-03 0.  1.
         12    1    4    4    0    0  0.13957137416E+01  0.33127170061E+01  0.90894940450E-01  0.35958827430E+01  0.00000000000E+00 0. -1.
</event>
<event>
 8    1  0.9117959E-009  0.9118800E+02  0.7816164E-02  0.1184000E+00
        -11   -1    0    0    0    0  0.00000000000E+00  0.00000000000E+00  0.45593999997E+02  0.45594000000E+02  0.51100000000E-03 0. -1.
         11   -1    0    0    0    0 -0.00000000000E+00 -0.00000000000E+00 -0.45593999997E+02  0.45594000000E+02  0.51100000000E-03 0.  1.
         23    2    1    2    0    0 -0.35527136788E-14  0.00000000000E+00  0.00000000000E+00  0.91188000000E+02  0.91188000000E+02 0.  0.
    9900012    2    3    3    0    0  0.16983906770E+02  0.89767581948E+01 -0.40744056060E+02  0.46142318952E+02  0.10000010861E+02 0.  0.
         12    1    3    3    0    0 -0.16983906770E+02 -0.89767581948E+01  0.40744056060E+02  0.45045681048E+02  0.00000000000E+00 0. -1.
         11    1    4    4    0    0  0.13741156969E+02  0.67923999967E+01 -0.30490685379E+02  0.34126792813E+02  0.51100000000E-03 0. -1.
        -11    1    4    4    0    0  0.90062025921E+00  0.34434114000E+01 -0.65767427481E+01  0.74780842705E+01  0.51100000000E-03 0.  1.
        -12    1    4    4    0    0  0.23421295421E+01 -0.12590532019E+01 -0.36766279326E+01  0.45374418687E+01  0.00000000000E+00 0.  1.
</event>
<event>
 8    1  0.9117959E-009  0.9118800E+02  0.7816164E-02  0.1184000E+00
        -11   -1    0    0    0    0  0.00000000000E+00  0.00000000000E+00  0.45593999997E+02  0.45594000000E+02  0.51100000000E-03 0. -1.
         11   -1    0    0    0    0 -0.00000000000E+00 -0.00000000000E+00 -0.45593999997E+02  0.45594000000E+02  0.51100000000E-03 0.  1.
         23    2    1    2    0    0  0.00000000000E+00 -0.17763568394E-14  0.71054273576E-14  0.91188000000E+02  0.91188000000E+02 0.  0.
    9900012    2    3    3    0    0  0.21431054819E+02 -0.13853642846E+02 -0.37120075073E+02  0.46142317585E+02  0.99999983969E+01 0.  0.
         12    1    3    3    0    0 -0.21431054819E+02  0.13853642846E+02  0.37120075073E+02  0.45045682415E+02  0.00000000000E+00 0. -1.
         11    1    4    4    0    0  0.15683496257E+01  0.24568237031E+00 -0.31588105446E+01  0.35352743448E+01  0.51100000000E-03 0. -1.
        -11    1    4    4    0    0  0.97866661434E+01 -0.20095468517E+01 -0.13273118870E+02  0.16613030956E+02  0.51100000000E-03 0.  1.
        -12    1    4    4    0    0  0.10076039050E+02 -0.12089778365E+02 -0.20688145659E+02  0.25994012285E+02  0.00000000000E+00 0.  1.
</event>
<event>
 8    1  0.9117959E-009  0.9118800E+02  0.7816164E-02  0.1184000E+00
        -11   -1    0    0    0    0  0.00000000000E+00  0.00000000000E+00  0.45593999997E+02  0.45594000000E+02  0.51100000000E-03 0. -1.
         11   -1    0    0    0    0 -0.00000000000E+00 -0.00000000000E+00 -0.45593999997E+02  0.45594000000E+02  0.51100000000E-03 0.  1.
         23    2    1    2    0    0  0.00000000000E+00 -0.17763568394E-14  0.17763568394E-14  0.91188000000E+02  0.91188000000E+02 0.  0.
    9900012    2    3    3    0    0  0.40815093193E+02  0.13894516232E+02  0.13045460261E+02  0.46142318220E+02  0.10000004181E+02 0.  0.
        -12    1    3    3    0    0 -0.40815093193E+02 -0.13894516232E+02 -0.13045460261E+02  0.45045681780E+02  0.00000000000E+00 0.  1.
         11    1    4    4    0    0  0.54079731740E+01  0.51301066896E+01  0.15630088506E+01  0.76162435245E+01  0.51100000000E-03 0. -1.
        -11    1    4    4    0    0  0.14552683817E+02  0.44180342619E+01  0.25242415876E+01  0.15416595892E+02  0.51100000000E-03 0.  1.
        -12    1    4    4    0    0  0.20854436201E+02  0.43463752806E+01  0.89582098225E+01  0.23109478804E+02  0.00000000000E+00 0.  1.
</event>
<event>
 8    1  0.9117959E-009  0.9118800E+02  0.7816164E-02  0.1184000E+00
        -11   -1    0    0    0    0  0.00000000000E+00  0.00000000000E+00  0.45593999997E+02  0.45594000000E+02  0.51100000000E-03 0. -1.
         11   -1    0    0    0    0 -0.00000000000E+00 -0.00000000000E+00 -0.45593999997E+02  0.45594000000E+02  0.51100000000E-03 0.  1.
         23    2    1    2    0    0  0.00000000000E+00  0.00000000000E+00  0.00000000000E+00  0.91188000000E+02  0.91188000000E+02 0.  0.
    9900012    2    3    3    0    0  0.23149704177E+02 -0.18724563615E+02  0.33802299447E+02  0.46142317255E+02  0.99999953836E+01 0.  0.
        -12    1    3    3    0    0 -0.23149704177E+02  0.18724563615E+02 -0.33802299447E+02  0.45045682745E+02  0.00000000000E+00 0.  1.
         11    1    4    4    0    0  0.51306476993E+01 -0.16368744665E+01  0.40700816159E+01  0.67504420933E+01  0.51100000000E-03 0. -1.
        -11    1    4    4    0    0  0.11119417881E+02 -0.68126926420E+01  0.11693414671E+02  0.17515426971E+02  0.51100000000E-03 0.  1.
        -12    1    4    4    0    0  0.68996385963E+01 -0.10274996507E+02  0.18038803160E+02  0.21876448191E+02  0.00000000000E+00 0.  1.
</event>
<event>
 8    1  0.9117959E-009  0.9118800E+02  0.7816164E-02  0.1184000E+00
        -11   -1    0    0    0    0  0.00000000000E+00  0.00000000000E+00  0.45593999997E+02  0.45594000000E+02  0.51100000000E-03 0. -1.
         11   -1    0    0    0    0 -0.00000000000E+00 -0.00000000000E+00 -0.45593999997E+02  0.45594000000E+02  0.51100000000E-03 0.  1.
         23    2    1    2    0    0  0.71054273576E-14 -0.17763568394E-14  0.00000000000E+00  0.91188000000E+02  0.91188000000E+02 0.  0.
    9900012    2    3    3    0    0 -0.21690273411E+02 -0.94116005374E+01 -0.38341454548E+02  0.46142319605E+02  0.10000016816E+02 0.  0.
         12    1    3    3    0    0  0.21690273411E+02  0.94116005374E+01  0.38341454548E+02  0.45045680395E+02  0.00000000000E+00 0. -1.
         11    1    4    4    0    0  0.13683189945E+00  0.51974824404E+00 -0.45868873120E+00  0.70658107754E+00  0.51100000000E-03 0. -1.
        -11    1    4    4    0    0 -0.38054363268E+01  0.10879104730E+01 -0.56704038230E+01  0.69150831239E+01  0.51100000000E-03 0.  1.
        -12    1    4    4    0    0 -0.18021668984E+02 -0.11019259254E+02 -0.32212361994E+02  0.38520655404E+02  0.00000000000E+00 0.  1.
</event>
<event>
 8    1  0.9117959E-009  0.9118800E+02  0.7816164E-02  0.1184000E+00
        -11   -1    0    0    0    0  0.00000000000E+00  0.00000000000E+00  0.45593999997E+02  0.45594000000E+02  0.51100000000E-03 0. -1.
         11   -1    0    0    0    0 -0.00000000000E+00 -0.00000000000E+00 -0.45593999997E+02  0.45594000000E+02  0.51100000000E-03 0.  1.
         23    2    1    2    0    0 -0.71054273576E-14  0.00000000000E+00  0.35527136788E-14  0.91188000000E+02  0.91188000000E+02 0.  0.
    9900012    2    3    3    0    0 -0.29677897528E+02 -0.12741788653E+02  0.31400362461E+02  0.46142317161E+02  0.99999945269E+01 0.  0.
        -12    1    3    3    0    0  0.29677897528E+02  0.12741788653E+02 -0.31400362461E+02  0.45045682839E+02  0.00000000000E+00 0.  1.
         11    1    4    4    0    0 -0.58453475758E+01 -0.33803408121E+01  0.73549637523E+01  0.99845022082E+01  0.51100000000E-03 0. -1.
        -11    1    4    4    0    0 -0.20993825721E+02 -0.11003641134E+02  0.21580819028E+02  0.32055461107E+02  0.51100000000E-03 0.  1.
        -12    1    4    4    0    0 -0.28387242310E+01  0.16421932929E+01  0.24645796808E+01  0.41023538455E+01  0.00000000000E+00 0.  1.
</event>
<event>
 8    1  0.9117959E-009  0.9118800E+02  0.7816164E-02  0.1184000E+00
        -11   -1    0    0    0    0  0.00000000000E+00  0.00000000000E+00  0.45593999997E+02  0.45594000000E+02  0.51100000000E-03 0. -1.
         11   -1    0    0    0    0 -0.00000000000E+00 -0.00000000000E+00 -0.45593999997E+02  0.45594000000E+02  0.51100000000E-03 0.  1.
         23    2    1    2    0    0  0.00000000000E+00  0.22204460493E-15  0.71054273576E-14  0.91188000000E+02  0.91188000000E+02 0.  0.
    9900012    2    3    3    0    0  0.11782014061E+02 -0.36365887495E+00  0.43476036612E+02  0.46142313607E+02  0.99999621195E+01 0.  0.
        -12    1    3    3    0    0 -0.11782014061E+02  0.36365887495E+00 -0.43476036612E+02  0.45045686393E+02  0.00000000000E+00 0.  1.
         11    1    4    4    0    0  0.52101028100E+01  0.42680728571E+01  0.15526089236E+02  0.16923978978E+02  0.51100000000E-03 0. -1.
        -11    1    4    4    0    0  0.13175172296E+01 -0.79642970472E+00  0.23851604445E+01  0.28388628942E+01  0.51100000000E-03 0.  1.
        -12    1    4    4    0    0  0.52543940212E+01 -0.38353020274E+01  0.25564786931E+02  0.26379471735E+02  0.00000000000E+00 0.  1.
</event>
<event>
 8    1  0.9117959E-009  0.9118800E+02  0.7816164E-02  0.1184000E+00
        -11   -1    0    0    0    0  0.00000000000E+00  0.00000000000E+00  0.45593999997E+02  0.45594000000E+02  0.51100000000E-03 0. -1.
         11   -1    0    0    0    0 -0.00000000000E+00 -0.00000000000E+00 -0.45593999997E+02  0.45594000000E+02  0.51100000000E-03 0.  1.
         23    2    1    2    0    0  0.00000000000E+00  0.00000000000E+00  0.00000000000E+00  0.91188000000E+02  0.91188000000E+02 0.  0.
    9900012    2    3    3    0    0  0.12755098521E+02 -0.12899879113E+02 -0.41231228444E+02  0.46142316318E+02  0.99999868374E+01 0.  0.
         12    1    3    3    0    0 -0.12755098521E+02  0.12899879113E+02  0.41231228444E+02  0.45045683682E+02  0.00000000000E+00 0. -1.
         11    1    4    4    0    0  0.11438988867E+02 -0.98623829828E+01 -0.39134294364E+02  0.41947706255E+02  0.51100000000E-03 0. -1.
        -11    1    4    4    0    0  0.83561652295E-01 -0.12907344438E+00 -0.74149392074E+00  0.75726877619E+00  0.51100000000E-03 0.  1.
         12    1    4    4    0    0  0.12325480017E+01 -0.29084226857E+01 -0.13554401589E+01  0.34373412865E+01  0.00000000000E+00 0. -1.
</event>
<event>
 8    1  0.9117959E-009  0.9118800E+02  0.7816164E-02  0.1184000E+00
        -11   -1    0    0    0    0  0.00000000000E+00  0.00000000000E+00  0.45593999997E+02  0.45594000000E+02  0.51100000000E-03 0. -1.
         11   -1    0    0    0    0 -0.00000000000E+00 -0.00000000000E+00 -0.45593999997E+02  0.45594000000E+02  0.51100000000E-03 0.  1.
         23    2    1    2    0    0 -0.71054273576E-14  0.00000000000E+00  0.00000000000E+00  0.91188000000E+02  0.91188000000E+02 0.  0.
    9900012    2    3    3    0    0  0.41162508589E+02 -0.65451112159E+01 -0.17085750439E+02  0.46142318051E+02  0.10000002646E+02 0.  0.
         12    1    3    3    0    0 -0.41162508589E+02  0.65451112159E+01  0.17085750439E+02  0.45045681949E+02  0.00000000000E+00 0. -1.
         11    1    4    4    0    0  0.40118057887E+01 -0.13053276582E+01 -0.26798809192E+01  0.49980224073E+01  0.51100000000E-03 0. -1.
        -11    1    4    4    0    0  0.29698597572E+02 -0.52786925851E+01 -0.14962806996E+02  0.33671306577E+02  0.51100000000E-03 0.  1.
         12    1    4    4    0    0  0.74521052284E+01  0.38909027269E-01  0.55693747559E+00  0.74729890672E+01  0.00000000000E+00 0. -1.
</event>
<event>
 8    1  0.9117959E-009  0.9118800E+02  0.7816164E-02  0.1184000E+00
        -11   -1    0    0    0    0  0.00000000000E+00  0.00000000000E+00  0.45593999997E+02  0.45594000000E+02  0.51100000000E-03 0. -1.
         11   -1    0    0    0    0 -0.00000000000E+00 -0.00000000000E+00 -0.45593999997E+02  0.45594000000E+02  0.51100000000E-03 0.  1.
         23    2    1    2    0    0  0.17763568394E-14  0.00000000000E+00  0.71054273576E-14  0.91188000000E+02  0.91188000000E+02 0.  0.
    9900012    2    3    3    0    0 -0.91023224586E+01  0.90853851336E+01 -0.43170788399E+02  0.46142317986E+02  0.10000002050E+02 0.  0.
         12    1    3    3    0    0  0.91023224586E+01 -0.90853851336E+01  0.43170788399E+02  0.45045682014E+02  0.00000000000E+00 0. -1.
         11    1    4    4    0    0  0.95862523608E+00  0.13895150468E-01 -0.14138836932E+01  0.17082806495E+01  0.51100000000E-03 0. -1.
        -11    1    4    4    0    0 -0.78883107591E+01  0.89204705225E+01 -0.39666191060E+02  0.41415057099E+02  0.51100000000E-03 0.  1.
        -12    1    4    4    0    0 -0.21726369356E+01  0.15101946063E+00 -0.20907136449E+01  0.30189802378E+01  0.00000000000E+00 0.  1.
</event>
<event>
 8    1  0.9117959E-009  0.9118800E+02  0.7816164E-02  0.1184000E+00
        -11   -1    0    0    0    0  0.00000000000E+00  0.00000000000E+00  0.45593999997E+02  0.45594000000E+02  0.51100000000E-03 0. -1.
         11   -1    0    0    0    0 -0.00000000000E+00 -0.00000000000E+00 -0.45593999997E+02  0.45594000000E+02  0.51100000000E-03 0.  1.
         23    2    1    2    0    0  0.35527136788E-14  0.00000000000E+00  0.00000000000E+00  0.91188000000E+02  0.91188000000E+02 0.  0.
    9900012    2    3    3    0    0  0.21423987694E+02  0.39567518544E+02  0.21301732276E+01  0.46142318627E+02  0.10000007894E+02 0.  0.
         12    1    3    3    0    0 -0.21423987694E+02 -0.39567518544E+02 -0.21301732276E+01  0.45045681373E+02  0.00000000000E+00 0. -1.
         11    1    4    4    0    0  0.65958006337E+01  0.68685797250E+01 -0.31486646057E+00  0.95279123939E+01  0.51100000000E-03 0.  1.
        -11    1    4    4    0    0  0.86470578290E+01  0.11153497263E+02  0.12479823966E+01  0.14167906360E+02  0.51100000000E-03 0. -1.
        -12    1    4    4    0    0  0.61811292310E+01  0.21545441556E+02  0.11970572916E+01  0.22446499873E+02  0.00000000000E+00 0.  1.
</event>
<event>
 8    1  0.9117959E-009  0.9118800E+02  0.7816164E-02  0.1184000E+00
        -11   -1    0    0    0    0  0.00000000000E+00  0.00000000000E+00  0.45593999997E+02  0.45594000000E+02  0.51100000000E-03 0. -1.
         11   -1    0    0    0    0 -0.00000000000E+00 -0.00000000000E+00 -0.45593999997E+02  0.45594000000E+02  0.51100000000E-03 0.  1.
         23    2    1    2    0    0  0.00000000000E+00 -0.17763568394E-14  0.00000000000E+00  0.91188000000E+02  0.91188000000E+02 0.  0.
    9900012    2    3    3    0    0  0.16571696935E+02 -0.12074105434E+02  0.40108706720E+02  0.46142317454E+02  0.99999971960E+01 0.  0.
        -12    1    3    3    0    0 -0.16571696935E+02  0.12074105434E+02 -0.40108706720E+02  0.45045682546E+02  0.00000000000E+00 0.  1.
         11    1    4    4    0    0  0.49804054870E+01 -0.46435843530E+01  0.10181272499E+02  0.12248494782E+02  0.51100000000E-03 0. -1.
        -11    1    4    4    0    0  0.12160293065E+02 -0.83300993441E+01  0.26741147328E+02  0.30534443554E+02  0.51100000000E-03 0.  1.
        -12    1    4    4    0    0 -0.56900161703E+00  0.89957826273E+00  0.31862868932E+01  0.33593791178E+01  0.00000000000E+00 0.  1.
</event>
<event>
 8    1  0.9117959E-009  0.9118800E+02  0.7816164E-02  0.1184000E+00
        -11   -1    0    0    0    0  0.00000000000E+00  0.00000000000E+00  0.45593999997E+02  0.45594000000E+02  0.51100000000E-03 0. -1.
         11   -1    0    0    0    0 -0.00000000000E+00 -0.00000000000E+00 -0.45593999997E+02  0.45594000000E+02  0.51100000000E-03 0.  1.
         23    2    1    2    0    0  0.00000000000E+00  0.00000000000E+00  0.00000000000E+00  0.91188000000E+02  0.91188000000E+02 0.  0.
    9900012    2    3    3    0    0 -0.29882584196E+01  0.38181471308E+02  0.23714110033E+02  0.46142318140E+02  0.10000003451E+02 0.  0.
        -12    1    3    3    0    0  0.29882584196E+01 -0.38181471308E+02 -0.23714110033E+02  0.45045681860E+02  0.00000000000E+00 0.  1.
         11    1    4    4    0    0 -0.23397527391E+01  0.13471347981E+02  0.45393184667E+01  0.14406841143E+02  0.51100000000E-03 0.  1.
        -11    1    4    4    0    0 -0.98310087623E+00  0.18887657572E+02  0.11642998251E+02  0.22209671416E+02  0.51100000000E-03 0. -1.
        -12    1    4    4    0    0  0.33459519575E+00  0.58224657549E+01  0.75317933160E+01  0.95258055810E+01  0.00000000000E+00 0.  1.
</event>
<event>
 8    1  0.9117959E-009  0.9118800E+02  0.7816164E-02  0.1184000E+00
        -11   -1    0    0    0    0  0.00000000000E+00  0.00000000000E+00  0.45593999997E+02  0.45594000000E+02  0.51100000000E-03 0. -1.
         11   -1    0    0    0    0 -0.00000000000E+00 -0.00000000000E+00 -0.45593999997E+02  0.45594000000E+02  0.51100000000E-03 0.  1.
         23    2    1    2    0    0 -0.35527136788E-14 -0.35527136788E-14 -0.14210854715E-13  0.91188000000E+02  0.91188000000E+02 0.  0.
    9900012    2    3    3    0    0  0.11801661108E+02  0.21505923546E+02  0.37780013136E+02  0.46142319352E+02  0.10000014511E+02 0.  0.
        -12    1    3    3    0    0 -0.11801661108E+02 -0.21505923546E+02 -0.37780013136E+02  0.45045680648E+02  0.00000000000E+00 0.  1.
         11    1    4    4    0    0  0.52607078148E+01  0.10430915432E+02  0.22826866459E+02  0.25642637853E+02  0.51100000000E-03 0. -1.
        -11    1    4    4    0    0  0.98641401804E+00 -0.43587453418E+00  0.21695607220E+01  0.24228068871E+01  0.51100000000E-03 0.  1.
        -12    1    4    4    0    0  0.55545392754E+01  0.11510882647E+02  0.12783585955E+02  0.18076874612E+02  0.00000000000E+00 0.  1.
</event>
<event>
 8    1  0.9117959E-009  0.9118800E+02  0.7816164E-02  0.1184000E+00
        -11   -1    0    0    0    0  0.00000000000E+00  0.00000000000E+00  0.45593999997E+02  0.45594000000E+02  0.51100000000E-03 0. -1.
         11   -1    0    0    0    0 -0.00000000000E+00 -0.00000000000E+00 -0.45593999997E+02  0.45594000000E+02  0.51100000000E-03 0.  1.
         23    2    1    2    0    0  0.35527136788E-14  0.00000000000E+00  0.00000000000E+00  0.91188000000E+02  0.91188000000E+02 0.  0.
    9900012    2    3    3    0    0 -0.17980687516E+02  0.23715514086E+01 -0.41233288690E+02  0.46142317900E+02  0.10000001265E+02 0.  0.
         12    1    3    3    0    0  0.17980687516E+02 -0.23715514086E+01  0.41233288690E+02  0.45045682100E+02  0.00000000000E+00 0. -1.
         11    1    4    4    0    0 -0.48152200938E+01 -0.16002624061E+01 -0.56190844752E+01  0.75710828103E+01  0.51100000000E-03 0. -1.
        -11    1    4    4    0    0 -0.12277751319E+02  0.17511089723E+01 -0.29136707332E+02  0.31666342929E+02  0.51100000000E-03 0.  1.
         12    1    4    4    0    0 -0.88771610320E+00  0.22207048423E+01 -0.64774968829E+01  0.69048921602E+01  0.00000000000E+00 0. -1.
</event>
<event>
 8    1  0.9117959E-009  0.9118800E+02  0.7816164E-02  0.1184000E+00
        -11   -1    0    0    0    0  0.00000000000E+00  0.00000000000E+00  0.45593999997E+02  0.45594000000E+02  0.51100000000E-03 0. -1.
         11   -1    0    0    0    0 -0.00000000000E+00 -0.00000000000E+00 -0.45593999997E+02  0.45594000000E+02  0.51100000000E-03 0.  1.
         23    2    1    2    0    0  0.00000000000E+00 -0.17763568394E-14  0.00000000000E+00  0.91188000000E+02  0.91188000000E+02 0.  0.
    9900012    2    3    3    0    0 -0.10157192033E+02 -0.14524235082E+02 -0.41412454031E+02  0.46142319812E+02  0.10000018703E+02 0.  0.
         12    1    3    3    0    0  0.10157192033E+02  0.14524235082E+02  0.41412454031E+02  0.45045680188E+02  0.00000000000E+00 0. -1.
         11    1    4    4    0    0 -0.12394385247E+01  0.26765381749E+00 -0.12851697829E+01  0.18054107716E+01  0.51100000000E-03 0. -1.
        -11    1    4    4    0    0 -0.66295271040E+00 -0.72364866675E+00 -0.10251815758E+02  0.10298684395E+02  0.51100000000E-03 0.  1.
        -12    1    4    4    0    0 -0.82548007978E+01 -0.14068240232E+02 -0.29875468491E+02  0.34038224645E+02  0.00000000000E+00 0.  1.
</event>
<event>
 8    1  0.9117959E-009  0.9118800E+02  0.7816164E-02  0.1184000E+00
        -11   -1    0    0    0    0  0.00000000000E+00  0.00000000000E+00  0.45593999997E+02  0.45594000000E+02  0.51100000000E-03 0. -1.
         11   -1    0    0    0    0 -0.00000000000E+00 -0.00000000000E+00 -0.45593999997E+02  0.45594000000E+02  0.51100000000E-03 0.  1.
         23    2    1    2    0    0 -0.17763568394E-14  0.00000000000E+00  0.00000000000E+00  0.91188000000E+02  0.91188000000E+02 0.  0.
    9900012    2    3    3    0    0  0.15831248063E+02  0.28204870547E+02 -0.31352357980E+02  0.46142317757E+02  0.99999999670E+01 0.  0.
         12    1    3    3    0    0 -0.15831248063E+02 -0.28204870547E+02  0.31352357980E+02  0.45045682243E+02  0.00000000000E+00 0. -1.
         11    1    4    4    0    0  0.88748229963E+01  0.19163199991E+02 -0.25545632840E+02  0.33144683956E+02  0.51100000000E-03 0. -1.
        -11    1    4    4    0    0  0.15605837254E+01  0.11337256127E+01 -0.17345412578E+01  0.25941065832E+01  0.51100000000E-03 0.  1.
         12    1    4    4    0    0  0.53958413409E+01  0.79079449438E+01 -0.40721838821E+01  0.10403527218E+02  0.00000000000E+00 0. -1.
</event>
<event>
 8    1  0.9117959E-009  0.9118800E+02  0.7816164E-02  0.1184000E+00
        -11   -1    0    0    0    0  0.00000000000E+00  0.00000000000E+00  0.45593999997E+02  0.45594000000E+02  0.51100000000E-03 0. -1.
         11   -1    0    0    0    0 -0.00000000000E+00 -0.00000000000E+00 -0.45593999997E+02  0.45594000000E+02  0.51100000000E-03 0.  1.
         23    2    1    2    0    0  0.00000000000E+00  0.00000000000E+00  0.00000000000E+00  0.91188000000E+02  0.91188000000E+02 0.  0.
    9900012    2    3    3    0    0 -0.19975024050E+02  0.16747269539E+02 -0.36737458297E+02  0.46142318021E+02  0.10000002373E+02 0.  0.
         12    1    3    3    0    0  0.19975024050E+02 -0.16747269539E+02  0.36737458297E+02  0.45045681979E+02  0.00000000000E+00 0. -1.
         11    1    4    4    0    0 -0.13448306279E+02  0.62296538381E+01 -0.17043494817E+02  0.22586417258E+02  0.51100000000E-03 0. -1.
        -11    1    4    4    0    0 -0.27941129487E+00 -0.29282647925E+00 -0.36532511638E+00  0.54523455543E+00  0.51100000000E-03 0.  1.
        -12    1    4    4    0    0 -0.62473064755E+01  0.10810442180E+02 -0.19328638364E+02  0.23010666208E+02  0.00000000000E+00 0.  1.
</event>
<event>
 8    1  0.9117959E-009  0.9118800E+02  0.7816164E-02  0.1184000E+00
        -11   -1    0    0    0    0  0.00000000000E+00  0.00000000000E+00  0.45593999997E+02  0.45594000000E+02  0.51100000000E-03 0. -1.
         11   -1    0    0    0    0 -0.00000000000E+00 -0.00000000000E+00 -0.45593999997E+02  0.45594000000E+02  0.51100000000E-03 0.  1.
         23    2    1    2    0    0  0.00000000000E+00 -0.71054273576E-14  0.00000000000E+00  0.91188000000E+02  0.91188000000E+02 0.  0.
    9900012    2    3    3    0    0  0.22778737191E+02 -0.34487139599E+02 -0.17913121837E+02  0.46142316526E+02  0.99999887366E+01 0.  0.
        -12    1    3    3    0    0 -0.22778737191E+02  0.34487139599E+02  0.17913121837E+02  0.45045683474E+02  0.00000000000E+00 0.  1.
         11    1    4    4    0    0  0.15716085918E+02 -0.19420931195E+02 -0.98422703382E+01  0.26852154676E+02  0.51100000000E-03 0. -1.
        -11    1    4    4    0    0  0.61397983112E+01 -0.68837250609E+01 -0.50733560314E+01  0.10527190304E+02  0.51100000000E-03 0.  1.
         12    1    4    4    0    0  0.92285296158E+00 -0.81824833421E+01 -0.29974954679E+01  0.87629715458E+01  0.00000000000E+00 0. -1.
</event>
<event>
 8    1  0.9117959E-009  0.9118800E+02  0.7816164E-02  0.1184000E+00
        -11   -1    0    0    0    0  0.00000000000E+00  0.00000000000E+00  0.45593999997E+02  0.45594000000E+02  0.51100000000E-03 0. -1.
         11   -1    0    0    0    0 -0.00000000000E+00 -0.00000000000E+00 -0.45593999997E+02  0.45594000000E+02  0.51100000000E-03 0.  1.
         23    2    1    2    0    0 -0.35527136788E-14  0.00000000000E+00  0.00000000000E+00  0.91188000000E+02  0.91188000000E+02 0.  0.
    9900012    2    3    3    0    0 -0.29470177029E+02 -0.17207314103E+02  0.29402892029E+02  0.46142322600E+02  0.10000044120E+02 0.  0.
        -12    1    3    3    0    0  0.29470177029E+02  0.17207314103E+02 -0.29402892029E+02  0.45045677400E+02  0.00000000000E+00 0.  1.
         11    1    4    4    0    0 -0.78111453041E+01 -0.65593503892E+01  0.62616888854E+01  0.11968617984E+02  0.51100000000E-03 0.  1.
        -11    1    4    4    0    0 -0.12159316488E+02 -0.58565495317E+01  0.80687224902E+01  0.15724262550E+02  0.51100000000E-03 0. -1.
        -12    1    4    4    0    0 -0.94997152374E+01 -0.47914141823E+01  0.15072480654E+02  0.18449442065E+02  0.00000000000E+00 0.  1.
</event>
<event>
 8    1  0.9117959E-009  0.9118800E+02  0.7816164E-02  0.1184000E+00
        -11   -1    0    0    0    0  0.00000000000E+00  0.00000000000E+00  0.45593999997E+02  0.45594000000E+02  0.51100000000E-03 0. -1.
         11   -1    0    0    0    0 -0.00000000000E+00 -0.00000000000E+00 -0.45593999997E+02  0.45594000000E+02  0.51100000000E-03 0.  1.
         23    2    1    2    0    0 -0.35527136788E-14  0.00000000000E+00  0.71054273576E-14  0.91188000000E+02  0.91188000000E+02 0.  0.
    9900012    2    3    3    0    0 -0.21209389188E+02  0.12055928811E+02  0.37867265534E+02  0.46142318650E+02  0.10000008107E+02 0.  0.
        -12    1    3    3    0    0  0.21209389188E+02 -0.12055928811E+02 -0.37867265534E+02  0.45045681350E+02  0.00000000000E+00 0.  1.
         11    1    4    4    0    0 -0.19999588459E+02  0.11860210430E+02  0.37415734089E+02  0.44052074725E+02  0.51100000000E-03 0. -1.
        -11    1    4    4    0    0 -0.75344467057E+00 -0.12338151442E+00  0.10334066887E+01  0.12848468839E+01  0.51100000000E-03 0.  1.
         12    1    4    4    0    0 -0.45635605826E+00  0.31909989542E+00 -0.58187524284E+00  0.80539704084E+00  0.00000000000E+00 0. -1.
</event>
<event>
 8    1  0.9117959E-009  0.9118800E+02  0.7816164E-02  0.1184000E+00
        -11   -1    0    0    0    0  0.00000000000E+00  0.00000000000E+00  0.45593999997E+02  0.45594000000E+02  0.51100000000E-03 0. -1.
         11   -1    0    0    0    0 -0.00000000000E+00 -0.00000000000E+00 -0.45593999997E+02  0.45594000000E+02  0.51100000000E-03 0.  1.
         23    2    1    2    0    0  0.00000000000E+00  0.00000000000E+00  0.00000000000E+00  0.91188000000E+02  0.91188000000E+02 0.  0.
    9900012    2    3    3    0    0  0.26210453922E+01  0.80251049532E+01  0.44247500383E+02  0.46142317869E+02  0.10000000986E+02 0.  0.
        -12    1    3    3    0    0 -0.26210453922E+01 -0.80251049532E+01 -0.44247500383E+02  0.45045682131E+02  0.00000000000E+00 0.  1.
         11    1    4    4    0    0  0.12623991533E+01  0.51026195059E+01  0.19220222072E+02  0.19926046126E+02  0.51100000000E-03 0. -1.
        -11    1    4    4    0    0  0.39415107114E+01  0.53103540022E+00  0.16860368646E+02  0.17323092577E+02  0.51100000000E-03 0.  1.
        -12    1    4    4    0    0 -0.25828644724E+01  0.23914500470E+01  0.81669096652E+01  0.88931791667E+01  0.00000000000E+00 0.  1.
</event>
<event>
 8    1  0.9117959E-009  0.9118800E+02  0.7816164E-02  0.1184000E+00
        -11   -1    0    0    0    0  0.00000000000E+00  0.00000000000E+00  0.45593999997E+02  0.45594000000E+02  0.51100000000E-03 0.  1.
         11   -1    0    0    0    0 -0.00000000000E+00 -0.00000000000E+00 -0.45593999997E+02  0.45594000000E+02  0.51100000000E-03 0. -1.
         23    2    1    2    0    0  0.71054273576E-14  0.00000000000E+00  0.00000000000E+00  0.91188000000E+02  0.91188000000E+02 0.  0.
    9900012    2    3    3    0    0  0.32641561619E+02 -0.28958890191E+02 -0.11181443935E+02  0.46142317027E+02  0.99999933071E+01 0.  0.
         12    1    3    3    0    0 -0.32641561619E+02  0.28958890191E+02  0.11181443935E+02  0.45045682973E+02  0.00000000000E+00 0. -1.
         11    1    4    4    0    0  0.99478064539E+01 -0.12110387578E+02 -0.57876280253E+01  0.16706794395E+02  0.51100000000E-03 0. -1.
        -11    1    4    4    0    0  0.17007731775E+02 -0.15150505761E+02 -0.57464816638E+01  0.23490909235E+02  0.51100000000E-03 0.  1.
         12    1    4    4    0    0  0.56860233900E+01 -0.16979968524E+01  0.35266575408E+00  0.59446133967E+01  0.00000000000E+00 0. -1.
</event>
<event>
 8    1  0.9117959E-009  0.9118800E+02  0.7816164E-02  0.1184000E+00
        -11   -1    0    0    0    0  0.00000000000E+00  0.00000000000E+00  0.45593999997E+02  0.45594000000E+02  0.51100000000E-03 0. -1.
         11   -1    0    0    0    0 -0.00000000000E+00 -0.00000000000E+00 -0.45593999997E+02  0.45594000000E+02  0.51100000000E-03 0.  1.
         23    2    1    2    0    0  0.00000000000E+00  0.00000000000E+00  0.00000000000E+00  0.91188000000E+02  0.91188000000E+02 0.  0.
    9900012    2    3    3    0    0 -0.14268013602E+02  0.42117835800E+02 -0.71850709820E+01  0.46142317081E+02  0.99999937978E+01 0.  0.
         12    1    3    3    0    0  0.14268013602E+02 -0.42117835800E+02  0.71850709820E+01  0.45045682919E+02  0.00000000000E+00 0. -1.
         11    1    4    4    0    0  0.35959674142E+00  0.76025129020E+00  0.46129405027E+00  0.95921024944E+00  0.51100000000E-03 0. -1.
        -11    1    4    4    0    0 -0.44766180123E+00  0.65795451822E+01 -0.33011681536E+01  0.73748577838E+01  0.51100000000E-03 0.  1.
        -12    1    4    4    0    0 -0.14179948542E+02  0.34778039328E+02 -0.43451968787E+01  0.37808249048E+02  0.00000000000E+00 0.  1.
</event>
<event>
 8    1  0.9117959E-009  0.9118800E+02  0.7816164E-02  0.1184000E+00
        -11   -1    0    0    0    0  0.00000000000E+00  0.00000000000E+00  0.45593999997E+02  0.45594000000E+02  0.51100000000E-03 0. -1.
         11   -1    0    0    0    0 -0.00000000000E+00 -0.00000000000E+00 -0.45593999997E+02  0.45594000000E+02  0.51100000000E-03 0.  1.
         23    2    1    2    0    0  0.71054273576E-14  0.88817841970E-15  0.71054273576E-14  0.91188000000E+02  0.91188000000E+02 0.  0.
    9900012    2    3    3    0    0 -0.28488110370E+02 -0.76733646331E+01 -0.34039102501E+02  0.46142318117E+02  0.10000003244E+02 0.  0.
         12    1    3    3    0    0  0.28488110370E+02  0.76733646331E+01  0.34039102501E+02  0.45045681883E+02  0.00000000000E+00 0. -1.
         11    1    4    4    0    0 -0.63001281269E+01 -0.49299622056E+01 -0.80168047963E+01  0.11325427196E+02  0.51100000000E-03 0. -1.
        -11    1    4    4    0    0 -0.94790077987E+01 -0.38738573513E+01 -0.97555740268E+01  0.14143181554E+02  0.51100000000E-03 0.  1.
         12    1    4    4    0    0 -0.12708974444E+02  0.11304549238E+01 -0.16266723678E+02  0.20673709367E+02  0.00000000000E+00 0. -1.
</event>
<event>
 8    1  0.9301049E-009  0.9118800E+02  0.7816164E-02  0.1184000E+00
        -11   -1    0    0    0    0  0.00000000000E+00  0.00000000000E+00  0.45593999997E+02  0.45594000000E+02  0.51100000000E-03 0. -1.
         11   -1    0    0    0    0 -0.00000000000E+00 -0.00000000000E+00 -0.45593999997E+02  0.45594000000E+02  0.51100000000E-03 0.  1.
         23    2    1    2    0    0 -0.35527136788E-14 -0.17763568394E-14  0.35527136788E-14  0.91188000000E+02  0.91188000000E+02 0.  0.
    9900012    2    3    3    0    0 -0.31047573381E+02  0.88043412294E+01  0.31426824032E+02  0.46142317564E+02  0.99999982042E+01 0.  0.
        -12    1    3    3    0    0  0.31047573381E+02 -0.88043412294E+01 -0.31426824032E+02  0.45045682436E+02  0.00000000000E+00 0.  1.
         11    1    4    4    0    0 -0.24045746637E+01 -0.90496730254E+00  0.14111201670E+01  0.29312464105E+01  0.51100000000E-03 0.  1.
        -11    1    4    4    0    0 -0.51841254977E+01  0.13348906894E+01  0.19781758349E+01  0.57070369040E+01  0.51100000000E-03 0. -1.
         12    1    4    4    0    0 -0.23458873220E+02  0.83744178425E+01  0.28037528030E+02  0.37504034250E+02  0.00000000000E+00 0. -1.
</event>
<event>
 8    1  0.9117959E-009  0.9118800E+02  0.7816164E-02  0.1184000E+00
        -11   -1    0    0    0    0  0.00000000000E+00  0.00000000000E+00  0.45593999997E+02  0.45594000000E+02  0.51100000000E-03 0. -1.
         11   -1    0    0    0    0 -0.00000000000E+00 -0.00000000000E+00 -0.45593999997E+02  0.45594000000E+02  0.51100000000E-03 0.  1.
         23    2    1    2    0    0  0.00000000000E+00  0.00000000000E+00  0.00000000000E+00  0.91188000000E+02  0.91188000000E+02 0.  0.
    9900012    2    3    3    0    0  0.23535488420E+02 -0.13597593426E+01 -0.38384180502E+02  0.46142317927E+02  0.10000001511E+02 0.  0.
         12    1    3    3    0    0 -0.23535488420E+02  0.13597593426E+01  0.38384180502E+02  0.45045682073E+02  0.00000000000E+00 0. -1.
         11    1    4    4    0    0 -0.20054947909E+00  0.13308381128E+00 -0.34391731626E+00  0.41977467281E+00  0.51100000000E-03 0. -1.
        -11    1    4    4    0    0  0.21770963625E+02 -0.98541200093E+00 -0.28012664218E+02  0.35491622263E+02  0.51100000000E-03 0.  1.
        -12    1    4    4    0    0  0.19650742742E+01 -0.50743115298E+00 -0.10027598968E+02  0.10230920991E+02  0.00000000000E+00 0.  1.
</event>
<event>
 8    1  0.9117959E-009  0.9118800E+02  0.7816164E-02  0.1184000E+00
        -11   -1    0    0    0    0  0.00000000000E+00  0.00000000000E+00  0.45593999997E+02  0.45594000000E+02  0.51100000000E-03 0. -1.
         11   -1    0    0    0    0 -0.00000000000E+00 -0.00000000000E+00 -0.45593999997E+02  0.45594000000E+02  0.51100000000E-03 0.  1.
         23    2    1    2    0    0 -0.71054273576E-14  0.00000000000E+00  0.35527136788E-14  0.91188000000E+02  0.91188000000E+02 0.  0.
    9900012    2    3    3    0    0  0.33617508686E+02 -0.10375672201E+02 -0.28130429995E+02  0.46142328115E+02  0.10000094414E+02 0.  0.
         12    1    3    3    0    0 -0.33617508686E+02  0.10375672201E+02  0.28130429995E+02  0.45045671885E+02  0.00000000000E+00 0. -1.
         11    1    4    4    0    0  0.71829860252E+01 -0.54277741453E+01 -0.43870566494E+01  0.10015102931E+02  0.51100000000E-03 0. -1.
        -11    1    4    4    0    0  0.56427060475E+00 -0.71395831038E+00 -0.14661629757E+01  0.17256221825E+01  0.51100000000E-03 0.  1.
        -12    1    4    4    0    0  0.25870252056E+02 -0.42339397457E+01 -0.22277210370E+02  0.34401603001E+02  0.00000000000E+00 0.  1.
</event>
<event>
 8    1  0.9117959E-009  0.9118800E+02  0.7816164E-02  0.1184000E+00
        -11   -1    0    0    0    0  0.00000000000E+00  0.00000000000E+00  0.45593999997E+02  0.45594000000E+02  0.51100000000E-03 0. -1.
         11   -1    0    0    0    0 -0.00000000000E+00 -0.00000000000E+00 -0.45593999997E+02  0.45594000000E+02  0.51100000000E-03 0.  1.
         23    2    1    2    0    0 -0.35527136788E-14  0.17763568394E-14  0.71054273576E-14  0.91188000000E+02  0.91188000000E+02 0.  0.
    9900012    2    3    3    0    0 -0.16417988051E+02  0.13985863607E+02  0.39546919448E+02  0.46142317074E+02  0.99999937305E+01 0.  0.
        -12    1    3    3    0    0  0.16417988051E+02 -0.13985863607E+02 -0.39546919448E+02  0.45045682926E+02  0.00000000000E+00 0.  1.
         11    1    4    4    0    0 -0.46972519166E+00  0.92957684058E+00 -0.37765105499E+00  0.11078697751E+01  0.51100000000E-03 0. -1.
        -11    1    4    4    0    0 -0.47232753494E+01  0.34669348431E+01  0.86128093808E+01  0.10416787073E+02  0.51100000000E-03 0.  1.
         12    1    4    4    0    0 -0.11224987510E+02  0.95893519229E+01  0.31311761122E+02  0.34617660225E+02  0.00000000000E+00 0. -1.
</event>
<event>
 8    1  0.9117959E-009  0.9118800E+02  0.7816164E-02  0.1184000E+00
        -11   -1    0    0    0    0  0.00000000000E+00  0.00000000000E+00  0.45593999997E+02  0.45594000000E+02  0.51100000000E-03 0. -1.
         11   -1    0    0    0    0 -0.00000000000E+00 -0.00000000000E+00 -0.45593999997E+02  0.45594000000E+02  0.51100000000E-03 0.  1.
         23    2    1    2    0    0  0.00000000000E+00 -0.17763568394E-14  0.00000000000E+00  0.91188000000E+02  0.91188000000E+02 0.  0.
    9900012    2    3    3    0    0  0.10650660515E+02  0.14816969045E+02  0.41184151997E+02  0.46142317445E+02  0.99999971165E+01 0.  0.
        -12    1    3    3    0    0 -0.10650660515E+02 -0.14816969045E+02 -0.41184151997E+02  0.45045682555E+02  0.00000000000E+00 0.  1.
         11    1    4    4    0    0  0.47083129846E+01  0.96448234611E+01  0.29377367380E+02  0.31276517472E+02  0.51100000000E-03 0. -1.
        -11    1    4    4    0    0  0.62157546660E+01  0.38292061446E+01  0.11194628075E+02  0.13364809156E+02  0.51100000000E-03 0.  1.
         12    1    4    4    0    0 -0.27340713529E+00  0.13429394397E+01  0.61215654253E+00  0.15009908171E+01  0.00000000000E+00 0. -1.
</event>
<event>
 8    1  0.9117959E-009  0.9118800E+02  0.7816164E-02  0.1184000E+00
        -11   -1    0    0    0    0  0.00000000000E+00  0.00000000000E+00  0.45593999997E+02  0.45594000000E+02  0.51100000000E-03 0. -1.
         11   -1    0    0    0    0 -0.00000000000E+00 -0.00000000000E+00 -0.45593999997E+02  0.45594000000E+02  0.51100000000E-03 0.  1.
         23    2    1    2    0    0  0.00000000000E+00  0.00000000000E+00  0.00000000000E+00  0.91188000000E+02  0.91188000000E+02 0.  0.
    9900012    2    3    3    0    0 -0.25417915071E+02  0.25066346835E+02 -0.27472177368E+02  0.46142326739E+02  0.10000081868E+02 0.  0.
         12    1    3    3    0    0  0.25417915071E+02 -0.25066346835E+02  0.27472177368E+02  0.45045673261E+02  0.00000000000E+00 0. -1.
         11    1    4    4    0    0 -0.10788896644E+02  0.10101915079E+02 -0.10868967861E+02  0.18346210553E+02  0.51100000000E-03 0. -1.
        -11    1    4    4    0    0 -0.79663876381E+01  0.11975528900E+02 -0.13920976851E+02  0.20016748516E+02  0.51100000000E-03 0.  1.
         12    1    4    4    0    0 -0.66626307888E+01  0.29889028572E+01 -0.26822326564E+01  0.77793676697E+01  0.00000000000E+00 0. -1.
</event>
<event>
 8    1  0.9117959E-009  0.9118800E+02  0.7816164E-02  0.1184000E+00
        -11   -1    0    0    0    0  0.00000000000E+00  0.00000000000E+00  0.45593999997E+02  0.45594000000E+02  0.51100000000E-03 0. -1.
         11   -1    0    0    0    0 -0.00000000000E+00 -0.00000000000E+00 -0.45593999997E+02  0.45594000000E+02  0.51100000000E-03 0.  1.
         23    2    1    2    0    0 -0.71054273576E-14  0.00000000000E+00  0.35527136788E-14  0.91188000000E+02  0.91188000000E+02 0.  0.
    9900012    2    3    3    0    0  0.40522739717E+02 -0.12927774910E+02 -0.14828811612E+02  0.46142318163E+02  0.10000003669E+02 0.  0.
         12    1    3    3    0    0 -0.40522739717E+02  0.12927774910E+02  0.14828811612E+02  0.45045681837E+02  0.00000000000E+00 0. -1.
         11    1    4    4    0    0  0.13144561722E+02 -0.78080734003E+01 -0.65200417877E+01  0.16620964420E+02  0.51100000000E-03 0. -1.
        -11    1    4    4    0    0  0.21133873257E+02 -0.54665791506E+01 -0.80356356795E+01  0.23261460133E+02  0.51100000000E-03 0.  1.
         12    1    4    4    0    0  0.62443047375E+01  0.34687764056E+00 -0.27313414478E+00  0.62598936103E+01  0.00000000000E+00 0. -1.
</event>
<event>
 8    1  0.9117959E-009  0.9118800E+02  0.7816164E-02  0.1184000E+00
        -11   -1    0    0    0    0  0.00000000000E+00  0.00000000000E+00  0.45593999997E+02  0.45594000000E+02  0.51100000000E-03 0. -1.
         11   -1    0    0    0    0 -0.00000000000E+00 -0.00000000000E+00 -0.45593999997E+02  0.45594000000E+02  0.51100000000E-03 0.  1.
         23    2    1    2    0    0  0.44408920985E-15 -0.35527136788E-14  0.00000000000E+00  0.91188000000E+02  0.91188000000E+02 0.  0.
    9900012    2    3    3    0    0 -0.37231481557E+01 -0.16284028231E+02 -0.41833982437E+02  0.46142317696E+02  0.99999994103E+01 0.  0.
         12    1    3    3    0    0  0.37231481557E+01  0.16284028231E+02  0.41833982437E+02  0.45045682304E+02  0.00000000000E+00 0. -1.
         11    1    4    4    0    0  0.83908561822E+00 -0.11184192747E+02 -0.27039861616E+02  0.29273611812E+02  0.51100000000E-03 0. -1.
        -11    1    4    4    0    0 -0.51829309260E+00 -0.11051645092E+01 -0.76125076905E+01  0.77097529093E+01  0.51100000000E-03 0.  1.
         12    1    4    4    0    0 -0.40439406813E+01 -0.39946709747E+01 -0.71816131312E+01  0.91589529749E+01  0.00000000000E+00 0. -1.
</event>
<event>
 8    1  0.9117959E-009  0.9118800E+02  0.7816164E-02  0.1184000E+00
        -11   -1    0    0    0    0  0.00000000000E+00  0.00000000000E+00  0.45593999997E+02  0.45594000000E+02  0.51100000000E-03 0. -1.
         11   -1    0    0    0    0 -0.00000000000E+00 -0.00000000000E+00 -0.45593999997E+02  0.45594000000E+02  0.51100000000E-03 0.  1.
         23    2    1    2    0    0  0.00000000000E+00  0.00000000000E+00  0.00000000000E+00  0.91188000000E+02  0.91188000000E+02 0.  0.
    9900012    2    3    3    0    0 -0.45547491381E+01  0.16281349752E+02  0.41752669937E+02  0.46142317229E+02  0.99999951468E+01 0.  0.
        -12    1    3    3    0    0  0.45547491381E+01 -0.16281349752E+02 -0.41752669937E+02  0.45045682771E+02  0.00000000000E+00 0.  1.
         11    1    4    4    0    0 -0.43329248854E+01  0.75344701884E+01  0.24305894063E+02  0.25813154893E+02  0.51100000000E-03 0. -1.
        -11    1    4    4    0    0  0.13263766735E+01  0.19801942233E+01  0.94216461339E+01  0.97184289047E+01  0.51100000000E-03 0.  1.
         12    1    4    4    0    0 -0.15482009262E+01  0.67666853398E+01  0.80251297402E+01  0.10610733431E+02  0.00000000000E+00 0. -1.
</event>
<event>
 8    1  0.9117959E-009  0.9118800E+02  0.7816164E-02  0.1184000E+00
        -11   -1    0    0    0    0  0.00000000000E+00  0.00000000000E+00  0.45593999997E+02  0.45594000000E+02  0.51100000000E-03 0. -1.
         11   -1    0    0    0    0 -0.00000000000E+00 -0.00000000000E+00 -0.45593999997E+02  0.45594000000E+02  0.51100000000E-03 0.  1.
         23    2    1    2    0    0 -0.44408920985E-15 -0.88817841970E-15  0.00000000000E+00  0.91188000000E+02  0.91188000000E+02 0.  0.
    9900012    2    3    3    0    0 -0.37190975130E+01  0.75523331348E+01  0.44252051852E+02  0.46142317463E+02  0.99999972823E+01 0.  0.
        -12    1    3    3    0    0  0.37190975130E+01 -0.75523331348E+01 -0.44252051852E+02  0.45045682537E+02  0.00000000000E+00 0.  1.
         11    1    4    4    0    0 -0.32612957820E+01  0.69603201924E-01  0.18429381709E+02  0.18715849038E+02  0.51100000000E-03 0. -1.
        -11    1    4    4    0    0 -0.14396237600E+01  0.66143768892E+01  0.14208979333E+02  0.15739046736E+02  0.51100000000E-03 0.  1.
        -12    1    4    4    0    0  0.98182202892E+00  0.86835304360E+00  0.11613690811E+02  0.11687421690E+02  0.00000000000E+00 0.  1.
</event>
<event>
 8    1  0.9117959E-009  0.9118800E+02  0.7816164E-02  0.1184000E+00
        -11   -1    0    0    0    0  0.00000000000E+00  0.00000000000E+00  0.45593999997E+02  0.45594000000E+02  0.51100000000E-03 0. -1.
         11   -1    0    0    0    0 -0.00000000000E+00 -0.00000000000E+00 -0.45593999997E+02  0.45594000000E+02  0.51100000000E-03 0.  1.
         23    2    1    2    0    0  0.44408920985E-15  0.00000000000E+00 -0.71054273576E-14  0.91188000000E+02  0.91188000000E+02 0.  0.
    9900012    2    3    3    0    0 -0.17011067841E+01 -0.20769275065E+02  0.39935660221E+02  0.46142317540E+02  0.99999979865E+01 0.  0.
        -12    1    3    3    0    0  0.17011067841E+01  0.20769275065E+02 -0.39935660221E+02  0.45045682460E+02  0.00000000000E+00 0.  1.
         11    1    4    4    0    0 -0.62819327819E+00 -0.60748372794E+01  0.10210596274E+02  0.11897669994E+02  0.51100000000E-03 0. -1.
        -11    1    4    4    0    0 -0.36043373008E+01 -0.46677470454E+01  0.62520860750E+01  0.85946314877E+01  0.51100000000E-03 0.  1.
        -12    1    4    4    0    0  0.25314237949E+01 -0.10026690740E+02  0.23472977872E+02  0.25650016058E+02  0.00000000000E+00 0.  1.
</event>
