<event>
 7    1  0.4047706E-008  0.4614232E+02  0.7816164E-02  0.1320468E+00
        -11   -1    0    0    0    0  0.00000000000E+00  0.00000000000E+00  0.45593999997E+02  0.45594000000E+02  0.51100000000E-03 0. -1.
         11   -1    0    0    0    0 -0.00000000000E+00 -0.00000000000E+00 -0.45593999997E+02  0.45594000000E+02  0.51100000000E-03 0.  1.
    9900012    2    1    2    0    0  0.86426130815E+01 -0.38458914846E+02  0.21802078161E+02  0.46142317586E+02  0.99999984027E+01 0.  0.
        -12    1    1    2    0    0 -0.86426130815E+01  0.38458914846E+02 -0.21802078161E+02  0.45045682414E+02  0.00000000000E+00 0.  1.
         11    1    3    3    0    0  0.15360736842E+01 -0.31014942989E+01  0.29543712033E+01  0.45505053255E+01  0.51100000000E-03 0. -1.
        -11    1    3    3    0    0 -0.18505838477E+01 -0.44886045730E+01  0.15845682968E+01  0.51071605163E+01  0.51100000000E-03 0.  1.
         12    1    3    3    0    0  0.89571232450E+01 -0.30868815974E+02  0.17263138661E+02  0.36484651744E+02  0.00000000000E+00 0. -1.
</event>
<event>
 7    1  0.4047706E-008  0.4614232E+02  0.7816164E-02  0.1320468E+00
        -11   -1    0    0    0    0  0.00000000000E+00  0.00000000000E+00  0.45593999997E+02  0.45594000000E+02  0.51100000000E-03 0. -1.
         11   -1    0    0    0    0 -0.00000000000E+00 -0.00000000000E+00 -0.45593999997E+02  0.45594000000E+02  0.51100000000E-03 0.  1.
    9900012    2    1    2    0    0 -0.22283456516E+00 -0.30949880535E+02  0.32728714859E+02  0.46142317225E+02  0.99999951128E+01 0.  0.
        -12    1    1    2    0    0  0.22283456516E+00  0.30949880535E+02 -0.32728714859E+02  0.45045682775E+02  0.00000000000E+00 0.  1.
         11    1    3    3    0    0  0.16395591801E+00 -0.13653510207E+01  0.18487445333E+01  0.23041097116E+01  0.51100000000E-03 0. -1.
        -11    1    3    3    0    0 -0.17495855768E+01 -0.24128254550E+01  0.44058532039E+00  0.30127880862E+01  0.51100000000E-03 0.  1.
        -12    1    3    3    0    0  0.13627950936E+01 -0.27171704059E+02  0.30439385005E+02  0.40825419427E+02  0.00000000000E+00 0.  1.
</event>
<event>
 7    1  0.4047706E-008  0.4614232E+02  0.7816164E-02  0.1320468E+00
        -11   -1    0    0    0    0  0.00000000000E+00  0.00000000000E+00  0.45593999997E+02  0.45594000000E+02  0.51100000000E-03 0.  1.
         11   -1    0    0    0    0 -0.00000000000E+00 -0.00000000000E+00 -0.45593999997E+02  0.45594000000E+02  0.51100000000E-03 0. -1.
    9900012    2    1    2    0    0  0.22488442094E+02 -0.14217268146E+02 -0.36349040328E+02  0.46142317919E+02  0.10000001442E+02 0.  0.
        -12    1    1    2    0    0 -0.22488442094E+02  0.14217268146E+02  0.36349040328E+02  0.45045682081E+02  0.00000000000E+00 0.  1.
         11    1    3    3    0    0  0.12020485821E+02 -0.10121172302E+02 -0.23119849254E+02  0.27954563812E+02  0.51100000000E-03 0. -1.
        -11    1    3    3    0    0  0.42307399739E+00 -0.20919010906E+01 -0.14618667077E+01  0.25869086401E+01  0.51100000000E-03 0.  1.
        -12    1    3    3    0    0  0.10044882276E+02 -0.20041947536E+01 -0.11767324366E+02  0.15600845467E+02  0.00000000000E+00 0.  1.
</event>
<event>
 7    1  0.4047706E-008  0.4614232E+02  0.7816164E-02  0.1320468E+00
        -11   -1    0    0    0    0  0.00000000000E+00  0.00000000000E+00  0.45593999997E+02  0.45594000000E+02  0.51100000000E-03 0.  1.
         11   -1    0    0    0    0 -0.00000000000E+00 -0.00000000000E+00 -0.45593999997E+02  0.45594000000E+02  0.51100000000E-03 0. -1.
    9900012    2    1    2    0    0  0.35780381264E+02 -0.60584040683E+01 -0.26686576389E+02  0.46142319823E+02  0.10000018800E+02 0.  0.
        -12    1    1    2    0    0 -0.35780381264E+02  0.60584040683E+01  0.26686576389E+02  0.45045680177E+02  0.00000000000E+00 0.  1.
         11    1    3    3    0    0  0.29420376086E+02 -0.57324000238E+01 -0.19564370176E+02  0.35793624009E+02  0.51100000000E-03 0. -1.
        -11    1    3    3    0    0  0.51147395477E+01  0.55308927401E+00 -0.71687481429E+01  0.88236850908E+01  0.51100000000E-03 0.  1.
        -12    1    3    3    0    0  0.12452656302E+01 -0.87909331853E+00  0.46541929689E-01  0.15250107225E+01  0.00000000000E+00 0.  1.
</event>
<event>
 7    1  0.4047706E-008  0.4614232E+02  0.7816164E-02  0.1320468E+00
        -11   -1    0    0    0    0  0.00000000000E+00  0.00000000000E+00  0.45593999997E+02  0.45594000000E+02  0.51100000000E-03 0. -1.
         11   -1    0    0    0    0 -0.00000000000E+00 -0.00000000000E+00 -0.45593999997E+02  0.45594000000E+02  0.51100000000E-03 0.  1.
    9900012    2    1    2    0    0  0.39389943874E+01 -0.42724685871E+02  0.13718562448E+02  0.46142318573E+02  0.10000007407E+02 0.  0.
        -12    1    1    2    0    0 -0.39389943874E+01  0.42724685871E+02 -0.13718562448E+02  0.45045681427E+02  0.00000000000E+00 0.  1.
         11    1    3    3    0    0 -0.74513804408E+00 -0.16764719256E+02  0.68085342542E+01  0.18109864201E+02  0.51100000000E-03 0. -1.
        -11    1    3    3    0    0  0.11141275148E+01 -0.43989631108E+01  0.38768198945E+01  0.59684076038E+01  0.51100000000E-03 0.  1.
         12    1    3    3    0    0  0.35700049167E+01 -0.21561003504E+02  0.30332082995E+01  0.22064046769E+02  0.00000000000E+00 0. -1.
</event>
<event>
 7    1  0.4047706E-008  0.4614232E+02  0.7816164E-02  0.1320468E+00
        -11   -1    0    0    0    0  0.00000000000E+00  0.00000000000E+00  0.45593999997E+02  0.45594000000E+02  0.51100000000E-03 0. -1.
         11   -1    0    0    0    0 -0.00000000000E+00 -0.00000000000E+00 -0.45593999997E+02  0.45594000000E+02  0.51100000000E-03 0.  1.
    9900012    2    1    2    0    0 -0.35819996895E+02 -0.44495536194E+01  0.26948890288E+02  0.46142318823E+02  0.10000009686E+02 0.  0.
        -12    1    1    2    0    0  0.35819996895E+02  0.44495536194E+01 -0.26948890288E+02  0.45045681177E+02  0.00000000000E+00 0.  1.
         11    1    3    3    0    0 -0.18110660031E+02 -0.11080293828E+01  0.16484842331E+02  0.24514766220E+02  0.51100000000E-03 0. -1.
        -11    1    3    3    0    0 -0.77089814187E+01  0.12702831903E+01  0.32465627786E+01  0.84606255108E+01  0.51100000000E-03 0.  1.
         12    1    3    3    0    0 -0.10000355445E+02 -0.46118074269E+01  0.72174851775E+01  0.13166927093E+02  0.00000000000E+00 0. -1.
</event>
<event>
 7    1  0.4047706E-008  0.4614232E+02  0.7816164E-02  0.1320468E+00
        -11   -1    0    0    0    0  0.00000000000E+00  0.00000000000E+00  0.45593999997E+02  0.45594000000E+02  0.51100000000E-03 0.  1.
         11   -1    0    0    0    0 -0.00000000000E+00 -0.00000000000E+00 -0.45593999997E+02  0.45594000000E+02  0.51100000000E-03 0. -1.
    9900012    2    1    2    0    0  0.13097171841E+02 -0.58552300836E+01 -0.42700045258E+02  0.46142317692E+02  0.99999993695E+01 0.  0.
        -12    1    1    2    0    0 -0.13097171841E+02  0.58552300836E+01  0.42700045258E+02  0.45045682308E+02  0.00000000000E+00 0.  1.
         11    1    3    3    0    0  0.85743309598E+01 -0.14768263788E+01 -0.22792062109E+02  0.24396275597E+02  0.51100000000E-03 0. -1.
        -11    1    3    3    0    0 -0.35266922357E+00 -0.23568783356E+01 -0.12027761510E+02  0.12261578131E+02  0.51100000000E-03 0.  1.
         12    1    3    3    0    0  0.48755101043E+01 -0.20215253692E+01 -0.78802216391E+01  0.94844639636E+01  0.00000000000E+00 0. -1.
</event>
<event>
 7    1  0.4047706E-008  0.4614232E+02  0.7816164E-02  0.1320468E+00
        -11   -1    0    0    0    0  0.00000000000E+00  0.00000000000E+00  0.45593999997E+02  0.45594000000E+02  0.51100000000E-03 0.  1.
         11   -1    0    0    0    0 -0.00000000000E+00 -0.00000000000E+00 -0.45593999997E+02  0.45594000000E+02  0.51100000000E-03 0. -1.
    9900012    2    1    2    0    0 -0.13419225317E+02 -0.31451926759E+02 -0.29322588165E+02  0.46142317835E+02  0.10000000675E+02 0.  0.
        -12    1    1    2    0    0  0.13419225317E+02  0.31451926759E+02  0.29322588165E+02  0.45045682165E+02  0.00000000000E+00 0.  1.
         11    1    3    3    0    0 -0.79357200415E+01 -0.22147216425E+02 -0.21368247283E+02  0.31781706061E+02  0.51100000000E-03 0. -1.
        -11    1    3    3    0    0 -0.24601508138E-01 -0.20531670290E+01 -0.39254264378E+01  0.44300195330E+01  0.51100000000E-03 0.  1.
         12    1    3    3    0    0 -0.54589037678E+01 -0.72515433054E+01 -0.40289144444E+01  0.99305922410E+01  0.00000000000E+00 0. -1.
</event>
<event>
 7    1  0.4047706E-008  0.4614232E+02  0.7816164E-02  0.1320468E+00
        -11   -1    0    0    0    0  0.00000000000E+00  0.00000000000E+00  0.45593999997E+02  0.45594000000E+02  0.51100000000E-03 0.  1.
         11   -1    0    0    0    0 -0.00000000000E+00 -0.00000000000E+00 -0.45593999997E+02  0.45594000000E+02  0.51100000000E-03 0. -1.
    9900012    2    1    2    0    0 -0.28451290195E+02 -0.65743669719E+01 -0.34298910523E+02  0.46142317877E+02  0.10000001054E+02 0.  0.
        -12    1    1    2    0    0  0.28451290195E+02  0.65743669719E+01  0.34298910523E+02  0.45045682123E+02  0.00000000000E+00 0.  1.
         11    1    3    3    0    0 -0.94502488078E+01 -0.40321801557E+01 -0.14666527447E+02  0.17907336680E+02  0.51100000000E-03 0. -1.
        -11    1    3    3    0    0 -0.16861442266E+02 -0.29685482869E+01 -0.19638083072E+02  0.26053307299E+02  0.51100000000E-03 0.  1.
        -12    1    3    3    0    0 -0.21395991221E+01  0.42636147072E+00  0.56999963099E-02  0.21816738979E+01  0.00000000000E+00 0.  1.
</event>
<event>
 7    1  0.4047706E-008  0.4614232E+02  0.7816164E-02  0.1320468E+00
        -11   -1    0    0    0    0  0.00000000000E+00  0.00000000000E+00  0.45593999997E+02  0.45594000000E+02  0.51100000000E-03 0. -1.
         11   -1    0    0    0    0 -0.00000000000E+00 -0.00000000000E+00 -0.45593999997E+02  0.45594000000E+02  0.51100000000E-03 0.  1.
    9900012    2    1    2    0    0 -0.12445589659E+02  0.16561501182E+02  0.39999217798E+02  0.46142318211E+02  0.10000004103E+02 0.  0.
        -12    1    1    2    0    0  0.12445589659E+02 -0.16561501182E+02 -0.39999217798E+02  0.45045681789E+02  0.00000000000E+00 0.  1.
         11    1    3    3    0    0 -0.52788593295E+01  0.97787089674E+01  0.17272670444E+02  0.20538613619E+02  0.51100000000E-03 0. -1.
        -11    1    3    3    0    0 -0.42057674438E+01  0.36871184934E+01  0.19370604989E+02  0.20161935931E+02  0.51100000000E-03 0.  1.
        -12    1    3    3    0    0 -0.29609628859E+01  0.30956737208E+01  0.33559423658E+01  0.54417686610E+01  0.00000000000E+00 0.  1.
</event>
<event>
 7    1  0.4047706E-008  0.4614232E+02  0.7816164E-02  0.1320468E+00
        -11   -1    0    0    0    0  0.00000000000E+00  0.00000000000E+00  0.45593999997E+02  0.45594000000E+02  0.51100000000E-03 0.  1.
         11   -1    0    0    0    0 -0.00000000000E+00 -0.00000000000E+00 -0.45593999997E+02  0.45594000000E+02  0.51100000000E-03 0. -1.
    9900012    2    1    2    0    0 -0.32605712526E+01  0.19012805586E+02 -0.40706207737E+02  0.46142318193E+02  0.10000003938E+02 0.  0.
        -12    1    1    2    0    0  0.32605712526E+01 -0.19012805586E+02  0.40706207737E+02  0.45045681807E+02  0.00000000000E+00 0.  1.
         11    1    3    3    0    0  0.21550085218E+00  0.25551614156E+01 -0.10520541459E+02  0.10828530986E+02  0.51100000000E-03 0. -1.
        -11    1    3    3    0    0 -0.24543092520E+01  0.72184552721E+00 -0.42501138315E+01  0.49606615196E+01  0.51100000000E-03 0.  1.
         12    1    3    3    0    0 -0.10217628527E+01  0.15735798643E+02 -0.25935552447E+02  0.30353125687E+02  0.00000000000E+00 0. -1.
</event>
<event>
 7    1  0.4047706E-008  0.4614232E+02  0.7816164E-02  0.1320468E+00
        -11   -1    0    0    0    0  0.00000000000E+00  0.00000000000E+00  0.45593999997E+02  0.45594000000E+02  0.51100000000E-03 0.  1.
         11   -1    0    0    0    0 -0.00000000000E+00 -0.00000000000E+00 -0.45593999997E+02  0.45594000000E+02  0.51100000000E-03 0. -1.
    9900012    2    1    2    0    0 -0.23986883928E+02 -0.59850265205E+01 -0.37655311766E+02  0.46142315998E+02  0.99999839211E+01 0.  0.
        -12    1    1    2    0    0  0.23986883928E+02  0.59850265205E+01  0.37655311766E+02  0.45045684002E+02  0.00000000000E+00 0.  1.
         11    1    3    3    0    0 -0.17396844606E+02 -0.22901571990E+01 -0.28210976015E+02  0.33222796243E+02  0.51100000000E-03 0. -1.
        -11    1    3    3    0    0  0.44164847000E+00 -0.12781117538E+01 -0.18473646574E+01  0.22894059196E+01  0.51100000000E-03 0.  1.
        -12    1    3    3    0    0 -0.70316877921E+01 -0.24167575677E+01 -0.75969710933E+01  0.10630113835E+02  0.00000000000E+00 0.  1.
</event>
<event>
 7    1  0.4047706E-008  0.4614232E+02  0.7816164E-02  0.1320468E+00
        -11   -1    0    0    0    0  0.00000000000E+00  0.00000000000E+00  0.45593999997E+02  0.45594000000E+02  0.51100000000E-03 0. -1.
         11   -1    0    0    0    0 -0.00000000000E+00 -0.00000000000E+00 -0.45593999997E+02  0.45594000000E+02  0.51100000000E-03 0.  1.
    9900012    2    1    2    0    0  0.36693964686E+02 -0.16306066093E+02  0.20415159992E+02  0.46142316596E+02  0.99999893791E+01 0.  0.
        -12    1    1    2    0    0 -0.36693964686E+02  0.16306066093E+02 -0.20415159992E+02  0.45045683404E+02  0.00000000000E+00 0.  1.
         11    1    3    3    0    0  0.14545114948E+01 -0.34200422134E+00 -0.13584546075E+00  0.15003415698E+01  0.51100000000E-03 0. -1.
        -11    1    3    3    0    0  0.89732639849E+01 -0.23526544835E+01  0.88733592161E+01  0.12837092884E+02  0.51100000000E-03 0.  1.
         12    1    3    3    0    0  0.26266189206E+02 -0.13611407389E+02  0.11677646237E+02  0.31804882143E+02  0.00000000000E+00 0. -1.
</event>
<event>
 7    1  0.4047706E-008  0.4614232E+02  0.7816164E-02  0.1320468E+00
        -11   -1    0    0    0    0  0.00000000000E+00  0.00000000000E+00  0.45593999997E+02  0.45594000000E+02  0.51100000000E-03 0. -1.
         11   -1    0    0    0    0 -0.00000000000E+00 -0.00000000000E+00 -0.45593999997E+02  0.45594000000E+02  0.51100000000E-03 0.  1.
    9900012    2    1    2    0    0 -0.24719537079E+02  0.37655614636E+02 -0.33535835668E+00  0.46142319938E+02  0.10000019848E+02 0.  0.
        -12    1    1    2    0    0  0.24719537079E+02 -0.37655614636E+02  0.33535835668E+00  0.45045680062E+02  0.00000000000E+00 0.  1.
         11    1    3    3    0    0 -0.20840793596E+02  0.26832005423E+02  0.22753788991E+01  0.34051028503E+02  0.51100000000E-03 0. -1.
        -11    1    3    3    0    0  0.22099164483E+00  0.25694334514E+01 -0.78702143680E+00  0.26963361384E+01  0.51100000000E-03 0.  1.
         12    1    3    3    0    0 -0.40997351286E+01  0.82541757615E+01 -0.18237158189E+01  0.93949552961E+01  0.00000000000E+00 0. -1.
</event>
<event>
 7    1  0.4047706E-008  0.4614231E+02  0.7816164E-02  0.1320468E+00
        -11   -1    0    0    0    0  0.00000000000E+00  0.00000000000E+00  0.45593999997E+02  0.45594000000E+02  0.51100000000E-03 0.  1.
         11   -1    0    0    0    0 -0.00000000000E+00 -0.00000000000E+00 -0.45593999997E+02  0.45594000000E+02  0.51100000000E-03 0. -1.
    9900012    2    1    2    0    0 -0.41849193263E+02  0.10583949528E+02 -0.12873957699E+02  0.46142314843E+02  0.99999733948E+01 0.  0.
        -12    1    1    2    0    0  0.41849193263E+02 -0.10583949528E+02  0.12873957699E+02  0.45045685157E+02  0.00000000000E+00 0.  1.
         11    1    3    3    0    0 -0.28137910986E+02  0.10975569361E+02 -0.73063442150E+01  0.31073909047E+02  0.51100000000E-03 0. -1.
        -11    1    3    3    0    0 -0.30520238220E+01 -0.90011701516E+00 -0.38528088241E+00  0.32052303616E+01  0.51100000000E-03 0.  1.
         12    1    3    3    0    0 -0.10659258455E+02  0.50849718282E+00 -0.51823326012E+01  0.11863175435E+02  0.00000000000E+00 0. -1.
</event>
<event>
 7    1  0.4047706E-008  0.4614232E+02  0.7816164E-02  0.1320468E+00
        -11   -1    0    0    0    0  0.00000000000E+00  0.00000000000E+00  0.45593999997E+02  0.45594000000E+02  0.51100000000E-03 0.  1.
         11   -1    0    0    0    0 -0.00000000000E+00 -0.00000000000E+00 -0.45593999997E+02  0.45594000000E+02  0.51100000000E-03 0. -1.
    9900012    2    1    2    0    0  0.10632237236E-01 -0.18047415150E+02 -0.41272317920E+02  0.46142317264E+02  0.99999954687E+01 0.  0.
        -12    1    1    2    0    0 -0.10632237236E-01  0.18047415150E+02  0.41272317920E+02  0.45045682736E+02  0.00000000000E+00 0.  1.
         11    1    3    3    0    0  0.27892518395E+00 -0.10649890808E+02 -0.27146212534E+02  0.29161872859E+02  0.51100000000E-03 0. -1.
        -11    1    3    3    0    0  0.25197960786E-01 -0.51791312258E+01 -0.13773550233E+02  0.14715118806E+02  0.51100000000E-03 0.  1.
        -12    1    3    3    0    0 -0.29349090750E+00 -0.22183931165E+01 -0.35255515307E+00  0.22653255987E+01  0.00000000000E+00 0.  1.
</event>
<event>
 7    1  0.4047706E-008  0.4614231E+02  0.7816164E-02  0.1320468E+00
        -11   -1    0    0    0    0  0.00000000000E+00  0.00000000000E+00  0.45593999997E+02  0.45594000000E+02  0.51100000000E-03 0. -1.
         11   -1    0    0    0    0 -0.00000000000E+00 -0.00000000000E+00 -0.45593999997E+02  0.45594000000E+02  0.51100000000E-03 0.  1.
    9900012    2    1    2    0    0  0.11929283735E+02 -0.35637862818E+02  0.24834426088E+02  0.46142314349E+02  0.99999688830E+01 0.  0.
        -12    1    1    2    0    0 -0.11929283735E+02  0.35637862818E+02 -0.24834426088E+02  0.45045685651E+02  0.00000000000E+00 0.  1.
         11    1    3    3    0    0  0.51466808876E+01 -0.23448878372E+02  0.15587618751E+02  0.28623627996E+02  0.51100000000E-03 0. -1.
        -11    1    3    3    0    0  0.21013097498E+01 -0.39954351100E+01  0.60639696150E+01  0.75598103240E+01  0.51100000000E-03 0.  1.
        -12    1    3    3    0    0  0.46812930978E+01 -0.81935493357E+01  0.31828377218E+01  0.99588760284E+01  0.00000000000E+00 0.  1.
</event>
<event>
 7    1  0.4047706E-008  0.4614232E+02  0.7816164E-02  0.1320468E+00
        -11   -1    0    0    0    0  0.00000000000E+00  0.00000000000E+00  0.45593999997E+02  0.45594000000E+02  0.51100000000E-03 0. -1.
         11   -1    0    0    0    0 -0.00000000000E+00 -0.00000000000E+00 -0.45593999997E+02  0.45594000000E+02  0.51100000000E-03 0.  1.
    9900012    2    1    2    0    0  0.36835589720E+02 -0.20945068225E+02 -0.15282571437E+02  0.46142317158E+02  0.99999944967E+01 0.  0.
        -12    1    1    2    0    0 -0.36835589720E+02  0.20945068225E+02  0.15282571437E+02  0.45045682842E+02  0.00000000000E+00 0.  1.
         11    1    3    3    0    0  0.11040808025E+02 -0.73770014677E+01 -0.54784155168E+01  0.14364283112E+02  0.51100000000E-03 0. -1.
        -11    1    3    3    0    0  0.19540313085E+02 -0.75184287477E+01 -0.39922183462E+01  0.21314042645E+02  0.51100000000E-03 0.  1.
        -12    1    3    3    0    0  0.62544686099E+01 -0.60496380101E+01 -0.58119375745E+01  0.10463991400E+02  0.00000000000E+00 0.  1.
</event>
<event>
 7    1  0.4047706E-008  0.4614232E+02  0.7816164E-02  0.1320468E+00
        -11   -1    0    0    0    0  0.00000000000E+00  0.00000000000E+00  0.45593999997E+02  0.45594000000E+02  0.51100000000E-03 0.  1.
         11   -1    0    0    0    0 -0.00000000000E+00 -0.00000000000E+00 -0.45593999997E+02  0.45594000000E+02  0.51100000000E-03 0. -1.
    9900012    2    1    2    0    0  0.16190317561E+02  0.37546571804E+02 -0.18900849712E+02  0.46142317001E+02  0.99999930683E+01 0.  0.
        -12    1    1    2    0    0 -0.16190317561E+02 -0.37546571804E+02  0.18900849712E+02  0.45045682999E+02  0.00000000000E+00 0.  1.
         11    1    3    3    0    0  0.11592496989E+02  0.24103456177E+02 -0.12050377121E+02  0.29335544569E+02  0.51100000000E-03 0. -1.
        -11    1    3    3    0    0 -0.42413384157E+00  0.31753236170E+01 -0.38126695343E+01  0.49798613261E+01  0.51100000000E-03 0.  1.
        -12    1    3    3    0    0  0.50219544139E+01  0.10267792010E+02 -0.30378030575E+01  0.11826911106E+02  0.00000000000E+00 0.  1.
</event>
<event>
 7    1  0.4047706E-008  0.4614232E+02  0.7816164E-02  0.1320468E+00
        -11   -1    0    0    0    0  0.00000000000E+00  0.00000000000E+00  0.45593999997E+02  0.45594000000E+02  0.51100000000E-03 0.  1.
         11   -1    0    0    0    0 -0.00000000000E+00 -0.00000000000E+00 -0.45593999997E+02  0.45594000000E+02  0.51100000000E-03 0. -1.
    9900012    2    1    2    0    0 -0.12935164836E+02  0.41921407015E+02 -0.10217173351E+02  0.46142317779E+02  0.10000000165E+02 0.  0.
        -12    1    1    2    0    0  0.12935164836E+02 -0.41921407015E+02  0.10217173351E+02  0.45045682221E+02  0.00000000000E+00 0.  1.
         11    1    3    3    0    0 -0.30436128942E+00  0.52332353563E+01  0.47056750283E+00  0.52631570492E+01  0.51100000000E-03 0. -1.
        -11    1    3    3    0    0 -0.50297828984E+01  0.19551478366E+02 -0.88493380161E+01  0.22042454625E+02  0.51100000000E-03 0.  1.
         12    1    3    3    0    0 -0.76010206480E+01  0.17136693292E+02 -0.18384028382E+01  0.18836706105E+02  0.00000000000E+00 0. -1.
</event>
<event>
 7    1  0.4047706E-008  0.4614233E+02  0.7816164E-02  0.1320468E+00
        -11   -1    0    0    0    0  0.00000000000E+00  0.00000000000E+00  0.45593999997E+02  0.45594000000E+02  0.51100000000E-03 0. -1.
         11   -1    0    0    0    0 -0.00000000000E+00 -0.00000000000E+00 -0.45593999997E+02  0.45594000000E+02  0.51100000000E-03 0.  1.
    9900012    2    1    2    0    0  0.25195567795E+02 -0.37187923480E+02 -0.33695984789E+01  0.46142328919E+02  0.10000101743E+02 0.  0.
        -12    1    1    2    0    0 -0.25195567795E+02  0.37187923480E+02  0.33695984789E+01  0.45045671081E+02  0.00000000000E+00 0.  1.
         11    1    3    3    0    0  0.13422673132E+02 -0.20941936256E+02  0.21004492021E+01  0.24962867128E+02  0.51100000000E-03 0. -1.
        -11    1    3    3    0    0 -0.95775451905E-01 -0.11905470262E+01 -0.83103842838E+00  0.14550602357E+01  0.51100000000E-03 0.  1.
         12    1    3    3    0    0  0.11868670115E+02 -0.15055440198E+02 -0.46390092526E+01  0.19724401555E+02  0.00000000000E+00 0. -1.
</event>
<event>
 7    1  0.4047706E-008  0.4614232E+02  0.7816164E-02  0.1320468E+00
        -11   -1    0    0    0    0  0.00000000000E+00  0.00000000000E+00  0.45593999997E+02  0.45594000000E+02  0.51100000000E-03 0.  1.
         11   -1    0    0    0    0 -0.00000000000E+00 -0.00000000000E+00 -0.45593999997E+02  0.45594000000E+02  0.51100000000E-03 0. -1.
    9900012    2    1    2    0    0  0.16193424289E+02 -0.21661309108E+02 -0.36023245661E+02  0.46142317294E+02  0.99999957402E+01 0.  0.
        -12    1    1    2    0    0 -0.16193424289E+02  0.21661309108E+02  0.36023245661E+02  0.45045682706E+02  0.00000000000E+00 0.  1.
         11    1    3    3    0    0  0.68889330940E+01 -0.10515582837E+02 -0.11553870237E+02  0.17074155888E+02  0.51100000000E-03 0. -1.
        -11    1    3    3    0    0  0.32013612482E+00 -0.54636524618E+00  0.27429452533E+00  0.69010134647E+00  0.51100000000E-03 0.  1.
         12    1    3    3    0    0  0.89843550702E+01 -0.10599361025E+02 -0.24743669950E+02  0.28378060060E+02  0.00000000000E+00 0. -1.
</event>
<event>
 7    1  0.4047706E-008  0.4614232E+02  0.7816164E-02  0.1320468E+00
        -11   -1    0    0    0    0  0.00000000000E+00  0.00000000000E+00  0.45593999997E+02  0.45594000000E+02  0.51100000000E-03 0.  1.
         11   -1    0    0    0    0 -0.00000000000E+00 -0.00000000000E+00 -0.45593999997E+02  0.45594000000E+02  0.51100000000E-03 0. -1.
    9900012    2    1    2    0    0 -0.33072219011E+02 -0.24387501723E+01 -0.30485972496E+02  0.46142315504E+02  0.99999794140E+01 0.  0.
        -12    1    1    2    0    0  0.33072219011E+02  0.24387501723E+01  0.30485972496E+02  0.45045684496E+02  0.00000000000E+00 0.  1.
         11    1    3    3    0    0 -0.15309556022E+02 -0.40793411030E+01 -0.16704576285E+02  0.23023170906E+02  0.51100000000E-03 0. -1.
        -11    1    3    3    0    0 -0.22909543703E+01 -0.13123437254E+01 -0.95941367383E+00  0.28091267040E+01  0.51100000000E-03 0.  1.
         12    1    3    3    0    0 -0.15471708619E+02  0.29529346560E+01 -0.12821982536E+02  0.20310017894E+02  0.00000000000E+00 0. -1.
</event>
<event>
 7    1  0.4047706E-008  0.4614232E+02  0.7816164E-02  0.1320468E+00
        -11   -1    0    0    0    0  0.00000000000E+00  0.00000000000E+00  0.45593999997E+02  0.45594000000E+02  0.51100000000E-03 0. -1.
         11   -1    0    0    0    0 -0.00000000000E+00 -0.00000000000E+00 -0.45593999997E+02  0.45594000000E+02  0.51100000000E-03 0.  1.
    9900012    2    1    2    0    0  0.35504596494E+02  0.27256692108E+02  0.50606188543E+01  0.46142317631E+02  0.99999988127E+01 0.  0.
        -12    1    1    2    0    0 -0.35504596494E+02 -0.27256692108E+02 -0.50606188543E+01  0.45045682369E+02  0.00000000000E+00 0.  1.
         11    1    3    3    0    0  0.10468202585E+02  0.34678677793E+01  0.65243846874E+00  0.11046947475E+02  0.51100000000E-03 0. -1.
        -11    1    3    3    0    0  0.33459504509E+01  0.51060172433E+01  0.17188420226E+01  0.63420197626E+01  0.51100000000E-03 0.  1.
         12    1    3    3    0    0  0.21690443459E+02  0.18682807085E+02  0.26893383630E+01  0.28753350394E+02  0.00000000000E+00 0. -1.
</event>
<event>
 7    1  0.4047706E-008  0.4614232E+02  0.7816164E-02  0.1320468E+00
        -11   -1    0    0    0    0  0.00000000000E+00  0.00000000000E+00  0.45593999997E+02  0.45594000000E+02  0.51100000000E-03 0. -1.
         11   -1    0    0    0    0 -0.00000000000E+00 -0.00000000000E+00 -0.45593999997E+02  0.45594000000E+02  0.51100000000E-03 0.  1.
    9900012    2    1    2    0    0  0.44806483163E+02  0.45454316357E+01  0.91201890641E+00  0.46142315849E+02  0.99999825631E+01 0.  0.
        -12    1    1    2    0    0 -0.44806483163E+02 -0.45454316357E+01 -0.91201890641E+00  0.45045684151E+02  0.00000000000E+00 0.  1.
         11    1    3    3    0    0  0.10362202266E+02  0.13443817198E+01 -0.62456963141E+00  0.10467697239E+02  0.51100000000E-03 0. -1.
        -11    1    3    3    0    0  0.22625364858E+02  0.19040541558E+01 -0.30933699072E+01  0.22915093166E+02  0.51100000000E-03 0.  1.
        -12    1    3    3    0    0  0.11818916039E+02  0.12969957600E+01  0.46299584450E+01  0.12759525443E+02  0.00000000000E+00 0.  1.
</event>
<event>
 7    1  0.4047706E-008  0.4614232E+02  0.7816164E-02  0.1320468E+00
        -11   -1    0    0    0    0  0.00000000000E+00  0.00000000000E+00  0.45593999997E+02  0.45594000000E+02  0.51100000000E-03 0.  1.
         11   -1    0    0    0    0 -0.00000000000E+00 -0.00000000000E+00 -0.45593999997E+02  0.45594000000E+02  0.51100000000E-03 0. -1.
    9900012    2    1    2    0    0 -0.10149355297E+02 -0.18503021658E+02 -0.39796259139E+02  0.46142318022E+02  0.10000002381E+02 0.  0.
        -12    1    1    2    0    0  0.10149355297E+02  0.18503021658E+02  0.39796259139E+02  0.45045681978E+02  0.00000000000E+00 0.  1.
         11    1    3    3    0    0 -0.22837598347E+01 -0.37908989230E+01 -0.14908686966E+02  0.15551701545E+02  0.51100000000E-03 0. -1.
        -11    1    3    3    0    0 -0.42711226415E+01 -0.50830617972E+01 -0.53973142477E+01  0.85563430975E+01  0.51100000000E-03 0.  1.
        -12    1    3    3    0    0 -0.35944728204E+01 -0.96290609379E+01 -0.19490257924E+02  0.22034273380E+02  0.00000000000E+00 0.  1.
</event>
<event>
 7    1  0.4047706E-008  0.4614232E+02  0.7816164E-02  0.1320468E+00
        -11   -1    0    0    0    0  0.00000000000E+00  0.00000000000E+00  0.45593999997E+02  0.45594000000E+02  0.51100000000E-03 0. -1.
         11   -1    0    0    0    0 -0.00000000000E+00 -0.00000000000E+00 -0.45593999997E+02  0.45594000000E+02  0.51100000000E-03 0.  1.
    9900012    2    1    2    0    0 -0.20476837954E+01 -0.36036229142E+02  0.26950150514E+02  0.46142318382E+02  0.10000005666E+02 0.  0.
        -12    1    1    2    0    0  0.20476837954E+01  0.36036229142E+02 -0.26950150514E+02  0.45045681618E+02  0.00000000000E+00 0.  1.
         11    1    3    3    0    0 -0.37457013947E+01 -0.13838269934E+02  0.74860424380E+01  0.16173089542E+02  0.51100000000E-03 0. -1.
        -11    1    3    3    0    0  0.23909514689E+01 -0.46880257966E+01  0.43266462734E+01  0.68127896659E+01  0.51100000000E-03 0.  1.
         12    1    3    3    0    0 -0.69293386965E+00 -0.17509933411E+02  0.15137461802E+02  0.23156439174E+02  0.00000000000E+00 0. -1.
</event>
<event>
 7    1  0.4047706E-008  0.4614232E+02  0.7816164E-02  0.1320468E+00
        -11   -1    0    0    0    0  0.00000000000E+00  0.00000000000E+00  0.45593999997E+02  0.45594000000E+02  0.51100000000E-03 0.  1.
         11   -1    0    0    0    0 -0.00000000000E+00 -0.00000000000E+00 -0.45593999997E+02  0.45594000000E+02  0.51100000000E-03 0. -1.
    9900012    2    1    2    0    0 -0.23304002626E+02 -0.44021208442E+01 -0.38296975266E+02  0.46142317400E+02  0.99999967109E+01 0.  0.
        -12    1    1    2    0    0  0.23304002626E+02  0.44021208442E+01  0.38296975266E+02  0.45045682600E+02  0.00000000000E+00 0.  1.
         11    1    3    3    0    0 -0.24578955487E+01 -0.69283661775E+00 -0.26729293553E+01  0.36967316249E+01  0.51100000000E-03 0. -1.
        -11    1    3    3    0    0  0.51987271973E+00 -0.14017479547E+01 -0.33848470366E+01  0.37003181884E+01  0.51100000000E-03 0.  1.
         12    1    3    3    0    0 -0.21365979797E+02 -0.23075362718E+01 -0.32239198874E+02  0.38745267587E+02  0.00000000000E+00 0. -1.
</event>
<event>
 7    1  0.4047706E-008  0.4614232E+02  0.7816164E-02  0.1320468E+00
        -11   -1    0    0    0    0  0.00000000000E+00  0.00000000000E+00  0.45593999997E+02  0.45594000000E+02  0.51100000000E-03 0. -1.
         11   -1    0    0    0    0 -0.00000000000E+00 -0.00000000000E+00 -0.45593999997E+02  0.45594000000E+02  0.51100000000E-03 0.  1.
    9900012    2    1    2    0    0 -0.88475198446E+01  0.83764306106E+01  0.43366695719E+02  0.46142317690E+02  0.99999993507E+01 0.  0.
        -12    1    1    2    0    0  0.88475198446E+01 -0.83764306106E+01 -0.43366695719E+02  0.45045682310E+02  0.00000000000E+00 0.  1.
         11    1    3    3    0    0 -0.34056357890E+01 -0.71076388515E-01  0.38236096456E+01  0.51208786320E+01  0.51100000000E-03 0. -1.
        -11    1    3    3    0    0  0.23198056580E+00 -0.27543192643E+00  0.50483968266E+00  0.62011377610E+00  0.51100000000E-03 0.  1.
         12    1    3    3    0    0 -0.56738646214E+01  0.87229389256E+01  0.39038246391E+02  0.40401325282E+02  0.00000000000E+00 0. -1.
</event>
<event>
 7    1  0.4047706E-008  0.4614232E+02  0.7816164E-02  0.1320468E+00
        -11   -1    0    0    0    0  0.00000000000E+00  0.00000000000E+00  0.45593999997E+02  0.45594000000E+02  0.51100000000E-03 0. -1.
         11   -1    0    0    0    0 -0.00000000000E+00 -0.00000000000E+00 -0.45593999997E+02  0.45594000000E+02  0.51100000000E-03 0.  1.
    9900012    2    1    2    0    0  0.39243040362E+02 -0.20990041805E+02 -0.69653027306E+01  0.46142317477E+02  0.99999974094E+01 0.  0.
        -12    1    1    2    0    0 -0.39243040362E+02  0.20990041805E+02  0.69653027306E+01  0.45045682523E+02  0.00000000000E+00 0.  1.
         11    1    3    3    0    0  0.15970071879E+02 -0.11779264902E+02 -0.11427696158E+01  0.19877127562E+02  0.51100000000E-03 0. -1.
        -11    1    3    3    0    0  0.39203559657E+01 -0.31011008618E+01 -0.28514743974E+01  0.57547305717E+01  0.51100000000E-03 0.  1.
        -12    1    3    3    0    0  0.19352612518E+02 -0.61096760409E+01 -0.29710587174E+01  0.20510459343E+02  0.00000000000E+00 0.  1.
</event>
<event>
 7    1  0.4047706E-008  0.4614232E+02  0.7816164E-02  0.1320468E+00
        -11   -1    0    0    0    0  0.00000000000E+00  0.00000000000E+00  0.45593999997E+02  0.45594000000E+02  0.51100000000E-03 0.  1.
         11   -1    0    0    0    0 -0.00000000000E+00 -0.00000000000E+00 -0.45593999997E+02  0.45594000000E+02  0.51100000000E-03 0. -1.
    9900012    2    1    2    0    0  0.27354132826E+02  0.21275382920E+00 -0.35788538058E+02  0.46142319817E+02  0.10000018745E+02 0.  0.
        -12    1    1    2    0    0 -0.27354132826E+02 -0.21275382920E+00  0.35788538058E+02  0.45045680183E+02  0.00000000000E+00 0.  1.
         11    1    3    3    0    0  0.15576535625E+02 -0.24902725433E+01 -0.21296349879E+02  0.26502159117E+02  0.51100000000E-03 0. -1.
        -11    1    3    3    0    0  0.60234996325E+01 -0.86294178049E+00 -0.92777275098E+01  0.11095199158E+02  0.51100000000E-03 0.  1.
        -12    1    3    3    0    0  0.57540975679E+01  0.35659681530E+01 -0.52144606692E+01  0.85449615423E+01  0.00000000000E+00 0.  1.
</event>
<event>
 7    1  0.4047706E-008  0.4614231E+02  0.7816164E-02  0.1320468E+00
        -11   -1    0    0    0    0  0.00000000000E+00  0.00000000000E+00  0.45593999997E+02  0.45594000000E+02  0.51100000000E-03 0.  1.
         11   -1    0    0    0    0 -0.00000000000E+00 -0.00000000000E+00 -0.45593999997E+02  0.45594000000E+02  0.51100000000E-03 0. -1.
    9900012    2    1    2    0    0  0.32903618669E+02  0.12757299233E+02 -0.27994957716E+02  0.46142306946E+02  0.99999013747E+01 0.  0.
        -12    1    1    2    0    0 -0.32903618669E+02 -0.12757299233E+02  0.27994957716E+02  0.45045693054E+02  0.00000000000E+00 0.  1.
         11    1    3    3    0    0  0.24591005084E+01  0.55060190532E+00 -0.16470235362E+00  0.25253643093E+01  0.51100000000E-03 0. -1.
        -11    1    3    3    0    0  0.35269164391E+01 -0.46947929418E+00 -0.14121698695E+01  0.38280248663E+01  0.51100000000E-03 0.  1.
         12    1    3    3    0    0  0.26917601721E+02  0.12676176622E+02 -0.26418085493E+02  0.39788917770E+02  0.00000000000E+00 0. -1.
</event>
<event>
 7    1  0.4047706E-008  0.4614232E+02  0.7816164E-02  0.1320468E+00
        -11   -1    0    0    0    0  0.00000000000E+00  0.00000000000E+00  0.45593999997E+02  0.45594000000E+02  0.51100000000E-03 0.  1.
         11   -1    0    0    0    0 -0.00000000000E+00 -0.00000000000E+00 -0.45593999997E+02  0.45594000000E+02  0.51100000000E-03 0. -1.
    9900012    2    1    2    0    0  0.76680607947E+01 -0.23793094253E+02 -0.37472696193E+02  0.46142318182E+02  0.10000003835E+02 0.  0.
        -12    1    1    2    0    0 -0.76680607947E+01  0.23793094253E+02  0.37472696193E+02  0.45045681818E+02  0.00000000000E+00 0.  1.
         11    1    3    3    0    0  0.72382590449E+00 -0.20375318975E+01 -0.47134851731E+01  0.51857885525E+01  0.51100000000E-03 0. -1.
        -11    1    3    3    0    0  0.63630434929E+01 -0.95223021214E+01 -0.10435027945E+02  0.15493623484E+02  0.51100000000E-03 0.  1.
        -12    1    3    3    0    0  0.58119139736E+00 -0.12233260235E+02 -0.22324183075E+02  0.25462906145E+02  0.00000000000E+00 0.  1.
</event>
<event>
 7    1  0.4047706E-008  0.4614232E+02  0.7816164E-02  0.1320468E+00
        -11   -1    0    0    0    0  0.00000000000E+00  0.00000000000E+00  0.45593999997E+02  0.45594000000E+02  0.51100000000E-03 0.  1.
         11   -1    0    0    0    0 -0.00000000000E+00 -0.00000000000E+00 -0.45593999997E+02  0.45594000000E+02  0.51100000000E-03 0. -1.
    9900012    2    1    2    0    0  0.11822909491E+02  0.69446976102E+01 -0.42908082008E+02  0.46142317462E+02  0.99999972748E+01 0.  0.
        -12    1    1    2    0    0 -0.11822909491E+02 -0.69446976102E+01  0.42908082008E+02  0.45045682538E+02  0.00000000000E+00 0.  1.
         11    1    3    3    0    0  0.13309331040E+01 -0.16203555318E+01 -0.41497338321E+01  0.46494328810E+01  0.51100000000E-03 0. -1.
        -11    1    3    3    0    0 -0.32628049524E+00  0.15425675441E+00 -0.56402141241E+01  0.56517492632E+01  0.51100000000E-03 0.  1.
         12    1    3    3    0    0  0.10818256882E+02  0.84107963876E+01 -0.33118134051E+02  0.35841135318E+02  0.00000000000E+00 0. -1.
</event>
<event>
 7    1  0.4047706E-008  0.4614232E+02  0.7816164E-02  0.1320468E+00
        -11   -1    0    0    0    0  0.00000000000E+00  0.00000000000E+00  0.45593999997E+02  0.45594000000E+02  0.51100000000E-03 0.  1.
         11   -1    0    0    0    0 -0.00000000000E+00 -0.00000000000E+00 -0.45593999997E+02  0.45594000000E+02  0.51100000000E-03 0. -1.
    9900012    2    1    2    0    0  0.30795110256E+02 -0.14213831684E+02 -0.29643576959E+02  0.46142317834E+02  0.10000000666E+02 0.  0.
        -12    1    1    2    0    0 -0.30795110256E+02  0.14213831684E+02  0.29643576959E+02  0.45045682166E+02  0.00000000000E+00 0.  1.
         11    1    3    3    0    0  0.43283914594E+01 -0.17213022744E+01 -0.79286507188E+01  0.91957249104E+01  0.51100000000E-03 0. -1.
        -11    1    3    3    0    0  0.10833015598E+02 -0.55109809872E+01 -0.54120533769E+01  0.13304715720E+02  0.51100000000E-03 0.  1.
        -12    1    3    3    0    0  0.15633703199E+02 -0.69815484225E+01 -0.16302872863E+02  0.23641877203E+02  0.00000000000E+00 0.  1.
</event>
<event>
 7    1  0.4047706E-008  0.4614232E+02  0.7816164E-02  0.1320468E+00
        -11   -1    0    0    0    0  0.00000000000E+00  0.00000000000E+00  0.45593999997E+02  0.45594000000E+02  0.51100000000E-03 0.  1.
         11   -1    0    0    0    0 -0.00000000000E+00 -0.00000000000E+00 -0.45593999997E+02  0.45594000000E+02  0.51100000000E-03 0. -1.
    9900012    2    1    2    0    0 -0.35947631895E+02  0.11126634265E+02 -0.24760433447E+02  0.46142319925E+02  0.10000019730E+02 0.  0.
        -12    1    1    2    0    0  0.35947631895E+02 -0.11126634265E+02  0.24760433447E+02  0.45045680075E+02  0.00000000000E+00 0.  1.
         11    1    3    3    0    0 -0.29414565526E+02  0.71766551339E+01 -0.17872969215E+02  0.35159125029E+02  0.51100000000E-03 0. -1.
        -11    1    3    3    0    0  0.17370260341E+00  0.95379921764E+00 -0.18108387370E+01  0.20540308504E+01  0.51100000000E-03 0.  1.
        -12    1    3    3    0    0 -0.67067689725E+01  0.29961799135E+01 -0.50766254956E+01  0.89291640453E+01  0.00000000000E+00 0.  1.
</event>
<event>
 7    1  0.4047706E-008  0.4614232E+02  0.7816164E-02  0.1320468E+00
        -11   -1    0    0    0    0  0.00000000000E+00  0.00000000000E+00  0.45593999997E+02  0.45594000000E+02  0.51100000000E-03 0. -1.
         11   -1    0    0    0    0 -0.00000000000E+00 -0.00000000000E+00 -0.45593999997E+02  0.45594000000E+02  0.51100000000E-03 0.  1.
    9900012    2    1    2    0    0 -0.43788609195E+02  0.64362736051E+01  0.83812619305E+01  0.46142318024E+02  0.10000002397E+02 0.  0.
        -12    1    1    2    0    0  0.43788609195E+02 -0.64362736051E+01 -0.83812619305E+01  0.45045681976E+02  0.00000000000E+00 0.  1.
         11    1    3    3    0    0 -0.13834363638E+02  0.52732071341E+00  0.51291468546E+01  0.14764004610E+02  0.51100000000E-03 0. -1.
        -11    1    3    3    0    0 -0.81384497119E+01 -0.92733098365E+00  0.22500208881E+01  0.84945218067E+01  0.51100000000E-03 0.  1.
         12    1    3    3    0    0 -0.21815795844E+02  0.68362838753E+01  0.10020941878E+01  0.22883791607E+02  0.00000000000E+00 0. -1.
</event>
<event>
 7    1  0.4047706E-008  0.4614232E+02  0.7816164E-02  0.1320468E+00
        -11   -1    0    0    0    0  0.00000000000E+00  0.00000000000E+00  0.45593999997E+02  0.45594000000E+02  0.51100000000E-03 0. -1.
         11   -1    0    0    0    0 -0.00000000000E+00 -0.00000000000E+00 -0.45593999997E+02  0.45594000000E+02  0.51100000000E-03 0.  1.
    9900012    2    1    2    0    0  0.17025931638E+02  0.40703452450E+02 -0.90807530273E+01  0.46142318020E+02  0.10000002362E+02 0.  0.
        -12    1    1    2    0    0 -0.17025931638E+02 -0.40703452450E+02  0.90807530273E+01  0.45045681980E+02  0.00000000000E+00 0.  1.
         11    1    3    3    0    0 -0.46902717833E-01  0.56780081352E+01  0.36513923650E+00  0.56899299795E+01  0.51100000000E-03 0. -1.
        -11    1    3    3    0    0  0.12234147791E+02  0.19062729447E+02 -0.51825580800E+01  0.23236198800E+02  0.51100000000E-03 0.  1.
        -12    1    3    3    0    0  0.48386865646E+01  0.15962714868E+02 -0.42633341837E+01  0.17216189241E+02  0.00000000000E+00 0.  1.
</event>
<event>
 7    1  0.4047706E-008  0.4614232E+02  0.7816164E-02  0.1320468E+00
        -11   -1    0    0    0    0  0.00000000000E+00  0.00000000000E+00  0.45593999997E+02  0.45594000000E+02  0.51100000000E-03 0. -1.
         11   -1    0    0    0    0 -0.00000000000E+00 -0.00000000000E+00 -0.45593999997E+02  0.45594000000E+02  0.51100000000E-03 0.  1.
    9900012    2    1    2    0    0 -0.39058194468E+02  0.14599359026E+02  0.17041997073E+02  0.46142317595E+02  0.99999984866E+01 0.  0.
        -12    1    1    2    0    0  0.39058194468E+02 -0.14599359026E+02 -0.17041997073E+02  0.45045682405E+02  0.00000000000E+00 0.  1.
         11    1    3    3    0    0 -0.26628505945E+02  0.74968902037E+01  0.83887560513E+01  0.28907644662E+02  0.51100000000E-03 0. -1.
        -11    1    3    3    0    0 -0.43517163433E+01  0.41097249318E+01  0.18725879951E+01  0.62716712453E+01  0.51100000000E-03 0.  1.
         12    1    3    3    0    0 -0.80779721801E+01  0.29927438909E+01  0.67806530262E+01  0.10963001688E+02  0.00000000000E+00 0. -1.
</event>
<event>
 7    1  0.4047706E-008  0.4614232E+02  0.7816164E-02  0.1320468E+00
        -11   -1    0    0    0    0  0.00000000000E+00  0.00000000000E+00  0.45593999997E+02  0.45594000000E+02  0.51100000000E-03 0. -1.
         11   -1    0    0    0    0 -0.00000000000E+00 -0.00000000000E+00 -0.45593999997E+02  0.45594000000E+02  0.51100000000E-03 0.  1.
    9900012    2    1    2    0    0 -0.41647526150E+02  0.16811224844E+02 -0.34611998011E+01  0.46142316309E+02  0.99999867580E+01 0.  0.
        -12    1    1    2    0    0  0.41647526150E+02 -0.16811224844E+02  0.34611998011E+01  0.45045683691E+02  0.00000000000E+00 0.  1.
         11    1    3    3    0    0 -0.16333572617E+02  0.90909445393E+01 -0.39732864843E+00  0.18697292247E+02  0.51100000000E-03 0. -1.
        -11    1    3    3    0    0 -0.23548980364E+02  0.88496158332E+01 -0.31150669186E+01  0.25349039799E+02  0.51100000000E-03 0.  1.
         12    1    3    3    0    0 -0.17649731688E+01 -0.11293355289E+01  0.51195765928E-01  0.20959842628E+01  0.00000000000E+00 0. -1.
</event>
<event>
 7    1  0.4047706E-008  0.4614232E+02  0.7816164E-02  0.1320468E+00
        -11   -1    0    0    0    0  0.00000000000E+00  0.00000000000E+00  0.45593999997E+02  0.45594000000E+02  0.51100000000E-03 0.  1.
         11   -1    0    0    0    0 -0.00000000000E+00 -0.00000000000E+00 -0.45593999997E+02  0.45594000000E+02  0.51100000000E-03 0. -1.
    9900012    2    1    2    0    0 -0.13865330748E+02  0.26576435966E+02 -0.33623788122E+02  0.46142317931E+02  0.10000001545E+02 0.  0.
        -12    1    1    2    0    0  0.13865330748E+02 -0.26576435966E+02  0.33623788122E+02  0.45045682069E+02  0.00000000000E+00 0.  1.
         11    1    3    3    0    0 -0.41754602167E-01 -0.73388214911E-01 -0.58299255512E+00  0.58907542585E+00  0.51100000000E-03 0. -1.
        -11    1    3    3    0    0 -0.32159793313E+01  0.65402075423E+00 -0.35534736171E+01  0.48370901599E+01  0.51100000000E-03 0.  1.
         12    1    3    3    0    0 -0.10607596814E+02  0.25995803427E+02 -0.29487321950E+02  0.40716152345E+02  0.00000000000E+00 0. -1.
</event>
<event>
 7    1  0.4047706E-008  0.4614232E+02  0.7816164E-02  0.1320468E+00
        -11   -1    0    0    0    0  0.00000000000E+00  0.00000000000E+00  0.45593999997E+02  0.45594000000E+02  0.51100000000E-03 0. -1.
         11   -1    0    0    0    0 -0.00000000000E+00 -0.00000000000E+00 -0.45593999997E+02  0.45594000000E+02  0.51100000000E-03 0.  1.
    9900012    2    1    2    0    0  0.23621115254E+02  0.26723165970E+02  0.27514159592E+02  0.46142315819E+02  0.99999822906E+01 0.  0.
        -12    1    1    2    0    0 -0.23621115254E+02 -0.26723165970E+02 -0.27514159592E+02  0.45045684181E+02  0.00000000000E+00 0.  1.
         11    1    3    3    0    0  0.18152370229E+02  0.19943084380E+02  0.16979269018E+02  0.31867392992E+02  0.51100000000E-03 0.  1.
        -11    1    3    3    0    0  0.44962238797E+01  0.69753165166E+01  0.78930583828E+01  0.11453010110E+02  0.51100000000E-03 0. -1.
        -12    1    3    3    0    0  0.97252114623E+00 -0.19523492667E+00  0.26418321907E+01  0.28219127166E+01  0.00000000000E+00 0.  1.
</event>
<event>
 7    1  0.4047706E-008  0.4614232E+02  0.7816164E-02  0.1320468E+00
        -11   -1    0    0    0    0  0.00000000000E+00  0.00000000000E+00  0.45593999997E+02  0.45594000000E+02  0.51100000000E-03 0. -1.
         11   -1    0    0    0    0 -0.00000000000E+00 -0.00000000000E+00 -0.45593999997E+02  0.45594000000E+02  0.51100000000E-03 0.  1.
    9900012    2    1    2    0    0 -0.41101395182E+02  0.82635885292E+01  0.16477314872E+02  0.46142317780E+02  0.10000000169E+02 0.  0.
        -12    1    1    2    0    0  0.41101395182E+02 -0.82635885292E+01 -0.16477314872E+02  0.45045682220E+02  0.00000000000E+00 0.  1.
         11    1    3    3    0    0 -0.19593489296E+02  0.56849190950E+01  0.81769357836E+01  0.21979203966E+02  0.51100000000E-03 0. -1.
        -11    1    3    3    0    0 -0.55795849766E+01  0.37466947282E+01  0.25517658155E+01  0.71889497797E+01  0.51100000000E-03 0.  1.
        -12    1    3    3    0    0 -0.15928320909E+02 -0.11680252940E+01  0.57486132732E+01  0.16974164034E+02  0.00000000000E+00 0.  1.
</event>
<event>
 7    1  0.4047706E-008  0.4614232E+02  0.7816164E-02  0.1320468E+00
        -11   -1    0    0    0    0  0.00000000000E+00  0.00000000000E+00  0.45593999997E+02  0.45594000000E+02  0.51100000000E-03 0. -1.
         11   -1    0    0    0    0 -0.00000000000E+00 -0.00000000000E+00 -0.45593999997E+02  0.45594000000E+02  0.51100000000E-03 0.  1.
    9900012    2    1    2    0    0 -0.41001977215E+02 -0.11616513426E+02  0.14594791562E+02  0.46142318071E+02  0.10000002822E+02 0.  0.
        -12    1    1    2    0    0  0.41001977215E+02  0.11616513426E+02 -0.14594791562E+02  0.45045681929E+02  0.00000000000E+00 0.  1.
         11    1    3    3    0    0 -0.19949419904E+01 -0.67717860096E+00 -0.83576888281E+00  0.22664673589E+01  0.51100000000E-03 0.  1.
        -11    1    3    3    0    0 -0.17569412275E+02 -0.34470295059E+01  0.35732153659E+01  0.18257440357E+02  0.51100000000E-03 0. -1.
        -12    1    3    3    0    0 -0.21437622951E+02 -0.74923053187E+01  0.11857345079E+02  0.25618410354E+02  0.00000000000E+00 0.  1.
</event>
<event>
 7    1  0.4047706E-008  0.4614232E+02  0.7816164E-02  0.1320468E+00
        -11   -1    0    0    0    0  0.00000000000E+00  0.00000000000E+00  0.45593999997E+02  0.45594000000E+02  0.51100000000E-03 0.  1.
         11   -1    0    0    0    0 -0.00000000000E+00 -0.00000000000E+00 -0.45593999997E+02  0.45594000000E+02  0.51100000000E-03 0. -1.
    9900012    2    1    2    0    0  0.78398324587E-01 -0.17492452371E+02 -0.41510497432E+02  0.46142318373E+02  0.10000005575E+02 0.  0.
        -12    1    1    2    0    0 -0.78398324587E-01  0.17492452371E+02  0.41510497432E+02  0.45045681627E+02  0.00000000000E+00 0.  1.
         11    1    3    3    0    0  0.18748443533E-01 -0.94400577554E+01 -0.12078668671E+02  0.15330012363E+02  0.51100000000E-03 0. -1.
        -11    1    3    3    0    0 -0.18229699299E+01 -0.62597999967E+01 -0.21116713251E+02  0.22100314345E+02  0.51100000000E-03 0.  1.
        -12    1    3    3    0    0  0.18826198109E+01 -0.17925946192E+01 -0.83151155091E+01  0.87119916638E+01  0.00000000000E+00 0.  1.
</event>
<event>
 7    1  0.4047706E-008  0.4614232E+02  0.7816164E-02  0.1320468E+00
        -11   -1    0    0    0    0  0.00000000000E+00  0.00000000000E+00  0.45593999997E+02  0.45594000000E+02  0.51100000000E-03 0. -1.
         11   -1    0    0    0    0 -0.00000000000E+00 -0.00000000000E+00 -0.45593999997E+02  0.45594000000E+02  0.51100000000E-03 0.  1.
    9900012    2    1    2    0    0  0.13479499136E+02  0.37072164741E+02 -0.21750199364E+02  0.46142317988E+02  0.10000002069E+02 0.  0.
        -12    1    1    2    0    0 -0.13479499136E+02 -0.37072164741E+02  0.21750199364E+02  0.45045682012E+02  0.00000000000E+00 0.  1.
         11    1    3    3    0    0  0.57737281006E+01  0.22329940102E+02 -0.93037703504E+01  0.24870108647E+02  0.51100000000E-03 0. -1.
        -11    1    3    3    0    0  0.66483961683E+01  0.14128410450E+02 -0.10013872145E+02  0.18549684339E+02  0.51100000000E-03 0.  1.
        -12    1    3    3    0    0  0.10573748672E+01  0.61381418889E+00 -0.24325568686E+01  0.27225250021E+01  0.00000000000E+00 0.  1.
</event>
<event>
 7    1  0.4047706E-008  0.4614232E+02  0.7816164E-02  0.1320468E+00
        -11   -1    0    0    0    0  0.00000000000E+00  0.00000000000E+00  0.45593999997E+02  0.45594000000E+02  0.51100000000E-03 0.  1.
         11   -1    0    0    0    0 -0.00000000000E+00 -0.00000000000E+00 -0.45593999997E+02  0.45594000000E+02  0.51100000000E-03 0. -1.
    9900012    2    1    2    0    0  0.39668647700E+01  0.49161170809E+01 -0.44600552378E+02  0.46142317680E+02  0.99999992586E+01 0.  0.
        -12    1    1    2    0    0 -0.39668647700E+01 -0.49161170809E+01  0.44600552378E+02  0.45045682320E+02  0.00000000000E+00 0.  1.
         11    1    3    3    0    0  0.15241212140E+01  0.24799251746E+01 -0.25562390375E+02  0.25727587844E+02  0.51100000000E-03 0. -1.
        -11    1    3    3    0    0  0.26667315834E+01 -0.47149542750E+00 -0.27208265110E+01  0.38388360788E+01  0.51100000000E-03 0.  1.
        -12    1    3    3    0    0 -0.22398802729E+00  0.29076873338E+01 -0.16317335492E+02  0.16575893757E+02  0.00000000000E+00 0.  1.
</event>
<event>
 7    1  0.4047706E-008  0.4614232E+02  0.7816164E-02  0.1320468E+00
        -11   -1    0    0    0    0  0.00000000000E+00  0.00000000000E+00  0.45593999997E+02  0.45594000000E+02  0.51100000000E-03 0.  1.
         11   -1    0    0    0    0 -0.00000000000E+00 -0.00000000000E+00 -0.45593999997E+02  0.45594000000E+02  0.51100000000E-03 0. -1.
    9900012    2    1    2    0    0  0.10168739940E+01 -0.42213231240E+02  0.15688293322E+02  0.46142317945E+02  0.10000001679E+02 0.  0.
        -12    1    1    2    0    0 -0.10168739940E+01  0.42213231240E+02 -0.15688293322E+02  0.45045682055E+02  0.00000000000E+00 0.  1.
         11    1    3    3    0    0  0.30099776531E+01 -0.17099448417E+02  0.60699894220E+01  0.18392821249E+02  0.51100000000E-03 0. -1.
        -11    1    3    3    0    0  0.16691282638E+01 -0.10760516699E+02  0.62604607580E+01  0.12560576338E+02  0.51100000000E-03 0.  1.
        -12    1    3    3    0    0 -0.36622319229E+01 -0.14353266124E+02  0.33578431415E+01  0.15188920359E+02  0.00000000000E+00 0.  1.
</event>
<event>
 7    1  0.4047706E-008  0.4614232E+02  0.7816164E-02  0.1320468E+00
        -11   -1    0    0    0    0  0.00000000000E+00  0.00000000000E+00  0.45593999997E+02  0.45594000000E+02  0.51100000000E-03 0.  1.
         11   -1    0    0    0    0 -0.00000000000E+00 -0.00000000000E+00 -0.45593999997E+02  0.45594000000E+02  0.51100000000E-03 0. -1.
    9900012    2    1    2    0    0  0.13746059622E+02  0.42698656996E+02 -0.41211647460E+01  0.46142318039E+02  0.10000002538E+02 0.  0.
        -12    1    1    2    0    0 -0.13746059622E+02 -0.42698656996E+02  0.41211647460E+01  0.45045681961E+02  0.00000000000E+00 0.  1.
         11    1    3    3    0    0  0.11832507868E+02  0.37181917707E+02 -0.14627792318E+01  0.39046676813E+02  0.51100000000E-03 0. -1.
        -11    1    3    3    0    0  0.15647550568E+01  0.66782785395E+00 -0.90976746602E+00  0.19292821291E+01  0.51100000000E-03 0.  1.
         12    1    3    3    0    0  0.34879669809E+00  0.48489114357E+01 -0.17486180482E+01  0.51663590977E+01  0.00000000000E+00 0. -1.
</event>
<event>
 7    1  0.4047706E-008  0.4614232E+02  0.7816164E-02  0.1320468E+00
        -11   -1    0    0    0    0  0.00000000000E+00  0.00000000000E+00  0.45593999997E+02  0.45594000000E+02  0.51100000000E-03 0.  1.
         11   -1    0    0    0    0 -0.00000000000E+00 -0.00000000000E+00 -0.45593999997E+02  0.45594000000E+02  0.51100000000E-03 0. -1.
    9900012    2    1    2    0    0 -0.21949269596E+02 -0.46634352425E+01 -0.39058872714E+02  0.46142316502E+02  0.99999885226E+01 0.  0.
        -12    1    1    2    0    0  0.21949269596E+02  0.46634352425E+01  0.39058872714E+02  0.45045683498E+02  0.00000000000E+00 0.  1.
         11    1    3    3    0    0 -0.97354487339E-01 -0.56824993393E+00  0.51522105927E-01  0.57882697945E+00  0.51100000000E-03 0.  1.
        -11    1    3    3    0    0 -0.16665944566E+02 -0.48314842048E+01 -0.24341460547E+02  0.29893204073E+02  0.51100000000E-03 0. -1.
         12    1    3    3    0    0 -0.51859705418E+01  0.73629889618E+00 -0.14768934273E+02  0.15670285450E+02  0.00000000000E+00 0. -1.
</event>
<event>
 7    1  0.4047706E-008  0.4614232E+02  0.7816164E-02  0.1320468E+00
        -11   -1    0    0    0    0  0.00000000000E+00  0.00000000000E+00  0.45593999997E+02  0.45594000000E+02  0.51100000000E-03 0.  1.
         11   -1    0    0    0    0 -0.00000000000E+00 -0.00000000000E+00 -0.45593999997E+02  0.45594000000E+02  0.51100000000E-03 0. -1.
    9900012    2    1    2    0    0 -0.42936458433E+02  0.61188892707E+01 -0.12170997037E+02  0.46142318325E+02  0.10000005144E+02 0.  0.
        -12    1    1    2    0    0  0.42936458433E+02 -0.61188892707E+01  0.12170997037E+02  0.45045681675E+02  0.00000000000E+00 0.  1.
         11    1    3    3    0    0 -0.16018755220E+02  0.18548559328E+01 -0.69667860504E+01  0.17566363239E+02  0.51100000000E-03 0. -1.
        -11    1    3    3    0    0 -0.16315271711E+01  0.16354119830E+01 -0.17959490016E+01  0.29260701191E+01  0.51100000000E-03 0.  1.
        -12    1    3    3    0    0 -0.25286176042E+02  0.26286213549E+01 -0.34082619853E+01  0.25649884967E+02  0.00000000000E+00 0.  1.
</event>
<event>
 7    1  0.4047706E-008  0.4614232E+02  0.7816164E-02  0.1320468E+00
        -11   -1    0    0    0    0  0.00000000000E+00  0.00000000000E+00  0.45593999997E+02  0.45594000000E+02  0.51100000000E-03 0.  1.
         11   -1    0    0    0    0 -0.00000000000E+00 -0.00000000000E+00 -0.45593999997E+02  0.45594000000E+02  0.51100000000E-03 0. -1.
    9900012    2    1    2    0    0 -0.18092767010E+02 -0.25492481067E+02 -0.32432989979E+02  0.46142315989E+02  0.99999838419E+01 0.  0.
        -12    1    1    2    0    0  0.18092767010E+02  0.25492481067E+02  0.32432989979E+02  0.45045684011E+02  0.00000000000E+00 0.  1.
         11    1    3    3    0    0 -0.17029360872E+01 -0.44776038462E+00 -0.59720344247E+00  0.18593366806E+01  0.51100000000E-03 0. -1.
        -11    1    3    3    0    0 -0.19186607654E+01 -0.18317813310E+01 -0.64089586025E+01  0.69362405240E+01  0.51100000000E-03 0.  1.
         12    1    3    3    0    0 -0.14471170158E+02 -0.23212939351E+02 -0.25426827934E+02  0.37346738785E+02  0.00000000000E+00 0. -1.
</event>
<event>
 7    1  0.4047706E-008  0.4614232E+02  0.7816164E-02  0.1320468E+00
        -11   -1    0    0    0    0  0.00000000000E+00  0.00000000000E+00  0.45593999997E+02  0.45594000000E+02  0.51100000000E-03 0.  1.
         11   -1    0    0    0    0 -0.00000000000E+00 -0.00000000000E+00 -0.45593999997E+02  0.45594000000E+02  0.51100000000E-03 0. -1.
    9900012    2    1    2    0    0 -0.22405771765E+02 -0.52982292269E+01 -0.38717225872E+02  0.46142318514E+02  0.10000006865E+02 0.  0.
        -12    1    1    2    0    0  0.22405771765E+02  0.52982292269E+01  0.38717225872E+02  0.45045681486E+02  0.00000000000E+00 0.  1.
         11    1    3    3    0    0 -0.71823151529E+01  0.72597604849E+00 -0.75093083522E+01  0.10416448741E+02  0.51100000000E-03 0. -1.
        -11    1    3    3    0    0 -0.59464804306E+01 -0.54552578380E+01 -0.13539682559E+02  0.15762089698E+02  0.51100000000E-03 0.  1.
         12    1    3    3    0    0 -0.92769761811E+01 -0.56894743737E+00 -0.17668234961E+02  0.19963780075E+02  0.00000000000E+00 0. -1.
</event>
<event>
 7    1  0.4047706E-008  0.4614232E+02  0.7816164E-02  0.1320468E+00
        -11   -1    0    0    0    0  0.00000000000E+00  0.00000000000E+00  0.45593999997E+02  0.45594000000E+02  0.51100000000E-03 0.  1.
         11   -1    0    0    0    0 -0.00000000000E+00 -0.00000000000E+00 -0.45593999997E+02  0.45594000000E+02  0.51100000000E-03 0. -1.
    9900012    2    1    2    0    0 -0.21783304558E+02 -0.38441896964E+02 -0.87647952207E+01  0.46142318354E+02  0.10000005408E+02 0.  0.
        -12    1    1    2    0    0  0.21783304558E+02  0.38441896964E+02  0.87647952207E+01  0.45045681646E+02  0.00000000000E+00 0.  1.
         11    1    3    3    0    0 -0.65538777846E+01 -0.19790407785E+02 -0.49249541194E+01  0.21421221432E+02  0.51100000000E-03 0. -1.
        -11    1    3    3    0    0  0.14543745432E+00  0.16771704266E-01 -0.22426115520E+00  0.26781835269E+00  0.51100000000E-03 0.  1.
         12    1    3    3    0    0 -0.15374864228E+02 -0.18668260883E+02 -0.36155799461E+01  0.24453278569E+02  0.00000000000E+00 0. -1.
</event>
<event>
 7    1  0.4047706E-008  0.4614232E+02  0.7816164E-02  0.1320468E+00
        -11   -1    0    0    0    0  0.00000000000E+00  0.00000000000E+00  0.45593999997E+02  0.45594000000E+02  0.51100000000E-03 0.  1.
         11   -1    0    0    0    0 -0.00000000000E+00 -0.00000000000E+00 -0.45593999997E+02  0.45594000000E+02  0.51100000000E-03 0. -1.
    9900012    2    1    2    0    0 -0.31754225394E+02 -0.25006378522E+02 -0.19886270528E+02  0.46142317047E+02  0.99999934901E+01 0.  0.
        -12    1    1    2    0    0  0.31754225394E+02  0.25006378522E+02  0.19886270528E+02  0.45045682953E+02  0.00000000000E+00 0.  1.
         11    1    3    3    0    0 -0.21129674703E+01 -0.45046133733E+01 -0.49924418510E+01  0.70484501183E+01  0.51100000000E-03 0. -1.
        -11    1    3    3    0    0 -0.84901929036E+01 -0.65224195876E+01 -0.32045984175E+01  0.11175633499E+02  0.51100000000E-03 0.  1.
         12    1    3    3    0    0 -0.21151065020E+02 -0.13979345561E+02 -0.11689230260E+02  0.27918233430E+02  0.00000000000E+00 0. -1.
</event>
<event>
 7    1  0.4047706E-008  0.4614232E+02  0.7816164E-02  0.1320468E+00
        -11   -1    0    0    0    0  0.00000000000E+00  0.00000000000E+00  0.45593999997E+02  0.45594000000E+02  0.51100000000E-03 0.  1.
         11   -1    0    0    0    0 -0.00000000000E+00 -0.00000000000E+00 -0.45593999997E+02  0.45594000000E+02  0.51100000000E-03 0. -1.
    9900012    2    1    2    0    0 -0.10605456045E+02 -0.19895878678E+02 -0.38997330835E+02  0.46142317648E+02  0.99999989726E+01 0.  0.
        -12    1    1    2    0    0  0.10605456045E+02  0.19895878678E+02  0.38997330835E+02  0.45045682352E+02  0.00000000000E+00 0.  1.
         11    1    3    3    0    0 -0.35970752889E+01 -0.15592233442E+01 -0.47313771577E+01  0.61445958484E+01  0.51100000000E-03 0. -1.
        -11    1    3    3    0    0 -0.39442168326E+01 -0.29860524275E+01 -0.73173935675E+01  0.88327574633E+01  0.51100000000E-03 0.  1.
         12    1    3    3    0    0 -0.30641639231E+01 -0.15350602906E+02 -0.26948560110E+02  0.31164964337E+02  0.00000000000E+00 0. -1.
</event>
<event>
 7    1  0.4047706E-008  0.4614232E+02  0.7816164E-02  0.1320468E+00
        -11   -1    0    0    0    0  0.00000000000E+00  0.00000000000E+00  0.45593999997E+02  0.45594000000E+02  0.51100000000E-03 0.  1.
         11   -1    0    0    0    0 -0.00000000000E+00 -0.00000000000E+00 -0.45593999997E+02  0.45594000000E+02  0.51100000000E-03 0. -1.
    9900012    2    1    2    0    0 -0.45373117985E+01 -0.44792613263E+02 -0.14656334376E+01  0.46142317824E+02  0.10000000574E+02 0.  0.
        -12    1    1    2    0    0  0.45373117985E+01  0.44792613263E+02  0.14656334376E+01  0.45045682176E+02  0.00000000000E+00 0.  1.
         11    1    3    3    0    0  0.42264497980E+00 -0.33357149222E+01  0.92499634352E+00  0.34872971364E+01  0.51100000000E-03 0. -1.
        -11    1    3    3    0    0  0.68753872522E+00 -0.22452639724E+02 -0.37874991437E+01  0.22780230247E+02  0.51100000000E-03 0.  1.
         12    1    3    3    0    0 -0.56474955035E+01 -0.19004258617E+02  0.13968693627E+01  0.19874790441E+02  0.00000000000E+00 0. -1.
</event>
<event>
 7    1  0.4047706E-008  0.4614232E+02  0.7816164E-02  0.1320468E+00
        -11   -1    0    0    0    0  0.00000000000E+00  0.00000000000E+00  0.45593999997E+02  0.45594000000E+02  0.51100000000E-03 0.  1.
         11   -1    0    0    0    0 -0.00000000000E+00 -0.00000000000E+00 -0.45593999997E+02  0.45594000000E+02  0.51100000000E-03 0. -1.
    9900012    2    1    2    0    0  0.29041419287E+02 -0.17275999642E+02 -0.29786732715E+02  0.46142316037E+02  0.99999842823E+01 0.  0.
        -12    1    1    2    0    0 -0.29041419287E+02  0.17275999642E+02  0.29786732715E+02  0.45045683963E+02  0.00000000000E+00 0.  1.
         11    1    3    3    0    0  0.14839286680E+02 -0.11084447825E+02 -0.11455496126E+02  0.21778379290E+02  0.51100000000E-03 0.  1.
        -11    1    3    3    0    0  0.11010270832E+01  0.94299807892E-01 -0.19119617939E+00  0.11214764072E+01  0.51100000000E-03 0. -1.
         12    1    3    3    0    0  0.13101105524E+02 -0.62858516244E+01 -0.18140040410E+02  0.23242460340E+02  0.00000000000E+00 0. -1.
</event>
<event>
 7    1  0.4047706E-008  0.4614232E+02  0.7816164E-02  0.1320468E+00
        -11   -1    0    0    0    0  0.00000000000E+00  0.00000000000E+00  0.45593999997E+02  0.45594000000E+02  0.51100000000E-03 0.  1.
         11   -1    0    0    0    0 -0.00000000000E+00 -0.00000000000E+00 -0.45593999997E+02  0.45594000000E+02  0.51100000000E-03 0. -1.
    9900012    2    1    2    0    0  0.37589704059E+02 -0.72995444093E+00 -0.24811183135E+02  0.46142317706E+02  0.99999994991E+01 0.  0.
        -12    1    1    2    0    0 -0.37589704059E+02  0.72995444093E+00  0.24811183135E+02  0.45045682294E+02  0.00000000000E+00 0.  1.
         11    1    3    3    0    0  0.17331592745E+01  0.78968344743E+00 -0.26068069056E+00  0.19223412032E+01  0.51100000000E-03 0. -1.
        -11    1    3    3    0    0  0.15809122781E+02 -0.53878032274E+00 -0.60903795930E+01  0.16950261685E+02  0.51100000000E-03 0.  1.
         12    1    3    3    0    0  0.20047422004E+02 -0.98085756562E+00 -0.18460122851E+02  0.27269714818E+02  0.00000000000E+00 0. -1.
</event>
<event>
 7    1  0.4047706E-008  0.4614232E+02  0.7816164E-02  0.1320468E+00
        -11   -1    0    0    0    0  0.00000000000E+00  0.00000000000E+00  0.45593999997E+02  0.45594000000E+02  0.51100000000E-03 0.  1.
         11   -1    0    0    0    0 -0.00000000000E+00 -0.00000000000E+00 -0.45593999997E+02  0.45594000000E+02  0.51100000000E-03 0. -1.
    9900012    2    1    2    0    0  0.20216399017E+02  0.40236583416E+02 -0.11950246749E+01  0.46142317430E+02  0.99999969827E+01 0.  0.
        -12    1    1    2    0    0 -0.20216399017E+02 -0.40236583416E+02  0.11950246749E+01  0.45045682570E+02  0.00000000000E+00 0.  1.
         11    1    3    3    0    0  0.37608329299E+01  0.11510710689E+02 -0.19656382813E+01  0.12268009578E+02  0.51100000000E-03 0. -1.
        -11    1    3    3    0    0  0.10525558221E+02  0.24204646624E+02  0.10100336071E+01  0.26413490156E+02  0.51100000000E-03 0.  1.
         12    1    3    3    0    0  0.59300078659E+01  0.45212261033E+01 -0.23942000075E+00  0.74608176967E+01  0.00000000000E+00 0. -1.
</event>
<event>
 7    1  0.4047706E-008  0.4614232E+02  0.7816164E-02  0.1320468E+00
        -11   -1    0    0    0    0  0.00000000000E+00  0.00000000000E+00  0.45593999997E+02  0.45594000000E+02  0.51100000000E-03 0.  1.
         11   -1    0    0    0    0 -0.00000000000E+00 -0.00000000000E+00 -0.45593999997E+02  0.45594000000E+02  0.51100000000E-03 0. -1.
    9900012    2    1    2    0    0 -0.39052444741E+01 -0.17962683883E+02 -0.41124255404E+02  0.46142319528E+02  0.10000016109E+02 0.  0.
        -12    1    1    2    0    0  0.39052444741E+01  0.17962683883E+02  0.41124255404E+02  0.45045680472E+02  0.00000000000E+00 0.  1.
         11    1    3    3    0    0 -0.32806108935E+01 -0.39763616823E+01 -0.96024029949E+01  0.10898623932E+02  0.51100000000E-03 0. -1.
        -11    1    3    3    0    0  0.12191590050E+01 -0.11983575737E+02 -0.19523048735E+02  0.22939962256E+02  0.51100000000E-03 0.  1.
        -12    1    3    3    0    0 -0.18437925856E+01 -0.20027464631E+01 -0.11998803674E+02  0.12303733340E+02  0.00000000000E+00 0.  1.
</event>
<event>
 7    1  0.4047706E-008  0.4614232E+02  0.7816164E-02  0.1320468E+00
        -11   -1    0    0    0    0  0.00000000000E+00  0.00000000000E+00  0.45593999997E+02  0.45594000000E+02  0.51100000000E-03 0. -1.
         11   -1    0    0    0    0 -0.00000000000E+00 -0.00000000000E+00 -0.45593999997E+02  0.45594000000E+02  0.51100000000E-03 0.  1.
    9900012    2    1    2    0    0  0.15716605588E+02  0.40055708280E+02  0.13328241414E+02  0.46142317896E+02  0.10000001233E+02 0.  0.
        -12    1    1    2    0    0 -0.15716605588E+02 -0.40055708280E+02 -0.13328241414E+02  0.45045682104E+02  0.00000000000E+00 0.  1.
         11    1    3    3    0    0  0.34916191636E+01  0.12640404333E+02  0.85462269696E+00  0.13141598316E+02  0.51100000000E-03 0. -1.
        -11    1    3    3    0    0  0.20267090617E+01  0.40772532259E+01 -0.18999156684E+00  0.45571526797E+01  0.51100000000E-03 0.  1.
         12    1    3    3    0    0  0.10198277363E+02  0.23338050720E+02  0.12663610284E+02  0.28443566900E+02  0.00000000000E+00 0. -1.
</event>
<event>
 7    1  0.4047706E-008  0.4614232E+02  0.7816164E-02  0.1320468E+00
        -11   -1    0    0    0    0  0.00000000000E+00  0.00000000000E+00  0.45593999997E+02  0.45594000000E+02  0.51100000000E-03 0.  1.
         11   -1    0    0    0    0 -0.00000000000E+00 -0.00000000000E+00 -0.45593999997E+02  0.45594000000E+02  0.51100000000E-03 0. -1.
    9900012    2    1    2    0    0 -0.29220408401E+02  0.18046481511E+02 -0.29147997261E+02  0.46142317561E+02  0.99999981728E+01 0.  0.
        -12    1    1    2    0    0  0.29220408401E+02 -0.18046481511E+02  0.29147997261E+02  0.45045682439E+02  0.00000000000E+00 0.  1.
         11    1    3    3    0    0 -0.10493817142E+02  0.77106056474E+01 -0.10343848535E+02  0.16630358999E+02  0.51100000000E-03 0. -1.
        -11    1    3    3    0    0 -0.56367806457E+01  0.24847940720E+01 -0.10399972785E+02  0.12087470034E+02  0.51100000000E-03 0.  1.
        -12    1    3    3    0    0 -0.13089810614E+02  0.78510817921E+01 -0.84041759411E+01  0.17424488528E+02  0.00000000000E+00 0.  1.
</event>
<event>
 7    1  0.4047706E-008  0.4614232E+02  0.7816164E-02  0.1320468E+00
        -11   -1    0    0    0    0  0.00000000000E+00  0.00000000000E+00  0.45593999997E+02  0.45594000000E+02  0.51100000000E-03 0.  1.
         11   -1    0    0    0    0 -0.00000000000E+00 -0.00000000000E+00 -0.45593999997E+02  0.45594000000E+02  0.51100000000E-03 0. -1.
    9900012    2    1    2    0    0  0.44836746590E+02 -0.43323558286E+01  0.10089411243E+00  0.46142319503E+02  0.10000015888E+02 0.  0.
        -12    1    1    2    0    0 -0.44836746590E+02  0.43323558286E+01 -0.10089411243E+00  0.45045680497E+02  0.00000000000E+00 0.  1.
         11    1    3    3    0    0  0.91796299437E+01  0.15968546927E+01 -0.38293877377E+00  0.93253521745E+01  0.51100000000E-03 0. -1.
        -11    1    3    3    0    0  0.23394741059E+00  0.55300181216E+00  0.53698582070E+00  0.80554107774E+00  0.51100000000E-03 0.  1.
        -12    1    3    3    0    0  0.35423169235E+02 -0.64822123334E+01 -0.53152934500E-01  0.36011426251E+02  0.00000000000E+00 0.  1.
</event>
<event>
 7    1  0.4047706E-008  0.4614232E+02  0.7816164E-02  0.1320468E+00
        -11   -1    0    0    0    0  0.00000000000E+00  0.00000000000E+00  0.45593999997E+02  0.45594000000E+02  0.51100000000E-03 0. -1.
         11   -1    0    0    0    0 -0.00000000000E+00 -0.00000000000E+00 -0.45593999997E+02  0.45594000000E+02  0.51100000000E-03 0.  1.
    9900012    2    1    2    0    0  0.16725400493E+02  0.12083510742E+02  0.40042019650E+02  0.46142316620E+02  0.99999895972E+01 0.  0.
        -12    1    1    2    0    0 -0.16725400493E+02 -0.12083510742E+02 -0.40042019650E+02  0.45045683380E+02  0.00000000000E+00 0.  1.
         11    1    3    3    0    0 -0.99884819477E-02  0.12660632030E+01  0.36261943555E-01  0.12666218826E+01  0.51100000000E-03 0. -1.
        -11    1    3    3    0    0 -0.14851356044E+00  0.41912793429E+00  0.14955561744E+01  0.15602605664E+01  0.51100000000E-03 0.  1.
         12    1    3    3    0    0  0.16883902536E+02  0.10398319604E+02  0.38510201532E+02  0.43315434171E+02  0.00000000000E+00 0. -1.
</event>
<event>
 7    1  0.4047706E-008  0.4614232E+02  0.7816164E-02  0.1320468E+00
        -11   -1    0    0    0    0  0.00000000000E+00  0.00000000000E+00  0.45593999997E+02  0.45594000000E+02  0.51100000000E-03 0.  1.
         11   -1    0    0    0    0 -0.00000000000E+00 -0.00000000000E+00 -0.45593999997E+02  0.45594000000E+02  0.51100000000E-03 0. -1.
    9900012    2    1    2    0    0  0.16264222507E+02 -0.32203810833E+02 -0.26972266749E+02  0.46142317193E+02  0.99999948211E+01 0.  0.
        -12    1    1    2    0    0 -0.16264222507E+02  0.32203810833E+02  0.26972266749E+02  0.45045682807E+02  0.00000000000E+00 0.  1.
         11    1    3    3    0    0  0.13777929582E+02 -0.23927303363E+02 -0.16812012617E+02  0.32326319900E+02  0.51100000000E-03 0. -1.
        -11    1    3    3    0    0  0.23942703311E+01 -0.74889874350E+01 -0.10352949299E+02  0.13000039333E+02  0.51100000000E-03 0.  1.
        -12    1    3    3    0    0  0.92022593923E-01 -0.78752003559E+00  0.19269516741E+00  0.81595795957E+00  0.00000000000E+00 0.  1.
</event>
<event>
 7    1  0.4047706E-008  0.4614232E+02  0.7816164E-02  0.1320468E+00
        -11   -1    0    0    0    0  0.00000000000E+00  0.00000000000E+00  0.45593999997E+02  0.45594000000E+02  0.51100000000E-03 0.  1.
         11   -1    0    0    0    0 -0.00000000000E+00 -0.00000000000E+00 -0.45593999997E+02  0.45594000000E+02  0.51100000000E-03 0. -1.
    9900012    2    1    2    0    0 -0.75577833093E+01  0.19606327210E+01 -0.44363829567E+02  0.46142317154E+02  0.99999944626E+01 0.  0.
        -12    1    1    2    0    0  0.75577833093E+01 -0.19606327210E+01  0.44363829567E+02  0.45045682846E+02  0.00000000000E+00 0.  1.
         11    1    3    3    0    0 -0.31746947409E+01 -0.19775561124E+01 -0.24647437537E+02  0.24929612759E+02  0.51100000000E-03 0.  1.
        -11    1    3    3    0    0  0.28900967727E+00  0.94614322928E+00 -0.97999096638E+01  0.98497179291E+01  0.51100000000E-03 0. -1.
        -12    1    3    3    0    0 -0.46720982456E+01  0.29920456041E+01 -0.99164823658E+01  0.11362986466E+02  0.00000000000E+00 0.  1.
</event>
<event>
 7    1  0.4047706E-008  0.4614232E+02  0.7816164E-02  0.1320468E+00
        -11   -1    0    0    0    0  0.00000000000E+00  0.00000000000E+00  0.45593999997E+02  0.45594000000E+02  0.51100000000E-03 0. -1.
         11   -1    0    0    0    0 -0.00000000000E+00 -0.00000000000E+00 -0.45593999997E+02  0.45594000000E+02  0.51100000000E-03 0.  1.
    9900012    2    1    2    0    0 -0.28218391501E+02  0.34783600515E+02  0.47892563728E+01  0.46142318073E+02  0.10000002844E+02 0.  0.
        -12    1    1    2    0    0  0.28218391501E+02 -0.34783600515E+02 -0.47892563728E+01  0.45045681927E+02  0.00000000000E+00 0.  1.
         11    1    3    3    0    0 -0.18988246649E+02  0.29656422574E+02  0.47629743050E+01  0.35535093010E+02  0.51100000000E-03 0. -1.
        -11    1    3    3    0    0 -0.32373029129E+01  0.12974206948E+01  0.19650382993E+00  0.34931425143E+01  0.51100000000E-03 0.  1.
         12    1    3    3    0    0 -0.59928419388E+01  0.38297572455E+01 -0.17022176209E+00  0.71140825488E+01  0.00000000000E+00 0. -1.
</event>
<event>
 7    1  0.4047706E-008  0.4614232E+02  0.7816164E-02  0.1320468E+00
        -11   -1    0    0    0    0  0.00000000000E+00  0.00000000000E+00  0.45593999997E+02  0.45594000000E+02  0.51100000000E-03 0.  1.
         11   -1    0    0    0    0 -0.00000000000E+00 -0.00000000000E+00 -0.45593999997E+02  0.45594000000E+02  0.51100000000E-03 0. -1.
    9900012    2    1    2    0    0  0.25728452294E+02 -0.12399028967E+02 -0.34834242284E+02  0.46142316386E+02  0.99999874575E+01 0.  0.
        -12    1    1    2    0    0 -0.25728452294E+02  0.12399028967E+02  0.34834242284E+02  0.45045683614E+02  0.00000000000E+00 0.  1.
         11    1    3    3    0    0  0.20502932734E+02 -0.12578951147E+02 -0.27377134800E+02  0.36443212987E+02  0.51100000000E-03 0. -1.
        -11    1    3    3    0    0  0.16617283544E+01  0.41554086372E-01 -0.28132123020E+00  0.16858854533E+01  0.51100000000E-03 0.  1.
        -12    1    3    3    0    0  0.35637912054E+01  0.13836809360E+00 -0.71757862538E+01  0.80132179457E+01  0.00000000000E+00 0.  1.
</event>
<event>
 7    1  0.4047706E-008  0.4614232E+02  0.7816164E-02  0.1320468E+00
        -11   -1    0    0    0    0  0.00000000000E+00  0.00000000000E+00  0.45593999997E+02  0.45594000000E+02  0.51100000000E-03 0.  1.
         11   -1    0    0    0    0 -0.00000000000E+00 -0.00000000000E+00 -0.45593999997E+02  0.45594000000E+02  0.51100000000E-03 0. -1.
    9900012    2    1    2    0    0 -0.27909382980E+02 -0.24036383024E+02 -0.25931295878E+02  0.46142317931E+02  0.10000001549E+02 0.  0.
        -12    1    1    2    0    0  0.27909382980E+02  0.24036383024E+02  0.25931295878E+02  0.45045682069E+02  0.00000000000E+00 0.  1.
         11    1    3    3    0    0 -0.12338338470E+02 -0.80794553118E+01 -0.13472797680E+02  0.19975697032E+02  0.51100000000E-03 0. -1.
        -11    1    3    3    0    0 -0.13914290820E+02 -0.14751366650E+02 -0.90867854279E+01  0.22221160562E+02  0.51100000000E-03 0.  1.
        -12    1    3    3    0    0 -0.16567536895E+01 -0.12055610618E+01 -0.33717127705E+01  0.39454603366E+01  0.00000000000E+00 0.  1.
</event>
<event>
 7    1  0.4047706E-008  0.4614232E+02  0.7816164E-02  0.1320468E+00
        -11   -1    0    0    0    0  0.00000000000E+00  0.00000000000E+00  0.45593999997E+02  0.45594000000E+02  0.51100000000E-03 0. -1.
         11   -1    0    0    0    0 -0.00000000000E+00 -0.00000000000E+00 -0.45593999997E+02  0.45594000000E+02  0.51100000000E-03 0.  1.
    9900012    2    1    2    0    0 -0.60816375878E+01  0.37258715069E+02  0.24574687977E+02  0.46142318148E+02  0.10000003529E+02 0.  0.
        -12    1    1    2    0    0  0.60816375878E+01 -0.37258715069E+02 -0.24574687977E+02  0.45045681852E+02  0.00000000000E+00 0.  1.
         11    1    3    3    0    0 -0.13201549606E+00  0.26504728996E+01  0.36187115617E+00  0.26783176954E+01  0.51100000000E-03 0. -1.
        -11    1    3    3    0    0  0.14164366729E+01  0.12033516815E+02  0.10562020934E+02  0.16073832967E+02  0.51100000000E-03 0.  1.
         12    1    3    3    0    0 -0.73660587647E+01  0.22574725354E+02  0.13650795888E+02  0.27390167486E+02  0.00000000000E+00 0. -1.
</event>
<event>
 7    1  0.4047706E-008  0.4614232E+02  0.7816164E-02  0.1320468E+00
        -11   -1    0    0    0    0  0.00000000000E+00  0.00000000000E+00  0.45593999997E+02  0.45594000000E+02  0.51100000000E-03 0. -1.
         11   -1    0    0    0    0 -0.00000000000E+00 -0.00000000000E+00 -0.45593999997E+02  0.45594000000E+02  0.51100000000E-03 0.  1.
    9900012    2    1    2    0    0 -0.16125132951E+02  0.39569326945E+02  0.14260500536E+02  0.46142318486E+02  0.10000006608E+02 0.  0.
        -12    1    1    2    0    0  0.16125132951E+02 -0.39569326945E+02 -0.14260500536E+02  0.45045681514E+02  0.00000000000E+00 0.  1.
         11    1    3    3    0    0 -0.51950181778E+01  0.14204267359E+02  0.52966065058E+01  0.16025088636E+02  0.51100000000E-03 0. -1.
        -11    1    3    3    0    0 -0.19503445993E+01  0.11261867260E+02  0.65799669365E+00  0.11448426012E+02  0.51100000000E-03 0.  1.
         12    1    3    3    0    0 -0.89797701739E+01  0.14103192326E+02  0.83058973365E+01  0.18668803838E+02  0.00000000000E+00 0. -1.
</event>
<event>
 7    1  0.4047706E-008  0.4614232E+02  0.7816164E-02  0.1320468E+00
        -11   -1    0    0    0    0  0.00000000000E+00  0.00000000000E+00  0.45593999997E+02  0.45594000000E+02  0.51100000000E-03 0.  1.
         11   -1    0    0    0    0 -0.00000000000E+00 -0.00000000000E+00 -0.45593999997E+02  0.45594000000E+02  0.51100000000E-03 0. -1.
    9900012    2    1    2    0    0 -0.22487296146E+02 -0.27034454103E+02 -0.28152677124E+02  0.46142318455E+02  0.10000006326E+02 0.  0.
        -12    1    1    2    0    0  0.22487296146E+02  0.27034454103E+02  0.28152677124E+02  0.45045681545E+02  0.00000000000E+00 0.  1.
         11    1    3    3    0    0 -0.44311751450E+01 -0.45216345432E+01 -0.41610682004E+01  0.75759475274E+01  0.51100000000E-03 0. -1.
        -11    1    3    3    0    0 -0.13822765455E+02 -0.13889301816E+02 -0.11204074515E+02  0.22572391007E+02  0.51100000000E-03 0.  1.
         12    1    3    3    0    0 -0.42333555461E+01 -0.86235177439E+01 -0.12787534409E+02  0.15993979921E+02  0.00000000000E+00 0. -1.
</event>
<event>
 7    1  0.4047706E-008  0.4614232E+02  0.7816164E-02  0.1320468E+00
        -11   -1    0    0    0    0  0.00000000000E+00  0.00000000000E+00  0.45593999997E+02  0.45594000000E+02  0.51100000000E-03 0. -1.
         11   -1    0    0    0    0 -0.00000000000E+00 -0.00000000000E+00 -0.45593999997E+02  0.45594000000E+02  0.51100000000E-03 0.  1.
    9900012    2    1    2    0    0  0.38520671699E+02 -0.15911106852E+02 -0.17091168068E+02  0.46142317684E+02  0.99999993008E+01 0.  0.
        -12    1    1    2    0    0 -0.38520671699E+02  0.15911106852E+02  0.17091168068E+02  0.45045682316E+02  0.00000000000E+00 0.  1.
         11    1    3    3    0    0  0.35066459778E+01 -0.26309348829E+01 -0.24717579262E+01  0.50326903222E+01  0.51100000000E-03 0. -1.
        -11    1    3    3    0    0 -0.33122933799E-01 -0.11072635881E+01  0.25713837729E+00  0.11372115847E+01  0.51100000000E-03 0.  1.
        -12    1    3    3    0    0  0.35047148654E+02 -0.12172908381E+02 -0.14876548519E+02  0.39972415778E+02  0.00000000000E+00 0.  1.
</event>
<event>
 7    1  0.4047706E-008  0.4614232E+02  0.7816164E-02  0.1320468E+00
        -11   -1    0    0    0    0  0.00000000000E+00  0.00000000000E+00  0.45593999997E+02  0.45594000000E+02  0.51100000000E-03 0.  1.
         11   -1    0    0    0    0 -0.00000000000E+00 -0.00000000000E+00 -0.45593999997E+02  0.45594000000E+02  0.51100000000E-03 0. -1.
    9900012    2    1    2    0    0 -0.14186584262E+02  0.33526989830E+02 -0.26529143494E+02  0.46142315694E+02  0.99999811493E+01 0.  0.
        -12    1    1    2    0    0  0.14186584262E+02 -0.33526989830E+02  0.26529143494E+02  0.45045684306E+02  0.00000000000E+00 0.  1.
         11    1    3    3    0    0 -0.59551536694E+01  0.13925134742E+02 -0.72007266330E+01  0.16769725613E+02  0.51100000000E-03 0. -1.
        -11    1    3    3    0    0 -0.42944622887E+01  0.16591198707E+02 -0.14424849562E+02  0.22400592984E+02  0.51100000000E-03 0.  1.
         12    1    3    3    0    0 -0.39369683039E+01  0.30106563805E+01 -0.49035672995E+01  0.69719970975E+01  0.00000000000E+00 0. -1.
</event>
<event>
 7    1  0.4047706E-008  0.4614232E+02  0.7816164E-02  0.1320468E+00
        -11   -1    0    0    0    0  0.00000000000E+00  0.00000000000E+00  0.45593999997E+02  0.45594000000E+02  0.51100000000E-03 0. -1.
         11   -1    0    0    0    0 -0.00000000000E+00 -0.00000000000E+00 -0.45593999997E+02  0.45594000000E+02  0.51100000000E-03 0.  1.
    9900012    2    1    2    0    0  0.41754658927E+02 -0.13652936577E+02 -0.99628960700E+01  0.46142317439E+02  0.99999970640E+01 0.  0.
        -12    1    1    2    0    0 -0.41754658927E+02  0.13652936577E+02  0.99628960700E+01  0.45045682561E+02  0.00000000000E+00 0.  1.
         11    1    3    3    0    0  0.24505509544E+02 -0.55491838526E+01 -0.20938143255E+01  0.25213042222E+02  0.51100000000E-03 0. -1.
        -11    1    3    3    0    0  0.35318643406E+01 -0.32890753256E+01 -0.24685170153E+01  0.54208540594E+01  0.51100000000E-03 0.  1.
         12    1    3    3    0    0  0.13717285043E+02 -0.48146773984E+01 -0.54005647292E+01  0.15508421157E+02  0.00000000000E+00 0. -1.
</event>
<event>
 7    1  0.4047706E-008  0.4614232E+02  0.7816164E-02  0.1320468E+00
        -11   -1    0    0    0    0  0.00000000000E+00  0.00000000000E+00  0.45593999997E+02  0.45594000000E+02  0.51100000000E-03 0. -1.
         11   -1    0    0    0    0 -0.00000000000E+00 -0.00000000000E+00 -0.45593999997E+02  0.45594000000E+02  0.51100000000E-03 0.  1.
    9900012    2    1    2    0    0 -0.30315575599E+02  0.32598627419E+02 -0.68854043571E+01  0.46142318446E+02  0.10000006247E+02 0.  0.
        -12    1    1    2    0    0  0.30315575599E+02 -0.32598627419E+02  0.68854043571E+01  0.45045681554E+02  0.00000000000E+00 0.  1.
         11    1    3    3    0    0 -0.11590866152E+02  0.84005113451E+01 -0.99034286082E+00  0.14349130575E+02  0.51100000000E-03 0. -1.
        -11    1    3    3    0    0 -0.86830045040E+01  0.15956256894E+02 -0.22777994361E+01  0.18308060296E+02  0.51100000000E-03 0.  1.
         12    1    3    3    0    0 -0.10041704943E+02  0.82418591801E+01 -0.36172620602E+01  0.13485127575E+02  0.00000000000E+00 0. -1.
</event>
<event>
 7    1  0.4047706E-008  0.4614232E+02  0.7816164E-02  0.1320468E+00
        -11   -1    0    0    0    0  0.00000000000E+00  0.00000000000E+00  0.45593999997E+02  0.45594000000E+02  0.51100000000E-03 0.  1.
         11   -1    0    0    0    0 -0.00000000000E+00 -0.00000000000E+00 -0.45593999997E+02  0.45594000000E+02  0.51100000000E-03 0. -1.
    9900012    2    1    2    0    0  0.38034738901E+02  0.29885316396E+01 -0.23948705303E+02  0.46142321292E+02  0.10000032195E+02 0.  0.
        -12    1    1    2    0    0 -0.38034738901E+02 -0.29885316396E+01  0.23948705303E+02  0.45045678708E+02  0.00000000000E+00 0.  1.
         11    1    3    3    0    0  0.11863955144E+02  0.37663998930E+01 -0.83648001721E+01  0.14996969093E+02  0.51100000000E-03 0. -1.
        -11    1    3    3    0    0  0.16268674946E+01 -0.12255565672E+01  0.57526396697E-01  0.20376447904E+01  0.51100000000E-03 0.  1.
        -12    1    3    3    0    0  0.24543916263E+02  0.44768831380E+00 -0.15641431527E+02  0.29107707408E+02  0.00000000000E+00 0.  1.
</event>
<event>
 7    1  0.4047706E-008  0.4614232E+02  0.7816164E-02  0.1320468E+00
        -11   -1    0    0    0    0  0.00000000000E+00  0.00000000000E+00  0.45593999997E+02  0.45594000000E+02  0.51100000000E-03 0.  1.
         11   -1    0    0    0    0 -0.00000000000E+00 -0.00000000000E+00 -0.45593999997E+02  0.45594000000E+02  0.51100000000E-03 0. -1.
    9900012    2    1    2    0    0 -0.42206204993E+02 -0.12918108539E+02 -0.89928984935E+01  0.46142317727E+02  0.99999996893E+01 0.  0.
        -12    1    1    2    0    0  0.42206204993E+02  0.12918108539E+02  0.89928984935E+01  0.45045682273E+02  0.00000000000E+00 0.  1.
         11    1    3    3    0    0 -0.27213247900E+01 -0.20182406809E+01 -0.26675038123E+01  0.43121318288E+01  0.51100000000E-03 0. -1.
        -11    1    3    3    0    0 -0.21055809838E+02 -0.30634390594E+01 -0.42407683080E+01  0.21695988175E+02  0.51100000000E-03 0.  1.
         12    1    3    3    0    0 -0.18429070365E+02 -0.78364287984E+01 -0.20846263731E+01  0.20134197723E+02  0.00000000000E+00 0. -1.
</event>
<event>
 7    1  0.4047706E-008  0.4614232E+02  0.7816164E-02  0.1320468E+00
        -11   -1    0    0    0    0  0.00000000000E+00  0.00000000000E+00  0.45593999997E+02  0.45594000000E+02  0.51100000000E-03 0. -1.
         11   -1    0    0    0    0 -0.00000000000E+00 -0.00000000000E+00 -0.45593999997E+02  0.45594000000E+02  0.51100000000E-03 0.  1.
    9900012    2    1    2    0    0  0.61907296181E+01 -0.42959357014E+02 -0.12053291237E+02  0.46142319653E+02  0.10000017256E+02 0.  0.
        -12    1    1    2    0    0 -0.61907296181E+01  0.42959357014E+02  0.12053291237E+02  0.45045680347E+02  0.00000000000E+00 0.  1.
         11    1    3    3    0    0  0.57141492825E+01 -0.30964458946E+02 -0.12384573765E+02  0.33835290562E+02  0.51100000000E-03 0. -1.
        -11    1    3    3    0    0  0.11320608131E+01 -0.87477575943E+01  0.11482726602E+01  0.88951309702E+01  0.51100000000E-03 0.  1.
         12    1    3    3    0    0 -0.65548047748E+00 -0.32471404737E+01 -0.81699013193E+00  0.34118981209E+01  0.00000000000E+00 0. -1.
</event>
<event>
 7    1  0.4047706E-008  0.4614232E+02  0.7816164E-02  0.1320468E+00
        -11   -1    0    0    0    0  0.00000000000E+00  0.00000000000E+00  0.45593999997E+02  0.45594000000E+02  0.51100000000E-03 0.  1.
         11   -1    0    0    0    0 -0.00000000000E+00 -0.00000000000E+00 -0.45593999997E+02  0.45594000000E+02  0.51100000000E-03 0. -1.
    9900012    2    1    2    0    0 -0.28673293044E+02  0.30829892135E+02 -0.16014785922E+02  0.46142319284E+02  0.10000013884E+02 0.  0.
        -12    1    1    2    0    0  0.28673293044E+02 -0.30829892135E+02  0.16014785922E+02  0.45045680716E+02  0.00000000000E+00 0.  1.
         11    1    3    3    0    0 -0.12087203633E+02  0.10028692310E+02 -0.87679914751E+01  0.17987574485E+02  0.51100000000E-03 0. -1.
        -11    1    3    3    0    0 -0.27288623262E+01  0.27166534806E+01 -0.32177479664E+01  0.50180472263E+01  0.51100000000E-03 0.  1.
        -12    1    3    3    0    0 -0.13857227085E+02  0.18084546345E+02 -0.40290464809E+01  0.23136697572E+02  0.00000000000E+00 0.  1.
</event>
<event>
 7    1  0.4047706E-008  0.4614232E+02  0.7816164E-02  0.1320468E+00
        -11   -1    0    0    0    0  0.00000000000E+00  0.00000000000E+00  0.45593999997E+02  0.45594000000E+02  0.51100000000E-03 0.  1.
         11   -1    0    0    0    0 -0.00000000000E+00 -0.00000000000E+00 -0.45593999997E+02  0.45594000000E+02  0.51100000000E-03 0. -1.
    9900012    2    1    2    0    0  0.10507752753E+02  0.34048417673E+02 -0.27557320595E+02  0.46142317273E+02  0.99999955504E+01 0.  0.
        -12    1    1    2    0    0 -0.10507752753E+02 -0.34048417673E+02  0.27557320595E+02  0.45045682727E+02  0.00000000000E+00 0.  1.
         11    1    3    3    0    0  0.32153910977E+01  0.12392525988E+02 -0.14683391982E+02  0.19481156039E+02  0.51100000000E-03 0. -1.
        -11    1    3    3    0    0  0.52890956274E+01  0.83175981646E+01 -0.56177258603E+01  0.11345299286E+02  0.51100000000E-03 0.  1.
         12    1    3    3    0    0  0.20032660279E+01  0.13338293521E+02 -0.72562027526E+01  0.15315861948E+02  0.00000000000E+00 0. -1.
</event>
<event>
 7    1  0.4047706E-008  0.4614232E+02  0.7816164E-02  0.1320468E+00
        -11   -1    0    0    0    0  0.00000000000E+00  0.00000000000E+00  0.45593999997E+02  0.45594000000E+02  0.51100000000E-03 0.  1.
         11   -1    0    0    0    0 -0.00000000000E+00 -0.00000000000E+00 -0.45593999997E+02  0.45594000000E+02  0.51100000000E-03 0. -1.
    9900012    2    1    2    0    0 -0.24708282355E+02 -0.15244349674E+01 -0.37633633777E+02  0.46142317520E+02  0.99999977973E+01 0.  0.
        -12    1    1    2    0    0  0.24708282355E+02  0.15244349674E+01  0.37633633777E+02  0.45045682480E+02  0.00000000000E+00 0.  1.
         11    1    3    3    0    0 -0.13340559695E+02 -0.21410792226E+00 -0.24106030846E+02  0.27552079750E+02  0.51100000000E-03 0.  1.
        -11    1    3    3    0    0 -0.78999817001E+01  0.10646119494E+01 -0.11313325832E+02  0.13839597217E+02  0.51100000000E-03 0. -1.
        -12    1    3    3    0    0 -0.34677409595E+01 -0.23749389946E+01 -0.22142770986E+01  0.47506405525E+01  0.00000000000E+00 0.  1.
</event>
<event>
 7    1  0.4047706E-008  0.4614232E+02  0.7816164E-02  0.1320468E+00
        -11   -1    0    0    0    0  0.00000000000E+00  0.00000000000E+00  0.45593999997E+02  0.45594000000E+02  0.51100000000E-03 0.  1.
         11   -1    0    0    0    0 -0.00000000000E+00 -0.00000000000E+00 -0.45593999997E+02  0.45594000000E+02  0.51100000000E-03 0. -1.
    9900012    2    1    2    0    0  0.83884932888E+01  0.10992962682E+01 -0.44244073440E+02  0.46142319780E+02  0.10000018408E+02 0.  0.
        -12    1    1    2    0    0 -0.83884932888E+01 -0.10992962682E+01  0.44244073440E+02  0.45045680220E+02  0.00000000000E+00 0.  1.
         11    1    3    3    0    0  0.24291606402E+00  0.11821242587E+01 -0.24401378464E+02  0.24431203351E+02  0.51100000000E-03 0. -1.
        -11    1    3    3    0    0  0.44005399293E+01  0.16073034039E+01 -0.11255345546E+02  0.12191430577E+02  0.51100000000E-03 0.  1.
         12    1    3    3    0    0  0.37450372955E+01 -0.16901313943E+01 -0.85873494295E+01  0.95196858509E+01  0.00000000000E+00 0. -1.
</event>
<event>
 7    1  0.4047706E-008  0.4614232E+02  0.7816164E-02  0.1320468E+00
        -11   -1    0    0    0    0  0.00000000000E+00  0.00000000000E+00  0.45593999997E+02  0.45594000000E+02  0.51100000000E-03 0.  1.
         11   -1    0    0    0    0 -0.00000000000E+00 -0.00000000000E+00 -0.45593999997E+02  0.45594000000E+02  0.51100000000E-03 0. -1.
    9900012    2    1    2    0    0  0.15159013626E+02  0.73936396083E+01 -0.41769030275E+02  0.46142317733E+02  0.99999997453E+01 0.  0.
        -12    1    1    2    0    0 -0.15159013626E+02 -0.73936396083E+01  0.41769030275E+02  0.45045682267E+02  0.00000000000E+00 0.  1.
         11    1    3    3    0    0  0.45629222209E+01  0.10878285953E+01 -0.13325760728E+02  0.14127261925E+02  0.51100000000E-03 0. -1.
        -11    1    3    3    0    0  0.91925599065E+00  0.25558511509E+01 -0.14145264939E+01  0.30623997363E+01  0.51100000000E-03 0.  1.
        -12    1    3    3    0    0  0.96768354147E+01  0.37499598621E+01 -0.27028743053E+02  0.28952656072E+02  0.00000000000E+00 0.  1.
</event>
<event>
 7    1  0.4047706E-008  0.4614232E+02  0.7816164E-02  0.1320468E+00
        -11   -1    0    0    0    0  0.00000000000E+00  0.00000000000E+00  0.45593999997E+02  0.45594000000E+02  0.51100000000E-03 0.  1.
         11   -1    0    0    0    0 -0.00000000000E+00 -0.00000000000E+00 -0.45593999997E+02  0.45594000000E+02  0.51100000000E-03 0. -1.
    9900012    2    1    2    0    0  0.30562332305E+02 -0.29658216314E+01 -0.32958477295E+02  0.46142317860E+02  0.10000000901E+02 0.  0.
        -12    1    1    2    0    0 -0.30562332305E+02  0.29658216314E+01  0.32958477295E+02  0.45045682140E+02  0.00000000000E+00 0.  1.
         11    1    3    3    0    0  0.10663599490E+02 -0.45170258749E+01 -0.15315030782E+02  0.19200678242E+02  0.51100000000E-03 0. -1.
        -11    1    3    3    0    0  0.58354990609E+01  0.16682764790E+01 -0.35488238670E+01  0.70306718598E+01  0.51100000000E-03 0.  1.
         12    1    3    3    0    0  0.14063233755E+02 -0.11707223544E+00 -0.14094622646E+02  0.19910967758E+02  0.00000000000E+00 0. -1.
</event>
<event>
 7    1  0.4047706E-008  0.4614232E+02  0.7816164E-02  0.1320468E+00
        -11   -1    0    0    0    0  0.00000000000E+00  0.00000000000E+00  0.45593999997E+02  0.45594000000E+02  0.51100000000E-03 0.  1.
         11   -1    0    0    0    0 -0.00000000000E+00 -0.00000000000E+00 -0.45593999997E+02  0.45594000000E+02  0.51100000000E-03 0. -1.
    9900012    2    1    2    0    0  0.87074335586E+01  0.34024211987E+02 -0.28207217524E+02  0.46142317400E+02  0.99999967043E+01 0.  0.
        -12    1    1    2    0    0 -0.87074335586E+01 -0.34024211987E+02  0.28207217524E+02  0.45045682600E+02  0.00000000000E+00 0.  1.
         11    1    3    3    0    0  0.31455286847E+00  0.74052164987E+01 -0.37022179649E+01  0.82850825597E+01  0.51100000000E-03 0. -1.
        -11    1    3    3    0    0  0.21416363711E+01  0.43718027245E+01 -0.11505304062E+01  0.50022980604E+01  0.51100000000E-03 0.  1.
         12    1    3    3    0    0  0.62512443190E+01  0.22247192763E+02 -0.23354469153E+02  0.32854936780E+02  0.00000000000E+00 0. -1.
</event>
<event>
 7    1  0.4047706E-008  0.4614232E+02  0.7816164E-02  0.1320468E+00
        -11   -1    0    0    0    0  0.00000000000E+00  0.00000000000E+00  0.45593999997E+02  0.45594000000E+02  0.51100000000E-03 0.  1.
         11   -1    0    0    0    0 -0.00000000000E+00 -0.00000000000E+00 -0.45593999997E+02  0.45594000000E+02  0.51100000000E-03 0. -1.
    9900012    2    1    2    0    0 -0.43337267754E+02 -0.11916252351E+02 -0.29996084430E+01  0.46142317662E+02  0.99999991003E+01 0.  0.
        -12    1    1    2    0    0  0.43337267754E+02  0.11916252351E+02  0.29996084430E+01  0.45045682338E+02  0.00000000000E+00 0.  1.
         11    1    3    3    0    0 -0.71257647604E+01  0.24177768068E+00 -0.19276443345E+01  0.73858508520E+01  0.51100000000E-03 0. -1.
        -11    1    3    3    0    0 -0.34584897660E+02 -0.10221126809E+02 -0.14882274351E+00  0.36063953304E+02  0.51100000000E-03 0.  1.
         12    1    3    3    0    0 -0.16266053329E+01 -0.19369032230E+01 -0.92314136497E+00  0.26925135067E+01  0.00000000000E+00 0. -1.
</event>
<event>
 7    1  0.4047706E-008  0.4614232E+02  0.7816164E-02  0.1320468E+00
        -11   -1    0    0    0    0  0.00000000000E+00  0.00000000000E+00  0.45593999997E+02  0.45594000000E+02  0.51100000000E-03 0. -1.
         11   -1    0    0    0    0 -0.00000000000E+00 -0.00000000000E+00 -0.45593999997E+02  0.45594000000E+02  0.51100000000E-03 0.  1.
    9900012    2    1    2    0    0  0.58606095826E+01 -0.41270579945E+02 -0.17073544292E+02  0.46142318427E+02  0.10000006073E+02 0.  0.
        -12    1    1    2    0    0 -0.58606095826E+01  0.41270579945E+02  0.17073544292E+02  0.45045681573E+02  0.00000000000E+00 0.  1.
         11    1    3    3    0    0 -0.79809069335E+00 -0.24857921396E+01  0.93340491012E+00  0.27726082131E+01  0.51100000000E-03 0. -1.
        -11    1    3    3    0    0  0.43795767572E+01 -0.20491661165E+02 -0.10826839772E+02  0.23586210581E+02  0.51100000000E-03 0.  1.
         12    1    3    3    0    0  0.22791235188E+01 -0.18293126640E+02 -0.71801094304E+01  0.19783499633E+02  0.00000000000E+00 0. -1.
</event>
<event>
 7    1  0.4047706E-008  0.4614232E+02  0.7816164E-02  0.1320468E+00
        -11   -1    0    0    0    0  0.00000000000E+00  0.00000000000E+00  0.45593999997E+02  0.45594000000E+02  0.51100000000E-03 0. -1.
         11   -1    0    0    0    0 -0.00000000000E+00 -0.00000000000E+00 -0.45593999997E+02  0.45594000000E+02  0.51100000000E-03 0.  1.
    9900012    2    1    2    0    0  0.10723395395E+02 -0.43151637817E+02 -0.72151530716E+01  0.46142317755E+02  0.99999999445E+01 0.  0.
        -12    1    1    2    0    0 -0.10723395395E+02  0.43151637817E+02  0.72151530716E+01  0.45045682245E+02  0.00000000000E+00 0.  1.
         11    1    3    3    0    0  0.44941767778E+01 -0.18810544397E+02 -0.19147189702E+01  0.19434514515E+02  0.51100000000E-03 0. -1.
        -11    1    3    3    0    0  0.17245740664E+01 -0.34892139296E+01  0.17118460843E+01  0.42519627038E+01  0.51100000000E-03 0.  1.
         12    1    3    3    0    0  0.45046445503E+01 -0.20851879490E+02 -0.70122801857E+01  0.22455840536E+02  0.00000000000E+00 0. -1.
</event>
<event>
 7    1  0.4047706E-008  0.4614232E+02  0.7816164E-02  0.1320468E+00
        -11   -1    0    0    0    0  0.00000000000E+00  0.00000000000E+00  0.45593999997E+02  0.45594000000E+02  0.51100000000E-03 0.  1.
         11   -1    0    0    0    0 -0.00000000000E+00 -0.00000000000E+00 -0.45593999997E+02  0.45594000000E+02  0.51100000000E-03 0. -1.
    9900012    2    1    2    0    0  0.18451686210E+02  0.31339984596E+02 -0.26579204976E+02  0.46142317680E+02  0.99999992644E+01 0.  0.
        -12    1    1    2    0    0 -0.18451686210E+02 -0.31339984596E+02  0.26579204976E+02  0.45045682320E+02  0.00000000000E+00 0.  1.
         11    1    3    3    0    0  0.24977551859E+01  0.15027508343E+01 -0.36961869513E+01  0.47073176310E+01  0.51100000000E-03 0. -1.
        -11    1    3    3    0    0  0.38838058370E+01  0.43931356582E+01 -0.68951342315E+01  0.90513239375E+01  0.51100000000E-03 0.  1.
         12    1    3    3    0    0  0.12070125187E+02  0.25444098103E+02 -0.15987883793E+02  0.32383676112E+02  0.00000000000E+00 0. -1.
</event>
<event>
 7    1  0.4047706E-008  0.4614232E+02  0.7816164E-02  0.1320468E+00
        -11   -1    0    0    0    0  0.00000000000E+00  0.00000000000E+00  0.45593999997E+02  0.45594000000E+02  0.51100000000E-03 0.  1.
         11   -1    0    0    0    0 -0.00000000000E+00 -0.00000000000E+00 -0.45593999997E+02  0.45594000000E+02  0.51100000000E-03 0. -1.
    9900012    2    1    2    0    0  0.37870794488E+02  0.49851508832E+01 -0.23876026303E+02  0.46142318337E+02  0.10000005248E+02 0.  0.
        -12    1    1    2    0    0 -0.37870794488E+02 -0.49851508832E+01  0.23876026303E+02  0.45045681663E+02  0.00000000000E+00 0.  1.
         11    1    3    3    0    0  0.17247549776E+02  0.15749070432E+01 -0.91834792926E+01  0.19603433313E+02  0.51100000000E-03 0. -1.
        -11    1    3    3    0    0  0.20376809029E+02  0.23758919053E+01 -0.15020827291E+02  0.25426058706E+02  0.51100000000E-03 0.  1.
        -12    1    3    3    0    0  0.24643568287E+00  0.10343519346E+01  0.32828028061E+00  0.11128263176E+01  0.00000000000E+00 0.  1.
</event>
<event>
 7    1  0.4047706E-008  0.4614232E+02  0.7816164E-02  0.1320468E+00
        -11   -1    0    0    0    0  0.00000000000E+00  0.00000000000E+00  0.45593999997E+02  0.45594000000E+02  0.51100000000E-03 0.  1.
         11   -1    0    0    0    0 -0.00000000000E+00 -0.00000000000E+00 -0.45593999997E+02  0.45594000000E+02  0.51100000000E-03 0. -1.
    9900012    2    1    2    0    0 -0.48957241702E-01  0.35920733633E+02 -0.27181097477E+02  0.46142316948E+02  0.99999925881E+01 0.  0.
        -12    1    1    2    0    0  0.48957241702E-01 -0.35920733633E+02  0.27181097477E+02  0.45045683052E+02  0.00000000000E+00 0.  1.
         11    1    3    3    0    0 -0.46978984071E+01  0.13381581738E+02 -0.10058761566E+02  0.17387227029E+02  0.51100000000E-03 0. -1.
        -11    1    3    3    0    0  0.14128997336E+01  0.80914954548E+01 -0.49672008756E+01  0.95990452208E+01  0.51100000000E-03 0.  1.
        -12    1    3    3    0    0  0.32360414318E+01  0.14447656440E+02 -0.12155135035E+02  0.19156044699E+02  0.00000000000E+00 0.  1.
</event>
<event>
 7    1  0.4047706E-008  0.4614232E+02  0.7816164E-02  0.1320468E+00
        -11   -1    0    0    0    0  0.00000000000E+00  0.00000000000E+00  0.45593999997E+02  0.45594000000E+02  0.51100000000E-03 0.  1.
         11   -1    0    0    0    0 -0.00000000000E+00 -0.00000000000E+00 -0.45593999997E+02  0.45594000000E+02  0.51100000000E-03 0. -1.
    9900012    2    1    2    0    0 -0.69032362011E+01 -0.34621041981E+02 -0.27979318818E+02  0.46142317639E+02  0.99999988874E+01 0.  0.
        -12    1    1    2    0    0  0.69032362011E+01  0.34621041981E+02  0.27979318818E+02  0.45045682361E+02  0.00000000000E+00 0.  1.
         11    1    3    3    0    0 -0.64342949446E+01 -0.12926218576E+02 -0.87954426652E+01  0.16907013043E+02  0.51100000000E-03 0. -1.
        -11    1    3    3    0    0  0.27880799670E+00 -0.48892418491E-01 -0.72286118614E+00  0.77630723503E+00  0.51100000000E-03 0.  1.
        -12    1    3    3    0    0 -0.74774925321E+00 -0.21645930986E+02 -0.18461014966E+02  0.28458997361E+02  0.00000000000E+00 0.  1.
</event>
<event>
 7    1  0.4047706E-008  0.4614232E+02  0.7816164E-02  0.1320468E+00
        -11   -1    0    0    0    0  0.00000000000E+00  0.00000000000E+00  0.45593999997E+02  0.45594000000E+02  0.51100000000E-03 0.  1.
         11   -1    0    0    0    0 -0.00000000000E+00 -0.00000000000E+00 -0.45593999997E+02  0.45594000000E+02  0.51100000000E-03 0. -1.
    9900012    2    1    2    0    0 -0.31928927857E+02 -0.46555573375E+01 -0.31432194223E+02  0.46142317833E+02  0.10000000654E+02 0.  0.
        -12    1    1    2    0    0  0.31928927857E+02  0.46555573375E+01  0.31432194223E+02  0.45045682167E+02  0.00000000000E+00 0.  1.
         11    1    3    3    0    0 -0.75224772557E+01 -0.42616143481E+01 -0.95281112779E+01  0.12865998822E+02  0.51100000000E-03 0. -1.
        -11    1    3    3    0    0 -0.79488530828E+01 -0.18727429081E+01 -0.10000463707E+02  0.12911262756E+02  0.51100000000E-03 0.  1.
         12    1    3    3    0    0 -0.16457597518E+02  0.14787999187E+01 -0.11903619238E+02  0.20365056255E+02  0.00000000000E+00 0. -1.
</event>
<event>
 7    1  0.4047706E-008  0.4614232E+02  0.7816164E-02  0.1320468E+00
        -11   -1    0    0    0    0  0.00000000000E+00  0.00000000000E+00  0.45593999997E+02  0.45594000000E+02  0.51100000000E-03 0.  1.
         11   -1    0    0    0    0 -0.00000000000E+00 -0.00000000000E+00 -0.45593999997E+02  0.45594000000E+02  0.51100000000E-03 0. -1.
    9900012    2    1    2    0    0 -0.14368402383E+02 -0.20901951523E+02 -0.37225943105E+02  0.46142318691E+02  0.10000008480E+02 0.  0.
        -12    1    1    2    0    0  0.14368402383E+02  0.20901951523E+02  0.37225943105E+02  0.45045681309E+02  0.00000000000E+00 0.  1.
         11    1    3    3    0    0 -0.17155094818E+01 -0.53610060541E+01 -0.44645990160E+01  0.71844278358E+01  0.51100000000E-03 0. -1.
        -11    1    3    3    0    0 -0.11893930575E+02 -0.13844271338E+02 -0.24858986242E+02  0.30839887008E+02  0.51100000000E-03 0.  1.
         12    1    3    3    0    0 -0.75896232537E+00 -0.16966741312E+01 -0.79023578477E+01  0.81180038477E+01  0.00000000000E+00 0. -1.
</event>
<event>
 7    1  0.4047706E-008  0.4614232E+02  0.7816164E-02  0.1320468E+00
        -11   -1    0    0    0    0  0.00000000000E+00  0.00000000000E+00  0.45593999997E+02  0.45594000000E+02  0.51100000000E-03 0.  1.
         11   -1    0    0    0    0 -0.00000000000E+00 -0.00000000000E+00 -0.45593999997E+02  0.45594000000E+02  0.51100000000E-03 0. -1.
    9900012    2    1    2    0    0  0.44679424885E+02  0.18313441566E+01  0.54321862822E+01  0.46142317884E+02  0.10000001124E+02 0.  0.
        -12    1    1    2    0    0 -0.44679424885E+02 -0.18313441566E+01 -0.54321862822E+01  0.45045682116E+02  0.00000000000E+00 0.  1.
         11    1    3    3    0    0  0.35099508392E+02  0.19608918846E+01  0.32906692854E+01  0.35307918247E+02  0.51100000000E-03 0. -1.
        -11    1    3    3    0    0  0.23097787195E+00  0.11579690891E+01  0.31519840150E+00  0.12221266228E+01  0.51100000000E-03 0.  1.
         12    1    3    3    0    0  0.93489386211E+01 -0.12875168171E+01  0.18263185953E+01  0.96122730146E+01  0.00000000000E+00 0. -1.
</event>
<event>
 7    1  0.4047706E-008  0.4614232E+02  0.7816164E-02  0.1320468E+00
        -11   -1    0    0    0    0  0.00000000000E+00  0.00000000000E+00  0.45593999997E+02  0.45594000000E+02  0.51100000000E-03 0.  1.
         11   -1    0    0    0    0 -0.00000000000E+00 -0.00000000000E+00 -0.45593999997E+02  0.45594000000E+02  0.51100000000E-03 0. -1.
    9900012    2    1    2    0    0  0.33735897648E+02  0.27239568618E+02 -0.12206908396E+02  0.46142317619E+02  0.99999987014E+01 0.  0.
        -12    1    1    2    0    0 -0.33735897648E+02 -0.27239568618E+02  0.12206908396E+02  0.45045682381E+02  0.00000000000E+00 0.  1.
         11    1    3    3    0    0  0.12889712105E+02  0.71034656131E+01 -0.70943893651E+01  0.16338122982E+02  0.51100000000E-03 0. -1.
        -11    1    3    3    0    0  0.46524605636E+01  0.71333416269E+01 -0.50596354863E+00  0.85314683047E+01  0.51100000000E-03 0.  1.
         12    1    3    3    0    0  0.16193724979E+02  0.13002761378E+02 -0.46065554825E+01  0.21272726331E+02  0.00000000000E+00 0. -1.
</event>
<event>
 7    1  0.4047706E-008  0.4614232E+02  0.7816164E-02  0.1320468E+00
        -11   -1    0    0    0    0  0.00000000000E+00  0.00000000000E+00  0.45593999997E+02  0.45594000000E+02  0.51100000000E-03 0.  1.
         11   -1    0    0    0    0 -0.00000000000E+00 -0.00000000000E+00 -0.45593999997E+02  0.45594000000E+02  0.51100000000E-03 0. -1.
    9900012    2    1    2    0    0  0.15279357271E+02 -0.39534053332E+02 -0.15254946987E+02  0.46142317198E+02  0.99999948688E+01 0.  0.
        -12    1    1    2    0    0 -0.15279357271E+02  0.39534053332E+02  0.15254946987E+02  0.45045682802E+02  0.00000000000E+00 0.  1.
         11    1    3    3    0    0  0.60140659708E+01 -0.14788702930E+02 -0.74679380045E+01  0.17625119067E+02  0.51100000000E-03 0. -1.
        -11    1    3    3    0    0  0.10051665061E+02 -0.24476990287E+02 -0.80288949819E+01  0.27651802453E+02  0.51100000000E-03 0.  1.
        -12    1    3    3    0    0 -0.78637376072E+00 -0.26836011552E+00  0.24188599897E+00  0.86539567809E+00  0.00000000000E+00 0.  1.
</event>
<event>
 7    1  0.4047706E-008  0.4614232E+02  0.7816164E-02  0.1320468E+00
        -11   -1    0    0    0    0  0.00000000000E+00  0.00000000000E+00  0.45593999997E+02  0.45594000000E+02  0.51100000000E-03 0.  1.
         11   -1    0    0    0    0 -0.00000000000E+00 -0.00000000000E+00 -0.45593999997E+02  0.45594000000E+02  0.51100000000E-03 0. -1.
    9900012    2    1    2    0    0  0.31145123162E+02 -0.13057452379E+01 -0.32517530412E+02  0.46142318170E+02  0.10000003727E+02 0.  0.
        -12    1    1    2    0    0 -0.31145123162E+02  0.13057452379E+01  0.32517530412E+02  0.45045681830E+02  0.00000000000E+00 0.  1.
         11    1    3    3    0    0  0.11708611918E+01  0.14315817876E+00 -0.13218941793E+00  0.11869644046E+01  0.51100000000E-03 0. -1.
        -11    1    3    3    0    0  0.63744658729E+01 -0.21926902546E+01 -0.33385181958E+01  0.75224603503E+01  0.51100000000E-03 0.  1.
         12    1    3    3    0    0  0.23599796098E+02  0.74378683788E+00 -0.29046822799E+02  0.37432893415E+02  0.00000000000E+00 0. -1.
</event>
<event>
 7    1  0.4047706E-008  0.4614232E+02  0.7816164E-02  0.1320468E+00
        -11   -1    0    0    0    0  0.00000000000E+00  0.00000000000E+00  0.45593999997E+02  0.45594000000E+02  0.51100000000E-03 0. -1.
         11   -1    0    0    0    0 -0.00000000000E+00 -0.00000000000E+00 -0.45593999997E+02  0.45594000000E+02  0.51100000000E-03 0.  1.
    9900012    2    1    2    0    0  0.92713622016E+01 -0.39361535980E+02 -0.19845022247E+02  0.46142316746E+02  0.99999907467E+01 0.  0.
        -12    1    1    2    0    0 -0.92713622016E+01  0.39361535980E+02  0.19845022247E+02  0.45045683254E+02  0.00000000000E+00 0.  1.
         11    1    3    3    0    0  0.61469811937E+01 -0.18405652868E+02 -0.80026227390E+01  0.20990364605E+02  0.51100000000E-03 0. -1.
        -11    1    3    3    0    0 -0.18790538532E+01 -0.29414157143E+01 -0.17181662950E+01  0.38903554421E+01  0.51100000000E-03 0.  1.
        -12    1    3    3    0    0  0.50034348610E+01 -0.18014467398E+02 -0.10124233214E+02  0.21261596699E+02  0.00000000000E+00 0.  1.
</event>
<event>
 7    1  0.4047706E-008  0.4614232E+02  0.7816164E-02  0.1320468E+00
        -11   -1    0    0    0    0  0.00000000000E+00  0.00000000000E+00  0.45593999997E+02  0.45594000000E+02  0.51100000000E-03 0. -1.
         11   -1    0    0    0    0 -0.00000000000E+00 -0.00000000000E+00 -0.45593999997E+02  0.45594000000E+02  0.51100000000E-03 0.  1.
    9900012    2    1    2    0    0 -0.27802026342E+02  0.27205163376E+02 -0.22716515101E+02  0.46142316063E+02  0.99999845131E+01 0.  0.
        -12    1    1    2    0    0  0.27802026342E+02 -0.27205163376E+02  0.22716515101E+02  0.45045683937E+02  0.00000000000E+00 0.  1.
         11    1    3    3    0    0 -0.81398355289E+01  0.71556114908E+01 -0.45658711831E+01  0.11760394473E+02  0.51100000000E-03 0. -1.
        -11    1    3    3    0    0  0.49698113322E+00 -0.23698418769E+00 -0.65352866621E+00  0.85454767607E+00  0.51100000000E-03 0.  1.
        -12    1    3    3    0    0 -0.20159171947E+02  0.20286536073E+02 -0.17497115252E+02  0.33527373913E+02  0.00000000000E+00 0.  1.
</event>
<event>
 7    1  0.4047706E-008  0.4614232E+02  0.7816164E-02  0.1320468E+00
        -11   -1    0    0    0    0  0.00000000000E+00  0.00000000000E+00  0.45593999997E+02  0.45594000000E+02  0.51100000000E-03 0.  1.
         11   -1    0    0    0    0 -0.00000000000E+00 -0.00000000000E+00 -0.45593999997E+02  0.45594000000E+02  0.51100000000E-03 0. -1.
    9900012    2    1    2    0    0 -0.34520667749E+02 -0.10001050417E+02 -0.27155404394E+02  0.46142317642E+02  0.99999989180E+01 0.  0.
        -12    1    1    2    0    0  0.34520667749E+02  0.10001050417E+02  0.27155404394E+02  0.45045682358E+02  0.00000000000E+00 0.  1.
         11    1    3    3    0    0 -0.74842779495E+01 -0.21519430022E+01 -0.70250493547E+01  0.10487926097E+02  0.51100000000E-03 0. -1.
        -11    1    3    3    0    0 -0.66922524371E+01 -0.59977536865E+01 -0.66442441954E+01  0.11176102771E+02  0.51100000000E-03 0.  1.
        -12    1    3    3    0    0 -0.20344137362E+02 -0.18513537279E+01 -0.13486110844E+02  0.24478288775E+02  0.00000000000E+00 0.  1.
</event>
<event>
 7    1  0.4047706E-008  0.4614232E+02  0.7816164E-02  0.1320468E+00
        -11   -1    0    0    0    0  0.00000000000E+00  0.00000000000E+00  0.45593999997E+02  0.45594000000E+02  0.51100000000E-03 0.  1.
         11   -1    0    0    0    0 -0.00000000000E+00 -0.00000000000E+00 -0.45593999997E+02  0.45594000000E+02  0.51100000000E-03 0. -1.
    9900012    2    1    2    0    0 -0.68130777758E+01  0.39985799106E+02 -0.19591612913E+02  0.46142318126E+02  0.10000003326E+02 0.  0.
        -12    1    1    2    0    0  0.68130777758E+01 -0.39985799106E+02  0.19591612913E+02  0.45045681874E+02  0.00000000000E+00 0.  1.
         11    1    3    3    0    0 -0.65057760580E+01  0.20789205576E+02 -0.10713737538E+02  0.24275509529E+02  0.51100000000E-03 0. -1.
        -11    1    3    3    0    0 -0.19437747347E+00  0.13064528835E+02 -0.87633384973E+01  0.15732634813E+02  0.51100000000E-03 0.  1.
        -12    1    3    3    0    0 -0.11292424432E+00  0.61320646949E+01 -0.11453687791E+00  0.61341737833E+01  0.00000000000E+00 0.  1.
</event>
<event>
 7    1  0.4047706E-008  0.4614232E+02  0.7816164E-02  0.1320468E+00
        -11   -1    0    0    0    0  0.00000000000E+00  0.00000000000E+00  0.45593999997E+02  0.45594000000E+02  0.51100000000E-03 0.  1.
         11   -1    0    0    0    0 -0.00000000000E+00 -0.00000000000E+00 -0.45593999997E+02  0.45594000000E+02  0.51100000000E-03 0. -1.
    9900012    2    1    2    0    0 -0.17221964043E+02  0.25608554607E+02 -0.32813401375E+02  0.46142318471E+02  0.10000006477E+02 0.  0.
        -12    1    1    2    0    0  0.17221964043E+02 -0.25608554607E+02  0.32813401375E+02  0.45045681529E+02  0.00000000000E+00 0.  1.
         11    1    3    3    0    0 -0.30762638579E+01  0.24153828655E+01 -0.72015812360E+01  0.81951355248E+01  0.51100000000E-03 0. -1.
        -11    1    3    3    0    0 -0.13613935495E+01  0.16748426212E+01 -0.31617973897E-01  0.21585852218E+01  0.51100000000E-03 0.  1.
         12    1    3    3    0    0 -0.12784306636E+02  0.21518329120E+02 -0.25580202165E+02  0.35788597725E+02  0.00000000000E+00 0. -1.
</event>
<event>
 7    1  0.4047706E-008  0.4614232E+02  0.7816164E-02  0.1320468E+00
        -11   -1    0    0    0    0  0.00000000000E+00  0.00000000000E+00  0.45593999997E+02  0.45594000000E+02  0.51100000000E-03 0. -1.
         11   -1    0    0    0    0 -0.00000000000E+00 -0.00000000000E+00 -0.45593999997E+02  0.45594000000E+02  0.51100000000E-03 0.  1.
    9900012    2    1    2    0    0 -0.35619264184E+02  0.24252658210E+02 -0.13122118179E+02  0.46142318777E+02  0.10000009268E+02 0.  0.
        -12    1    1    2    0    0  0.35619264184E+02 -0.24252658210E+02  0.13122118179E+02  0.45045681223E+02  0.00000000000E+00 0.  1.
         11    1    3    3    0    0 -0.17486493639E+02  0.11323917164E+02 -0.16557564014E+01  0.20898566679E+02  0.51100000000E-03 0. -1.
        -11    1    3    3    0    0 -0.82567712593E+00  0.16105814292E+01 -0.90690194742E+00  0.20243978511E+01  0.51100000000E-03 0.  1.
        -12    1    3    3    0    0 -0.17307093419E+02  0.11318159617E+02 -0.10559459830E+02  0.23219354247E+02  0.00000000000E+00 0.  1.
</event>
<event>
 7    1  0.4047706E-008  0.4614232E+02  0.7816164E-02  0.1320468E+00
        -11   -1    0    0    0    0  0.00000000000E+00  0.00000000000E+00  0.45593999997E+02  0.45594000000E+02  0.51100000000E-03 0.  1.
         11   -1    0    0    0    0 -0.00000000000E+00 -0.00000000000E+00 -0.45593999997E+02  0.45594000000E+02  0.51100000000E-03 0. -1.
    9900012    2    1    2    0    0  0.16714797648E+02  0.26611927406E+02 -0.32272812862E+02  0.46142316625E+02  0.99999896416E+01 0.  0.
        -12    1    1    2    0    0 -0.16714797648E+02 -0.26611927406E+02  0.32272812862E+02  0.45045683375E+02  0.00000000000E+00 0.  1.
         11    1    3    3    0    0  0.14511084144E+01  0.83042060333E+01 -0.10223022841E+02  0.13250499981E+02  0.51100000000E-03 0. -1.
        -11    1    3    3    0    0  0.24820842672E+01  0.49098055429E+01 -0.27678539979E+01  0.61585671055E+01  0.51100000000E-03 0.  1.
        -12    1    3    3    0    0  0.12781604967E+02  0.13397915830E+02 -0.19281936023E+02  0.26733249538E+02  0.00000000000E+00 0.  1.
</event>
<event>
 7    1  0.4047706E-008  0.4614232E+02  0.7816164E-02  0.1320468E+00
        -11   -1    0    0    0    0  0.00000000000E+00  0.00000000000E+00  0.45593999997E+02  0.45594000000E+02  0.51100000000E-03 0.  1.
         11   -1    0    0    0    0 -0.00000000000E+00 -0.00000000000E+00 -0.45593999997E+02  0.45594000000E+02  0.51100000000E-03 0. -1.
    9900012    2    1    2    0    0 -0.24816820567E+02  0.24577300727E+01 -0.37512644417E+02  0.46142317506E+02  0.99999976741E+01 0.  0.
        -12    1    1    2    0    0  0.24816820567E+02 -0.24577300727E+01  0.37512644417E+02  0.45045682494E+02  0.00000000000E+00 0.  1.
         11    1    3    3    0    0 -0.33358366649E+01  0.20659185575E+01 -0.10212850393E+02  0.10940664475E+02  0.51100000000E-03 0.  1.
        -11    1    3    3    0    0 -0.10930287311E+02 -0.85497905572E+00 -0.18031263911E+02  0.21102811385E+02  0.51100000000E-03 0. -1.
         12    1    3    3    0    0 -0.10550696591E+02  0.12467905709E+01 -0.92685301136E+01  0.14098841646E+02  0.00000000000E+00 0. -1.
</event>
<event>
 7    1  0.4047706E-008  0.4614232E+02  0.7816164E-02  0.1320468E+00
        -11   -1    0    0    0    0  0.00000000000E+00  0.00000000000E+00  0.45593999997E+02  0.45594000000E+02  0.51100000000E-03 0.  1.
         11   -1    0    0    0    0 -0.00000000000E+00 -0.00000000000E+00 -0.45593999997E+02  0.45594000000E+02  0.51100000000E-03 0. -1.
    9900012    2    1    2    0    0  0.55054748855E+01  0.17371954183E+02 -0.41194882140E+02  0.46142319182E+02  0.10000012958E+02 0.  0.
        -12    1    1    2    0    0 -0.55054748855E+01 -0.17371954183E+02  0.41194882140E+02  0.45045680818E+02  0.00000000000E+00 0.  1.
         11    1    3    3    0    0 -0.78080413966E+00  0.84564791986E+01 -0.18061636174E+02  0.19958567010E+02  0.51100000000E-03 0. -1.
        -11    1    3    3    0    0  0.54927370316E+01  0.73474853563E+01 -0.13069387715E+02  0.15967610863E+02  0.51100000000E-03 0.  1.
        -12    1    3    3    0    0  0.79354199353E+00  0.15679896280E+01 -0.10063858250E+02  0.10216141309E+02  0.00000000000E+00 0.  1.
</event>
<event>
 7    1  0.4047706E-008  0.4614232E+02  0.7816164E-02  0.1320468E+00
        -11   -1    0    0    0    0  0.00000000000E+00  0.00000000000E+00  0.45593999997E+02  0.45594000000E+02  0.51100000000E-03 0. -1.
         11   -1    0    0    0    0 -0.00000000000E+00 -0.00000000000E+00 -0.45593999997E+02  0.45594000000E+02  0.51100000000E-03 0.  1.
    9900012    2    1    2    0    0 -0.18541109296E+02 -0.31844023686E+02  0.25909436646E+02  0.46142317790E+02  0.10000000263E+02 0.  0.
        -12    1    1    2    0    0  0.18541109296E+02  0.31844023686E+02 -0.25909436646E+02  0.45045682210E+02  0.00000000000E+00 0.  1.
         11    1    3    3    0    0 -0.12671431788E+01 -0.50854467705E+01  0.38409264382E+01  0.64977024290E+01  0.51100000000E-03 0. -1.
        -11    1    3    3    0    0 -0.84821998915E+00 -0.86038933911E-01 -0.54370778370E+00  0.10111865621E+01  0.51100000000E-03 0.  1.
        -12    1    3    3    0    0 -0.16425746128E+02 -0.26672537981E+02  0.22612217992E+02  0.38633428799E+02  0.00000000000E+00 0.  1.
</event>
<event>
 7    1  0.4047706E-008  0.4614231E+02  0.7816164E-02  0.1320468E+00
        -11   -1    0    0    0    0  0.00000000000E+00  0.00000000000E+00  0.45593999997E+02  0.45594000000E+02  0.51100000000E-03 0. -1.
         11   -1    0    0    0    0 -0.00000000000E+00 -0.00000000000E+00 -0.45593999997E+02  0.45594000000E+02  0.51100000000E-03 0.  1.
    9900012    2    1    2    0    0  0.22966789921E+02 -0.29796144784E+02  0.24775594554E+02  0.46142314648E+02  0.99999716161E+01 0.  0.
        -12    1    1    2    0    0 -0.22966789921E+02  0.29796144784E+02 -0.24775594554E+02  0.45045685352E+02  0.00000000000E+00 0.  1.
         11    1    3    3    0    0  0.41678181754E+01 -0.52841189749E+01  0.46256753816E+01  0.81663636143E+01  0.51100000000E-03 0. -1.
        -11    1    3    3    0    0  0.11822450170E+02 -0.20158715154E+02  0.11517873598E+02  0.26053896775E+02  0.51100000000E-03 0.  1.
        -12    1    3    3    0    0  0.69765215758E+01 -0.43533106554E+01  0.86320455745E+01  0.11922054259E+02  0.00000000000E+00 0.  1.
</event>
<event>
 7    1  0.4047706E-008  0.4614232E+02  0.7816164E-02  0.1320468E+00
        -11   -1    0    0    0    0  0.00000000000E+00  0.00000000000E+00  0.45593999997E+02  0.45594000000E+02  0.51100000000E-03 0. -1.
         11   -1    0    0    0    0 -0.00000000000E+00 -0.00000000000E+00 -0.45593999997E+02  0.45594000000E+02  0.51100000000E-03 0.  1.
    9900012    2    1    2    0    0 -0.32975222049E+02 -0.30686271288E+02 -0.31803304386E+00  0.46142315859E+02  0.99999826563E+01 0.  0.
        -12    1    1    2    0    0  0.32975222049E+02  0.30686271288E+02  0.31803304386E+00  0.45045684141E+02  0.00000000000E+00 0.  1.
         11    1    3    3    0    0 -0.78614198878E+01 -0.47738958787E+01  0.56593763909E+00  0.92147864970E+01  0.51100000000E-03 0. -1.
        -11    1    3    3    0    0 -0.13287586480E+02 -0.10772740335E+02 -0.37268597638E+01  0.17507180606E+02  0.51100000000E-03 0.  1.
         12    1    3    3    0    0 -0.11826215680E+02 -0.15139635074E+02  0.28428890809E+01  0.19420348757E+02  0.00000000000E+00 0. -1.
</event>
<event>
 7    1  0.4047706E-008  0.4614232E+02  0.7816164E-02  0.1320468E+00
        -11   -1    0    0    0    0  0.00000000000E+00  0.00000000000E+00  0.45593999997E+02  0.45594000000E+02  0.51100000000E-03 0.  1.
         11   -1    0    0    0    0 -0.00000000000E+00 -0.00000000000E+00 -0.45593999997E+02  0.45594000000E+02  0.51100000000E-03 0. -1.
    9900012    2    1    2    0    0 -0.32095265548E+01  0.36784726179E+02 -0.25801086513E+02  0.46142320895E+02  0.10000028578E+02 0.  0.
        -12    1    1    2    0    0  0.32095265548E+01 -0.36784726179E+02  0.25801086513E+02  0.45045679105E+02  0.00000000000E+00 0.  1.
         11    1    3    3    0    0 -0.88197991653E+00  0.17567149330E+02 -0.14658868702E+02  0.22896835065E+02  0.51100000000E-03 0. -1.
        -11    1    3    3    0    0 -0.32840282571E+01  0.18226878532E+02 -0.11528361876E+02  0.21815294415E+02  0.51100000000E-03 0.  1.
        -12    1    3    3    0    0  0.95648161880E+00  0.99069831761E+00  0.38614406476E+00  0.14301914146E+01  0.00000000000E+00 0.  1.
</event>
<event>
 7    1  0.4047706E-008  0.4614232E+02  0.7816164E-02  0.1320468E+00
        -11   -1    0    0    0    0  0.00000000000E+00  0.00000000000E+00  0.45593999997E+02  0.45594000000E+02  0.51100000000E-03 0. -1.
         11   -1    0    0    0    0 -0.00000000000E+00 -0.00000000000E+00 -0.45593999997E+02  0.45594000000E+02  0.51100000000E-03 0.  1.
    9900012    2    1    2    0    0 -0.59864086011E+01  0.44645641308E+02 -0.20784809524E+00  0.46142316782E+02  0.99999910690E+01 0.  0.
        -12    1    1    2    0    0  0.59864086011E+01 -0.44645641308E+02  0.20784809524E+00  0.45045683218E+02  0.00000000000E+00 0.  1.
         11    1    3    3    0    0 -0.59178237102E+01  0.35626466749E+02 -0.23572737138E+01  0.36191470129E+02  0.51100000000E-03 0. -1.
        -11    1    3    3    0    0 -0.16555045984E+01  0.56420690398E+01  0.59965802032E+00  0.59104338697E+01  0.51100000000E-03 0.  1.
         12    1    3    3    0    0  0.15869197075E+01  0.33771055199E+01  0.15497675983E+01  0.40404127833E+01  0.00000000000E+00 0. -1.
</event>
<event>
 7    1  0.4047706E-008  0.4614232E+02  0.7816164E-02  0.1320468E+00
        -11   -1    0    0    0    0  0.00000000000E+00  0.00000000000E+00  0.45593999997E+02  0.45594000000E+02  0.51100000000E-03 0.  1.
         11   -1    0    0    0    0 -0.00000000000E+00 -0.00000000000E+00 -0.45593999997E+02  0.45594000000E+02  0.51100000000E-03 0. -1.
    9900012    2    1    2    0    0  0.36482128409E+02  0.20237561568E+02 -0.16988491793E+02  0.46142318244E+02  0.10000004406E+02 0.  0.
        -12    1    1    2    0    0 -0.36482128409E+02 -0.20237561568E+02  0.16988491793E+02  0.45045681756E+02  0.00000000000E+00 0.  1.
         11    1    3    3    0    0  0.19499221233E+02  0.74441110412E+01 -0.10650241694E+02  0.23432073453E+02  0.51100000000E-03 0. -1.
        -11    1    3    3    0    0  0.11351539035E+02  0.95812543510E+01 -0.65249747737E+01  0.16224462070E+02  0.51100000000E-03 0.  1.
         12    1    3    3    0    0  0.56313681402E+01  0.32121961756E+01  0.18672467509E+00  0.64857827211E+01  0.00000000000E+00 0. -1.
</event>
<event>
 7    1  0.4047706E-008  0.4614232E+02  0.7816164E-02  0.1320468E+00
        -11   -1    0    0    0    0  0.00000000000E+00  0.00000000000E+00  0.45593999997E+02  0.45594000000E+02  0.51100000000E-03 0. -1.
         11   -1    0    0    0    0 -0.00000000000E+00 -0.00000000000E+00 -0.45593999997E+02  0.45594000000E+02  0.51100000000E-03 0.  1.
    9900012    2    1    2    0    0  0.41601301508E+02 -0.10320470224E+02 -0.13853991054E+02  0.46142318066E+02  0.10000002776E+02 0.  0.
        -12    1    1    2    0    0 -0.41601301508E+02  0.10320470224E+02  0.13853991054E+02  0.45045681934E+02  0.00000000000E+00 0.  1.
         11    1    3    3    0    0  0.14014894361E+02 -0.28947500916E+01 -0.24491482125E+01  0.14518786770E+02  0.51100000000E-03 0. -1.
        -11    1    3    3    0    0  0.21019869435E+02 -0.61661539813E+01 -0.11881339788E+02  0.24920325066E+02  0.51100000000E-03 0.  1.
        -12    1    3    3    0    0  0.65665377121E+01 -0.12595661513E+01  0.47649694663E+00  0.67032062294E+01  0.00000000000E+00 0.  1.
</event>
<event>
 7    1  0.4047706E-008  0.4614232E+02  0.7816164E-02  0.1320468E+00
        -11   -1    0    0    0    0  0.00000000000E+00  0.00000000000E+00  0.45593999997E+02  0.45594000000E+02  0.51100000000E-03 0.  1.
         11   -1    0    0    0    0 -0.00000000000E+00 -0.00000000000E+00 -0.45593999997E+02  0.45594000000E+02  0.51100000000E-03 0. -1.
    9900012    2    1    2    0    0 -0.17821836495E+02 -0.85963648994E+01 -0.40467247542E+02  0.46142317975E+02  0.10000001947E+02 0.  0.
        -12    1    1    2    0    0  0.17821836495E+02  0.85963648994E+01  0.40467247542E+02  0.45045682025E+02  0.00000000000E+00 0.  1.
         11    1    3    3    0    0 -0.66935267326E+01 -0.33350474845E+00 -0.17235692110E+02  0.18492798823E+02  0.51100000000E-03 0. -1.
        -11    1    3    3    0    0 -0.11521342959E+00 -0.18536650680E+01 -0.12401678234E+01  0.22332408760E+01  0.51100000000E-03 0.  1.
        -12    1    3    3    0    0 -0.11013096333E+02 -0.64091950829E+01 -0.21991387608E+02  0.25416278276E+02  0.00000000000E+00 0.  1.
</event>
<event>
 7    1  0.4047706E-008  0.4614232E+02  0.7816164E-02  0.1320468E+00
        -11   -1    0    0    0    0  0.00000000000E+00  0.00000000000E+00  0.45593999997E+02  0.45594000000E+02  0.51100000000E-03 0.  1.
         11   -1    0    0    0    0 -0.00000000000E+00 -0.00000000000E+00 -0.45593999997E+02  0.45594000000E+02  0.51100000000E-03 0. -1.
    9900012    2    1    2    0    0  0.16802085433E+02  0.41377358484E+01 -0.41589452708E+02  0.46142317527E+02  0.99999978671E+01 0.  0.
        -12    1    1    2    0    0 -0.16802085433E+02 -0.41377358484E+01  0.41589452708E+02  0.45045682473E+02  0.00000000000E+00 0.  1.
         11    1    3    3    0    0  0.21054819095E+01 -0.26091819225E+01 -0.10127911505E+02  0.10668433629E+02  0.51100000000E-03 0. -1.
        -11    1    3    3    0    0  0.18091345502E+01  0.84505190437E+00 -0.61197051715E+01  0.64372255040E+01  0.51100000000E-03 0.  1.
         12    1    3    3    0    0  0.12887468974E+02  0.59018658666E+01 -0.25341836031E+02  0.29036658394E+02  0.00000000000E+00 0. -1.
</event>
<event>
 7    1  0.4047706E-008  0.4614232E+02  0.7816164E-02  0.1320468E+00
        -11   -1    0    0    0    0  0.00000000000E+00  0.00000000000E+00  0.45593999997E+02  0.45594000000E+02  0.51100000000E-03 0. -1.
         11   -1    0    0    0    0 -0.00000000000E+00 -0.00000000000E+00 -0.45593999997E+02  0.45594000000E+02  0.51100000000E-03 0.  1.
    9900012    2    1    2    0    0  0.34464116260E+02 -0.16539442491E+02  0.23828240134E+02  0.46142317684E+02  0.99999992925E+01 0.  0.
        -12    1    1    2    0    0 -0.34464116260E+02  0.16539442491E+02 -0.23828240134E+02  0.45045682316E+02  0.00000000000E+00 0.  1.
         11    1    3    3    0    0  0.47659770917E+01 -0.26848208249E+01  0.21550425712E+01  0.58793715009E+01  0.51100000000E-03 0. -1.
        -11    1    3    3    0    0  0.13889680972E+01 -0.35035586194E+01  0.19747327025E+01  0.42548472219E+01  0.51100000000E-03 0.  1.
         12    1    3    3    0    0  0.28309171071E+02 -0.10351063047E+02  0.19698464860E+02  0.36008098961E+02  0.00000000000E+00 0. -1.
</event>
<event>
 7    1  0.4047706E-008  0.4614232E+02  0.7816164E-02  0.1320468E+00
        -11   -1    0    0    0    0  0.00000000000E+00  0.00000000000E+00  0.45593999997E+02  0.45594000000E+02  0.51100000000E-03 0.  1.
         11   -1    0    0    0    0 -0.00000000000E+00 -0.00000000000E+00 -0.45593999997E+02  0.45594000000E+02  0.51100000000E-03 0. -1.
    9900012    2    1    2    0    0  0.34652556531E+02  0.28702083328E+02  0.21223342651E+01  0.46142316919E+02  0.99999923210E+01 0.  0.
        -12    1    1    2    0    0 -0.34652556531E+02 -0.28702083328E+02 -0.21223342651E+01  0.45045683081E+02  0.00000000000E+00 0.  1.
         11    1    3    3    0    0  0.13057577547E+02  0.12068260355E+02  0.20824559173E+01  0.17901951354E+02  0.51100000000E-03 0. -1.
        -11    1    3    3    0    0  0.25495433891E-01  0.17190962372E+01  0.10183446336E+01  0.19982412126E+01  0.51100000000E-03 0.  1.
         12    1    3    3    0    0  0.21569483550E+02  0.14914726736E+02 -0.97846628581E+00  0.26242124352E+02  0.00000000000E+00 0. -1.
</event>
<event>
 7    1  0.4047706E-008  0.4614232E+02  0.7816164E-02  0.1320468E+00
        -11   -1    0    0    0    0  0.00000000000E+00  0.00000000000E+00  0.45593999997E+02  0.45594000000E+02  0.51100000000E-03 0. -1.
         11   -1    0    0    0    0 -0.00000000000E+00 -0.00000000000E+00 -0.45593999997E+02  0.45594000000E+02  0.51100000000E-03 0.  1.
    9900012    2    1    2    0    0  0.29812343164E+02 -0.13119599044E+02  0.31116134713E+02  0.46142317372E+02  0.99999964501E+01 0.  0.
        -12    1    1    2    0    0 -0.29812343164E+02  0.13119599044E+02 -0.31116134713E+02  0.45045682628E+02  0.00000000000E+00 0.  1.
         11    1    3    3    0    0  0.14196041735E+02 -0.76121275562E+01  0.12761112143E+02  0.20550378835E+02  0.51100000000E-03 0.  1.
        -11    1    3    3    0    0  0.13524397225E+02 -0.66401053752E+01  0.17430909662E+02  0.23039898689E+02  0.51100000000E-03 0. -1.
        -12    1    3    3    0    0  0.20919042036E+01  0.11326338871E+01  0.92411290763E+00  0.25520398479E+01  0.00000000000E+00 0.  1.
</event>
<event>
 7    1  0.4047706E-008  0.4614232E+02  0.7816164E-02  0.1320468E+00
        -11   -1    0    0    0    0  0.00000000000E+00  0.00000000000E+00  0.45593999997E+02  0.45594000000E+02  0.51100000000E-03 0.  1.
         11   -1    0    0    0    0 -0.00000000000E+00 -0.00000000000E+00 -0.45593999997E+02  0.45594000000E+02  0.51100000000E-03 0. -1.
    9900012    2    1    2    0    0  0.16999232587E+00  0.44495612448E+02 -0.70160570243E+01  0.46142317846E+02  0.10000000778E+02 0.  0.
        -12    1    1    2    0    0 -0.16999232587E+00 -0.44495612448E+02  0.70160570243E+01  0.45045682154E+02  0.00000000000E+00 0.  1.
         11    1    3    3    0    0  0.31598392266E+01  0.19270471275E+02 -0.30471168960E+00  0.19530194484E+02  0.51100000000E-03 0. -1.
        -11    1    3    3    0    0  0.71779404170E+00  0.76534604532E+01 -0.91509253869E+00  0.77413228721E+01  0.51100000000E-03 0.  1.
        -12    1    3    3    0    0 -0.37076409424E+01  0.17571680720E+02 -0.57962527960E+01  0.18870800491E+02  0.00000000000E+00 0.  1.
</event>
<event>
 7    1  0.4047706E-008  0.4614232E+02  0.7816164E-02  0.1320468E+00
        -11   -1    0    0    0    0  0.00000000000E+00  0.00000000000E+00  0.45593999997E+02  0.45594000000E+02  0.51100000000E-03 0.  1.
         11   -1    0    0    0    0 -0.00000000000E+00 -0.00000000000E+00 -0.45593999997E+02  0.45594000000E+02  0.51100000000E-03 0. -1.
    9900012    2    1    2    0    0  0.12381084542E+02  0.27753923920E+02 -0.33249691422E+02  0.46142317332E+02  0.99999960877E+01 0.  0.
        -12    1    1    2    0    0 -0.12381084542E+02 -0.27753923920E+02  0.33249691422E+02  0.45045682668E+02  0.00000000000E+00 0.  1.
         11    1    3    3    0    0  0.96735115868E+00  0.19124214483E+01 -0.41898148022E+01  0.47061313622E+01  0.51100000000E-03 0. -1.
        -11    1    3    3    0    0  0.10299112888E+02  0.21551636117E+02 -0.19271157929E+02  0.30690752252E+02  0.51100000000E-03 0.  1.
        -12    1    3    3    0    0  0.11146204956E+01  0.42898663544E+01 -0.97887186904E+01  0.10745433718E+02  0.00000000000E+00 0.  1.
</event>
<event>
 7    1  0.4047706E-008  0.4614232E+02  0.7816164E-02  0.1320468E+00
        -11   -1    0    0    0    0  0.00000000000E+00  0.00000000000E+00  0.45593999997E+02  0.45594000000E+02  0.51100000000E-03 0. -1.
         11   -1    0    0    0    0 -0.00000000000E+00 -0.00000000000E+00 -0.45593999997E+02  0.45594000000E+02  0.51100000000E-03 0.  1.
    9900012    2    1    2    0    0  0.24978841469E+02 -0.32154596093E+02  0.19267921370E+02  0.46142319131E+02  0.10000012489E+02 0.  0.
        -12    1    1    2    0    0 -0.24978841469E+02  0.32154596093E+02 -0.19267921370E+02  0.45045680869E+02  0.00000000000E+00 0.  1.
         11    1    3    3    0    0  0.78271918389E+01 -0.63726010674E+01  0.62347396051E+01  0.11863682171E+02  0.51100000000E-03 0. -1.
        -11    1    3    3    0    0  0.17598543419E+02 -0.25558009955E+02  0.13240218622E+02  0.33737575383E+02  0.51100000000E-03 0.  1.
        -12    1    3    3    0    0 -0.44689378843E+00 -0.22398507081E+00 -0.20703685636E+00  0.54106157688E+00  0.00000000000E+00 0.  1.
</event>
<event>
 7    1  0.4047706E-008  0.4614232E+02  0.7816164E-02  0.1320468E+00
        -11   -1    0    0    0    0  0.00000000000E+00  0.00000000000E+00  0.45593999997E+02  0.45594000000E+02  0.51100000000E-03 0.  1.
         11   -1    0    0    0    0 -0.00000000000E+00 -0.00000000000E+00 -0.45593999997E+02  0.45594000000E+02  0.51100000000E-03 0. -1.
    9900012    2    1    2    0    0  0.31742203512E+02 -0.23375381786E+02 -0.21797648281E+02  0.46142318431E+02  0.10000006109E+02 0.  0.
        -12    1    1    2    0    0 -0.31742203512E+02  0.23375381786E+02  0.21797648281E+02  0.45045681569E+02  0.00000000000E+00 0.  1.
         11    1    3    3    0    0  0.25344953172E+02 -0.17187657354E+02 -0.20781855116E+02  0.37009022130E+02  0.51100000000E-03 0. -1.
        -11    1    3    3    0    0  0.28201472458E+01 -0.16491943822E+01 -0.72972588578E+00  0.33474725881E+01  0.51100000000E-03 0.  1.
        -12    1    3    3    0    0  0.35771030937E+01 -0.45385300497E+01 -0.28606727855E+00  0.57858237134E+01  0.00000000000E+00 0.  1.
</event>
<event>
 7    1  0.4047706E-008  0.4614232E+02  0.7816164E-02  0.1320468E+00
        -11   -1    0    0    0    0  0.00000000000E+00  0.00000000000E+00  0.45593999997E+02  0.45594000000E+02  0.51100000000E-03 0.  1.
         11   -1    0    0    0    0 -0.00000000000E+00 -0.00000000000E+00 -0.45593999997E+02  0.45594000000E+02  0.51100000000E-03 0. -1.
    9900012    2    1    2    0    0  0.30228572327E+02 -0.67428877904E+01 -0.32709024524E+02  0.46142318675E+02  0.10000008335E+02 0.  0.
        -12    1    1    2    0    0 -0.30228572327E+02  0.67428877904E+01  0.32709024524E+02  0.45045681325E+02  0.00000000000E+00 0.  1.
         11    1    3    3    0    0  0.33565412056E+01 -0.74657815838E+00 -0.58453877841E+01  0.67817627811E+01  0.51100000000E-03 0. -1.
        -11    1    3    3    0    0  0.88051598872E+01  0.14114701679E+01 -0.57970349038E+01  0.10636197752E+02  0.51100000000E-03 0.  1.
         12    1    3    3    0    0  0.18066871235E+02 -0.74077797999E+01 -0.21066601836E+02  0.28724358142E+02  0.00000000000E+00 0. -1.
</event>
<event>
 7    1  0.4047706E-008  0.4614230E+02  0.7816164E-02  0.1320468E+00
        -11   -1    0    0    0    0  0.00000000000E+00  0.00000000000E+00  0.45593999997E+02  0.45594000000E+02  0.51100000000E-03 0. -1.
         11   -1    0    0    0    0 -0.00000000000E+00 -0.00000000000E+00 -0.45593999997E+02  0.45594000000E+02  0.51100000000E-03 0.  1.
    9900012    2    1    2    0    0  0.85811810161E+01  0.27788145548E+02  0.34399083958E+02  0.46142304559E+02  0.99998796142E+01 0.  0.
        -12    1    1    2    0    0 -0.85811810161E+01 -0.27788145548E+02 -0.34399083958E+02  0.45045695441E+02  0.00000000000E+00 0.  1.
         11    1    3    3    0    0  0.93956919621E+00  0.13303771559E+02  0.13536467785E+02  0.19002870529E+02  0.51100000000E-03 0. -1.
        -11    1    3    3    0    0  0.37227997055E+01  0.81352679178E+01  0.68631257722E+01  0.11275828899E+02  0.51100000000E-03 0.  1.
         12    1    3    3    0    0  0.39188121144E+01  0.63491060706E+01  0.13999490400E+02  0.15863605131E+02  0.00000000000E+00 0. -1.
</event>
<event>
 7    1  0.4047706E-008  0.4614232E+02  0.7816164E-02  0.1320468E+00
        -11   -1    0    0    0    0  0.00000000000E+00  0.00000000000E+00  0.45593999997E+02  0.45594000000E+02  0.51100000000E-03 0.  1.
         11   -1    0    0    0    0 -0.00000000000E+00 -0.00000000000E+00 -0.45593999997E+02  0.45594000000E+02  0.51100000000E-03 0. -1.
    9900012    2    1    2    0    0 -0.25144544247E+02  0.13019933466E+02 -0.35033508750E+02  0.46142317541E+02  0.99999979912E+01 0.  0.
        -12    1    1    2    0    0  0.25144544247E+02 -0.13019933466E+02  0.35033508750E+02  0.45045682459E+02  0.00000000000E+00 0.  1.
         11    1    3    3    0    0 -0.12136353351E+02  0.27525259315E+01 -0.19580089342E+02  0.23200158848E+02  0.51100000000E-03 0. -1.
        -11    1    3    3    0    0 -0.71420082977E+01  0.38837964610E+01 -0.90419879248E+01  0.12159346338E+02  0.51100000000E-03 0.  1.
        -12    1    3    3    0    0 -0.58661825988E+01  0.63836110732E+01 -0.64114314837E+01  0.10782812355E+02  0.00000000000E+00 0.  1.
</event>
<event>
 7    1  0.4047706E-008  0.4614232E+02  0.7816164E-02  0.1320468E+00
        -11   -1    0    0    0    0  0.00000000000E+00  0.00000000000E+00  0.45593999997E+02  0.45594000000E+02  0.51100000000E-03 0.  1.
         11   -1    0    0    0    0 -0.00000000000E+00 -0.00000000000E+00 -0.45593999997E+02  0.45594000000E+02  0.51100000000E-03 0. -1.
    9900012    2    1    2    0    0  0.35249635398E+02  0.19498375600E+01 -0.27978112778E+02  0.46142318111E+02  0.10000003194E+02 0.  0.
        -12    1    1    2    0    0 -0.35249635398E+02 -0.19498375600E+01  0.27978112778E+02  0.45045681889E+02  0.00000000000E+00 0.  1.
         11    1    3    3    0    0  0.25498617202E+02  0.42429008343E+01 -0.19659981500E+02  0.32476092122E+02  0.51100000000E-03 0. -1.
        -11    1    3    3    0    0  0.76325662272E+01 -0.23281196665E+01 -0.41590068939E+01  0.89985302688E+01  0.51100000000E-03 0.  1.
        -12    1    3    3    0    0  0.21184519689E+01  0.35056392245E-01 -0.41591243842E+01  0.46676957204E+01  0.00000000000E+00 0.  1.
</event>
<event>
 7    1  0.4047706E-008  0.4614232E+02  0.7816164E-02  0.1320468E+00
        -11   -1    0    0    0    0  0.00000000000E+00  0.00000000000E+00  0.45593999997E+02  0.45594000000E+02  0.51100000000E-03 0.  1.
         11   -1    0    0    0    0 -0.00000000000E+00 -0.00000000000E+00 -0.45593999997E+02  0.45594000000E+02  0.51100000000E-03 0. -1.
    9900012    2    1    2    0    0 -0.15125692002E+02  0.37262709420E+02 -0.20293283248E+02  0.46142318555E+02  0.10000007238E+02 0.  0.
        -12    1    1    2    0    0  0.15125692002E+02 -0.37262709420E+02  0.20293283248E+02  0.45045681445E+02  0.00000000000E+00 0.  1.
         11    1    3    3    0    0 -0.84213086360E-01  0.58262687351E+00  0.31178542060E+00  0.66615037887E+00  0.51100000000E-03 0. -1.
        -11    1    3    3    0    0 -0.30982710823E+01  0.82466222737E+01 -0.88065299416E+01  0.12456365140E+02  0.51100000000E-03 0.  1.
         12    1    3    3    0    0 -0.11943207833E+02  0.28433460273E+02 -0.11798538727E+02  0.33019803036E+02  0.00000000000E+00 0. -1.
</event>
<event>
 7    1  0.4047706E-008  0.4614232E+02  0.7816164E-02  0.1320468E+00
        -11   -1    0    0    0    0  0.00000000000E+00  0.00000000000E+00  0.45593999997E+02  0.45594000000E+02  0.51100000000E-03 0. -1.
         11   -1    0    0    0    0 -0.00000000000E+00 -0.00000000000E+00 -0.45593999997E+02  0.45594000000E+02  0.51100000000E-03 0.  1.
    9900012    2    1    2    0    0 -0.53118391139E+01  0.43879592928E+02 -0.86878740065E+01  0.46142318020E+02  0.10000002359E+02 0.  0.
        -12    1    1    2    0    0  0.53118391139E+01 -0.43879592928E+02  0.86878740065E+01  0.45045681980E+02  0.00000000000E+00 0.  1.
         11    1    3    3    0    0  0.52597235294E+00  0.14283228935E+00  0.40932499558E+00  0.68161220065E+00  0.51100000000E-03 0. -1.
        -11    1    3    3    0    0 -0.64314176887E+01  0.25837925940E+02 -0.58098370202E+01  0.27252811906E+02  0.51100000000E-03 0.  1.
        -12    1    3    3    0    0  0.59360622182E+00  0.17898834699E+02 -0.32873619819E+01  0.18207893913E+02  0.00000000000E+00 0.  1.
</event>
<event>
 7    1  0.4047706E-008  0.4614232E+02  0.7816164E-02  0.1320468E+00
        -11   -1    0    0    0    0  0.00000000000E+00  0.00000000000E+00  0.45593999997E+02  0.45594000000E+02  0.51100000000E-03 0. -1.
         11   -1    0    0    0    0 -0.00000000000E+00 -0.00000000000E+00 -0.45593999997E+02  0.45594000000E+02  0.51100000000E-03 0.  1.
    9900012    2    1    2    0    0  0.11383267742E+02  0.22116948909E+02  0.37554963196E+02  0.46142317919E+02  0.10000001438E+02 0.  0.
        -12    1    1    2    0    0 -0.11383267742E+02 -0.22116948909E+02 -0.37554963196E+02  0.45045682081E+02  0.00000000000E+00 0.  1.
         11    1    3    3    0    0  0.43927304848E+01  0.11189294249E+02  0.13595749203E+02  0.18147748718E+02  0.51100000000E-03 0. -1.
        -11    1    3    3    0    0  0.54345089017E+01  0.10320443347E+02  0.23541892954E+02  0.26272916892E+02  0.51100000000E-03 0.  1.
        -12    1    3    3    0    0  0.15560283556E+01  0.60721131287E+00  0.41732103903E+00  0.17216523086E+01  0.00000000000E+00 0.  1.
</event>
<event>
 7    1  0.4047706E-008  0.4614232E+02  0.7816164E-02  0.1320468E+00
        -11   -1    0    0    0    0  0.00000000000E+00  0.00000000000E+00  0.45593999997E+02  0.45594000000E+02  0.51100000000E-03 0. -1.
         11   -1    0    0    0    0 -0.00000000000E+00 -0.00000000000E+00 -0.45593999997E+02  0.45594000000E+02  0.51100000000E-03 0.  1.
    9900012    2    1    2    0    0 -0.31343003509E+02 -0.44514815536E+00  0.32350140458E+02  0.46142316372E+02  0.99999873367E+01 0.  0.
        -12    1    1    2    0    0  0.31343003509E+02  0.44514815536E+00 -0.32350140458E+02  0.45045683628E+02  0.00000000000E+00 0.  1.
         11    1    3    3    0    0 -0.25191378383E+02  0.33449474717E+00  0.28059437663E+02  0.37710071252E+02  0.51100000000E-03 0. -1.
        -11    1    3    3    0    0 -0.15928649544E+01  0.14314347383E+01  0.17423727925E+01  0.27608128118E+01  0.51100000000E-03 0.  1.
        -12    1    3    3    0    0 -0.45587601715E+01 -0.22110776409E+01  0.25483300023E+01  0.56714323090E+01  0.00000000000E+00 0.  1.
</event>
<event>
 7    1  0.4047706E-008  0.4614232E+02  0.7816164E-02  0.1320468E+00
        -11   -1    0    0    0    0  0.00000000000E+00  0.00000000000E+00  0.45593999997E+02  0.45594000000E+02  0.51100000000E-03 0.  1.
         11   -1    0    0    0    0 -0.00000000000E+00 -0.00000000000E+00 -0.45593999997E+02  0.45594000000E+02  0.51100000000E-03 0. -1.
    9900012    2    1    2    0    0  0.78397397348E+01  0.31193857298E+02 -0.31537203211E+02  0.46142318313E+02  0.10000005036E+02 0.  0.
        -12    1    1    2    0    0 -0.78397397348E+01 -0.31193857298E+02  0.31537203211E+02  0.45045681687E+02  0.00000000000E+00 0.  1.
         11    1    3    3    0    0  0.25311546348E+00  0.10296810188E+02 -0.82714695024E+01  0.13210055847E+02  0.51100000000E-03 0. -1.
        -11    1    3    3    0    0  0.58394659214E+01  0.63546479335E+01 -0.78230253417E+01  0.11648203225E+02  0.51100000000E-03 0.  1.
        -12    1    3    3    0    0  0.17471583499E+01  0.14542399177E+02 -0.15442708366E+02  0.21284059242E+02  0.00000000000E+00 0.  1.
</event>
<event>
 7    1  0.4047706E-008  0.4614232E+02  0.7816164E-02  0.1320468E+00
        -11   -1    0    0    0    0  0.00000000000E+00  0.00000000000E+00  0.45593999997E+02  0.45594000000E+02  0.51100000000E-03 0.  1.
         11   -1    0    0    0    0 -0.00000000000E+00 -0.00000000000E+00 -0.45593999997E+02  0.45594000000E+02  0.51100000000E-03 0. -1.
    9900012    2    1    2    0    0  0.54498581989E+01  0.15403808727E+02 -0.41977796795E+02  0.46142315396E+02  0.99999784325E+01 0.  0.
        -12    1    1    2    0    0 -0.54498581989E+01 -0.15403808727E+02  0.41977796795E+02  0.45045684604E+02  0.00000000000E+00 0.  1.
         11    1    3    3    0    0  0.46459321137E+01  0.65078246001E+01 -0.15199946215E+02  0.17174831336E+02  0.51100000000E-03 0. -1.
        -11    1    3    3    0    0 -0.52311480818E+00 -0.94857977427E+00 -0.33459424361E+01  0.35169281678E+01  0.51100000000E-03 0.  1.
         12    1    3    3    0    0  0.13270408933E+01  0.98445639014E+01 -0.23431908144E+02  0.25450555892E+02  0.00000000000E+00 0. -1.
</event>
<event>
 7    1  0.4047706E-008  0.4614232E+02  0.7816164E-02  0.1320468E+00
        -11   -1    0    0    0    0  0.00000000000E+00  0.00000000000E+00  0.45593999997E+02  0.45594000000E+02  0.51100000000E-03 0. -1.
         11   -1    0    0    0    0 -0.00000000000E+00 -0.00000000000E+00 -0.45593999997E+02  0.45594000000E+02  0.51100000000E-03 0.  1.
    9900012    2    1    2    0    0  0.39933318433E+02  0.19141285048E+02  0.82495262830E+01  0.46142318761E+02  0.10000009120E+02 0.  0.
        -12    1    1    2    0    0 -0.39933318433E+02 -0.19141285048E+02 -0.82495262830E+01  0.45045681239E+02  0.00000000000E+00 0.  1.
         11    1    3    3    0    0  0.24551974012E+02  0.15123202506E+02  0.21072967818E+01  0.28912823831E+02  0.51100000000E-03 0. -1.
        -11    1    3    3    0    0  0.15012834932E+02  0.38794901888E+01  0.54551142591E+01  0.16437576727E+02  0.51100000000E-03 0.  1.
         12    1    3    3    0    0  0.36850948956E+00  0.13859235313E+00  0.68711524212E+00  0.79191820297E+00  0.00000000000E+00 0. -1.
</event>
<event>
 7    1  0.4047706E-008  0.4614232E+02  0.7816164E-02  0.1320468E+00
        -11   -1    0    0    0    0  0.00000000000E+00  0.00000000000E+00  0.45593999997E+02  0.45594000000E+02  0.51100000000E-03 0.  1.
         11   -1    0    0    0    0 -0.00000000000E+00 -0.00000000000E+00 -0.45593999997E+02  0.45594000000E+02  0.51100000000E-03 0. -1.
    9900012    2    1    2    0    0 -0.93289696212E+01  0.19477632860E+02 -0.39531072246E+02  0.46142317311E+02  0.99999958916E+01 0.  0.
        -12    1    1    2    0    0  0.93289696212E+01 -0.19477632860E+02  0.39531072246E+02  0.45045682689E+02  0.00000000000E+00 0.  1.
         11    1    3    3    0    0 -0.50007912104E+01  0.51027968001E+01 -0.16313474164E+02  0.17809432542E+02  0.51100000000E-03 0. -1.
        -11    1    3    3    0    0 -0.19188481680E+01  0.51903587724E+01 -0.14191109916E+02  0.15231854890E+02  0.51100000000E-03 0.  1.
         12    1    3    3    0    0 -0.24093302428E+01  0.91844772874E+01 -0.90264881662E+01  0.13101029878E+02  0.00000000000E+00 0. -1.
</event>
<event>
 7    1  0.4047706E-008  0.4614232E+02  0.7816164E-02  0.1320468E+00
        -11   -1    0    0    0    0  0.00000000000E+00  0.00000000000E+00  0.45593999997E+02  0.45594000000E+02  0.51100000000E-03 0.  1.
         11   -1    0    0    0    0 -0.00000000000E+00 -0.00000000000E+00 -0.45593999997E+02  0.45594000000E+02  0.51100000000E-03 0. -1.
    9900012    2    1    2    0    0  0.48245766817E+01  0.30510835439E+02 -0.32786062383E+02  0.46142317566E+02  0.99999982232E+01 0.  0.
        -12    1    1    2    0    0 -0.48245766817E+01 -0.30510835439E+02  0.32786062383E+02  0.45045682434E+02  0.00000000000E+00 0.  1.
         11    1    3    3    0    0 -0.18022299531E+01  0.80434760827E+01 -0.69310167610E+01  0.10769611595E+02  0.51100000000E-03 0. -1.
        -11    1    3    3    0    0  0.54828956070E+01  0.92051604764E+01 -0.98340141827E+01  0.14543210060E+02  0.51100000000E-03 0.  1.
         12    1    3    3    0    0  0.11439110278E+01  0.13262198880E+02 -0.16021031439E+02  0.20829495912E+02  0.00000000000E+00 0. -1.
</event>
<event>
 7    1  0.4047706E-008  0.4614232E+02  0.7816164E-02  0.1320468E+00
        -11   -1    0    0    0    0  0.00000000000E+00  0.00000000000E+00  0.45593999997E+02  0.45594000000E+02  0.51100000000E-03 0. -1.
         11   -1    0    0    0    0 -0.00000000000E+00 -0.00000000000E+00 -0.45593999997E+02  0.45594000000E+02  0.51100000000E-03 0.  1.
    9900012    2    1    2    0    0  0.25286918935E+02 -0.86319589717E+01  0.36265334723E+02  0.46142317771E+02  0.10000000087E+02 0.  0.
        -12    1    1    2    0    0 -0.25286918935E+02  0.86319589717E+01 -0.36265334723E+02  0.45045682229E+02  0.00000000000E+00 0.  1.
         11    1    3    3    0    0  0.16172430156E+02 -0.91752024102E+01  0.21827143483E+02  0.28673263318E+02  0.51100000000E-03 0. -1.
        -11    1    3    3    0    0  0.16008368367E+01 -0.13388231164E+01  0.31802543137E+01  0.38038327613E+01  0.51100000000E-03 0.  1.
         12    1    3    3    0    0  0.75136519423E+01  0.18820665549E+01  0.11257936927E+02  0.13665221691E+02  0.00000000000E+00 0. -1.
</event>
<event>
 7    1  0.4047706E-008  0.4614232E+02  0.7816164E-02  0.1320468E+00
        -11   -1    0    0    0    0  0.00000000000E+00  0.00000000000E+00  0.45593999997E+02  0.45594000000E+02  0.51100000000E-03 0.  1.
         11   -1    0    0    0    0 -0.00000000000E+00 -0.00000000000E+00 -0.45593999997E+02  0.45594000000E+02  0.51100000000E-03 0. -1.
    9900012    2    1    2    0    0  0.88784242270E+01  0.23435413663E+02 -0.37430842425E+02  0.46142323238E+02  0.10000049943E+02 0.  0.
        -12    1    1    2    0    0 -0.88784242270E+01 -0.23435413663E+02  0.37430842425E+02  0.45045676762E+02  0.00000000000E+00 0.  1.
         11    1    3    3    0    0  0.84977836799E+01  0.94280847067E+01 -0.20576596666E+02  0.24176381849E+02  0.51100000000E-03 0. -1.
        -11    1    3    3    0    0  0.72267514103E+00  0.54866342646E+01 -0.59980296043E+01  0.81609910126E+01  0.51100000000E-03 0.  1.
         12    1    3    3    0    0 -0.34203459390E+00  0.85206946916E+01 -0.10856216155E+02  0.13804950376E+02  0.00000000000E+00 0. -1.
</event>
<event>
 7    1  0.4047706E-008  0.4614232E+02  0.7816164E-02  0.1320468E+00
        -11   -1    0    0    0    0  0.00000000000E+00  0.00000000000E+00  0.45593999997E+02  0.45594000000E+02  0.51100000000E-03 0.  1.
         11   -1    0    0    0    0 -0.00000000000E+00 -0.00000000000E+00 -0.45593999997E+02  0.45594000000E+02  0.51100000000E-03 0. -1.
    9900012    2    1    2    0    0  0.38916880221E+01 -0.38685343183E+02 -0.22746702183E+02  0.46142317931E+02  0.10000001551E+02 0.  0.
        -12    1    1    2    0    0 -0.38916880221E+01  0.38685343183E+02  0.22746702183E+02  0.45045682069E+02  0.00000000000E+00 0.  1.
         11    1    3    3    0    0  0.38531529619E+01 -0.17316881594E+02 -0.13929534807E+02  0.22555556213E+02  0.51100000000E-03 0. -1.
        -11    1    3    3    0    0 -0.89672956459E+00 -0.30819335529E+01 -0.29495410259E+01  0.43591548334E+01  0.51100000000E-03 0.  1.
        -12    1    3    3    0    0  0.93526462476E+00 -0.18286528036E+02 -0.58676263504E+01  0.19227606885E+02  0.00000000000E+00 0.  1.
</event>
<event>
 7    1  0.4047706E-008  0.4614232E+02  0.7816164E-02  0.1320468E+00
        -11   -1    0    0    0    0  0.00000000000E+00  0.00000000000E+00  0.45593999997E+02  0.45594000000E+02  0.51100000000E-03 0.  1.
         11   -1    0    0    0    0 -0.00000000000E+00 -0.00000000000E+00 -0.45593999997E+02  0.45594000000E+02  0.51100000000E-03 0. -1.
    9900012    2    1    2    0    0 -0.20382462023E+02  0.16958521845E+02 -0.36415343453E+02  0.46142318075E+02  0.10000002863E+02 0.  0.
        -12    1    1    2    0    0  0.20382462023E+02 -0.16958521845E+02  0.36415343453E+02  0.45045681925E+02  0.00000000000E+00 0.  1.
         11    1    3    3    0    0 -0.17008005242E+01  0.25751848525E+01 -0.40324458151E+01  0.50778852843E+01  0.51100000000E-03 0. -1.
        -11    1    3    3    0    0 -0.53568116995E+01  0.87588341041E+01 -0.17648301437E+02  0.20417520670E+02  0.51100000000E-03 0.  1.
         12    1    3    3    0    0 -0.13324849799E+02  0.56245028889E+01 -0.14734596200E+02  0.20646912120E+02  0.00000000000E+00 0. -1.
</event>
<event>
 7    1  0.4047706E-008  0.4614232E+02  0.7816164E-02  0.1320468E+00
        -11   -1    0    0    0    0  0.00000000000E+00  0.00000000000E+00  0.45593999997E+02  0.45594000000E+02  0.51100000000E-03 0. -1.
         11   -1    0    0    0    0 -0.00000000000E+00 -0.00000000000E+00 -0.45593999997E+02  0.45594000000E+02  0.51100000000E-03 0.  1.
    9900012    2    1    2    0    0 -0.44696273048E+01  0.16554166621E+02  0.41654477290E+02  0.46142317864E+02  0.10000000938E+02 0.  0.
        -12    1    1    2    0    0  0.44696273048E+01 -0.16554166621E+02 -0.41654477290E+02  0.45045682136E+02  0.00000000000E+00 0.  1.
         11    1    3    3    0    0 -0.12498812980E+00  0.68203948975E+00  0.37948259952E+00  0.79044746988E+00  0.51100000000E-03 0. -1.
        -11    1    3    3    0    0  0.41689244676E+00 -0.10610268804E+01  0.17371786967E+01  0.20778275767E+01  0.51100000000E-03 0.  1.
         12    1    3    3    0    0 -0.47615316218E+01  0.16933154012E+02  0.39537815994E+02  0.43274042817E+02  0.00000000000E+00 0. -1.
</event>
<event>
 7    1  0.4047706E-008  0.4614232E+02  0.7816164E-02  0.1320468E+00
        -11   -1    0    0    0    0  0.00000000000E+00  0.00000000000E+00  0.45593999997E+02  0.45594000000E+02  0.51100000000E-03 0. -1.
         11   -1    0    0    0    0 -0.00000000000E+00 -0.00000000000E+00 -0.45593999997E+02  0.45594000000E+02  0.51100000000E-03 0.  1.
    9900012    2    1    2    0    0  0.43095925778E+02 -0.12908296313E+02 -0.22870312928E+01  0.46142318248E+02  0.10000004437E+02 0.  0.
        -12    1    1    2    0    0 -0.43095925778E+02  0.12908296313E+02  0.22870312928E+01  0.45045681752E+02  0.00000000000E+00 0.  1.
         11    1    3    3    0    0  0.86184189715E+01 -0.38534070236E+01  0.94973263628E+00  0.94883024614E+01  0.51100000000E-03 0. -1.
        -11    1    3    3    0    0  0.31108940740E+02 -0.54628885280E+01 -0.29124509173E+01  0.31718948842E+02  0.51100000000E-03 0.  1.
        -12    1    3    3    0    0  0.33685660671E+01 -0.35920007612E+01 -0.32431301183E+00  0.49350669445E+01  0.00000000000E+00 0.  1.
</event>
<event>
 7    1  0.4047706E-008  0.4614232E+02  0.7816164E-02  0.1320468E+00
        -11   -1    0    0    0    0  0.00000000000E+00  0.00000000000E+00  0.45593999997E+02  0.45594000000E+02  0.51100000000E-03 0.  1.
         11   -1    0    0    0    0 -0.00000000000E+00 -0.00000000000E+00 -0.45593999997E+02  0.45594000000E+02  0.51100000000E-03 0. -1.
    9900012    2    1    2    0    0  0.25328035423E+02  0.35859768251E+02 -0.10083711373E+02  0.46142316606E+02  0.99999894652E+01 0.  0.
        -12    1    1    2    0    0 -0.25328035423E+02 -0.35859768251E+02  0.10083711373E+02  0.45045683394E+02  0.00000000000E+00 0.  1.
         11    1    3    3    0    0  0.42008933785E+01  0.78069676578E+01 -0.38699205442E+01  0.96732897438E+01  0.51100000000E-03 0. -1.
        -11    1    3    3    0    0  0.21455641765E+02  0.27480047135E+02 -0.51862293500E+01  0.35247617355E+02  0.51100000000E-03 0.  1.
        -12    1    3    3    0    0 -0.32849972074E+00  0.57275345838E+00 -0.10275614790E+01  0.12214095070E+01  0.00000000000E+00 0.  1.
</event>
<event>
 7    1  0.4047706E-008  0.4614232E+02  0.7816164E-02  0.1320468E+00
        -11   -1    0    0    0    0  0.00000000000E+00  0.00000000000E+00  0.45593999997E+02  0.45594000000E+02  0.51100000000E-03 0. -1.
         11   -1    0    0    0    0 -0.00000000000E+00 -0.00000000000E+00 -0.45593999997E+02  0.45594000000E+02  0.51100000000E-03 0.  1.
    9900012    2    1    2    0    0 -0.40109959011E+02  0.10835319972E+02 -0.17404040278E+02  0.46142316647E+02  0.99999898378E+01 0.  0.
        -12    1    1    2    0    0  0.40109959011E+02 -0.10835319972E+02  0.17404040278E+02  0.45045683353E+02  0.00000000000E+00 0.  1.
         11    1    3    3    0    0 -0.30791367055E+02  0.87879387838E+01 -0.17691246404E+02  0.36583006339E+02  0.51100000000E-03 0. -1.
        -11    1    3    3    0    0 -0.29123295697E+01  0.84266535870E+00 -0.47616646561E-01  0.30321635898E+01  0.51100000000E-03 0.  1.
         12    1    3    3    0    0 -0.64062623861E+01  0.12047158297E+01  0.33482277242E+00  0.65271467180E+01  0.00000000000E+00 0. -1.
</event>
<event>
 7    1  0.4047706E-008  0.4614232E+02  0.7816164E-02  0.1320468E+00
        -11   -1    0    0    0    0  0.00000000000E+00  0.00000000000E+00  0.45593999997E+02  0.45594000000E+02  0.51100000000E-03 0.  1.
         11   -1    0    0    0    0 -0.00000000000E+00 -0.00000000000E+00 -0.45593999997E+02  0.45594000000E+02  0.51100000000E-03 0. -1.
    9900012    2    1    2    0    0 -0.31653790532E+01  0.87836714230E+01 -0.44067459218E+02  0.46142317963E+02  0.10000001845E+02 0.  0.
        -12    1    1    2    0    0  0.31653790532E+01 -0.87836714230E+01  0.44067459218E+02  0.45045682037E+02  0.00000000000E+00 0.  1.
         11    1    3    3    0    0 -0.40334074331E+01  0.42338297644E+01 -0.15763721324E+02  0.16813345897E+02  0.51100000000E-03 0. -1.
        -11    1    3    3    0    0  0.15540620242E+01  0.18490062354E+01 -0.24473069260E+02  0.24591971293E+02  0.51100000000E-03 0.  1.
        -12    1    3    3    0    0 -0.68603364425E+00  0.27008354233E+01 -0.38306686335E+01  0.47370007731E+01  0.00000000000E+00 0.  1.
</event>
<event>
 7    1  0.4047706E-008  0.4614232E+02  0.7816164E-02  0.1320468E+00
        -11   -1    0    0    0    0  0.00000000000E+00  0.00000000000E+00  0.45593999997E+02  0.45594000000E+02  0.51100000000E-03 0.  1.
         11   -1    0    0    0    0 -0.00000000000E+00 -0.00000000000E+00 -0.45593999997E+02  0.45594000000E+02  0.51100000000E-03 0. -1.
    9900012    2    1    2    0    0  0.20464368187E+02  0.30439307293E+02 -0.26149027649E+02  0.46142318289E+02  0.10000004818E+02 0.  0.
        -12    1    1    2    0    0 -0.20464368187E+02 -0.30439307293E+02  0.26149027649E+02  0.45045681711E+02  0.00000000000E+00 0.  1.
         11    1    3    3    0    0  0.13026757945E+02  0.20197716396E+02 -0.17139434046E+02  0.29519559107E+02  0.51100000000E-03 0.  1.
        -11    1    3    3    0    0  0.47992562108E+01  0.10136283164E+02 -0.80834589759E+01  0.13824594238E+02  0.51100000000E-03 0. -1.
        -12    1    3    3    0    0  0.26383540308E+01  0.10530773248E+00 -0.92613462760E+00  0.27981649449E+01  0.00000000000E+00 0.  1.
</event>
<event>
 7    1  0.4047706E-008  0.4614232E+02  0.7816164E-02  0.1320468E+00
        -11   -1    0    0    0    0  0.00000000000E+00  0.00000000000E+00  0.45593999997E+02  0.45594000000E+02  0.51100000000E-03 0. -1.
         11   -1    0    0    0    0 -0.00000000000E+00 -0.00000000000E+00 -0.45593999997E+02  0.45594000000E+02  0.51100000000E-03 0.  1.
    9900012    2    1    2    0    0  0.30605616873E+02 -0.79228876233E+01 -0.32087965951E+02  0.46142317728E+02  0.99999996999E+01 0.  0.
        -12    1    1    2    0    0 -0.30605616873E+02  0.79228876233E+01  0.32087965951E+02  0.45045682272E+02  0.00000000000E+00 0.  1.
         11    1    3    3    0    0  0.21130182031E+02 -0.32015730469E+01 -0.20170584297E+02  0.29386853077E+02  0.51100000000E-03 0. -1.
        -11    1    3    3    0    0  0.12901394730E+01 -0.15817555783E+00  0.32327954713E+00  0.13393988553E+01  0.51100000000E-03 0.  1.
        -12    1    3    3    0    0  0.81852953691E+01 -0.45631390187E+01 -0.12240661201E+02  0.15416065796E+02  0.00000000000E+00 0.  1.
</event>
<event>
 7    1  0.4047706E-008  0.4614232E+02  0.7816164E-02  0.1320468E+00
        -11   -1    0    0    0    0  0.00000000000E+00  0.00000000000E+00  0.45593999997E+02  0.45594000000E+02  0.51100000000E-03 0.  1.
         11   -1    0    0    0    0 -0.00000000000E+00 -0.00000000000E+00 -0.45593999997E+02  0.45594000000E+02  0.51100000000E-03 0. -1.
    9900012    2    1    2    0    0  0.28084394276E+02  0.51221640968E+01 -0.34844565223E+02  0.46142317716E+02  0.99999995851E+01 0.  0.
        -12    1    1    2    0    0 -0.28084394276E+02 -0.51221640968E+01  0.34844565223E+02  0.45045682284E+02  0.00000000000E+00 0.  1.
         11    1    3    3    0    0  0.15526143334E+01 -0.14883237908E+00 -0.48470140885E+01  0.50917883087E+01  0.51100000000E-03 0. -1.
        -11    1    3    3    0    0  0.25546296213E+02  0.53799111189E+01 -0.30317366209E+02  0.40008741394E+02  0.51100000000E-03 0.  1.
        -12    1    3    3    0    0  0.98548373058E+00 -0.10891464303E+00  0.31981507438E+00  0.10417880132E+01  0.00000000000E+00 0.  1.
</event>
<event>
 7    1  0.4047706E-008  0.4614232E+02  0.7816164E-02  0.1320468E+00
        -11   -1    0    0    0    0  0.00000000000E+00  0.00000000000E+00  0.45593999997E+02  0.45594000000E+02  0.51100000000E-03 0.  1.
         11   -1    0    0    0    0 -0.00000000000E+00 -0.00000000000E+00 -0.45593999997E+02  0.45594000000E+02  0.51100000000E-03 0. -1.
    9900012    2    1    2    0    0  0.43089137190E+02  0.24574856161E+01 -0.12899632915E+02  0.46142317536E+02  0.99999979477E+01 0.  0.
        -12    1    1    2    0    0 -0.43089137190E+02 -0.24574856161E+01  0.12899632915E+02  0.45045682464E+02  0.00000000000E+00 0.  1.
         11    1    3    3    0    0  0.31884042008E+01  0.20345959665E+01 -0.11596801150E-01  0.37822793183E+01  0.51100000000E-03 0. -1.
        -11    1    3    3    0    0  0.33191879791E+02 -0.10627423005E+01 -0.12480261398E+02  0.35476572975E+02  0.51100000000E-03 0.  1.
         12    1    3    3    0    0  0.67088531982E+01  0.14856319502E+01 -0.40777471527E+00  0.68834652425E+01  0.00000000000E+00 0. -1.
</event>
<event>
 7    1  0.4047706E-008  0.4614232E+02  0.7816164E-02  0.1320468E+00
        -11   -1    0    0    0    0  0.00000000000E+00  0.00000000000E+00  0.45593999997E+02  0.45594000000E+02  0.51100000000E-03 0.  1.
         11   -1    0    0    0    0 -0.00000000000E+00 -0.00000000000E+00 -0.45593999997E+02  0.45594000000E+02  0.51100000000E-03 0. -1.
    9900012    2    1    2    0    0 -0.37466120247E+02  0.23437130562E+02 -0.87237725006E+01  0.46142318054E+02  0.10000002675E+02 0.  0.
        -12    1    1    2    0    0  0.37466120247E+02 -0.23437130562E+02  0.87237725006E+01  0.45045681946E+02  0.00000000000E+00 0.  1.
         11    1    3    3    0    0 -0.25408222344E+02  0.16085534498E+02 -0.53460434423E+01  0.30543450420E+02  0.51100000000E-03 0. -1.
        -11    1    3    3    0    0 -0.12243556097E+02  0.79486760162E+01 -0.31504818567E+01  0.14933574672E+02  0.51100000000E-03 0.  1.
        -12    1    3    3    0    0  0.18565819426E+00 -0.59707995295E+00 -0.22724720164E+00  0.66529296251E+00  0.00000000000E+00 0.  1.
</event>
<event>
 7    1  0.4047706E-008  0.4614232E+02  0.7816164E-02  0.1320468E+00
        -11   -1    0    0    0    0  0.00000000000E+00  0.00000000000E+00  0.45593999997E+02  0.45594000000E+02  0.51100000000E-03 0.  1.
         11   -1    0    0    0    0 -0.00000000000E+00 -0.00000000000E+00 -0.45593999997E+02  0.45594000000E+02  0.51100000000E-03 0. -1.
    9900012    2    1    2    0    0 -0.60350602882E+01  0.82688856136E+01 -0.43867032176E+02  0.46142323915E+02  0.10000056120E+02 0.  0.
        -12    1    1    2    0    0  0.60350602882E+01 -0.82688856136E+01  0.43867032176E+02  0.45045676085E+02  0.00000000000E+00 0.  1.
         11    1    3    3    0    0 -0.39924353762E+01  0.35353808256E+01 -0.10013524800E+02  0.11345004936E+02  0.51100000000E-03 0. -1.
        -11    1    3    3    0    0 -0.41554987863E+01  0.37961219951E+01 -0.21199912632E+02  0.21934334005E+02  0.51100000000E-03 0.  1.
        -12    1    3    3    0    0  0.21128738744E+01  0.93738279288E+00 -0.12653594744E+02  0.12862984975E+02  0.00000000000E+00 0.  1.
</event>
<event>
 7    1  0.4047706E-008  0.4614231E+02  0.7816164E-02  0.1320468E+00
        -11   -1    0    0    0    0  0.00000000000E+00  0.00000000000E+00  0.45593999997E+02  0.45594000000E+02  0.51100000000E-03 0.  1.
         11   -1    0    0    0    0 -0.00000000000E+00 -0.00000000000E+00 -0.45593999997E+02  0.45594000000E+02  0.51100000000E-03 0. -1.
    9900012    2    1    2    0    0  0.44622963127E+02  0.61427663231E+01 -0.41398422705E+00  0.46142314310E+02  0.99999685298E+01 0.  0.
        -12    1    1    2    0    0 -0.44622963127E+02 -0.61427663231E+01  0.41398422705E+00  0.45045685690E+02  0.00000000000E+00 0.  1.
         11    1    3    3    0    0  0.15995713115E+02 -0.98291014134E+00  0.41354479457E+00  0.16031218605E+02  0.51100000000E-03 0. -1.
        -11    1    3    3    0    0  0.24629994439E+02  0.74543842570E+01  0.88847831332E+00  0.25748667241E+02  0.51100000000E-03 0.  1.
        -12    1    3    3    0    0  0.39972555736E+01 -0.32870779251E+00 -0.17160073349E+01  0.43624284644E+01  0.00000000000E+00 0.  1.
</event>
<event>
 7    1  0.4356526E-008  0.4614231E+02  0.7816164E-02  0.1320468E+00
        -11   -1    0    0    0    0  0.00000000000E+00  0.00000000000E+00  0.45593999997E+02  0.45594000000E+02  0.51100000000E-03 0.  1.
         11   -1    0    0    0    0 -0.00000000000E+00 -0.00000000000E+00 -0.45593999997E+02  0.45594000000E+02  0.51100000000E-03 0. -1.
    9900012    2    1    2    0    0 -0.31772648746E+02 -0.30577217069E+02  0.92003469742E+01  0.46142314342E+02  0.99999688181E+01 0.  0.
        -12    1    1    2    0    0  0.31772648746E+02  0.30577217069E+02 -0.92003469742E+01  0.45045685658E+02  0.00000000000E+00 0.  1.
         11    1    3    3    0    0 -0.13546571610E+02 -0.13545524155E+02  0.67484315230E+01  0.20310887605E+02  0.51100000000E-03 0. -1.
        -11    1    3    3    0    0 -0.10268716636E+02 -0.95633832208E+01  0.44829175601E+01  0.14730967046E+02  0.51100000000E-03 0.  1.
        -12    1    3    3    0    0 -0.79573604995E+01 -0.74683096934E+01 -0.20310021089E+01  0.11100459691E+02  0.00000000000E+00 0.  1.
</event>
<event>
 7    1  0.4047706E-008  0.4614232E+02  0.7816164E-02  0.1320468E+00
        -11   -1    0    0    0    0  0.00000000000E+00  0.00000000000E+00  0.45593999997E+02  0.45594000000E+02  0.51100000000E-03 0. -1.
         11   -1    0    0    0    0 -0.00000000000E+00 -0.00000000000E+00 -0.45593999997E+02  0.45594000000E+02  0.51100000000E-03 0.  1.
    9900012    2    1    2    0    0  0.16140780965E+02  0.35514275871E+02  0.22523875032E+02  0.46142317108E+02  0.99999940402E+01 0.  0.
        -12    1    1    2    0    0 -0.16140780965E+02 -0.35514275871E+02 -0.22523875032E+02  0.45045682892E+02  0.00000000000E+00 0.  1.
         11    1    3    3    0    0  0.50363905299E+01  0.73990258055E+01  0.79787450244E+01  0.11990462246E+02  0.51100000000E-03 0. -1.
        -11    1    3    3    0    0  0.11900622064E+02  0.25232769889E+02  0.13400958400E+02  0.30950010793E+02  0.51100000000E-03 0.  1.
        -12    1    3    3    0    0 -0.79623162882E+00  0.28824801767E+01  0.11441716073E+01  0.32018440691E+01  0.00000000000E+00 0.  1.
</event>
<event>
 7    1  0.4047706E-008  0.4614232E+02  0.7816164E-02  0.1320468E+00
        -11   -1    0    0    0    0  0.00000000000E+00  0.00000000000E+00  0.45593999997E+02  0.45594000000E+02  0.51100000000E-03 0.  1.
         11   -1    0    0    0    0 -0.00000000000E+00 -0.00000000000E+00 -0.45593999997E+02  0.45594000000E+02  0.51100000000E-03 0. -1.
    9900012    2    1    2    0    0 -0.36225865143E+02 -0.14470326576E+02 -0.22525759815E+02  0.46142317501E+02  0.99999976242E+01 0.  0.
        -12    1    1    2    0    0  0.36225865143E+02  0.14470326576E+02  0.22525759815E+02  0.45045682499E+02  0.00000000000E+00 0.  1.
         11    1    3    3    0    0 -0.29475635639E+01  0.73737440241E+00 -0.91267839829E+00  0.31725122683E+01  0.51100000000E-03 0. -1.
        -11    1    3    3    0    0 -0.13876796767E+02 -0.70670576787E+01 -0.56749528246E+01  0.16574494942E+02  0.51100000000E-03 0.  1.
         12    1    3    3    0    0 -0.19401504812E+02 -0.81406432998E+01 -0.15938128592E+02  0.26395310290E+02  0.00000000000E+00 0. -1.
</event>
<event>
 7    1  0.4047706E-008  0.4614232E+02  0.7816164E-02  0.1320468E+00
        -11   -1    0    0    0    0  0.00000000000E+00  0.00000000000E+00  0.45593999997E+02  0.45594000000E+02  0.51100000000E-03 0.  1.
         11   -1    0    0    0    0 -0.00000000000E+00 -0.00000000000E+00 -0.45593999997E+02  0.45594000000E+02  0.51100000000E-03 0. -1.
    9900012    2    1    2    0    0 -0.10712070723E+01  0.10316162119E+02 -0.43835403979E+02  0.46142319547E+02  0.10000016285E+02 0.  0.
        -12    1    1    2    0    0  0.10712070723E+01 -0.10316162119E+02  0.43835403979E+02  0.45045680453E+02  0.00000000000E+00 0.  1.
         11    1    3    3    0    0 -0.25668435039E+01  0.65013334285E+01 -0.18272145398E+02  0.19563417892E+02  0.51100000000E-03 0. -1.
        -11    1    3    3    0    0  0.78384657683E+00  0.31150945411E+01 -0.47060210842E+01  0.56977946753E+01  0.51100000000E-03 0.  1.
        -12    1    3    3    0    0  0.71178985477E+00  0.69973414912E+00 -0.20857237497E+02  0.20881106979E+02  0.00000000000E+00 0.  1.
</event>
<event>
 7    1  0.4047706E-008  0.4614232E+02  0.7816164E-02  0.1320468E+00
        -11   -1    0    0    0    0  0.00000000000E+00  0.00000000000E+00  0.45593999997E+02  0.45594000000E+02  0.51100000000E-03 0.  1.
         11   -1    0    0    0    0 -0.00000000000E+00 -0.00000000000E+00 -0.45593999997E+02  0.45594000000E+02  0.51100000000E-03 0. -1.
    9900012    2    1    2    0    0 -0.18392704131E+02  0.33841860760E+01 -0.40980108161E+02  0.46142317127E+02  0.99999942167E+01 0.  0.
        -12    1    1    2    0    0  0.18392704131E+02 -0.33841860760E+01  0.40980108161E+02  0.45045682873E+02  0.00000000000E+00 0.  1.
         11    1    3    3    0    0  0.21611008084E+00  0.25905146319E+00 -0.26065833022E+00  0.42632646394E+00  0.51100000000E-03 0. -1.
        -11    1    3    3    0    0 -0.29235156544E+01  0.22721226985E+01 -0.27099021774E+01  0.45883608632E+01  0.51100000000E-03 0.  1.
         12    1    3    3    0    0 -0.15685298557E+02  0.85301191429E+00 -0.38009547653E+02  0.41127629800E+02  0.00000000000E+00 0. -1.
</event>
<event>
 7    1  0.4047706E-008  0.4614232E+02  0.7816164E-02  0.1320468E+00
        -11   -1    0    0    0    0  0.00000000000E+00  0.00000000000E+00  0.45593999997E+02  0.45594000000E+02  0.51100000000E-03 0.  1.
         11   -1    0    0    0    0 -0.00000000000E+00 -0.00000000000E+00 -0.45593999997E+02  0.45594000000E+02  0.51100000000E-03 0. -1.
    9900012    2    1    2    0    0  0.84830965502E+01 -0.29889533005E+02 -0.32615425014E+02  0.46142322525E+02  0.10000043437E+02 0.  0.
        -12    1    1    2    0    0 -0.84830965502E+01  0.29889533005E+02  0.32615425014E+02  0.45045677475E+02  0.00000000000E+00 0.  1.
         11    1    3    3    0    0  0.17806026955E+00 -0.81577872502E-01  0.17587829943E+00  0.26323724320E+00  0.51100000000E-03 0.  1.
        -11    1    3    3    0    0  0.99592838840E+00 -0.17542676508E+02 -0.20844530340E+02  0.27262278294E+02  0.51100000000E-03 0. -1.
         12    1    3    3    0    0  0.73091078923E+01 -0.12265278625E+02 -0.11946772974E+02  0.18616806988E+02  0.00000000000E+00 0. -1.
</event>
<event>
 7    1  0.4047706E-008  0.4614232E+02  0.7816164E-02  0.1320468E+00
        -11   -1    0    0    0    0  0.00000000000E+00  0.00000000000E+00  0.45593999997E+02  0.45594000000E+02  0.51100000000E-03 0.  1.
         11   -1    0    0    0    0 -0.00000000000E+00 -0.00000000000E+00 -0.45593999997E+02  0.45594000000E+02  0.51100000000E-03 0. -1.
    9900012    2    1    2    0    0 -0.85783715554E+01 -0.15262992437E+02 -0.41503808136E+02  0.46142317782E+02  0.10000000193E+02 0.  0.
        -12    1    1    2    0    0  0.85783715554E+01  0.15262992437E+02  0.41503808136E+02  0.45045682218E+02  0.00000000000E+00 0.  1.
         11    1    3    3    0    0 -0.87011974237E+01 -0.81222695063E+01 -0.28974270875E+02  0.31323960024E+02  0.51100000000E-03 0. -1.
        -11    1    3    3    0    0 -0.15296817222E+01 -0.36390498276E+01 -0.74514234457E+01  0.84324564302E+01  0.51100000000E-03 0.  1.
         12    1    3    3    0    0  0.16525075905E+01 -0.35016731036E+01 -0.50781138146E+01  0.63859013284E+01  0.00000000000E+00 0. -1.
</event>
<event>
 7    1  0.4047706E-008  0.4614232E+02  0.7816164E-02  0.1320468E+00
        -11   -1    0    0    0    0  0.00000000000E+00  0.00000000000E+00  0.45593999997E+02  0.45594000000E+02  0.51100000000E-03 0.  1.
         11   -1    0    0    0    0 -0.00000000000E+00 -0.00000000000E+00 -0.45593999997E+02  0.45594000000E+02  0.51100000000E-03 0. -1.
    9900012    2    1    2    0    0 -0.40940816498E+02 -0.82566502317E+01  0.16875746392E+02  0.46142317134E+02  0.99999942813E+01 0.  0.
        -12    1    1    2    0    0  0.40940816498E+02  0.82566502317E+01 -0.16875746392E+02  0.45045682866E+02  0.00000000000E+00 0.  1.
         11    1    3    3    0    0 -0.22499679119E+02 -0.50420752709E+01  0.77892174673E+01  0.24337830481E+02  0.51100000000E-03 0. -1.
        -11    1    3    3    0    0 -0.12177609361E+02  0.21439573251E+00  0.33139049929E+01  0.12622285920E+02  0.51100000000E-03 0.  1.
        -12    1    3    3    0    0 -0.62635280181E+01 -0.34289706933E+01  0.57726239320E+01  0.91822007334E+01  0.00000000000E+00 0.  1.
</event>
<event>
 7    1  0.4047706E-008  0.4614232E+02  0.7816164E-02  0.1320468E+00
        -11   -1    0    0    0    0  0.00000000000E+00  0.00000000000E+00  0.45593999997E+02  0.45594000000E+02  0.51100000000E-03 0. -1.
         11   -1    0    0    0    0 -0.00000000000E+00 -0.00000000000E+00 -0.45593999997E+02  0.45594000000E+02  0.51100000000E-03 0.  1.
    9900012    2    1    2    0    0 -0.38117704150E+02  0.75381446859E+01  0.22788824272E+02  0.46142317558E+02  0.99999981469E+01 0.  0.
        -12    1    1    2    0    0  0.38117704150E+02 -0.75381446859E+01 -0.22788824272E+02  0.45045682442E+02  0.00000000000E+00 0.  1.
         11    1    3    3    0    0 -0.26052364930E+02  0.57967696561E+01  0.18357820850E+02  0.32393484584E+02  0.51100000000E-03 0. -1.
        -11    1    3    3    0    0 -0.93575407615E+00  0.18840260784E+00  0.20508754932E+01  0.22621277115E+01  0.51100000000E-03 0.  1.
        -12    1    3    3    0    0 -0.11129585144E+02  0.15529724219E+01  0.23801279286E+01  0.11486705262E+02  0.00000000000E+00 0.  1.
</event>
<event>
 7    1  0.4047706E-008  0.4614232E+02  0.7816164E-02  0.1320468E+00
        -11   -1    0    0    0    0  0.00000000000E+00  0.00000000000E+00  0.45593999997E+02  0.45594000000E+02  0.51100000000E-03 0. -1.
         11   -1    0    0    0    0 -0.00000000000E+00 -0.00000000000E+00 -0.45593999997E+02  0.45594000000E+02  0.51100000000E-03 0.  1.
    9900012    2    1    2    0    0 -0.28200382291E+02 -0.66574836662E+01  0.34489562841E+02  0.46142316576E+02  0.99999891968E+01 0.  0.
        -12    1    1    2    0    0  0.28200382291E+02  0.66574836662E+01 -0.34489562841E+02  0.45045683424E+02  0.00000000000E+00 0.  1.
         11    1    3    3    0    0 -0.15527610427E+01 -0.89206680477E+00  0.62849487271E+01  0.65350922566E+01  0.51100000000E-03 0.  1.
        -11    1    3    3    0    0 -0.11430938541E+01 -0.13017393259E+01  0.80872108685E+00  0.19118626754E+01  0.51100000000E-03 0. -1.
         12    1    3    3    0    0 -0.25504527394E+02 -0.44636775355E+01  0.27395893027E+02  0.37695361644E+02  0.00000000000E+00 0. -1.
</event>
<event>
 7    1  0.4047706E-008  0.4614232E+02  0.7816164E-02  0.1320468E+00
        -11   -1    0    0    0    0  0.00000000000E+00  0.00000000000E+00  0.45593999997E+02  0.45594000000E+02  0.51100000000E-03 0.  1.
         11   -1    0    0    0    0 -0.00000000000E+00 -0.00000000000E+00 -0.45593999997E+02  0.45594000000E+02  0.51100000000E-03 0. -1.
    9900012    2    1    2    0    0  0.23500193829E+02  0.19731844448E+02 -0.32977395955E+02  0.46142318306E+02  0.10000004969E+02 0.  0.
        -12    1    1    2    0    0 -0.23500193829E+02 -0.19731844448E+02  0.32977395955E+02  0.45045681694E+02  0.00000000000E+00 0.  1.
         11    1    3    3    0    0  0.60504778779E+01  0.49419033326E+01 -0.93416929051E+01  0.12177763247E+02  0.51100000000E-03 0. -1.
        -11    1    3    3    0    0  0.21806905415E+01  0.62817412733E+01 -0.44006760120E+01  0.79738092707E+01  0.51100000000E-03 0.  1.
        -12    1    3    3    0    0  0.15269025410E+02  0.85081998420E+01 -0.19235027038E+02  0.25990745789E+02  0.00000000000E+00 0.  1.
</event>
<event>
 7    1  0.4047706E-008  0.4614232E+02  0.7816164E-02  0.1320468E+00
        -11   -1    0    0    0    0  0.00000000000E+00  0.00000000000E+00  0.45593999997E+02  0.45594000000E+02  0.51100000000E-03 0. -1.
         11   -1    0    0    0    0 -0.00000000000E+00 -0.00000000000E+00 -0.45593999997E+02  0.45594000000E+02  0.51100000000E-03 0.  1.
    9900012    2    1    2    0    0 -0.32870013061E+02 -0.10690597893E+02  0.28885755853E+02  0.46142317264E+02  0.99999954702E+01 0.  0.
        -12    1    1    2    0    0  0.32870013061E+02  0.10690597893E+02 -0.28885755853E+02  0.45045682736E+02  0.00000000000E+00 0.  1.
         11    1    3    3    0    0 -0.22861549913E+02 -0.41581569143E+01  0.20816115434E+02  0.31196977344E+02  0.51100000000E-03 0. -1.
        -11    1    3    3    0    0 -0.13372100758E+01 -0.17957956315E+01  0.32638115574E+01  0.39579639816E+01  0.51100000000E-03 0.  1.
         12    1    3    3    0    0 -0.86712530715E+01 -0.47366453473E+01  0.48058288617E+01  0.10987375939E+02  0.00000000000E+00 0. -1.
</event>
<event>
 7    1  0.4047706E-008  0.4614231E+02  0.7816164E-02  0.1320468E+00
        -11   -1    0    0    0    0  0.00000000000E+00  0.00000000000E+00  0.45593999997E+02  0.45594000000E+02  0.51100000000E-03 0.  1.
         11   -1    0    0    0    0 -0.00000000000E+00 -0.00000000000E+00 -0.45593999997E+02  0.45594000000E+02  0.51100000000E-03 0. -1.
    9900012    2    1    2    0    0  0.41883281217E+02  0.85679915404E+01  0.14194884072E+02  0.46142306995E+02  0.99999018225E+01 0.  0.
        -12    1    1    2    0    0 -0.41883281217E+02 -0.85679915404E+01 -0.14194884072E+02  0.45045693005E+02  0.00000000000E+00 0.  1.
         11    1    3    3    0    0  0.21160569391E+02  0.70688608359E+00  0.48873099831E+01  0.21729132150E+02  0.51100000000E-03 0. -1.
        -11    1    3    3    0    0  0.54150508183E+01  0.41231116683E+01  0.30612395516E+01  0.74628421561E+01  0.51100000000E-03 0.  1.
        -12    1    3    3    0    0  0.15307661008E+02  0.37379937885E+01  0.62463345372E+01  0.16950332688E+02  0.00000000000E+00 0.  1.
</event>
<event>
 7    1  0.4047706E-008  0.4614232E+02  0.7816164E-02  0.1320468E+00
        -11   -1    0    0    0    0  0.00000000000E+00  0.00000000000E+00  0.45593999997E+02  0.45594000000E+02  0.51100000000E-03 0.  1.
         11   -1    0    0    0    0 -0.00000000000E+00 -0.00000000000E+00 -0.45593999997E+02  0.45594000000E+02  0.51100000000E-03 0. -1.
    9900012    2    1    2    0    0 -0.25391081138E+02  0.22474012076E+02 -0.29653418702E+02  0.46142318066E+02  0.10000002783E+02 0.  0.
        -12    1    1    2    0    0  0.25391081138E+02 -0.22474012076E+02  0.29653418702E+02  0.45045681934E+02  0.00000000000E+00 0.  1.
         11    1    3    3    0    0 -0.16586933144E+02  0.10139469187E+02 -0.20119141893E+02  0.27977045185E+02  0.51100000000E-03 0. -1.
        -11    1    3    3    0    0 -0.76619514719E+00  0.31381261846E+01 -0.16469761970E+01  0.36259373696E+01  0.51100000000E-03 0.  1.
         12    1    3    3    0    0 -0.80379528470E+01  0.91964167046E+01 -0.78873006118E+01  0.14539335512E+02  0.00000000000E+00 0. -1.
</event>
<event>
 7    1  0.4047706E-008  0.4614232E+02  0.7816164E-02  0.1320468E+00
        -11   -1    0    0    0    0  0.00000000000E+00  0.00000000000E+00  0.45593999997E+02  0.45594000000E+02  0.51100000000E-03 0. -1.
         11   -1    0    0    0    0 -0.00000000000E+00 -0.00000000000E+00 -0.45593999997E+02  0.45594000000E+02  0.51100000000E-03 0.  1.
    9900012    2    1    2    0    0 -0.18185787328E+02  0.41202486615E+02 -0.86360311745E+00  0.46142316807E+02  0.99999913005E+01 0.  0.
        -12    1    1    2    0    0  0.18185787328E+02 -0.41202486615E+02  0.86360311745E+00  0.45045683193E+02  0.00000000000E+00 0.  1.
         11    1    3    3    0    0 -0.14921830325E+02  0.34489388187E+02 -0.13028974225E+01  0.37601548635E+02  0.51100000000E-03 0. -1.
        -11    1    3    3    0    0 -0.25948341141E+01  0.41572994299E+01 -0.16516801989E+01  0.51714940172E+01  0.51100000000E-03 0.  1.
        -12    1    3    3    0    0 -0.66912288883E+00  0.25557989973E+01  0.20909745039E+01  0.33692741549E+01  0.00000000000E+00 0.  1.
</event>
<event>
 7    1  0.4047706E-008  0.4614232E+02  0.7816164E-02  0.1320468E+00
        -11   -1    0    0    0    0  0.00000000000E+00  0.00000000000E+00  0.45593999997E+02  0.45594000000E+02  0.51100000000E-03 0. -1.
         11   -1    0    0    0    0 -0.00000000000E+00 -0.00000000000E+00 -0.45593999997E+02  0.45594000000E+02  0.51100000000E-03 0.  1.
    9900012    2    1    2    0    0 -0.33824455206E+02  0.28447300672E+02  0.87046423801E+01  0.46142317804E+02  0.10000000395E+02 0.  0.
        -12    1    1    2    0    0  0.33824455206E+02 -0.28447300672E+02 -0.87046423801E+01  0.45045682196E+02  0.00000000000E+00 0.  1.
         11    1    3    3    0    0 -0.10154791984E+02  0.11911953453E+02  0.63359606375E+01  0.16886646582E+02  0.51100000000E-03 0. -1.
        -11    1    3    3    0    0 -0.66989299603E+01  0.69719692772E+01  0.40639173907E+00  0.96772502666E+01  0.51100000000E-03 0.  1.
        -12    1    3    3    0    0 -0.16970733261E+02  0.95633779419E+01  0.19622900036E+01  0.19578420956E+02  0.00000000000E+00 0.  1.
</event>
<event>
 7    1  0.4047706E-008  0.4614232E+02  0.7816164E-02  0.1320468E+00
        -11   -1    0    0    0    0  0.00000000000E+00  0.00000000000E+00  0.45593999997E+02  0.45594000000E+02  0.51100000000E-03 0. -1.
         11   -1    0    0    0    0 -0.00000000000E+00 -0.00000000000E+00 -0.45593999997E+02  0.45594000000E+02  0.51100000000E-03 0.  1.
    9900012    2    1    2    0    0  0.27034589851E+02 -0.20621966577E+02  0.29546217402E+02  0.46142317447E+02  0.99999971385E+01 0.  0.
        -12    1    1    2    0    0 -0.27034589851E+02  0.20621966577E+02 -0.29546217402E+02  0.45045682553E+02  0.00000000000E+00 0.  1.
         11    1    3    3    0    0  0.13311227235E+02 -0.12291267170E+02  0.16660846838E+02  0.24613976452E+02  0.51100000000E-03 0. -1.
        -11    1    3    3    0    0 -0.30958061498E+00 -0.13734228352E+00 -0.41056923920E+00  0.53223154859E+00  0.51100000000E-03 0.  1.
        -12    1    3    3    0    0  0.14032943231E+02 -0.81933571228E+01  0.13295939803E+02  0.20996109447E+02  0.00000000000E+00 0.  1.
</event>
<event>
 7    1  0.4047706E-008  0.4614233E+02  0.7816164E-02  0.1320468E+00
        -11   -1    0    0    0    0  0.00000000000E+00  0.00000000000E+00  0.45593999997E+02  0.45594000000E+02  0.51100000000E-03 0.  1.
         11   -1    0    0    0    0 -0.00000000000E+00 -0.00000000000E+00 -0.45593999997E+02  0.45594000000E+02  0.51100000000E-03 0. -1.
    9900012    2    1    2    0    0  0.36610738262E+01  0.32648955115E+02 -0.30818096455E+02  0.46142325393E+02  0.10000069595E+02 0.  0.
        -12    1    1    2    0    0 -0.36610738262E+01 -0.32648955115E+02  0.30818096455E+02  0.45045674607E+02  0.00000000000E+00 0.  1.
         11    1    3    3    0    0  0.77474101425E-01  0.12235660095E+00  0.26873389024E+00  0.30527289279E+00  0.51100000000E-03 0. -1.
        -11    1    3    3    0    0 -0.23809153497E+01  0.73665821102E+01 -0.85799956864E+01  0.11556453441E+02  0.51100000000E-03 0.  1.
         12    1    3    3    0    0  0.59645150745E+01  0.25160016404E+02 -0.22506834659E+02  0.34280599060E+02  0.00000000000E+00 0. -1.
</event>
<event>
 7    1  0.4047706E-008  0.4614232E+02  0.7816164E-02  0.1320468E+00
        -11   -1    0    0    0    0  0.00000000000E+00  0.00000000000E+00  0.45593999997E+02  0.45594000000E+02  0.51100000000E-03 0.  1.
         11   -1    0    0    0    0 -0.00000000000E+00 -0.00000000000E+00 -0.45593999997E+02  0.45594000000E+02  0.51100000000E-03 0. -1.
    9900012    2    1    2    0    0  0.33776328650E+02  0.86739041226E+01 -0.28513795383E+02  0.46142317444E+02  0.99999971089E+01 0.  0.
        -12    1    1    2    0    0 -0.33776328650E+02 -0.86739041226E+01  0.28513795383E+02  0.45045682556E+02  0.00000000000E+00 0.  1.
         11    1    3    3    0    0  0.24225129178E+02  0.40365234832E+01 -0.20048779446E+02  0.31703374632E+02  0.51100000000E-03 0. -1.
        -11    1    3    3    0    0  0.21841830209E+01  0.29315789590E+00  0.26268535520E+00  0.22193694775E+01  0.51100000000E-03 0.  1.
         12    1    3    3    0    0  0.73670164508E+01  0.43442227436E+01 -0.87277012917E+01  0.12219573334E+02  0.00000000000E+00 0. -1.
</event>
<event>
 7    1  0.4047706E-008  0.4614232E+02  0.7816164E-02  0.1320468E+00
        -11   -1    0    0    0    0  0.00000000000E+00  0.00000000000E+00  0.45593999997E+02  0.45594000000E+02  0.51100000000E-03 0.  1.
         11   -1    0    0    0    0 -0.00000000000E+00 -0.00000000000E+00 -0.45593999997E+02  0.45594000000E+02  0.51100000000E-03 0. -1.
    9900012    2    1    2    0    0 -0.31661899322E+02 -0.31954446931E+02  0.23560463122E+01  0.46142317614E+02  0.99999986631E+01 0.  0.
        -12    1    1    2    0    0  0.31661899322E+02  0.31954446931E+02 -0.23560463122E+01  0.45045682386E+02  0.00000000000E+00 0.  1.
         11    1    3    3    0    0 -0.81124021480E+01 -0.70831498868E+01  0.20830209233E-01  0.10769517867E+02  0.51100000000E-03 0. -1.
        -11    1    3    3    0    0 -0.22481200470E+02 -0.24349259540E+02  0.39418066634E+01  0.33374071593E+02  0.51100000000E-03 0.  1.
         12    1    3    3    0    0 -0.10682967046E+01 -0.52203750454E+00 -0.16065905605E+01  0.19987281542E+01  0.00000000000E+00 0. -1.
</event>
<event>
 7    1  0.4047706E-008  0.4614232E+02  0.7816164E-02  0.1320468E+00
        -11   -1    0    0    0    0  0.00000000000E+00  0.00000000000E+00  0.45593999997E+02  0.45594000000E+02  0.51100000000E-03 0. -1.
         11   -1    0    0    0    0 -0.00000000000E+00 -0.00000000000E+00 -0.45593999997E+02  0.45594000000E+02  0.51100000000E-03 0.  1.
    9900012    2    1    2    0    0 -0.44993477715E+02 -0.81760263452E+00  0.20079819519E+01  0.46142317604E+02  0.99999985714E+01 0.  0.
        -12    1    1    2    0    0  0.44993477715E+02  0.81760263452E+00 -0.20079819519E+01  0.45045682396E+02  0.00000000000E+00 0.  1.
         11    1    3    3    0    0 -0.26249546837E+02 -0.29245593950E+01  0.12430693592E+01  0.26441198507E+02  0.51100000000E-03 0. -1.
        -11    1    3    3    0    0 -0.12807033260E+02  0.36100542359E+01 -0.95393804268E+00  0.13340262012E+02  0.51100000000E-03 0.  1.
        -12    1    3    3    0    0 -0.59368976189E+01 -0.15030974754E+01  0.17188506354E+01  0.63608570857E+01  0.00000000000E+00 0.  1.
</event>
<event>
 7    1  0.4047706E-008  0.4614232E+02  0.7816164E-02  0.1320468E+00
        -11   -1    0    0    0    0  0.00000000000E+00  0.00000000000E+00  0.45593999997E+02  0.45594000000E+02  0.51100000000E-03 0. -1.
         11   -1    0    0    0    0 -0.00000000000E+00 -0.00000000000E+00 -0.45593999997E+02  0.45594000000E+02  0.51100000000E-03 0.  1.
    9900012    2    1    2    0    0 -0.12531175151E+01 -0.30070729246E+02  0.33515584653E+02  0.46142317904E+02  0.10000001303E+02 0.  0.
        -12    1    1    2    0    0  0.12531175151E+01  0.30070729246E+02 -0.33515584653E+02  0.45045682096E+02  0.00000000000E+00 0.  1.
         11    1    3    3    0    0  0.20075935087E+01 -0.18085622958E+02  0.16477905780E+02  0.24548759004E+02  0.51100000000E-03 0. -1.
        -11    1    3    3    0    0 -0.71109997345E-01  0.43631377614E+00  0.56586431477E+00  0.71807313473E+00  0.51100000000E-03 0.  1.
        -12    1    3    3    0    0 -0.31896010265E+01 -0.12421420063E+02  0.16471814558E+02  0.20875485765E+02  0.00000000000E+00 0.  1.
</event>
<event>
 7    1  0.4047706E-008  0.4614232E+02  0.7816164E-02  0.1320468E+00
        -11   -1    0    0    0    0  0.00000000000E+00  0.00000000000E+00  0.45593999997E+02  0.45594000000E+02  0.51100000000E-03 0.  1.
         11   -1    0    0    0    0 -0.00000000000E+00 -0.00000000000E+00 -0.45593999997E+02  0.45594000000E+02  0.51100000000E-03 0. -1.
    9900012    2    1    2    0    0 -0.19128647367E+01  0.25092940821E+02 -0.37360390248E+02  0.46142317742E+02  0.99999998296E+01 0.  0.
        -12    1    1    2    0    0  0.19128647367E+01 -0.25092940821E+02  0.37360390248E+02  0.45045682258E+02  0.00000000000E+00 0.  1.
         11    1    3    3    0    0  0.17245002079E+01  0.38967339302E+01 -0.60932332262E+01  0.74354507395E+01  0.51100000000E-03 0. -1.
        -11    1    3    3    0    0 -0.48803385222E+00 -0.23312655479E+00 -0.32446563805E+01  0.32894255304E+01  0.51100000000E-03 0.  1.
        -12    1    3    3    0    0 -0.31493310924E+01  0.21429333445E+02 -0.28022500642E+02  0.35417441472E+02  0.00000000000E+00 0.  1.
</event>
<event>
 7    1  0.4047706E-008  0.4614232E+02  0.7816164E-02  0.1320468E+00
        -11   -1    0    0    0    0  0.00000000000E+00  0.00000000000E+00  0.45593999997E+02  0.45594000000E+02  0.51100000000E-03 0. -1.
         11   -1    0    0    0    0 -0.00000000000E+00 -0.00000000000E+00 -0.45593999997E+02  0.45594000000E+02  0.51100000000E-03 0.  1.
    9900012    2    1    2    0    0  0.27443969826E+02 -0.35168458820E+02 -0.62547225681E+01  0.46142317299E+02  0.99999957861E+01 0.  0.
        -12    1    1    2    0    0 -0.27443969826E+02  0.35168458820E+02  0.62547225681E+01  0.45045682701E+02  0.00000000000E+00 0.  1.
         11    1    3    3    0    0  0.21672871641E+01 -0.38275841805E+01 -0.14486571212E+01  0.46309979514E+01  0.51100000000E-03 0. -1.
        -11    1    3    3    0    0  0.14673902271E+02 -0.20137441807E+02 -0.71190024926E+01  0.25913706163E+02  0.51100000000E-03 0.  1.
         12    1    3    3    0    0  0.10602780391E+02 -0.11203432833E+02  0.23129370457E+01  0.15597613184E+02  0.00000000000E+00 0. -1.
</event>
<event>
 7    1  0.4047706E-008  0.4614232E+02  0.7816164E-02  0.1320468E+00
        -11   -1    0    0    0    0  0.00000000000E+00  0.00000000000E+00  0.45593999997E+02  0.45594000000E+02  0.51100000000E-03 0.  1.
         11   -1    0    0    0    0 -0.00000000000E+00 -0.00000000000E+00 -0.45593999997E+02  0.45594000000E+02  0.51100000000E-03 0. -1.
    9900012    2    1    2    0    0 -0.14652273506E+02 -0.31698158729E+02 -0.28454368004E+02  0.46142318251E+02  0.10000004466E+02 0.  0.
        -12    1    1    2    0    0  0.14652273506E+02  0.31698158729E+02  0.28454368004E+02  0.45045681749E+02  0.00000000000E+00 0.  1.
         11    1    3    3    0    0 -0.49263440241E+01 -0.61123939273E+01 -0.59603038089E+01  0.98567462543E+01  0.51100000000E-03 0. -1.
        -11    1    3    3    0    0  0.49984226410E+00  0.22969348662E+00 -0.11095794797E+01  0.12384539837E+01  0.51100000000E-03 0.  1.
        -12    1    3    3    0    0 -0.10225771746E+02 -0.25815458288E+02 -0.21384484716E+02  0.35047118013E+02  0.00000000000E+00 0.  1.
</event>
<event>
 7    1  0.4047706E-008  0.4614232E+02  0.7816164E-02  0.1320468E+00
        -11   -1    0    0    0    0  0.00000000000E+00  0.00000000000E+00  0.45593999997E+02  0.45594000000E+02  0.51100000000E-03 0.  1.
         11   -1    0    0    0    0 -0.00000000000E+00 -0.00000000000E+00 -0.45593999997E+02  0.45594000000E+02  0.51100000000E-03 0. -1.
    9900012    2    1    2    0    0 -0.94565660941E+01  0.26514753262E+01 -0.43961983172E+02  0.46142323980E+02  0.10000056711E+02 0.  0.
        -12    1    1    2    0    0  0.94565660941E+01 -0.26514753262E+01  0.43961983172E+02  0.45045676020E+02  0.00000000000E+00 0.  1.
         11    1    3    3    0    0 -0.82880439804E+01  0.70520187151E+00 -0.17866003253E+02  0.19707436546E+02  0.51100000000E-03 0. -1.
        -11    1    3    3    0    0  0.10800740767E+01  0.14282480202E+01 -0.83738632543E+01  0.85631792275E+01  0.51100000000E-03 0.  1.
         12    1    3    3    0    0 -0.22485961904E+01  0.51802543442E+00 -0.17722116664E+02  0.17871708207E+02  0.00000000000E+00 0. -1.
</event>
<event>
 7    1  0.4047706E-008  0.4614232E+02  0.7816164E-02  0.1320468E+00
        -11   -1    0    0    0    0  0.00000000000E+00  0.00000000000E+00  0.45593999997E+02  0.45594000000E+02  0.51100000000E-03 0.  1.
         11   -1    0    0    0    0 -0.00000000000E+00 -0.00000000000E+00 -0.45593999997E+02  0.45594000000E+02  0.51100000000E-03 0. -1.
    9900012    2    1    2    0    0  0.23240768198E+02  0.35354616533E+02 -0.15460639161E+02  0.46142316745E+02  0.99999907351E+01 0.  0.
        -12    1    1    2    0    0 -0.23240768198E+02 -0.35354616533E+02  0.15460639161E+02  0.45045683255E+02  0.00000000000E+00 0.  1.
         11    1    3    3    0    0  0.13148195902E+02  0.16135433834E+02 -0.88555994441E+01  0.22619657872E+02  0.51100000000E-03 0. -1.
        -11    1    3    3    0    0  0.83504816446E+01  0.92750813859E+01 -0.35771368093E+01  0.12982818894E+02  0.51100000000E-03 0.  1.
        -12    1    3    3    0    0  0.17420906515E+01  0.99441013136E+01 -0.30279029076E+01  0.10539839979E+02  0.00000000000E+00 0.  1.
</event>
<event>
 7    1  0.4047706E-008  0.4614232E+02  0.7816164E-02  0.1320468E+00
        -11   -1    0    0    0    0  0.00000000000E+00  0.00000000000E+00  0.45593999997E+02  0.45594000000E+02  0.51100000000E-03 0.  1.
         11   -1    0    0    0    0 -0.00000000000E+00 -0.00000000000E+00 -0.45593999997E+02  0.45594000000E+02  0.51100000000E-03 0. -1.
    9900012    2    1    2    0    0  0.10634551738E+02 -0.24756232695E+02 -0.36099151680E+02  0.46142317633E+02  0.99999988307E+01 0.  0.
        -12    1    1    2    0    0 -0.10634551738E+02  0.24756232695E+02  0.36099151680E+02  0.45045682367E+02  0.00000000000E+00 0.  1.
         11    1    3    3    0    0  0.85675875967E+01 -0.11998012195E+02 -0.14624210105E+02  0.20765918601E+02  0.51100000000E-03 0. -1.
        -11    1    3    3    0    0  0.19826350380E+01 -0.77586328109E+01 -0.96647301007E+01  0.12551264198E+02  0.51100000000E-03 0.  1.
        -12    1    3    3    0    0  0.84329102938E-01 -0.49995876888E+01 -0.11810211474E+02  0.12825134834E+02  0.00000000000E+00 0.  1.
</event>
<event>
 7    1  0.4047706E-008  0.4614232E+02  0.7816164E-02  0.1320468E+00
        -11   -1    0    0    0    0  0.00000000000E+00  0.00000000000E+00  0.45593999997E+02  0.45594000000E+02  0.51100000000E-03 0.  1.
         11   -1    0    0    0    0 -0.00000000000E+00 -0.00000000000E+00 -0.45593999997E+02  0.45594000000E+02  0.51100000000E-03 0. -1.
    9900012    2    1    2    0    0 -0.49056168810E+01 -0.23862044794E+02 -0.37889989931E+02  0.46142316570E+02  0.99999891379E+01 0.  0.
        -12    1    1    2    0    0  0.49056168810E+01  0.23862044794E+02  0.37889989931E+02  0.45045683430E+02  0.00000000000E+00 0.  1.
         11    1    3    3    0    0  0.14846010454E+00 -0.50325729638E+01 -0.55992250390E+01  0.75299503542E+01  0.51100000000E-03 0. -1.
        -11    1    3    3    0    0 -0.23429104844E+01 -0.47598069845E+01 -0.32296957799E+01  0.62109521943E+01  0.51100000000E-03 0.  1.
         12    1    3    3    0    0 -0.27111665011E+01 -0.14069664846E+02 -0.29061069112E+02  0.32401414021E+02  0.00000000000E+00 0. -1.
</event>
<event>
 7    1  0.4047706E-008  0.4614231E+02  0.7816164E-02  0.1320468E+00
        -11   -1    0    0    0    0  0.00000000000E+00  0.00000000000E+00  0.45593999997E+02  0.45594000000E+02  0.51100000000E-03 0. -1.
         11   -1    0    0    0    0 -0.00000000000E+00 -0.00000000000E+00 -0.45593999997E+02  0.45594000000E+02  0.51100000000E-03 0.  1.
    9900012    2    1    2    0    0  0.37852898454E+02  0.86365110700E+01  0.22840372002E+02  0.46142313880E+02  0.99999646055E+01 0.  0.
        -12    1    1    2    0    0 -0.37852898454E+02 -0.86365110700E+01 -0.22840372002E+02  0.45045686120E+02  0.00000000000E+00 0.  1.
         11    1    3    3    0    0  0.16693724707E+02  0.29491737839E+01  0.93211395164E+01  0.19345844845E+02  0.51100000000E-03 0. -1.
        -11    1    3    3    0    0  0.93093917031E+01  0.34138954547E+00  0.22297660787E+01  0.95787879051E+01  0.51100000000E-03 0.  1.
         12    1    3    3    0    0  0.11849782044E+02  0.53459477406E+01  0.11289466407E+02  0.17217681130E+02  0.00000000000E+00 0. -1.
</event>
<event>
 7    1  0.4047706E-008  0.4614232E+02  0.7816164E-02  0.1320468E+00
        -11   -1    0    0    0    0  0.00000000000E+00  0.00000000000E+00  0.45593999997E+02  0.45594000000E+02  0.51100000000E-03 0. -1.
         11   -1    0    0    0    0 -0.00000000000E+00 -0.00000000000E+00 -0.45593999997E+02  0.45594000000E+02  0.51100000000E-03 0.  1.
    9900012    2    1    2    0    0 -0.35488520836E+02 -0.26783506484E+02  0.72334210491E+01  0.46142315292E+02  0.99999774837E+01 0.  0.
        -12    1    1    2    0    0  0.35488520836E+02  0.26783506484E+02 -0.72334210491E+01  0.45045684708E+02  0.00000000000E+00 0.  1.
         11    1    3    3    0    0 -0.84013618796E+01 -0.81162434078E+01 -0.19901045356E+01  0.11849759694E+02  0.51100000000E-03 0. -1.
        -11    1    3    3    0    0 -0.12405839280E+02 -0.73891827574E+01  0.51981667610E+01  0.15346850100E+02  0.51100000000E-03 0.  1.
         12    1    3    3    0    0 -0.14681319677E+02 -0.11278080319E+02  0.40253588237E+01  0.18945705497E+02  0.00000000000E+00 0. -1.
</event>
<event>
 7    1  0.4047706E-008  0.4614232E+02  0.7816164E-02  0.1320468E+00
        -11   -1    0    0    0    0  0.00000000000E+00  0.00000000000E+00  0.45593999997E+02  0.45594000000E+02  0.51100000000E-03 0.  1.
         11   -1    0    0    0    0 -0.00000000000E+00 -0.00000000000E+00 -0.45593999997E+02  0.45594000000E+02  0.51100000000E-03 0. -1.
    9900012    2    1    2    0    0  0.13341425459E+02 -0.41133304761E+02 -0.12616301711E+02  0.46142318047E+02  0.10000002602E+02 0.  0.
        -12    1    1    2    0    0 -0.13341425459E+02  0.41133304761E+02  0.12616301711E+02  0.45045681953E+02  0.00000000000E+00 0.  1.
         11    1    3    3    0    0  0.49270059844E+01 -0.88653502652E+01 -0.57202124412E+01  0.11644339995E+02  0.51100000000E-03 0. -1.
        -11    1    3    3    0    0 -0.17805454189E+00 -0.72371528137E+01 -0.41406374801E+00  0.72511746164E+01  0.51100000000E-03 0.  1.
        -12    1    3    3    0    0  0.85924740162E+01 -0.25030801682E+02 -0.64820255215E+01  0.27246803435E+02  0.00000000000E+00 0.  1.
</event>
<event>
 7    1  0.4047706E-008  0.4614232E+02  0.7816164E-02  0.1320468E+00
        -11   -1    0    0    0    0  0.00000000000E+00  0.00000000000E+00  0.45593999997E+02  0.45594000000E+02  0.51100000000E-03 0.  1.
         11   -1    0    0    0    0 -0.00000000000E+00 -0.00000000000E+00 -0.45593999997E+02  0.45594000000E+02  0.51100000000E-03 0. -1.
    9900012    2    1    2    0    0 -0.11591699888E+02  0.17024592672E+02 -0.40061317186E+02  0.46142318780E+02  0.10000009292E+02 0.  0.
        -12    1    1    2    0    0  0.11591699888E+02 -0.17024592672E+02  0.40061317186E+02  0.45045681220E+02  0.00000000000E+00 0.  1.
         11    1    3    3    0    0 -0.83499513147E+01  0.12177775065E+02 -0.25533227996E+02  0.29495179685E+02  0.51100000000E-03 0. -1.
        -11    1    3    3    0    0 -0.21429506526E+01 -0.86378847951E+00 -0.39659699404E+01  0.45899113135E+01  0.51100000000E-03 0.  1.
        -12    1    3    3    0    0 -0.10987979202E+01  0.57106060863E+01 -0.10562119249E+02  0.12057227781E+02  0.00000000000E+00 0.  1.
</event>
<event>
 7    1  0.4047706E-008  0.4614232E+02  0.7816164E-02  0.1320468E+00
        -11   -1    0    0    0    0  0.00000000000E+00  0.00000000000E+00  0.45593999997E+02  0.45594000000E+02  0.51100000000E-03 0.  1.
         11   -1    0    0    0    0 -0.00000000000E+00 -0.00000000000E+00 -0.45593999997E+02  0.45594000000E+02  0.51100000000E-03 0. -1.
    9900012    2    1    2    0    0  0.77144733372E+01 -0.41435579196E+02 -0.15896329158E+02  0.46142316490E+02  0.99999884104E+01 0.  0.
        -12    1    1    2    0    0 -0.77144733372E+01  0.41435579196E+02  0.15896329158E+02  0.45045683510E+02  0.00000000000E+00 0.  1.
         11    1    3    3    0    0 -0.78422018441E+00 -0.27149476816E+01 -0.36350437148E+01  0.46042898780E+01  0.51100000000E-03 0.  1.
        -11    1    3    3    0    0  0.10394424020E+01 -0.63033966693E+01 -0.26173519208E+01  0.69038961041E+01  0.51100000000E-03 0. -1.
        -12    1    3    3    0    0  0.74592511196E+01 -0.32417234845E+02 -0.96439335223E+01  0.34634130508E+02  0.00000000000E+00 0.  1.
</event>
<event>
 7    1  0.4047706E-008  0.4614232E+02  0.7816164E-02  0.1320468E+00
        -11   -1    0    0    0    0  0.00000000000E+00  0.00000000000E+00  0.45593999997E+02  0.45594000000E+02  0.51100000000E-03 0.  1.
         11   -1    0    0    0    0 -0.00000000000E+00 -0.00000000000E+00 -0.45593999997E+02  0.45594000000E+02  0.51100000000E-03 0. -1.
    9900012    2    1    2    0    0  0.97937225550E+01 -0.37757565619E+02 -0.22529150706E+02  0.46142318803E+02  0.10000009498E+02 0.  0.
        -12    1    1    2    0    0 -0.97937225550E+01  0.37757565619E+02  0.22529150706E+02  0.45045681197E+02  0.00000000000E+00 0.  1.
         11    1    3    3    0    0  0.22528836002E+01 -0.75430421737E+01 -0.75373248018E+01  0.10898818063E+02  0.51100000000E-03 0. -1.
        -11    1    3    3    0    0  0.32654756160E+01 -0.38003878809E+01 -0.12544731000E+01  0.51652668918E+01  0.51100000000E-03 0.  1.
        -12    1    3    3    0    0  0.42753633388E+01 -0.26414135565E+02 -0.13737352804E+02  0.30078233847E+02  0.00000000000E+00 0.  1.
</event>
<event>
 7    1  0.4047706E-008  0.4614232E+02  0.7816164E-02  0.1320468E+00
        -11   -1    0    0    0    0  0.00000000000E+00  0.00000000000E+00  0.45593999997E+02  0.45594000000E+02  0.51100000000E-03 0. -1.
         11   -1    0    0    0    0 -0.00000000000E+00 -0.00000000000E+00 -0.45593999997E+02  0.45594000000E+02  0.51100000000E-03 0.  1.
    9900012    2    1    2    0    0  0.19888586696E+02  0.34970357770E+02  0.20264050015E+02  0.46142317340E+02  0.99999961584E+01 0.  0.
        -12    1    1    2    0    0 -0.19888586696E+02 -0.34970357770E+02 -0.20264050015E+02  0.45045682660E+02  0.00000000000E+00 0.  1.
         11    1    3    3    0    0  0.90046462812E+01  0.15442074054E+02  0.10349623568E+02  0.20655653319E+02  0.51100000000E-03 0. -1.
        -11    1    3    3    0    0  0.34978065268E+01  0.12269619896E+02  0.32302719737E+01  0.13161036440E+02  0.51100000000E-03 0.  1.
        -12    1    3    3    0    0  0.73861338881E+01  0.72586638197E+01  0.66841544727E+01  0.12325627581E+02  0.00000000000E+00 0.  1.
</event>
<event>
 7    1  0.4047706E-008  0.4614231E+02  0.7816164E-02  0.1320468E+00
        -11   -1    0    0    0    0  0.00000000000E+00  0.00000000000E+00  0.45593999997E+02  0.45594000000E+02  0.51100000000E-03 0. -1.
         11   -1    0    0    0    0 -0.00000000000E+00 -0.00000000000E+00 -0.45593999997E+02  0.45594000000E+02  0.51100000000E-03 0.  1.
    9900012    2    1    2    0    0  0.11362732706E+02 -0.25700277693E+02  0.35206505687E+02  0.46142311963E+02  0.99999471291E+01 0.  0.
        -12    1    1    2    0    0 -0.11362732706E+02  0.25700277693E+02 -0.35206505687E+02  0.45045688037E+02  0.00000000000E+00 0.  1.
         11    1    3    3    0    0  0.31378573268E+01 -0.30420947987E+01  0.74815622006E+01  0.86645405297E+01  0.51100000000E-03 0. -1.
        -11    1    3    3    0    0  0.70583421767E+01 -0.10089412362E+02  0.10903682416E+02  0.16447088696E+02  0.51100000000E-03 0.  1.
        -12    1    3    3    0    0  0.11665332030E+01 -0.12568770532E+02  0.16821261070E+02  0.21030682737E+02  0.00000000000E+00 0.  1.
</event>
<event>
 7    1  0.4047706E-008  0.4614232E+02  0.7816164E-02  0.1320468E+00
        -11   -1    0    0    0    0  0.00000000000E+00  0.00000000000E+00  0.45593999997E+02  0.45594000000E+02  0.51100000000E-03 0. -1.
         11   -1    0    0    0    0 -0.00000000000E+00 -0.00000000000E+00 -0.45593999997E+02  0.45594000000E+02  0.51100000000E-03 0.  1.
    9900012    2    1    2    0    0  0.14039788417E+02  0.22012677790E+02  0.36707490566E+02  0.46142317566E+02  0.99999982216E+01 0.  0.
        -12    1    1    2    0    0 -0.14039788417E+02 -0.22012677790E+02 -0.36707490566E+02  0.45045682434E+02  0.00000000000E+00 0.  1.
         11    1    3    3    0    0  0.35694456980E+01  0.32963039781E+01  0.10137874551E+02  0.11242022202E+02  0.51100000000E-03 0. -1.
        -11    1    3    3    0    0  0.21797961386E+00 -0.36547853895E-02  0.33665335574E+01  0.33735851736E+01  0.51100000000E-03 0.  1.
        -12    1    3    3    0    0  0.10252363105E+02  0.18720028597E+02  0.23203082457E+02  0.31526710191E+02  0.00000000000E+00 0.  1.
</event>
<event>
 7    1  0.4047706E-008  0.4614232E+02  0.7816164E-02  0.1320468E+00
        -11   -1    0    0    0    0  0.00000000000E+00  0.00000000000E+00  0.45593999997E+02  0.45594000000E+02  0.51100000000E-03 0.  1.
         11   -1    0    0    0    0 -0.00000000000E+00 -0.00000000000E+00 -0.45593999997E+02  0.45594000000E+02  0.51100000000E-03 0. -1.
    9900012    2    1    2    0    0  0.69277669774E+01 -0.31576280311E+02 -0.31369699200E+02  0.46142318060E+02  0.10000002724E+02 0.  0.
        -12    1    1    2    0    0 -0.69277669774E+01  0.31576280311E+02  0.31369699200E+02  0.45045681940E+02  0.00000000000E+00 0.  1.
         11    1    3    3    0    0  0.40441525757E+01 -0.85314164293E+01 -0.14865980736E+02  0.17610724569E+02  0.51100000000E-03 0. -1.
        -11    1    3    3    0    0  0.87953943736E-01 -0.40694462315E+01 -0.33859034136E+01  0.52945699272E+01  0.51100000000E-03 0.  1.
        -12    1    3    3    0    0  0.27956604579E+01 -0.18975417650E+02 -0.13117815050E+02  0.23237023563E+02  0.00000000000E+00 0.  1.
</event>
<event>
 7    1  0.4047706E-008  0.4614232E+02  0.7816164E-02  0.1320468E+00
        -11   -1    0    0    0    0  0.00000000000E+00  0.00000000000E+00  0.45593999997E+02  0.45594000000E+02  0.51100000000E-03 0.  1.
         11   -1    0    0    0    0 -0.00000000000E+00 -0.00000000000E+00 -0.45593999997E+02  0.45594000000E+02  0.51100000000E-03 0. -1.
    9900012    2    1    2    0    0  0.39222120064E+02  0.16054477863E+02 -0.15264093256E+02  0.46142317580E+02  0.99999983503E+01 0.  0.
        -12    1    1    2    0    0 -0.39222120064E+02 -0.16054477863E+02  0.15264093256E+02  0.45045682420E+02  0.00000000000E+00 0.  1.
         11    1    3    3    0    0  0.11600053024E+02  0.44614574320E+01 -0.48212441984E+01  0.13330799993E+02  0.51100000000E-03 0. -1.
        -11    1    3    3    0    0  0.23422870824E+01  0.29486466505E+01 -0.36505176241E+01  0.52447216352E+01  0.51100000000E-03 0.  1.
        -12    1    3    3    0    0  0.25279779958E+02  0.86443737801E+01 -0.67923314335E+01  0.27566795952E+02  0.00000000000E+00 0.  1.
</event>
<event>
 7    1  0.4047706E-008  0.4614232E+02  0.7816164E-02  0.1320468E+00
        -11   -1    0    0    0    0  0.00000000000E+00  0.00000000000E+00  0.45593999997E+02  0.45594000000E+02  0.51100000000E-03 0.  1.
         11   -1    0    0    0    0 -0.00000000000E+00 -0.00000000000E+00 -0.45593999997E+02  0.45594000000E+02  0.51100000000E-03 0. -1.
    9900012    2    1    2    0    0  0.98668366528E+01  0.23963334526E+02 -0.36844505549E+02  0.46142318117E+02  0.10000003247E+02 0.  0.
        -12    1    1    2    0    0 -0.98668366528E+01 -0.23963334526E+02  0.36844505549E+02  0.45045681883E+02  0.00000000000E+00 0.  1.
         11    1    3    3    0    0  0.26244018286E+01  0.33981990404E+01 -0.56714745296E+01  0.71134285177E+01  0.51100000000E-03 0. -1.
        -11    1    3    3    0    0  0.56244975192E+01  0.16143704369E+02 -0.29378265089E+02  0.33990243056E+02  0.51100000000E-03 0.  1.
        -12    1    3    3    0    0  0.16179373051E+01  0.44214311171E+01 -0.17947659298E+01  0.50386465434E+01  0.00000000000E+00 0.  1.
</event>
<event>
 7    1  0.4047706E-008  0.4614232E+02  0.7816164E-02  0.1320468E+00
        -11   -1    0    0    0    0  0.00000000000E+00  0.00000000000E+00  0.45593999997E+02  0.45594000000E+02  0.51100000000E-03 0.  1.
         11   -1    0    0    0    0 -0.00000000000E+00 -0.00000000000E+00 -0.45593999997E+02  0.45594000000E+02  0.51100000000E-03 0. -1.
    9900012    2    1    2    0    0  0.42204890695E+02 -0.14244176911E+02 -0.67055176180E+01  0.46142319397E+02  0.10000014919E+02 0.  0.
        -12    1    1    2    0    0 -0.42204890695E+02  0.14244176911E+02  0.67055176180E+01  0.45045680603E+02  0.00000000000E+00 0.  1.
         11    1    3    3    0    0  0.20155578756E+02 -0.92589934141E+01 -0.35432861259E+01  0.22461771766E+02  0.51100000000E-03 0. -1.
        -11    1    3    3    0    0  0.90985722376E+01 -0.14636326759E+01 -0.43818485148E+01  0.10204255683E+02  0.51100000000E-03 0.  1.
         12    1    3    3    0    0  0.12950739701E+02 -0.35215508214E+01  0.12196170227E+01  0.13476291948E+02  0.00000000000E+00 0. -1.
</event>
<event>
 7    1  0.4047706E-008  0.4614232E+02  0.7816164E-02  0.1320468E+00
        -11   -1    0    0    0    0  0.00000000000E+00  0.00000000000E+00  0.45593999997E+02  0.45594000000E+02  0.51100000000E-03 0. -1.
         11   -1    0    0    0    0 -0.00000000000E+00 -0.00000000000E+00 -0.45593999997E+02  0.45594000000E+02  0.51100000000E-03 0.  1.
    9900012    2    1    2    0    0  0.27948957617E+02 -0.30792998200E+02 -0.17313594760E+02  0.46142317260E+02  0.99999954275E+01 0.  0.
        -12    1    1    2    0    0 -0.27948957617E+02  0.30792998200E+02  0.17313594760E+02  0.45045682740E+02  0.00000000000E+00 0.  1.
         11    1    3    3    0    0  0.13511215167E+02 -0.18314749824E+02 -0.84535576138E+01  0.24278501457E+02  0.51100000000E-03 0. -1.
        -11    1    3    3    0    0  0.14723252506E+02 -0.10735561830E+02 -0.81266035260E+01  0.19951644977E+02  0.51100000000E-03 0.  1.
         12    1    3    3    0    0 -0.28551005657E+00 -0.17426865456E+01 -0.73343361983E+00  0.19121708248E+01  0.00000000000E+00 0. -1.
</event>
<event>
 7    1  0.4491027E-008  0.4614232E+02  0.7816164E-02  0.1320468E+00
        -11   -1    0    0    0    0  0.00000000000E+00  0.00000000000E+00  0.45593999997E+02  0.45594000000E+02  0.51100000000E-03 0.  1.
         11   -1    0    0    0    0 -0.00000000000E+00 -0.00000000000E+00 -0.45593999997E+02  0.45594000000E+02  0.51100000000E-03 0. -1.
    9900012    2    1    2    0    0  0.63745209523E+01 -0.42963747302E+02  0.11941329688E+02  0.46142318140E+02  0.10000003451E+02 0.  0.
        -12    1    1    2    0    0 -0.63745209523E+01  0.42963747302E+02 -0.11941329688E+02  0.45045681860E+02  0.00000000000E+00 0.  1.
         11    1    3    3    0    0  0.82053211736E+01 -0.33148084293E+02  0.89795152638E+01  0.35309410679E+02  0.51100000000E-03 0. -1.
        -11    1    3    3    0    0  0.28315981156E+00 -0.40140181565E+00 -0.38089460326E+00  0.62159782529E+00  0.51100000000E-03 0.  1.
         12    1    3    3    0    0 -0.21139600328E+01 -0.94142611928E+01  0.33427090273E+01  0.10211309635E+02  0.00000000000E+00 0. -1.
</event>
<event>
 7    1  0.4047706E-008  0.4614232E+02  0.7816164E-02  0.1320468E+00
        -11   -1    0    0    0    0  0.00000000000E+00  0.00000000000E+00  0.45593999997E+02  0.45594000000E+02  0.51100000000E-03 0. -1.
         11   -1    0    0    0    0 -0.00000000000E+00 -0.00000000000E+00 -0.45593999997E+02  0.45594000000E+02  0.51100000000E-03 0.  1.
    9900012    2    1    2    0    0 -0.31026672681E+02  0.53157954060E+01  0.32221133084E+02  0.46142317458E+02  0.99999972364E+01 0.  0.
        -12    1    1    2    0    0  0.31026672681E+02 -0.53157954060E+01 -0.32221133084E+02  0.45045682542E+02  0.00000000000E+00 0.  1.
         11    1    3    3    0    0 -0.17503523006E+02  0.38531247216E+01  0.15744189776E+02  0.23855804319E+02  0.51100000000E-03 0. -1.
        -11    1    3    3    0    0 -0.11747220273E+02 -0.88362470914E+00  0.14741197757E+02  0.18870105679E+02  0.51100000000E-03 0.  1.
        -12    1    3    3    0    0 -0.17759294022E+01  0.23462953936E+01  0.17357455509E+01  0.34164074600E+01  0.00000000000E+00 0.  1.
</event>
<event>
 7    1  0.4047706E-008  0.4614232E+02  0.7816164E-02  0.1320468E+00
        -11   -1    0    0    0    0  0.00000000000E+00  0.00000000000E+00  0.45593999997E+02  0.45594000000E+02  0.51100000000E-03 0. -1.
         11   -1    0    0    0    0 -0.00000000000E+00 -0.00000000000E+00 -0.45593999997E+02  0.45594000000E+02  0.51100000000E-03 0.  1.
    9900012    2    1    2    0    0  0.18658102013E+02 -0.37017597746E+02  0.17626292165E+02  0.46142317753E+02  0.99999999295E+01 0.  0.
        -12    1    1    2    0    0 -0.18658102013E+02  0.37017597746E+02 -0.17626292165E+02  0.45045682247E+02  0.00000000000E+00 0.  1.
         11    1    3    3    0    0 -0.64979208350E+00 -0.46069745062E+01  0.16058000420E+01  0.49218937299E+01  0.51100000000E-03 0. -1.
        -11    1    3    3    0    0  0.84644225944E+00 -0.11401918416E+01 -0.22677798214E+00  0.14380300583E+01  0.51100000000E-03 0.  1.
         12    1    3    3    0    0  0.18461451837E+02 -0.31270431398E+02  0.16247270105E+02  0.39782393965E+02  0.00000000000E+00 0. -1.
</event>
<event>
 7    1  0.4047706E-008  0.4614232E+02  0.7816164E-02  0.1320468E+00
        -11   -1    0    0    0    0  0.00000000000E+00  0.00000000000E+00  0.45593999997E+02  0.45594000000E+02  0.51100000000E-03 0. -1.
         11   -1    0    0    0    0 -0.00000000000E+00 -0.00000000000E+00 -0.45593999997E+02  0.45594000000E+02  0.51100000000E-03 0.  1.
    9900012    2    1    2    0    0 -0.25012557419E+02 -0.37108164676E+02 -0.51448602658E+01  0.46142317616E+02  0.99999986773E+01 0.  0.
        -12    1    1    2    0    0  0.25012557419E+02  0.37108164676E+02  0.51448602658E+01  0.45045682384E+02  0.00000000000E+00 0.  1.
         11    1    3    3    0    0 -0.40064766051E+01 -0.46645230582E+01  0.66809184077E-01  0.61493165373E+01  0.51100000000E-03 0. -1.
        -11    1    3    3    0    0 -0.40089104636E+01 -0.75125994511E+01  0.24516831845E+01  0.88612225069E+01  0.51100000000E-03 0.  1.
         12    1    3    3    0    0 -0.16997170351E+02 -0.24931042167E+02 -0.76633526344E+01  0.31131778572E+02  0.00000000000E+00 0. -1.
</event>
<event>
 7    1  0.4047706E-008  0.4614231E+02  0.7816164E-02  0.1320468E+00
        -11   -1    0    0    0    0  0.00000000000E+00  0.00000000000E+00  0.45593999997E+02  0.45594000000E+02  0.51100000000E-03 0. -1.
         11   -1    0    0    0    0 -0.00000000000E+00 -0.00000000000E+00 -0.45593999997E+02  0.45594000000E+02  0.51100000000E-03 0.  1.
    9900012    2    1    2    0    0 -0.28740036747E+02 -0.30823096096E+02  0.15907908690E+02  0.46142306265E+02  0.99998951665E+01 0.  0.
        -12    1    1    2    0    0  0.28740036747E+02  0.30823096096E+02 -0.15907908690E+02  0.45045693735E+02  0.00000000000E+00 0.  1.
         11    1    3    3    0    0 -0.16793792094E+02 -0.15057029469E+02  0.97750922597E+01  0.24582473803E+02  0.51100000000E-03 0. -1.
        -11    1    3    3    0    0 -0.28808235330E+01 -0.86477333160E+01  0.32668071589E+01  0.96826889348E+01  0.51100000000E-03 0.  1.
         12    1    3    3    0    0 -0.90654211198E+01 -0.71183333116E+01  0.28660092717E+01  0.11877143527E+02  0.00000000000E+00 0. -1.
</event>
<event>
 7    1  0.4047706E-008  0.4614232E+02  0.7816164E-02  0.1320468E+00
        -11   -1    0    0    0    0  0.00000000000E+00  0.00000000000E+00  0.45593999997E+02  0.45594000000E+02  0.51100000000E-03 0. -1.
         11   -1    0    0    0    0 -0.00000000000E+00 -0.00000000000E+00 -0.45593999997E+02  0.45594000000E+02  0.51100000000E-03 0.  1.
    9900012    2    1    2    0    0 -0.31991444443E+00 -0.39389605943E+02  0.21851083709E+02  0.46142320287E+02  0.10000023032E+02 0.  0.
        -12    1    1    2    0    0  0.31991444443E+00  0.39389605943E+02 -0.21851083709E+02  0.45045679713E+02  0.00000000000E+00 0.  1.
         11    1    3    3    0    0  0.22727039062E+01 -0.75506047523E+01  0.75977339885E+01  0.10949994392E+02  0.51100000000E-03 0.  1.
        -11    1    3    3    0    0 -0.42776805888E+00 -0.22540920712E+02  0.11167043770E+02  0.25159073092E+02  0.51100000000E-03 0. -1.
        -12    1    3    3    0    0 -0.21648502917E+01 -0.92980804788E+01  0.30863059505E+01  0.10033252802E+02  0.00000000000E+00 0.  1.
</event>
<event>
 7    1  0.4047706E-008  0.4614232E+02  0.7816164E-02  0.1320468E+00
        -11   -1    0    0    0    0  0.00000000000E+00  0.00000000000E+00  0.45593999997E+02  0.45594000000E+02  0.51100000000E-03 0.  1.
         11   -1    0    0    0    0 -0.00000000000E+00 -0.00000000000E+00 -0.45593999997E+02  0.45594000000E+02  0.51100000000E-03 0. -1.
    9900012    2    1    2    0    0 -0.33396685616E+02 -0.28787060512E+02 -0.92238811287E+01  0.46142318230E+02  0.10000004277E+02 0.  0.
        -12    1    1    2    0    0  0.33396685616E+02  0.28787060512E+02  0.92238811287E+01  0.45045681770E+02  0.00000000000E+00 0.  1.
         11    1    3    3    0    0 -0.16381798039E+02 -0.19796698339E+02 -0.36402824252E+01  0.25952345337E+02  0.51100000000E-03 0. -1.
        -11    1    3    3    0    0 -0.10801490811E+02 -0.60302467154E+01 -0.23766351515E+01  0.12597002584E+02  0.51100000000E-03 0.  1.
         12    1    3    3    0    0 -0.62133967657E+01 -0.29601154577E+01 -0.32069635520E+01  0.75929703091E+01  0.00000000000E+00 0. -1.
</event>
<event>
 7    1  0.4047706E-008  0.4614232E+02  0.7816164E-02  0.1320468E+00
        -11   -1    0    0    0    0  0.00000000000E+00  0.00000000000E+00  0.45593999997E+02  0.45594000000E+02  0.51100000000E-03 0.  1.
         11   -1    0    0    0    0 -0.00000000000E+00 -0.00000000000E+00 -0.45593999997E+02  0.45594000000E+02  0.51100000000E-03 0. -1.
    9900012    2    1    2    0    0 -0.94037725127E+01 -0.80829212083E+00 -0.44045762904E+02  0.46142317594E+02  0.99999984803E+01 0.  0.
        -12    1    1    2    0    0  0.94037725127E+01  0.80829212083E+00  0.44045762904E+02  0.45045682406E+02  0.00000000000E+00 0.  1.
         11    1    3    3    0    0 -0.60002125354E+01 -0.64361254396E+00 -0.23232266104E+02  0.24003228453E+02  0.51100000000E-03 0. -1.
        -11    1    3    3    0    0 -0.31134890795E+01  0.14754507931E+01 -0.19983164640E+02  0.20278008743E+02  0.51100000000E-03 0.  1.
        -12    1    3    3    0    0 -0.29007089766E+00 -0.16401303700E+01 -0.83033216051E+00  0.18610803994E+01  0.00000000000E+00 0.  1.
</event>
<event>
 7    1  0.4047706E-008  0.4614232E+02  0.7816164E-02  0.1320468E+00
        -11   -1    0    0    0    0  0.00000000000E+00  0.00000000000E+00  0.45593999997E+02  0.45594000000E+02  0.51100000000E-03 0.  1.
         11   -1    0    0    0    0 -0.00000000000E+00 -0.00000000000E+00 -0.45593999997E+02  0.45594000000E+02  0.51100000000E-03 0. -1.
    9900012    2    1    2    0    0 -0.29413110234E+02  0.15767924412E+02 -0.30254834142E+02  0.46142317822E+02  0.10000000554E+02 0.  0.
        -12    1    1    2    0    0  0.29413110234E+02 -0.15767924412E+02  0.30254834142E+02  0.45045682178E+02  0.00000000000E+00 0.  1.
         11    1    3    3    0    0 -0.20252900061E+02  0.68289475533E+01 -0.18840672990E+02  0.28491848739E+02  0.51100000000E-03 0. -1.
        -11    1    3    3    0    0  0.92081749934E-01  0.16037054382E+01 -0.90516028082E+00  0.18438182059E+01  0.51100000000E-03 0.  1.
         12    1    3    3    0    0 -0.92522919235E+01  0.73352714202E+01 -0.10509000871E+02  0.15806650877E+02  0.00000000000E+00 0. -1.
</event>
<event>
 7    1  0.4047706E-008  0.4614232E+02  0.7816164E-02  0.1320468E+00
        -11   -1    0    0    0    0  0.00000000000E+00  0.00000000000E+00  0.45593999997E+02  0.45594000000E+02  0.51100000000E-03 0. -1.
         11   -1    0    0    0    0 -0.00000000000E+00 -0.00000000000E+00 -0.45593999997E+02  0.45594000000E+02  0.51100000000E-03 0.  1.
    9900012    2    1    2    0    0 -0.35400710647E+02 -0.19571388405E+02 -0.19820795176E+02  0.46142317856E+02  0.10000000863E+02 0.  0.
        -12    1    1    2    0    0  0.35400710647E+02  0.19571388405E+02  0.19820795176E+02  0.45045682144E+02  0.00000000000E+00 0.  1.
         11    1    3    3    0    0 -0.20897225565E+02 -0.78770169647E+01 -0.74256460905E+01  0.23534690410E+02  0.51100000000E-03 0. -1.
        -11    1    3    3    0    0 -0.82816760405E+00  0.24970543074E-01 -0.18532381656E+00  0.84901724748E+00  0.51100000000E-03 0.  1.
         12    1    3    3    0    0 -0.13675317478E+02 -0.11719341984E+02 -0.12209825269E+02  0.21758610198E+02  0.00000000000E+00 0. -1.
</event>
<event>
 7    1  0.4047706E-008  0.4614232E+02  0.7816164E-02  0.1320468E+00
        -11   -1    0    0    0    0  0.00000000000E+00  0.00000000000E+00  0.45593999997E+02  0.45594000000E+02  0.51100000000E-03 0. -1.
         11   -1    0    0    0    0 -0.00000000000E+00 -0.00000000000E+00 -0.45593999997E+02  0.45594000000E+02  0.51100000000E-03 0.  1.
    9900012    2    1    2    0    0 -0.37084515578E+01  0.43321886528E+02  0.11771789346E+02  0.46142317746E+02  0.99999998621E+01 0.  0.
        -12    1    1    2    0    0  0.37084515578E+01 -0.43321886528E+02 -0.11771789346E+02  0.45045682254E+02  0.00000000000E+00 0.  1.
         11    1    3    3    0    0 -0.23451726067E+01  0.94821379651E+01  0.28958457835E+01  0.10188066451E+02  0.51100000000E-03 0. -1.
        -11    1    3    3    0    0  0.15459210966E+01  0.10440582761E+01  0.44838683516E-01  0.18659958439E+01  0.51100000000E-03 0.  1.
        -12    1    3    3    0    0 -0.29092000476E+01  0.32795690287E+02  0.88311048788E+01  0.34088255451E+02  0.00000000000E+00 0.  1.
</event>
<event>
 7    1  0.4047706E-008  0.4614231E+02  0.7816164E-02  0.1320468E+00
        -11   -1    0    0    0    0  0.00000000000E+00  0.00000000000E+00  0.45593999997E+02  0.45594000000E+02  0.51100000000E-03 0.  1.
         11   -1    0    0    0    0 -0.00000000000E+00 -0.00000000000E+00 -0.45593999997E+02  0.45594000000E+02  0.51100000000E-03 0. -1.
    9900012    2    1    2    0    0 -0.93821271178E+01 -0.36216478770E+02 -0.25088963605E+02  0.46142314984E+02  0.99999746766E+01 0.  0.
        -12    1    1    2    0    0  0.93821271178E+01  0.36216478770E+02  0.25088963605E+02  0.45045685016E+02  0.00000000000E+00 0.  1.
         11    1    3    3    0    0 -0.30026798535E+01 -0.17353103999E+02 -0.84025107864E+01  0.19512777672E+02  0.51100000000E-03 0.  1.
        -11    1    3    3    0    0 -0.15584792102E+01 -0.32258285713E+01 -0.50819094404E+00  0.36184369162E+01  0.51100000000E-03 0. -1.
         12    1    3    3    0    0 -0.48209680540E+01 -0.15637546200E+02 -0.16178261875E+02  0.23011100396E+02  0.00000000000E+00 0. -1.
</event>
<event>
 7    1  0.4047706E-008  0.4614232E+02  0.7816164E-02  0.1320468E+00
        -11   -1    0    0    0    0  0.00000000000E+00  0.00000000000E+00  0.45593999997E+02  0.45594000000E+02  0.51100000000E-03 0.  1.
         11   -1    0    0    0    0 -0.00000000000E+00 -0.00000000000E+00 -0.45593999997E+02  0.45594000000E+02  0.51100000000E-03 0. -1.
    9900012    2    1    2    0    0 -0.43536921279E+02 -0.10607086438E+02 -0.45978164339E+01  0.46142315267E+02  0.99999772525E+01 0.  0.
        -12    1    1    2    0    0  0.43536921279E+02  0.10607086438E+02  0.45978164339E+01  0.45045684733E+02  0.00000000000E+00 0.  1.
         11    1    3    3    0    0 -0.33446982496E+02 -0.81576407960E+01 -0.61591977381E+01  0.34974039780E+02  0.51100000000E-03 0. -1.
        -11    1    3    3    0    0 -0.60732572320E+01 -0.20972757840E+01 -0.83281214834E+00  0.64789347470E+01  0.51100000000E-03 0.  1.
        -12    1    3    3    0    0 -0.40166815504E+01 -0.35216985844E+00  0.23941934526E+01  0.46893407399E+01  0.00000000000E+00 0.  1.
</event>
<event>
 7    1  0.4047706E-008  0.4614232E+02  0.7816164E-02  0.1320468E+00
        -11   -1    0    0    0    0  0.00000000000E+00  0.00000000000E+00  0.45593999997E+02  0.45594000000E+02  0.51100000000E-03 0.  1.
         11   -1    0    0    0    0 -0.00000000000E+00 -0.00000000000E+00 -0.45593999997E+02  0.45594000000E+02  0.51100000000E-03 0. -1.
    9900012    2    1    2    0    0  0.30791290622E+02  0.29091659219E+01 -0.32749758723E+02  0.46142317399E+02  0.99999966982E+01 0.  0.
        -12    1    1    2    0    0 -0.30791290622E+02 -0.29091659219E+01  0.32749758723E+02  0.45045682601E+02  0.00000000000E+00 0.  1.
         11    1    3    3    0    0  0.46971460100E+01 -0.57627413559E+00 -0.27738224368E+01  0.54853772606E+01  0.51100000000E-03 0. -1.
        -11    1    3    3    0    0  0.81066515947E+01  0.45428477316E+01 -0.82047560674E+01  0.12396503054E+02  0.51100000000E-03 0.  1.
         12    1    3    3    0    0  0.17987493018E+02 -0.10574076741E+01 -0.21771180219E+02  0.28260437084E+02  0.00000000000E+00 0. -1.
</event>
<event>
 7    1  0.4047706E-008  0.4614232E+02  0.7816164E-02  0.1320468E+00
        -11   -1    0    0    0    0  0.00000000000E+00  0.00000000000E+00  0.45593999997E+02  0.45594000000E+02  0.51100000000E-03 0.  1.
         11   -1    0    0    0    0 -0.00000000000E+00 -0.00000000000E+00 -0.45593999997E+02  0.45594000000E+02  0.51100000000E-03 0. -1.
    9900012    2    1    2    0    0 -0.74707017023E+01  0.33703125281E+02 -0.28937892088E+02  0.46142316121E+02  0.99999850396E+01 0.  0.
        -12    1    1    2    0    0  0.74707017023E+01 -0.33703125281E+02  0.28937892088E+02  0.45045683879E+02  0.00000000000E+00 0.  1.
         11    1    3    3    0    0 -0.44831302473E+01  0.24037534761E+02 -0.15748652821E+02  0.29084731392E+02  0.51100000000E-03 0. -1.
        -11    1    3    3    0    0 -0.43930316071E+00 -0.28647690600E+00 -0.44119460944E+00  0.68535336083E+00  0.51100000000E-03 0.  1.
        -12    1    3    3    0    0 -0.25482682943E+01  0.99520674265E+01 -0.12748044658E+02  0.16372231368E+02  0.00000000000E+00 0.  1.
</event>
<event>
 7    1  0.4047706E-008  0.4614232E+02  0.7816164E-02  0.1320468E+00
        -11   -1    0    0    0    0  0.00000000000E+00  0.00000000000E+00  0.45593999997E+02  0.45594000000E+02  0.51100000000E-03 0.  1.
         11   -1    0    0    0    0 -0.00000000000E+00 -0.00000000000E+00 -0.45593999997E+02  0.45594000000E+02  0.51100000000E-03 0. -1.
    9900012    2    1    2    0    0  0.43552577263E+02  0.11020315581E+02 -0.32922639549E+01  0.46142319367E+02  0.10000014646E+02 0.  0.
        -12    1    1    2    0    0 -0.43552577263E+02 -0.11020315581E+02  0.32922639549E+01  0.45045680633E+02  0.00000000000E+00 0.  1.
         11    1    3    3    0    0  0.47736631518E+01  0.30117065862E+01  0.19358594027E+00  0.56476289030E+01  0.51100000000E-03 0. -1.
        -11    1    3    3    0    0  0.65659556071E+01  0.41867111003E+00  0.21531991139E+01  0.69226674930E+01  0.51100000000E-03 0.  1.
         12    1    3    3    0    0  0.32212958504E+02  0.75899378843E+01 -0.56390490091E+01  0.33572022971E+02  0.00000000000E+00 0. -1.
</event>
<event>
 7    1  0.4047706E-008  0.4614232E+02  0.7816164E-02  0.1320468E+00
        -11   -1    0    0    0    0  0.00000000000E+00  0.00000000000E+00  0.45593999997E+02  0.45594000000E+02  0.51100000000E-03 0.  1.
         11   -1    0    0    0    0 -0.00000000000E+00 -0.00000000000E+00 -0.45593999997E+02  0.45594000000E+02  0.51100000000E-03 0. -1.
    9900012    2    1    2    0    0  0.10338227211E+02 -0.16077365610E+02 -0.40789126868E+02  0.46142317660E+02  0.99999990769E+01 0.  0.
        -12    1    1    2    0    0 -0.10338227211E+02  0.16077365610E+02  0.40789126868E+02  0.45045682340E+02  0.00000000000E+00 0.  1.
         11    1    3    3    0    0  0.17799868840E+01 -0.32849741457E+01 -0.78025642410E+01  0.86509778315E+01  0.51100000000E-03 0. -1.
        -11    1    3    3    0    0  0.20946348772E+01 -0.28071512082E+00 -0.63360377960E+00  0.22062978626E+01  0.51100000000E-03 0.  1.
        -12    1    3    3    0    0  0.64636054492E+01 -0.12511676344E+02 -0.32352958848E+02  0.35285041966E+02  0.00000000000E+00 0.  1.
</event>
<event>
 7    1  0.4047706E-008  0.4614231E+02  0.7816164E-02  0.1320468E+00
        -11   -1    0    0    0    0  0.00000000000E+00  0.00000000000E+00  0.45593999997E+02  0.45594000000E+02  0.51100000000E-03 0. -1.
         11   -1    0    0    0    0 -0.00000000000E+00 -0.00000000000E+00 -0.45593999997E+02  0.45594000000E+02  0.51100000000E-03 0.  1.
    9900012    2    1    2    0    0  0.44926661109E+01 -0.14572622843E+01  0.44797396290E+02  0.46142307903E+02  0.99999101027E+01 0.  0.
        -12    1    1    2    0    0 -0.44926661109E+01  0.14572622843E+01 -0.44797396290E+02  0.45045692097E+02  0.00000000000E+00 0.  1.
         11    1    3    3    0    0 -0.17495030940E+00 -0.31351541368E+00  0.24632506379E+02  0.24635122698E+02  0.51100000000E-03 0. -1.
        -11    1    3    3    0    0  0.55711058126E+01  0.48273827695E+00  0.14311143005E+02  0.15364864808E+02  0.51100000000E-03 0.  1.
        -12    1    3    3    0    0 -0.90348939231E+00 -0.16264851476E+01  0.58537469061E+01  0.61423203969E+01  0.00000000000E+00 0.  1.
</event>
<event>
 7    1  0.4047706E-008  0.4614232E+02  0.7816164E-02  0.1320468E+00
        -11   -1    0    0    0    0  0.00000000000E+00  0.00000000000E+00  0.45593999997E+02  0.45594000000E+02  0.51100000000E-03 0. -1.
         11   -1    0    0    0    0 -0.00000000000E+00 -0.00000000000E+00 -0.45593999997E+02  0.45594000000E+02  0.51100000000E-03 0.  1.
    9900012    2    1    2    0    0 -0.36443362935E+02 -0.22180007225E+02  0.14458288062E+02  0.46142317453E+02  0.99999971873E+01 0.  0.
        -12    1    1    2    0    0  0.36443362935E+02  0.22180007225E+02 -0.14458288062E+02  0.45045682547E+02  0.00000000000E+00 0.  1.
         11    1    3    3    0    0 -0.26206588541E+02 -0.14711937108E+02  0.11640666285E+02  0.32229357552E+02  0.51100000000E-03 0. -1.
        -11    1    3    3    0    0 -0.62203133897E+01 -0.66306866888E+01  0.29457420729E+00  0.90964322047E+01  0.51100000000E-03 0.  1.
         12    1    3    3    0    0 -0.40164610041E+01 -0.83738342797E+00  0.25230475697E+01  0.48165276956E+01  0.00000000000E+00 0. -1.
</event>
<event>
 7    1  0.4047706E-008  0.4614232E+02  0.7816164E-02  0.1320468E+00
        -11   -1    0    0    0    0  0.00000000000E+00  0.00000000000E+00  0.45593999997E+02  0.45594000000E+02  0.51100000000E-03 0.  1.
         11   -1    0    0    0    0 -0.00000000000E+00 -0.00000000000E+00 -0.45593999997E+02  0.45594000000E+02  0.51100000000E-03 0. -1.
    9900012    2    1    2    0    0  0.24700399285E+02  0.21716006528E+02 -0.30780168050E+02  0.46142318636E+02  0.10000007979E+02 0.  0.
        -12    1    1    2    0    0 -0.24700399285E+02 -0.21716006528E+02  0.30780168050E+02  0.45045681364E+02  0.00000000000E+00 0.  1.
         11    1    3    3    0    0 -0.16996512758E+00  0.76932841281E+00 -0.96040204309E+00  0.12422265079E+01  0.51100000000E-03 0. -1.
        -11    1    3    3    0    0 -0.31893387754E+00 -0.33672299747E+00 -0.10083314331E+01  0.11098800545E+01  0.51100000000E-03 0.  1.
         12    1    3    3    0    0  0.25189298290E+02  0.21283401112E+02 -0.28811434574E+02  0.43790212074E+02  0.00000000000E+00 0. -1.
</event>
<event>
 7    1  0.4047706E-008  0.4614232E+02  0.7816164E-02  0.1320468E+00
        -11   -1    0    0    0    0  0.00000000000E+00  0.00000000000E+00  0.45593999997E+02  0.45594000000E+02  0.51100000000E-03 0. -1.
         11   -1    0    0    0    0 -0.00000000000E+00 -0.00000000000E+00 -0.45593999997E+02  0.45594000000E+02  0.51100000000E-03 0.  1.
    9900012    2    1    2    0    0  0.46631088966E+01 -0.43728106132E+02 -0.97581573540E+01  0.46142317794E+02  0.10000000298E+02 0.  0.
        -12    1    1    2    0    0 -0.46631088966E+01  0.43728106132E+02  0.97581573540E+01  0.45045682206E+02  0.00000000000E+00 0.  1.
         11    1    3    3    0    0  0.30108845453E+01 -0.25531865944E+02 -0.43237804202E+01  0.26069842380E+02  0.51100000000E-03 0. -1.
        -11    1    3    3    0    0  0.87907934756E+00 -0.12158205572E+02 -0.66188534414E+01  0.13870975610E+02  0.51100000000E-03 0.  1.
        -12    1    3    3    0    0  0.77314500376E+00 -0.60380346155E+01  0.11844765076E+01  0.62014998034E+01  0.00000000000E+00 0.  1.
</event>
<event>
 7    1  0.4047706E-008  0.4614232E+02  0.7816164E-02  0.1320468E+00
        -11   -1    0    0    0    0  0.00000000000E+00  0.00000000000E+00  0.45593999997E+02  0.45594000000E+02  0.51100000000E-03 0.  1.
         11   -1    0    0    0    0 -0.00000000000E+00 -0.00000000000E+00 -0.45593999997E+02  0.45594000000E+02  0.51100000000E-03 0. -1.
    9900012    2    1    2    0    0  0.34133109084E+02  0.11975226461E+02 -0.26844707597E+02  0.46142317515E+02  0.99999977585E+01 0.  0.
        -12    1    1    2    0    0 -0.34133109084E+02 -0.11975226461E+02  0.26844707597E+02  0.45045682485E+02  0.00000000000E+00 0.  1.
         11    1    3    3    0    0  0.10398242744E+02  0.66477619817E+01 -0.95626827108E+01  0.15612850234E+02  0.51100000000E-03 0. -1.
        -11    1    3    3    0    0  0.18532253476E+02  0.13870861153E+01 -0.13669472519E+02  0.23069956784E+02  0.51100000000E-03 0.  1.
        -12    1    3    3    0    0  0.52026128640E+01  0.39403783638E+01 -0.36125523672E+01  0.74595104979E+01  0.00000000000E+00 0.  1.
</event>
<event>
 7    1  0.4047706E-008  0.4614232E+02  0.7816164E-02  0.1320468E+00
        -11   -1    0    0    0    0  0.00000000000E+00  0.00000000000E+00  0.45593999997E+02  0.45594000000E+02  0.51100000000E-03 0.  1.
         11   -1    0    0    0    0 -0.00000000000E+00 -0.00000000000E+00 -0.45593999997E+02  0.45594000000E+02  0.51100000000E-03 0. -1.
    9900012    2    1    2    0    0  0.20260807632E+02 -0.39754002232E+02  0.61832406709E+01  0.46142317803E+02  0.10000000382E+02 0.  0.
        -12    1    1    2    0    0 -0.20260807632E+02  0.39754002232E+02 -0.61832406709E+01  0.45045682197E+02  0.00000000000E+00 0.  1.
         11    1    3    3    0    0  0.10434733592E+01 -0.45582145714E+01  0.27498458593E+01  0.54247404768E+01  0.51100000000E-03 0.  1.
        -11    1    3    3    0    0  0.15572175884E+01 -0.38113424441E+01 -0.14732994111E+01  0.43728559615E+01  0.51100000000E-03 0. -1.
         12    1    3    3    0    0  0.17660116684E+02 -0.31384445217E+02  0.49066942227E+01  0.36344721365E+02  0.00000000000E+00 0. -1.
</event>
<event>
 7    1  0.4047706E-008  0.4614232E+02  0.7816164E-02  0.1320468E+00
        -11   -1    0    0    0    0  0.00000000000E+00  0.00000000000E+00  0.45593999997E+02  0.45594000000E+02  0.51100000000E-03 0.  1.
         11   -1    0    0    0    0 -0.00000000000E+00 -0.00000000000E+00 -0.45593999997E+02  0.45594000000E+02  0.51100000000E-03 0. -1.
    9900012    2    1    2    0    0  0.15483035264E+02 -0.88138837144E+01 -0.41372751361E+02  0.46142317828E+02  0.10000000612E+02 0.  0.
        -12    1    1    2    0    0 -0.15483035264E+02  0.88138837144E+01  0.41372751361E+02  0.45045682172E+02  0.00000000000E+00 0.  1.
         11    1    3    3    0    0  0.38181409965E+00 -0.28648368481E+01 -0.89846284009E+01  0.94380411070E+01  0.51100000000E-03 0. -1.
        -11    1    3    3    0    0  0.21036389825E+01 -0.32926202424E+01 -0.90844228108E+01  0.98890537007E+01  0.51100000000E-03 0.  1.
        -12    1    3    3    0    0  0.12997582182E+02 -0.26564266239E+01 -0.23303700150E+02  0.26815223021E+02  0.00000000000E+00 0.  1.
</event>
<event>
 7    1  0.4047706E-008  0.4614232E+02  0.7816164E-02  0.1320468E+00
        -11   -1    0    0    0    0  0.00000000000E+00  0.00000000000E+00  0.45593999997E+02  0.45594000000E+02  0.51100000000E-03 0.  1.
         11   -1    0    0    0    0 -0.00000000000E+00 -0.00000000000E+00 -0.45593999997E+02  0.45594000000E+02  0.51100000000E-03 0. -1.
    9900012    2    1    2    0    0 -0.82071939435E+01 -0.13552596862E+02 -0.42167316063E+02  0.46142318097E+02  0.10000003063E+02 0.  0.
        -12    1    1    2    0    0  0.82071939435E+01  0.13552596862E+02  0.42167316063E+02  0.45045681903E+02  0.00000000000E+00 0.  1.
         11    1    3    3    0    0 -0.69617027214E+01 -0.88599572548E+01 -0.25295409648E+02  0.27691549196E+02  0.51100000000E-03 0. -1.
        -11    1    3    3    0    0  0.10754929195E+00 -0.25377992260E+01 -0.16756983127E+01  0.30430177222E+01  0.51100000000E-03 0.  1.
        -12    1    3    3    0    0 -0.13530405141E+01 -0.21548403815E+01 -0.15196208102E+02  0.15407751179E+02  0.00000000000E+00 0.  1.
</event>
<event>
 7    1  0.4047706E-008  0.4614232E+02  0.7816164E-02  0.1320468E+00
        -11   -1    0    0    0    0  0.00000000000E+00  0.00000000000E+00  0.45593999997E+02  0.45594000000E+02  0.51100000000E-03 0. -1.
         11   -1    0    0    0    0 -0.00000000000E+00 -0.00000000000E+00 -0.45593999997E+02  0.45594000000E+02  0.51100000000E-03 0.  1.
    9900012    2    1    2    0    0 -0.14765626027E+01  0.36215845824E+02  0.26745948652E+02  0.46142317686E+02  0.99999993128E+01 0.  0.
        -12    1    1    2    0    0  0.14765626027E+01 -0.36215845824E+02 -0.26745948652E+02  0.45045682314E+02  0.00000000000E+00 0.  1.
         11    1    3    3    0    0  0.78611567024E+00  0.22130511683E+02  0.12713637938E+02  0.25534567063E+02  0.51100000000E-03 0. -1.
        -11    1    3    3    0    0  0.98082832930E-01  0.11203061431E+02  0.91430804671E+01  0.14460778898E+02  0.51100000000E-03 0.  1.
        -12    1    3    3    0    0 -0.23607611059E+01  0.28822727103E+01  0.48892302471E+01  0.61469717248E+01  0.00000000000E+00 0.  1.
</event>
<event>
 7    1  0.4047706E-008  0.4614232E+02  0.7816164E-02  0.1320468E+00
        -11   -1    0    0    0    0  0.00000000000E+00  0.00000000000E+00  0.45593999997E+02  0.45594000000E+02  0.51100000000E-03 0. -1.
         11   -1    0    0    0    0 -0.00000000000E+00 -0.00000000000E+00 -0.45593999997E+02  0.45594000000E+02  0.51100000000E-03 0.  1.
    9900012    2    1    2    0    0 -0.17096423508E+01 -0.25934544251E+02  0.36791168189E+02  0.46142317419E+02  0.99999968820E+01 0.  0.
        -12    1    1    2    0    0  0.17096423508E+01  0.25934544251E+02 -0.36791168189E+02  0.45045682581E+02  0.00000000000E+00 0.  1.
         11    1    3    3    0    0  0.71276665648E+00 -0.11882226016E+01  0.12371182915E+01  0.18575174793E+01  0.51100000000E-03 0. -1.
        -11    1    3    3    0    0  0.30331819896E+01 -0.48397059103E+01  0.66264913460E+01  0.87483332184E+01  0.51100000000E-03 0.  1.
         12    1    3    3    0    0 -0.54555909969E+01 -0.19906615739E+02  0.28927558551E+02  0.35536466722E+02  0.00000000000E+00 0. -1.
</event>
<event>
 7    1  0.4047706E-008  0.4614232E+02  0.7816164E-02  0.1320468E+00
        -11   -1    0    0    0    0  0.00000000000E+00  0.00000000000E+00  0.45593999997E+02  0.45594000000E+02  0.51100000000E-03 0. -1.
         11   -1    0    0    0    0 -0.00000000000E+00 -0.00000000000E+00 -0.45593999997E+02  0.45594000000E+02  0.51100000000E-03 0.  1.
    9900012    2    1    2    0    0  0.83508637328E+01  0.32040117474E+02  0.30541895860E+02  0.46142318126E+02  0.10000003323E+02 0.  0.
        -12    1    1    2    0    0 -0.83508637328E+01 -0.32040117474E+02 -0.30541895860E+02  0.45045681874E+02  0.00000000000E+00 0.  1.
         11    1    3    3    0    0  0.54650672146E+01  0.10140945161E+02  0.73088639437E+01  0.13642771743E+02  0.51100000000E-03 0. -1.
        -11    1    3    3    0    0  0.12136059639E+01  0.46674950397E+01  0.23241905007E+01  0.53535232442E+01  0.51100000000E-03 0.  1.
         12    1    3    3    0    0  0.16721905542E+01  0.17231677273E+02  0.20908841415E+02  0.27146023138E+02  0.00000000000E+00 0. -1.
</event>
<event>
 7    1  0.4047706E-008  0.4614232E+02  0.7816164E-02  0.1320468E+00
        -11   -1    0    0    0    0  0.00000000000E+00  0.00000000000E+00  0.45593999997E+02  0.45594000000E+02  0.51100000000E-03 0.  1.
         11   -1    0    0    0    0 -0.00000000000E+00 -0.00000000000E+00 -0.45593999997E+02  0.45594000000E+02  0.51100000000E-03 0. -1.
    9900012    2    1    2    0    0 -0.17879241317E+02 -0.86320741256E+01 -0.40434313026E+02  0.46142316038E+02  0.99999842850E+01 0.  0.
        -12    1    1    2    0    0  0.17879241317E+02  0.86320741256E+01  0.40434313026E+02  0.45045683962E+02  0.00000000000E+00 0.  1.
         11    1    3    3    0    0 -0.10344743940E+02 -0.31911545784E+01 -0.17526259929E+02  0.20600169468E+02  0.51100000000E-03 0. -1.
        -11    1    3    3    0    0 -0.41015590314E+01 -0.57487980863E+01 -0.10423188986E+02  0.12590247608E+02  0.51100000000E-03 0.  1.
         12    1    3    3    0    0 -0.34329383455E+01  0.30787853908E+00 -0.12484864110E+02  0.12951898962E+02  0.00000000000E+00 0. -1.
</event>
<event>
 7    1  0.4047706E-008  0.4614232E+02  0.7816164E-02  0.1320468E+00
        -11   -1    0    0    0    0  0.00000000000E+00  0.00000000000E+00  0.45593999997E+02  0.45594000000E+02  0.51100000000E-03 0. -1.
         11   -1    0    0    0    0 -0.00000000000E+00 -0.00000000000E+00 -0.45593999997E+02  0.45594000000E+02  0.51100000000E-03 0.  1.
    9900012    2    1    2    0    0  0.22555035554E+02 -0.33525604467E+02  0.19910241540E+02  0.46142317611E+02  0.99999986304E+01 0.  0.
        -12    1    1    2    0    0 -0.22555035554E+02  0.33525604467E+02 -0.19910241540E+02  0.45045682389E+02  0.00000000000E+00 0.  1.
         11    1    3    3    0    0  0.10484430205E+02 -0.12285691895E+02  0.11442406177E+02  0.19793689941E+02  0.51100000000E-03 0. -1.
        -11    1    3    3    0    0  0.40785168502E+01 -0.12132939428E+02  0.50394084443E+01  0.13756386029E+02  0.51100000000E-03 0.  1.
         12    1    3    3    0    0  0.79920884985E+01 -0.91069731445E+01  0.34284269179E+01  0.12592241641E+02  0.00000000000E+00 0. -1.
</event>
<event>
 7    1  0.4047706E-008  0.4614232E+02  0.7816164E-02  0.1320468E+00
        -11   -1    0    0    0    0  0.00000000000E+00  0.00000000000E+00  0.45593999997E+02  0.45594000000E+02  0.51100000000E-03 0.  1.
         11   -1    0    0    0    0 -0.00000000000E+00 -0.00000000000E+00 -0.45593999997E+02  0.45594000000E+02  0.51100000000E-03 0. -1.
    9900012    2    1    2    0    0 -0.10719154480E+02 -0.17653008032E+02 -0.40032294217E+02  0.46142317125E+02  0.99999942038E+01 0.  0.
        -12    1    1    2    0    0  0.10719154480E+02  0.17653008032E+02  0.40032294217E+02  0.45045682875E+02  0.00000000000E+00 0.  1.
         11    1    3    3    0    0 -0.72228355317E+01 -0.62440004846E+01 -0.20711874318E+02  0.22806548034E+02  0.51100000000E-03 0.  1.
        -11    1    3    3    0    0 -0.30389485034E+01 -0.19702420694E+01 -0.48504629368E+01  0.60534331401E+01  0.51100000000E-03 0. -1.
         12    1    3    3    0    0 -0.45737044520E+00 -0.94387654779E+01 -0.14469956962E+02  0.17282335952E+02  0.00000000000E+00 0. -1.
</event>
<event>
 7    1  0.4047706E-008  0.4614231E+02  0.7816164E-02  0.1320468E+00
        -11   -1    0    0    0    0  0.00000000000E+00  0.00000000000E+00  0.45593999997E+02  0.45594000000E+02  0.51100000000E-03 0.  1.
         11   -1    0    0    0    0 -0.00000000000E+00 -0.00000000000E+00 -0.45593999997E+02  0.45594000000E+02  0.51100000000E-03 0. -1.
    9900012    2    1    2    0    0  0.42439272065E+02  0.11338731149E+02  0.99727211710E+01  0.46142314246E+02  0.99999679439E+01 0.  0.
        -12    1    1    2    0    0 -0.42439272065E+02 -0.11338731149E+02 -0.99727211710E+01  0.45045685754E+02  0.00000000000E+00 0.  1.
         11    1    3    3    0    0  0.16987165702E+02  0.64943952371E+01  0.56210246400E+01  0.19035148708E+02  0.51100000000E-03 0. -1.
        -11    1    3    3    0    0  0.15977346996E+02  0.16410970487E+01  0.56401404563E+01  0.17022925753E+02  0.51100000000E-03 0.  1.
         12    1    3    3    0    0  0.94747593669E+01  0.32032388635E+01 -0.12884439254E+01  0.10084239784E+02  0.00000000000E+00 0. -1.
</event>
<event>
 7    1  0.4047706E-008  0.4614232E+02  0.7816164E-02  0.1320468E+00
        -11   -1    0    0    0    0  0.00000000000E+00  0.00000000000E+00  0.45593999997E+02  0.45594000000E+02  0.51100000000E-03 0.  1.
         11   -1    0    0    0    0 -0.00000000000E+00 -0.00000000000E+00 -0.45593999997E+02  0.45594000000E+02  0.51100000000E-03 0. -1.
    9900012    2    1    2    0    0 -0.25567707352E+02 -0.60815277307E+01 -0.36584432723E+02  0.46142319225E+02  0.10000013351E+02 0.  0.
        -12    1    1    2    0    0  0.25567707352E+02  0.60815277307E+01  0.36584432723E+02  0.45045680775E+02  0.00000000000E+00 0.  1.
         11    1    3    3    0    0 -0.10772263177E+02 -0.47677702421E+01 -0.19496917315E+02  0.22779444068E+02  0.51100000000E-03 0. -1.
        -11    1    3    3    0    0 -0.92190224513E+00 -0.87564248696E+00  0.94132617971E-01  0.12749567543E+01  0.51100000000E-03 0.  1.
         12    1    3    3    0    0 -0.13873541930E+02 -0.43811500160E+00 -0.17181648027E+02  0.22087918403E+02  0.00000000000E+00 0. -1.
</event>
<event>
 7    1  0.4047706E-008  0.4614232E+02  0.7816164E-02  0.1320468E+00
        -11   -1    0    0    0    0  0.00000000000E+00  0.00000000000E+00  0.45593999997E+02  0.45594000000E+02  0.51100000000E-03 0. -1.
         11   -1    0    0    0    0 -0.00000000000E+00 -0.00000000000E+00 -0.45593999997E+02  0.45594000000E+02  0.51100000000E-03 0.  1.
    9900012    2    1    2    0    0  0.73480518614E+01 -0.17299883611E+02  0.40936946735E+02  0.46142318219E+02  0.10000004175E+02 0.  0.
        -12    1    1    2    0    0 -0.73480518614E+01  0.17299883611E+02 -0.40936946735E+02  0.45045681781E+02  0.00000000000E+00 0.  1.
         11    1    3    3    0    0  0.58488331232E+00 -0.22049756290E+01  0.17796141662E+01  0.28932737262E+01  0.51100000000E-03 0.  1.
        -11    1    3    3    0    0  0.71326102721E+01 -0.11111222178E+02  0.35312705553E+02  0.37700405321E+02  0.51100000000E-03 0. -1.
         12    1    3    3    0    0 -0.36944172302E+00 -0.39836858039E+01  0.38446270159E+01  0.55486391721E+01  0.00000000000E+00 0. -1.
</event>
<event>
 7    1  0.4047706E-008  0.4614232E+02  0.7816164E-02  0.1320468E+00
        -11   -1    0    0    0    0  0.00000000000E+00  0.00000000000E+00  0.45593999997E+02  0.45594000000E+02  0.51100000000E-03 0.  1.
         11   -1    0    0    0    0 -0.00000000000E+00 -0.00000000000E+00 -0.45593999997E+02  0.45594000000E+02  0.51100000000E-03 0. -1.
    9900012    2    1    2    0    0  0.15457585985E+02  0.79598383412E+01 -0.41554993242E+02  0.46142318140E+02  0.10000003453E+02 0.  0.
        -12    1    1    2    0    0 -0.15457585985E+02 -0.79598383412E+01  0.41554993242E+02  0.45045681860E+02  0.00000000000E+00 0.  1.
         11    1    3    3    0    0 -0.71137236606E+00 -0.55791696814E+00 -0.32380374419E+01  0.33618757744E+01  0.51100000000E-03 0.  1.
        -11    1    3    3    0    0  0.76732084711E+01  0.45020476072E+01 -0.24549011086E+02  0.26111309933E+02  0.51100000000E-03 0. -1.
         12    1    3    3    0    0  0.84957498795E+01  0.40157077021E+01 -0.13767944715E+02  0.16669132432E+02  0.00000000000E+00 0. -1.
</event>
<event>
 7    1  0.4047706E-008  0.4614231E+02  0.7816164E-02  0.1320468E+00
        -11   -1    0    0    0    0  0.00000000000E+00  0.00000000000E+00  0.45593999997E+02  0.45594000000E+02  0.51100000000E-03 0.  1.
         11   -1    0    0    0    0 -0.00000000000E+00 -0.00000000000E+00 -0.45593999997E+02  0.45594000000E+02  0.51100000000E-03 0. -1.
    9900012    2    1    2    0    0  0.31865412979E+02  0.29617848424E+02 -0.11682994571E+02  0.46142313727E+02  0.99999632170E+01 0.  0.
        -12    1    1    2    0    0 -0.31865412979E+02 -0.29617848424E+02  0.11682994571E+02  0.45045686273E+02  0.00000000000E+00 0.  1.
         11    1    3    3    0    0  0.71526919691E+01  0.26748782550E+01 -0.32549266421E+01  0.83012362808E+01  0.51100000000E-03 0. -1.
        -11    1    3    3    0    0  0.12222218994E+02  0.15615644604E+02 -0.25964752211E+01  0.19999316923E+02  0.51100000000E-03 0.  1.
         12    1    3    3    0    0  0.12490502016E+02  0.11327325565E+02 -0.58315927082E+01  0.17841760524E+02  0.00000000000E+00 0. -1.
</event>
<event>
 7    1  0.4047706E-008  0.4614232E+02  0.7816164E-02  0.1320468E+00
        -11   -1    0    0    0    0  0.00000000000E+00  0.00000000000E+00  0.45593999997E+02  0.45594000000E+02  0.51100000000E-03 0.  1.
         11   -1    0    0    0    0 -0.00000000000E+00 -0.00000000000E+00 -0.45593999997E+02  0.45594000000E+02  0.51100000000E-03 0. -1.
    9900012    2    1    2    0    0 -0.28985128156E+02 -0.21275112599E+02 -0.27135685589E+02  0.46142317602E+02  0.99999985463E+01 0.  0.
        -12    1    1    2    0    0  0.28985128156E+02  0.21275112599E+02  0.27135685589E+02  0.45045682398E+02  0.00000000000E+00 0.  1.
         11    1    3    3    0    0 -0.14961521783E+02 -0.11284226605E+02 -0.18773105795E+02  0.26525655611E+02  0.51100000000E-03 0. -1.
        -11    1    3    3    0    0 -0.24339474479E+01 -0.18178800411E+01  0.21040849347E+00  0.30451699490E+01  0.51100000000E-03 0.  1.
         12    1    3    3    0    0 -0.11589658925E+02 -0.81730059528E+01 -0.85729882875E+01  0.16571492041E+02  0.00000000000E+00 0. -1.
</event>
<event>
 7    1  0.4047706E-008  0.4614232E+02  0.7816164E-02  0.1320468E+00
        -11   -1    0    0    0    0  0.00000000000E+00  0.00000000000E+00  0.45593999997E+02  0.45594000000E+02  0.51100000000E-03 0.  1.
         11   -1    0    0    0    0 -0.00000000000E+00 -0.00000000000E+00 -0.45593999997E+02  0.45594000000E+02  0.51100000000E-03 0. -1.
    9900012    2    1    2    0    0  0.23344654805E+02 -0.24948222981E+02 -0.29355179746E+02  0.46142319676E+02  0.10000017466E+02 0.  0.
        -12    1    1    2    0    0 -0.23344654805E+02  0.24948222981E+02  0.29355179746E+02  0.45045680324E+02  0.00000000000E+00 0.  1.
         11    1    3    3    0    0  0.18692026578E+02 -0.19860185240E+02 -0.23877604394E+02  0.36248569727E+02  0.51100000000E-03 0. -1.
        -11    1    3    3    0    0  0.42464451707E+01 -0.31251911421E+01 -0.15686916333E+01  0.55009008320E+01  0.51100000000E-03 0.  1.
         12    1    3    3    0    0  0.40618305673E+00 -0.19628465983E+01 -0.39088837189E+01  0.43928491179E+01  0.00000000000E+00 0. -1.
</event>
<event>
 7    1  0.4047706E-008  0.4614232E+02  0.7816164E-02  0.1320468E+00
        -11   -1    0    0    0    0  0.00000000000E+00  0.00000000000E+00  0.45593999997E+02  0.45594000000E+02  0.51100000000E-03 0. -1.
         11   -1    0    0    0    0 -0.00000000000E+00 -0.00000000000E+00 -0.45593999997E+02  0.45594000000E+02  0.51100000000E-03 0.  1.
    9900012    2    1    2    0    0  0.31840828125E+02  0.17322551482E+02  0.26743304982E+02  0.46142317778E+02  0.10000000152E+02 0.  0.
        -12    1    1    2    0    0 -0.31840828125E+02 -0.17322551482E+02 -0.26743304982E+02  0.45045682222E+02  0.00000000000E+00 0.  1.
         11    1    3    3    0    0  0.35065748583E+01  0.60802244408E+00  0.20776826003E+01  0.41209857775E+01  0.51100000000E-03 0. -1.
        -11    1    3    3    0    0  0.26585269960E+02  0.16309086264E+02  0.25254679632E+02  0.40131804310E+02  0.51100000000E-03 0.  1.
        -12    1    3    3    0    0  0.17489833068E+01  0.40544277394E+00 -0.58905725001E+00  0.18895276908E+01  0.00000000000E+00 0.  1.
</event>
<event>
 7    1  0.4047706E-008  0.4614232E+02  0.7816164E-02  0.1320468E+00
        -11   -1    0    0    0    0  0.00000000000E+00  0.00000000000E+00  0.45593999997E+02  0.45594000000E+02  0.51100000000E-03 0. -1.
         11   -1    0    0    0    0 -0.00000000000E+00 -0.00000000000E+00 -0.45593999997E+02  0.45594000000E+02  0.51100000000E-03 0.  1.
    9900012    2    1    2    0    0  0.44170291000E+02  0.78322971400E+01  0.40931679729E+01  0.46142317526E+02  0.99999978558E+01 0.  0.
        -12    1    1    2    0    0 -0.44170291000E+02 -0.78322971400E+01 -0.40931679729E+01  0.45045682474E+02  0.00000000000E+00 0.  1.
         11    1    3    3    0    0  0.10799928374E+02  0.44670721122E+00  0.31763713604E+01  0.11266203242E+02  0.51100000000E-03 0. -1.
        -11    1    3    3    0    0  0.11747059206E+02  0.45157714600E+01  0.30789875922E+01  0.12956301815E+02  0.51100000000E-03 0.  1.
        -12    1    3    3    0    0  0.21623303420E+02  0.28698184688E+01 -0.21621909797E+01  0.21919812469E+02  0.00000000000E+00 0.  1.
</event>
<event>
 7    1  0.4047706E-008  0.4614231E+02  0.7816164E-02  0.1320468E+00
        -11   -1    0    0    0    0  0.00000000000E+00  0.00000000000E+00  0.45593999997E+02  0.45594000000E+02  0.51100000000E-03 0.  1.
         11   -1    0    0    0    0 -0.00000000000E+00 -0.00000000000E+00 -0.45593999997E+02  0.45594000000E+02  0.51100000000E-03 0. -1.
    9900012    2    1    2    0    0 -0.33956869675E+02 -0.19320389934E+02 -0.22422472786E+02  0.46142314845E+02  0.99999734049E+01 0.  0.
        -12    1    1    2    0    0  0.33956869675E+02  0.19320389934E+02  0.22422472786E+02  0.45045685155E+02  0.00000000000E+00 0.  1.
         11    1    3    3    0    0 -0.95954721312E+01 -0.74745884420E+01 -0.50733311587E+01  0.13178818122E+02  0.51100000000E-03 0.  1.
        -11    1    3    3    0    0 -0.69674303634E+01 -0.55290070534E+01 -0.25066730653E+01  0.92411262832E+01  0.51100000000E-03 0. -1.
         12    1    3    3    0    0 -0.17393967180E+02 -0.63167944385E+01 -0.14842468562E+02  0.23722370439E+02  0.00000000000E+00 0. -1.
</event>
<event>
 7    1  0.4047706E-008  0.4614232E+02  0.7816164E-02  0.1320468E+00
        -11   -1    0    0    0    0  0.00000000000E+00  0.00000000000E+00  0.45593999997E+02  0.45594000000E+02  0.51100000000E-03 0.  1.
         11   -1    0    0    0    0 -0.00000000000E+00 -0.00000000000E+00 -0.45593999997E+02  0.45594000000E+02  0.51100000000E-03 0. -1.
    9900012    2    1    2    0    0  0.14855822706E+02  0.86872838189E+01 -0.41628703803E+02  0.46142319311E+02  0.10000014131E+02 0.  0.
        -12    1    1    2    0    0 -0.14855822706E+02 -0.86872838189E+01  0.41628703803E+02  0.45045680689E+02  0.00000000000E+00 0.  1.
         11    1    3    3    0    0  0.13468173112E+02  0.75429679137E+01 -0.28810956673E+02  0.32685765657E+02  0.51100000000E-03 0. -1.
        -11    1    3    3    0    0 -0.92662348236E+00  0.61833008762E+00 -0.13717860097E+01  0.17671333545E+01  0.51100000000E-03 0.  1.
         12    1    3    3    0    0  0.23142730755E+01  0.52598581761E+00 -0.11445961121E+02  0.11689420299E+02  0.00000000000E+00 0. -1.
</event>
<event>
 7    1  0.4047706E-008  0.4614232E+02  0.7816164E-02  0.1320468E+00
        -11   -1    0    0    0    0  0.00000000000E+00  0.00000000000E+00  0.45593999997E+02  0.45594000000E+02  0.51100000000E-03 0.  1.
         11   -1    0    0    0    0 -0.00000000000E+00 -0.00000000000E+00 -0.45593999997E+02  0.45594000000E+02  0.51100000000E-03 0. -1.
    9900012    2    1    2    0    0  0.18098566242E+02  0.10685271551E+02 -0.39841943057E+02  0.46142317025E+02  0.99999932854E+01 0.  0.
        -12    1    1    2    0    0 -0.18098566242E+02 -0.10685271551E+02  0.39841943057E+02  0.45045682975E+02  0.00000000000E+00 0.  1.
         11    1    3    3    0    0  0.63970641461E+01  0.47943355837E+00 -0.11003577680E+02  0.12736993689E+02  0.51100000000E-03 0.  1.
        -11    1    3    3    0    0  0.49652806126E+01  0.85743669100E+01 -0.16143965609E+02  0.18942053883E+02  0.51100000000E-03 0. -1.
         12    1    3    3    0    0  0.67362214836E+01  0.16314710823E+01 -0.12694399768E+02  0.14463269452E+02  0.00000000000E+00 0. -1.
</event>
<event>
 7    1  0.4047706E-008  0.4614232E+02  0.7816164E-02  0.1320468E+00
        -11   -1    0    0    0    0  0.00000000000E+00  0.00000000000E+00  0.45593999997E+02  0.45594000000E+02  0.51100000000E-03 0. -1.
         11   -1    0    0    0    0 -0.00000000000E+00 -0.00000000000E+00 -0.45593999997E+02  0.45594000000E+02  0.51100000000E-03 0.  1.
    9900012    2    1    2    0    0  0.50973661105E+01 -0.37390918843E+02  0.24597755103E+02  0.46142317528E+02  0.99999978774E+01 0.  0.
        -12    1    1    2    0    0 -0.50973661105E+01  0.37390918843E+02 -0.24597755103E+02  0.45045682472E+02  0.00000000000E+00 0.  1.
         11    1    3    3    0    0  0.18970962502E+00 -0.29063743765E+01  0.49551493331E+01  0.57477392888E+01  0.51100000000E-03 0.  1.
        -11    1    3    3    0    0  0.83257048126E+00 -0.15537818721E+02  0.59205061969E+01  0.16648404671E+02  0.51100000000E-03 0. -1.
        -12    1    3    3    0    0  0.40750860042E+01 -0.18946725746E+02  0.13722099573E+02  0.23746173568E+02  0.00000000000E+00 0.  1.
</event>
<event>
 7    1  0.4047706E-008  0.4614232E+02  0.7816164E-02  0.1320468E+00
        -11   -1    0    0    0    0  0.00000000000E+00  0.00000000000E+00  0.45593999997E+02  0.45594000000E+02  0.51100000000E-03 0. -1.
         11   -1    0    0    0    0 -0.00000000000E+00 -0.00000000000E+00 -0.45593999997E+02  0.45594000000E+02  0.51100000000E-03 0.  1.
    9900012    2    1    2    0    0 -0.40155992291E+02 -0.20351741303E+02 -0.15544643258E+01  0.46142318184E+02  0.10000003859E+02 0.  0.
        -12    1    1    2    0    0  0.40155992291E+02  0.20351741303E+02  0.15544643258E+01  0.45045681816E+02  0.00000000000E+00 0.  1.
         11    1    3    3    0    0 -0.22910559264E+02 -0.11111189494E+02  0.45381063567E+00  0.25466805888E+02  0.51100000000E-03 0. -1.
        -11    1    3    3    0    0 -0.11532561180E+02 -0.43106996265E+01 -0.38655194621E+01  0.12904431007E+02  0.51100000000E-03 0.  1.
        -12    1    3    3    0    0 -0.57128718464E+01 -0.49298521828E+01  0.18572445006E+01  0.77710812898E+01  0.00000000000E+00 0.  1.
</event>
<event>
 7    1  0.4047706E-008  0.4614233E+02  0.7816164E-02  0.1320468E+00
        -11   -1    0    0    0    0  0.00000000000E+00  0.00000000000E+00  0.45593999997E+02  0.45594000000E+02  0.51100000000E-03 0. -1.
         11   -1    0    0    0    0 -0.00000000000E+00 -0.00000000000E+00 -0.45593999997E+02  0.45594000000E+02  0.51100000000E-03 0.  1.
    9900012    2    1    2    0    0 -0.23129294653E+02 -0.36357297885E+02  0.13126130828E+02  0.46142326610E+02  0.10000080689E+02 0.  0.
        -12    1    1    2    0    0  0.23129294653E+02  0.36357297885E+02 -0.13126130828E+02  0.45045673390E+02  0.00000000000E+00 0.  1.
         11    1    3    3    0    0 -0.42865336914E+01 -0.39674237826E+01  0.13780119790E+01  0.60011448769E+01  0.51100000000E-03 0. -1.
        -11    1    3    3    0    0 -0.13677434944E+02 -0.15274451661E+02  0.65030468732E+01  0.21509781940E+02  0.51100000000E-03 0.  1.
         12    1    3    3    0    0 -0.51653260176E+01 -0.17115422441E+02  0.52450719756E+01  0.18631399793E+02  0.00000000000E+00 0. -1.
</event>
<event>
 7    1  0.4047706E-008  0.4614232E+02  0.7816164E-02  0.1320468E+00
        -11   -1    0    0    0    0  0.00000000000E+00  0.00000000000E+00  0.45593999997E+02  0.45594000000E+02  0.51100000000E-03 0.  1.
         11   -1    0    0    0    0 -0.00000000000E+00 -0.00000000000E+00 -0.45593999997E+02  0.45594000000E+02  0.51100000000E-03 0. -1.
    9900012    2    1    2    0    0  0.18611442325E+02 -0.14535459225E+02 -0.38359460195E+02  0.46142317113E+02  0.99999940941E+01 0.  0.
        -12    1    1    2    0    0 -0.18611442325E+02  0.14535459225E+02  0.38359460195E+02  0.45045682887E+02  0.00000000000E+00 0.  1.
         11    1    3    3    0    0  0.24449951449E+01 -0.48020753215E+01 -0.92411245668E+01  0.10697490929E+02  0.51100000000E-03 0.  1.
        -11    1    3    3    0    0  0.55905935753E+01 -0.72435616870E+01 -0.10886840138E+02  0.14221364593E+02  0.51100000000E-03 0. -1.
         12    1    3    3    0    0  0.10575853604E+02 -0.24898222169E+01 -0.18231495490E+02  0.21223461591E+02  0.00000000000E+00 0. -1.
</event>
<event>
 7    1  0.4047706E-008  0.4614232E+02  0.7816164E-02  0.1320468E+00
        -11   -1    0    0    0    0  0.00000000000E+00  0.00000000000E+00  0.45593999997E+02  0.45594000000E+02  0.51100000000E-03 0. -1.
         11   -1    0    0    0    0 -0.00000000000E+00 -0.00000000000E+00 -0.45593999997E+02  0.45594000000E+02  0.51100000000E-03 0.  1.
    9900012    2    1    2    0    0  0.31682802487E+02 -0.31194501143E+02  0.72261014979E+01  0.46142318544E+02  0.10000007140E+02 0.  0.
        -12    1    1    2    0    0 -0.31682802487E+02  0.31194501143E+02 -0.72261014979E+01  0.45045681456E+02  0.00000000000E+00 0.  1.
         11    1    3    3    0    0  0.19343798397E+02 -0.14799291755E+02  0.39120501685E+01  0.24667908497E+02  0.51100000000E-03 0. -1.
        -11    1    3    3    0    0  0.11388336885E+01 -0.17675031857E+01 -0.13132019765E+01  0.24790137906E+01  0.51100000000E-03 0.  1.
        -12    1    3    3    0    0  0.11200170402E+02 -0.14627706203E+02  0.46272533059E+01  0.18995396256E+02  0.00000000000E+00 0.  1.
</event>
<event>
 7    1  0.4047706E-008  0.4614232E+02  0.7816164E-02  0.1320468E+00
        -11   -1    0    0    0    0  0.00000000000E+00  0.00000000000E+00  0.45593999997E+02  0.45594000000E+02  0.51100000000E-03 0. -1.
         11   -1    0    0    0    0 -0.00000000000E+00 -0.00000000000E+00 -0.45593999997E+02  0.45594000000E+02  0.51100000000E-03 0.  1.
    9900012    2    1    2    0    0  0.20785722319E+02  0.37749270246E+02 -0.13117158751E+02  0.46142317520E+02  0.99999978009E+01 0.  0.
        -12    1    1    2    0    0 -0.20785722319E+02 -0.37749270246E+02  0.13117158751E+02  0.45045682480E+02  0.00000000000E+00 0.  1.
         11    1    3    3    0    0  0.36962984104E+01  0.10127121909E+02 -0.73365193548E+00  0.10805529396E+02  0.51100000000E-03 0. -1.
        -11    1    3    3    0    0  0.69560315676E+01  0.16808406531E+02 -0.55596585237E+01  0.19021532757E+02  0.51100000000E-03 0.  1.
        -12    1    3    3    0    0  0.10133392341E+02  0.10813741806E+02 -0.68238482922E+01  0.16315255367E+02  0.00000000000E+00 0.  1.
</event>
<event>
 7    1  0.4047706E-008  0.4614232E+02  0.7816164E-02  0.1320468E+00
        -11   -1    0    0    0    0  0.00000000000E+00  0.00000000000E+00  0.45593999997E+02  0.45594000000E+02  0.51100000000E-03 0.  1.
         11   -1    0    0    0    0 -0.00000000000E+00 -0.00000000000E+00 -0.45593999997E+02  0.45594000000E+02  0.51100000000E-03 0. -1.
    9900012    2    1    2    0    0 -0.16702367129E+02  0.14998156748E+02 -0.39053805730E+02  0.46142317460E+02  0.99999972516E+01 0.  0.
        -12    1    1    2    0    0  0.16702367129E+02 -0.14998156748E+02  0.39053805730E+02  0.45045682540E+02  0.00000000000E+00 0.  1.
         11    1    3    3    0    0 -0.32750902787E+01  0.46716256847E+01 -0.99233130818E+01  0.11446503643E+02  0.51100000000E-03 0. -1.
        -11    1    3    3    0    0 -0.26958799941E+01 -0.12950583509E+01 -0.38668968696E+01  0.48885413710E+01  0.51100000000E-03 0.  1.
        -12    1    3    3    0    0 -0.10731396856E+02  0.11621589414E+02 -0.25263595778E+02  0.29807272446E+02  0.00000000000E+00 0.  1.
</event>
<event>
 7    1  0.4047706E-008  0.4614232E+02  0.7816164E-02  0.1320468E+00
        -11   -1    0    0    0    0  0.00000000000E+00  0.00000000000E+00  0.45593999997E+02  0.45594000000E+02  0.51100000000E-03 0.  1.
         11   -1    0    0    0    0 -0.00000000000E+00 -0.00000000000E+00 -0.45593999997E+02  0.45594000000E+02  0.51100000000E-03 0. -1.
    9900012    2    1    2    0    0 -0.14175855736E+02  0.17403184825E+01 -0.42721539233E+02  0.46142317535E+02  0.99999979422E+01 0.  0.
        -12    1    1    2    0    0  0.14175855736E+02 -0.17403184825E+01  0.42721539233E+02  0.45045682465E+02  0.00000000000E+00 0.  1.
         11    1    3    3    0    0 -0.68849664041E+01 -0.13221342337E+01 -0.24314113462E+02  0.25304681682E+02  0.51100000000E-03 0. -1.
        -11    1    3    3    0    0 -0.76274383840E+01  0.23002168784E+01 -0.12175881952E+02  0.14550632823E+02  0.51100000000E-03 0.  1.
         12    1    3    3    0    0  0.33654905172E+00  0.76223583785E+00 -0.62315438191E+01  0.62870030305E+01  0.00000000000E+00 0. -1.
</event>
<event>
 7    1  0.4047706E-008  0.4614232E+02  0.7816164E-02  0.1320468E+00
        -11   -1    0    0    0    0  0.00000000000E+00  0.00000000000E+00  0.45593999997E+02  0.45594000000E+02  0.51100000000E-03 0.  1.
         11   -1    0    0    0    0 -0.00000000000E+00 -0.00000000000E+00 -0.45593999997E+02  0.45594000000E+02  0.51100000000E-03 0. -1.
    9900012    2    1    2    0    0  0.36910092162E+02 -0.17899464275E+02 -0.18610952347E+02  0.46142320163E+02  0.10000021903E+02 0.  0.
        -12    1    1    2    0    0 -0.36910092162E+02  0.17899464275E+02  0.18610952347E+02  0.45045679837E+02  0.00000000000E+00 0.  1.
         11    1    3    3    0    0  0.19719481008E+02 -0.10958873425E+02 -0.12444386539E+02  0.25764657859E+02  0.51100000000E-03 0. -1.
        -11    1    3    3    0    0  0.85343970765E+01 -0.61679136408E+01 -0.19143375144E+01  0.10702512813E+02  0.51100000000E-03 0.  1.
        -12    1    3    3    0    0  0.86562140773E+01 -0.77267720922E+00 -0.42522282929E+01  0.96751494912E+01  0.00000000000E+00 0.  1.
</event>
<event>
 7    1  0.4047706E-008  0.4614232E+02  0.7816164E-02  0.1320468E+00
        -11   -1    0    0    0    0  0.00000000000E+00  0.00000000000E+00  0.45593999997E+02  0.45594000000E+02  0.51100000000E-03 0.  1.
         11   -1    0    0    0    0 -0.00000000000E+00 -0.00000000000E+00 -0.45593999997E+02  0.45594000000E+02  0.51100000000E-03 0. -1.
    9900012    2    1    2    0    0 -0.16688911136E+02 -0.37710542320E+02 -0.18124800567E+02  0.46142321488E+02  0.10000033984E+02 0.  0.
        -12    1    1    2    0    0  0.16688911136E+02  0.37710542320E+02  0.18124800567E+02  0.45045678512E+02  0.00000000000E+00 0.  1.
         11    1    3    3    0    0 -0.38825001057E+00 -0.67121856441E+01 -0.33838156804E+01  0.75269105888E+01  0.51100000000E-03 0. -1.
        -11    1    3    3    0    0 -0.66637561454E+01 -0.13072360346E+02 -0.25541819501E+01  0.14893491756E+02  0.51100000000E-03 0.  1.
         12    1    3    3    0    0 -0.96369049802E+01 -0.17925996330E+02 -0.12186802937E+02  0.23721919143E+02  0.00000000000E+00 0. -1.
</event>
<event>
 7    1  0.4047706E-008  0.4614232E+02  0.7816164E-02  0.1320468E+00
        -11   -1    0    0    0    0  0.00000000000E+00  0.00000000000E+00  0.45593999997E+02  0.45594000000E+02  0.51100000000E-03 0.  1.
         11   -1    0    0    0    0 -0.00000000000E+00 -0.00000000000E+00 -0.45593999997E+02  0.45594000000E+02  0.51100000000E-03 0. -1.
    9900012    2    1    2    0    0  0.17388252981E+02 -0.28068596179E+02  0.30641738225E+02  0.46142317025E+02  0.99999932893E+01 0.  0.
        -12    1    1    2    0    0 -0.17388252981E+02  0.28068596179E+02 -0.30641738225E+02  0.45045682975E+02  0.00000000000E+00 0.  1.
         11    1    3    3    0    0  0.84501650422E+01 -0.90242320688E+01  0.73637275788E+01  0.14389806732E+02  0.51100000000E-03 0. -1.
        -11    1    3    3    0    0  0.58182749341E+00  0.19951567333E+00  0.63340913984E+00  0.88291400235E+00  0.51100000000E-03 0.  1.
        -12    1    3    3    0    0  0.83562604457E+01 -0.19243879784E+02  0.22644601506E+02  0.30869596291E+02  0.00000000000E+00 0.  1.
</event>
<event>
 7    1  0.4047706E-008  0.4614232E+02  0.7816164E-02  0.1320468E+00
        -11   -1    0    0    0    0  0.00000000000E+00  0.00000000000E+00  0.45593999997E+02  0.45594000000E+02  0.51100000000E-03 0.  1.
         11   -1    0    0    0    0 -0.00000000000E+00 -0.00000000000E+00 -0.45593999997E+02  0.45594000000E+02  0.51100000000E-03 0. -1.
    9900012    2    1    2    0    0 -0.36383939444E+02  0.59887352210E+01 -0.25873877248E+02  0.46142317378E+02  0.99999965092E+01 0.  0.
        -12    1    1    2    0    0  0.36383939444E+02 -0.59887352210E+01  0.25873877248E+02  0.45045682622E+02  0.00000000000E+00 0.  1.
         11    1    3    3    0    0 -0.34613260700E+01  0.18944093891E+01 -0.68065379684E+00  0.40041047625E+01  0.51100000000E-03 0. -1.
        -11    1    3    3    0    0 -0.18273684386E+02  0.19843608546E+01 -0.99887902788E+01  0.20919874774E+02  0.51100000000E-03 0.  1.
         12    1    3    3    0    0 -0.14648928988E+02  0.21099649773E+01 -0.15204433172E+02  0.21218337842E+02  0.00000000000E+00 0. -1.
</event>
<event>
 7    1  0.4047706E-008  0.4614232E+02  0.7816164E-02  0.1320468E+00
        -11   -1    0    0    0    0  0.00000000000E+00  0.00000000000E+00  0.45593999997E+02  0.45594000000E+02  0.51100000000E-03 0.  1.
         11   -1    0    0    0    0 -0.00000000000E+00 -0.00000000000E+00 -0.45593999997E+02  0.45594000000E+02  0.51100000000E-03 0. -1.
    9900012    2    1    2    0    0 -0.44188839360E+02  0.87300146654E+01  0.49679218255E+00  0.46142317827E+02  0.10000000597E+02 0.  0.
        -12    1    1    2    0    0  0.44188839360E+02 -0.87300146654E+01 -0.49679218255E+00  0.45045682173E+02  0.00000000000E+00 0.  1.
         11    1    3    3    0    0 -0.23060441558E+02  0.64061165242E+01 -0.32249999320E+01  0.24150008666E+02  0.51100000000E-03 0. -1.
        -11    1    3    3    0    0 -0.82635145410E+00  0.14010801620E+00  0.11335612269E+01  0.14097688811E+01  0.51100000000E-03 0.  1.
         12    1    3    3    0    0 -0.20302046348E+02  0.21837901251E+01  0.25882308876E+01  0.20582540279E+02  0.00000000000E+00 0. -1.
</event>
<event>
 7    1  0.4047706E-008  0.4614232E+02  0.7816164E-02  0.1320468E+00
        -11   -1    0    0    0    0  0.00000000000E+00  0.00000000000E+00  0.45593999997E+02  0.45594000000E+02  0.51100000000E-03 0.  1.
         11   -1    0    0    0    0 -0.00000000000E+00 -0.00000000000E+00 -0.45593999997E+02  0.45594000000E+02  0.51100000000E-03 0. -1.
    9900012    2    1    2    0    0 -0.23232076588E+02 -0.36422545640E+02  0.12758617480E+02  0.46142317260E+02  0.99999954318E+01 0.  0.
        -12    1    1    2    0    0  0.23232076588E+02  0.36422545640E+02 -0.12758617480E+02  0.45045682740E+02  0.00000000000E+00 0.  1.
         11    1    3    3    0    0 -0.14592865948E+02 -0.18893878528E+02  0.42023228814E+01  0.24240253717E+02  0.51100000000E-03 0. -1.
        -11    1    3    3    0    0 -0.21469323947E+01 -0.23034747986E+01  0.32388980576E+01  0.45172752566E+01  0.51100000000E-03 0.  1.
         12    1    3    3    0    0 -0.64922782459E+01 -0.15225192313E+02  0.53173965413E+01  0.17384788286E+02  0.00000000000E+00 0. -1.
</event>
<event>
 7    1  0.4047706E-008  0.4614232E+02  0.7816164E-02  0.1320468E+00
        -11   -1    0    0    0    0  0.00000000000E+00  0.00000000000E+00  0.45593999997E+02  0.45594000000E+02  0.51100000000E-03 0. -1.
         11   -1    0    0    0    0 -0.00000000000E+00 -0.00000000000E+00 -0.45593999997E+02  0.45594000000E+02  0.51100000000E-03 0.  1.
    9900012    2    1    2    0    0  0.35059201148E+02  0.56720940390E+01  0.27709083867E+02  0.46142316914E+02  0.99999922794E+01 0.  0.
        -12    1    1    2    0    0 -0.35059201148E+02 -0.56720940390E+01 -0.27709083867E+02  0.45045683086E+02  0.00000000000E+00 0.  1.
         11    1    3    3    0    0  0.25757489408E+02  0.34871957730E+01  0.24179899102E+02  0.35500370643E+02  0.51100000000E-03 0. -1.
        -11    1    3    3    0    0  0.92406722019E+01  0.16363612323E+01  0.29389774163E+01  0.98338847533E+01  0.51100000000E-03 0.  1.
         12    1    3    3    0    0  0.61039537795E-01  0.54853703369E+00  0.59020734843E+00  0.80806151786E+00  0.00000000000E+00 0. -1.
</event>
<event>
 7    1  0.4047706E-008  0.4614232E+02  0.7816164E-02  0.1320468E+00
        -11   -1    0    0    0    0  0.00000000000E+00  0.00000000000E+00  0.45593999997E+02  0.45594000000E+02  0.51100000000E-03 0. -1.
         11   -1    0    0    0    0 -0.00000000000E+00 -0.00000000000E+00 -0.45593999997E+02  0.45594000000E+02  0.51100000000E-03 0.  1.
    9900012    2    1    2    0    0 -0.26433782007E+02  0.30868512175E+02  0.19429445126E+02  0.46142320817E+02  0.10000027869E+02 0.  0.
        -12    1    1    2    0    0  0.26433782007E+02 -0.30868512175E+02 -0.19429445126E+02  0.45045679183E+02  0.00000000000E+00 0.  1.
         11    1    3    3    0    0 -0.10322955418E+01  0.19605960195E+01 -0.32627522633E-01  0.22159954092E+01  0.51100000000E-03 0. -1.
        -11    1    3    3    0    0 -0.20989171786E+01 -0.11747499343E+00  0.53852489658E+00  0.21700836441E+01  0.51100000000E-03 0.  1.
         12    1    3    3    0    0 -0.23302569287E+02  0.29025391149E+02  0.18923547752E+02  0.41756241764E+02  0.00000000000E+00 0. -1.
</event>
<event>
 7    1  0.4047706E-008  0.4614232E+02  0.7816164E-02  0.1320468E+00
        -11   -1    0    0    0    0  0.00000000000E+00  0.00000000000E+00  0.45593999997E+02  0.45594000000E+02  0.51100000000E-03 0.  1.
         11   -1    0    0    0    0 -0.00000000000E+00 -0.00000000000E+00 -0.45593999997E+02  0.45594000000E+02  0.51100000000E-03 0. -1.
    9900012    2    1    2    0    0 -0.97383209033E+01 -0.31716350449E+02 -0.30468865763E+02  0.46142316958E+02  0.99999926784E+01 0.  0.
        -12    1    1    2    0    0  0.97383209033E+01  0.31716350449E+02  0.30468865763E+02  0.45045683042E+02  0.00000000000E+00 0.  1.
         11    1    3    3    0    0 -0.65531763905E+01 -0.21186823414E+02 -0.19919082980E+02  0.29809318580E+02  0.51100000000E-03 0. -1.
        -11    1    3    3    0    0 -0.36995182594E+01 -0.10971562087E+02 -0.10535948995E+02  0.15654642489E+02  0.51100000000E-03 0.  1.
        -12    1    3    3    0    0  0.51437374661E+00  0.44203505166E+00 -0.13833787400E-01  0.67835588873E+00  0.00000000000E+00 0.  1.
</event>
<event>
 7    1  0.4047706E-008  0.4614232E+02  0.7816164E-02  0.1320468E+00
        -11   -1    0    0    0    0  0.00000000000E+00  0.00000000000E+00  0.45593999997E+02  0.45594000000E+02  0.51100000000E-03 0. -1.
         11   -1    0    0    0    0 -0.00000000000E+00 -0.00000000000E+00 -0.45593999997E+02  0.45594000000E+02  0.51100000000E-03 0.  1.
    9900012    2    1    2    0    0 -0.28065873346E+02 -0.32531217417E+02  0.13532928129E+02  0.46142317665E+02  0.99999991226E+01 0.  0.
        -12    1    1    2    0    0  0.28065873346E+02  0.32531217417E+02 -0.13532928129E+02  0.45045682335E+02  0.00000000000E+00 0.  1.
         11    1    3    3    0    0 -0.81034228672E+01 -0.60028684178E+01  0.21122004550E+01  0.10303459731E+02  0.51100000000E-03 0. -1.
        -11    1    3    3    0    0 -0.19940770502E+01 -0.34988515575E+01 -0.91685378090E+00  0.41302453463E+01  0.51100000000E-03 0.  1.
         12    1    3    3    0    0 -0.17968373429E+02 -0.23029497442E+02  0.12337581455E+02  0.31708612588E+02  0.00000000000E+00 0. -1.
</event>
<event>
 7    1  0.4047706E-008  0.4614232E+02  0.7816164E-02  0.1320468E+00
        -11   -1    0    0    0    0  0.00000000000E+00  0.00000000000E+00  0.45593999997E+02  0.45594000000E+02  0.51100000000E-03 0.  1.
         11   -1    0    0    0    0 -0.00000000000E+00 -0.00000000000E+00 -0.45593999997E+02  0.45594000000E+02  0.51100000000E-03 0. -1.
    9900012    2    1    2    0    0 -0.20392180923E+02 -0.37130460567E+02 -0.15316702479E+02  0.46142317415E+02  0.99999968426E+01 0.  0.
        -12    1    1    2    0    0  0.20392180923E+02  0.37130460567E+02  0.15316702479E+02  0.45045682585E+02  0.00000000000E+00 0.  1.
         11    1    3    3    0    0 -0.83305418292E+01 -0.10759548134E+02 -0.50140441575E+01  0.14501946155E+02  0.51100000000E-03 0. -1.
        -11    1    3    3    0    0 -0.98937789774E+01 -0.13122595993E+02 -0.46964855683E+01  0.17092289636E+02  0.51100000000E-03 0.  1.
         12    1    3    3    0    0 -0.21678601162E+01 -0.13248316440E+02 -0.56061727532E+01  0.14548081623E+02  0.00000000000E+00 0. -1.
</event>
<event>
 7    1  0.4047706E-008  0.4614231E+02  0.7816164E-02  0.1320468E+00
        -11   -1    0    0    0    0  0.00000000000E+00  0.00000000000E+00  0.45593999997E+02  0.45594000000E+02  0.51100000000E-03 0. -1.
         11   -1    0    0    0    0 -0.00000000000E+00 -0.00000000000E+00 -0.45593999997E+02  0.45594000000E+02  0.51100000000E-03 0.  1.
    9900012    2    1    2    0    0 -0.42788056835E+02  0.14043138909E+02 -0.10425920953E+01  0.46142305906E+02  0.99998918980E+01 0.  0.
        -12    1    1    2    0    0  0.42788056835E+02 -0.14043138909E+02  0.10425920953E+01  0.45045694094E+02  0.00000000000E+00 0.  1.
         11    1    3    3    0    0 -0.30244954147E+02  0.92449321464E+01  0.23107855353E+01  0.31710656754E+02  0.51100000000E-03 0. -1.
        -11    1    3    3    0    0 -0.14480257818E+01  0.10548296994E+01  0.85987781372E+00  0.19871674502E+01  0.51100000000E-03 0.  1.
         12    1    3    3    0    0 -0.11095076906E+02  0.37433770634E+01 -0.42132554444E+01  0.12444481702E+02  0.00000000000E+00 0. -1.
</event>
<event>
 7    1  0.4047706E-008  0.4614232E+02  0.7816164E-02  0.1320468E+00
        -11   -1    0    0    0    0  0.00000000000E+00  0.00000000000E+00  0.45593999997E+02  0.45594000000E+02  0.51100000000E-03 0.  1.
         11   -1    0    0    0    0 -0.00000000000E+00 -0.00000000000E+00 -0.45593999997E+02  0.45594000000E+02  0.51100000000E-03 0. -1.
    9900012    2    1    2    0    0 -0.16885489547E+02 -0.22484154448E+02 -0.35191708057E+02  0.46142320136E+02  0.10000021653E+02 0.  0.
        -12    1    1    2    0    0  0.16885489547E+02  0.22484154448E+02  0.35191708057E+02  0.45045679864E+02  0.00000000000E+00 0.  1.
         11    1    3    3    0    0 -0.40855201129E+01 -0.80091572237E+01 -0.17053783757E+02  0.19278734780E+02  0.51100000000E-03 0.  1.
        -11    1    3    3    0    0 -0.93502082179E+01 -0.76892544761E+01 -0.98177468489E+01  0.15586506394E+02  0.51100000000E-03 0. -1.
         12    1    3    3    0    0 -0.34497612166E+01 -0.67857427483E+01 -0.83201774508E+01  0.11277078962E+02  0.00000000000E+00 0. -1.
</event>
<event>
 7    1  0.4047706E-008  0.4614232E+02  0.7816164E-02  0.1320468E+00
        -11   -1    0    0    0    0  0.00000000000E+00  0.00000000000E+00  0.45593999997E+02  0.45594000000E+02  0.51100000000E-03 0. -1.
         11   -1    0    0    0    0 -0.00000000000E+00 -0.00000000000E+00 -0.45593999997E+02  0.45594000000E+02  0.51100000000E-03 0.  1.
    9900012    2    1    2    0    0  0.26790509289E+02  0.35741445905E+02  0.58250270410E+01  0.46142320037E+02  0.10000020750E+02 0.  0.
        -12    1    1    2    0    0 -0.26790509289E+02 -0.35741445905E+02 -0.58250270410E+01  0.45045679963E+02  0.00000000000E+00 0.  1.
         11    1    3    3    0    0  0.20025973602E+02  0.24314147442E+02  0.24364094171E+01  0.31593566998E+02  0.51100000000E-03 0. -1.
        -11    1    3    3    0    0  0.37387795160E+01  0.31055258833E+01  0.29448522928E+01  0.56828618291E+01  0.51100000000E-03 0.  1.
        -12    1    3    3    0    0  0.30257561705E+01  0.83217725797E+01  0.44376533110E+00  0.88658912096E+01  0.00000000000E+00 0.  1.
</event>
<event>
 7    1  0.4047706E-008  0.4614232E+02  0.7816164E-02  0.1320468E+00
        -11   -1    0    0    0    0  0.00000000000E+00  0.00000000000E+00  0.45593999997E+02  0.45594000000E+02  0.51100000000E-03 0.  1.
         11   -1    0    0    0    0 -0.00000000000E+00 -0.00000000000E+00 -0.45593999997E+02  0.45594000000E+02  0.51100000000E-03 0. -1.
    9900012    2    1    2    0    0 -0.24207481975E+02 -0.35095358702E+02 -0.14540535304E+02  0.46142317045E+02  0.99999934687E+01 0.  0.
        -12    1    1    2    0    0  0.24207481975E+02  0.35095358702E+02  0.14540535304E+02  0.45045682955E+02  0.00000000000E+00 0.  1.
         11    1    3    3    0    0 -0.21044982112E+02 -0.27956768962E+02 -0.12223532613E+02  0.37065981070E+02  0.51100000000E-03 0. -1.
        -11    1    3    3    0    0 -0.36849322584E+01 -0.35471787468E+01 -0.97469256506E+00  0.52068444060E+01  0.51100000000E-03 0.  1.
         12    1    3    3    0    0  0.52243239534E+00 -0.35914109925E+01 -0.13423101259E+01  0.38694915685E+01  0.00000000000E+00 0. -1.
</event>
<event>
 7    1  0.4047706E-008  0.4614232E+02  0.7816164E-02  0.1320468E+00
        -11   -1    0    0    0    0  0.00000000000E+00  0.00000000000E+00  0.45593999997E+02  0.45594000000E+02  0.51100000000E-03 0. -1.
         11   -1    0    0    0    0 -0.00000000000E+00 -0.00000000000E+00 -0.45593999997E+02  0.45594000000E+02  0.51100000000E-03 0.  1.
    9900012    2    1    2    0    0  0.89579684643E+01 -0.43729267072E+02  0.60514057626E+01  0.46142317528E+02  0.99999978748E+01 0.  0.
        -12    1    1    2    0    0 -0.89579684643E+01  0.43729267072E+02 -0.60514057626E+01  0.45045682472E+02  0.00000000000E+00 0.  1.
         11    1    3    3    0    0  0.42980791945E+01 -0.19595814435E+02  0.45522530367E+01  0.20571641551E+02  0.51100000000E-03 0. -1.
        -11    1    3    3    0    0  0.38288238325E+01 -0.87834868738E+01  0.32057714214E+01  0.10103786630E+02  0.51100000000E-03 0.  1.
        -12    1    3    3    0    0  0.83106543727E+00 -0.15349965763E+02 -0.17066186956E+01  0.15466889347E+02  0.00000000000E+00 0.  1.
</event>
<event>
 7    1  0.4047706E-008  0.4614232E+02  0.7816164E-02  0.1320468E+00
        -11   -1    0    0    0    0  0.00000000000E+00  0.00000000000E+00  0.45593999997E+02  0.45594000000E+02  0.51100000000E-03 0. -1.
         11   -1    0    0    0    0 -0.00000000000E+00 -0.00000000000E+00 -0.45593999997E+02  0.45594000000E+02  0.51100000000E-03 0.  1.
    9900012    2    1    2    0    0  0.13935653599E+02  0.32478767538E+02  0.27929209363E+02  0.46142317436E+02  0.99999970345E+01 0.  0.
        -12    1    1    2    0    0 -0.13935653599E+02 -0.32478767538E+02 -0.27929209363E+02  0.45045682564E+02  0.00000000000E+00 0.  1.
         11    1    3    3    0    0  0.17594765617E+01  0.12165451236E+02  0.11846123202E+02  0.17071162723E+02  0.51100000000E-03 0. -1.
        -11    1    3    3    0    0  0.18377160955E+01  0.16970449574E+01  0.20713032197E+00  0.25099930810E+01  0.51100000000E-03 0.  1.
         12    1    3    3    0    0  0.10338460941E+02  0.18616271345E+02  0.15875955839E+02  0.26561161632E+02  0.00000000000E+00 0. -1.
</event>
<event>
 7    1  0.4047706E-008  0.4614232E+02  0.7816164E-02  0.1320468E+00
        -11   -1    0    0    0    0  0.00000000000E+00  0.00000000000E+00  0.45593999997E+02  0.45594000000E+02  0.51100000000E-03 0.  1.
         11   -1    0    0    0    0 -0.00000000000E+00 -0.00000000000E+00 -0.45593999997E+02  0.45594000000E+02  0.51100000000E-03 0. -1.
    9900012    2    1    2    0    0  0.24679872874E+02 -0.37682677100E+02  0.18243201812E+00  0.46142316966E+02  0.99999927524E+01 0.  0.
        -12    1    1    2    0    0 -0.24679872874E+02  0.37682677100E+02 -0.18243201812E+00  0.45045683034E+02  0.00000000000E+00 0.  1.
         11    1    3    3    0    0  0.10874792278E+02 -0.15514050895E+02 -0.14486606222E+01  0.19001197334E+02  0.51100000000E-03 0. -1.
        -11    1    3    3    0    0  0.11196653799E+02 -0.20996552275E+02 -0.10521032009E+00  0.23795615840E+02  0.51100000000E-03 0.  1.
         12    1    3    3    0    0  0.26084267971E+01 -0.11720739302E+01  0.17363029604E+01  0.33455037922E+01  0.00000000000E+00 0. -1.
</event>
<event>
 7    1  0.4047706E-008  0.4614232E+02  0.7816164E-02  0.1320468E+00
        -11   -1    0    0    0    0  0.00000000000E+00  0.00000000000E+00  0.45593999997E+02  0.45594000000E+02  0.51100000000E-03 0. -1.
         11   -1    0    0    0    0 -0.00000000000E+00 -0.00000000000E+00 -0.45593999997E+02  0.45594000000E+02  0.51100000000E-03 0.  1.
    9900012    2    1    2    0    0 -0.27818155275E+02  0.27942932918E+02 -0.21782016171E+02  0.46142317727E+02  0.99999996874E+01 0.  0.
        -12    1    1    2    0    0  0.27818155275E+02 -0.27942932918E+02  0.21782016171E+02  0.45045682273E+02  0.00000000000E+00 0.  1.
         11    1    3    3    0    0 -0.51679466698E+01  0.78608294099E+01 -0.40966617340E+01  0.10260747995E+02  0.51100000000E-03 0. -1.
        -11    1    3    3    0    0 -0.75300358945E+01  0.36452586586E+01 -0.20338999462E+01  0.86096515907E+01  0.51100000000E-03 0.  1.
         12    1    3    3    0    0 -0.15120172711E+02  0.16436844850E+02 -0.15651454491E+02  0.27271918141E+02  0.00000000000E+00 0. -1.
</event>
<event>
 7    1  0.4047706E-008  0.4614232E+02  0.7816164E-02  0.1320468E+00
        -11   -1    0    0    0    0  0.00000000000E+00  0.00000000000E+00  0.45593999997E+02  0.45594000000E+02  0.51100000000E-03 0.  1.
         11   -1    0    0    0    0 -0.00000000000E+00 -0.00000000000E+00 -0.45593999997E+02  0.45594000000E+02  0.51100000000E-03 0. -1.
    9900012    2    1    2    0    0  0.28694179086E+02  0.95245746485E+01 -0.33392216868E+02  0.46142316711E+02  0.99999904240E+01 0.  0.
        -12    1    1    2    0    0 -0.28694179086E+02 -0.95245746485E+01  0.33392216868E+02  0.45045683289E+02  0.00000000000E+00 0.  1.
         11    1    3    3    0    0  0.19152729942E+02  0.78835352637E+01 -0.25290724260E+02  0.32689416121E+02  0.51100000000E-03 0. -1.
        -11    1    3    3    0    0  0.69226946663E+01 -0.97408350413E+00 -0.58916361391E+01  0.91424240096E+01  0.51100000000E-03 0.  1.
        -12    1    3    3    0    0  0.26187544773E+01  0.26151228889E+01 -0.22098564689E+01  0.43104765803E+01  0.00000000000E+00 0.  1.
</event>
<event>
 7    1  0.4047706E-008  0.4614232E+02  0.7816164E-02  0.1320468E+00
        -11   -1    0    0    0    0  0.00000000000E+00  0.00000000000E+00  0.45593999997E+02  0.45594000000E+02  0.51100000000E-03 0.  1.
         11   -1    0    0    0    0 -0.00000000000E+00 -0.00000000000E+00 -0.45593999997E+02  0.45594000000E+02  0.51100000000E-03 0. -1.
    9900012    2    1    2    0    0 -0.16310501866E+02 -0.22070190125E+02 -0.35720970608E+02  0.46142317582E+02  0.99999983684E+01 0.  0.
        -12    1    1    2    0    0  0.16310501866E+02  0.22070190125E+02  0.35720970608E+02  0.45045682418E+02  0.00000000000E+00 0.  1.
         11    1    3    3    0    0 -0.58320481276E+01 -0.89988517373E+01 -0.75874919733E+01  0.13136291435E+02  0.51100000000E-03 0. -1.
        -11    1    3    3    0    0 -0.17267899841E+01 -0.31404171769E+01 -0.94663612589E+01  0.10122056088E+02  0.51100000000E-03 0.  1.
        -12    1    3    3    0    0 -0.87516637544E+01 -0.99309212113E+01 -0.18667117376E+02  0.22883970060E+02  0.00000000000E+00 0.  1.
</event>
<event>
 7    1  0.4047706E-008  0.4614232E+02  0.7816164E-02  0.1320468E+00
        -11   -1    0    0    0    0  0.00000000000E+00  0.00000000000E+00  0.45593999997E+02  0.45594000000E+02  0.51100000000E-03 0.  1.
         11   -1    0    0    0    0 -0.00000000000E+00 -0.00000000000E+00 -0.45593999997E+02  0.45594000000E+02  0.51100000000E-03 0. -1.
    9900012    2    1    2    0    0 -0.35304855529E+02 -0.27125728120E+02  0.68465653563E+01  0.46142318663E+02  0.10000008224E+02 0.  0.
        -12    1    1    2    0    0  0.35304855529E+02  0.27125728120E+02 -0.68465653563E+01  0.45045681337E+02  0.00000000000E+00 0.  1.
         11    1    3    3    0    0 -0.30504339015E+01 -0.34406158790E+01  0.52974704300E+00  0.46285653074E+01  0.51100000000E-03 0. -1.
        -11    1    3    3    0    0 -0.13016419154E+02 -0.45354722456E+01  0.35165286656E+01  0.14225457821E+02  0.51100000000E-03 0.  1.
        -12    1    3    3    0    0 -0.19238002473E+02 -0.19149639995E+02  0.28002896477E+01  0.27288295535E+02  0.00000000000E+00 0.  1.
</event>
<event>
 7    1  0.4047706E-008  0.4614232E+02  0.7816164E-02  0.1320468E+00
        -11   -1    0    0    0    0  0.00000000000E+00  0.00000000000E+00  0.45593999997E+02  0.45594000000E+02  0.51100000000E-03 0.  1.
         11   -1    0    0    0    0 -0.00000000000E+00 -0.00000000000E+00 -0.45593999997E+02  0.45594000000E+02  0.51100000000E-03 0. -1.
    9900012    2    1    2    0    0  0.30098999039E+01 -0.32389303839E+02 -0.31160665561E+02  0.46142316758E+02  0.99999908486E+01 0.  0.
        -12    1    1    2    0    0 -0.30098999039E+01  0.32389303839E+02  0.31160665561E+02  0.45045683242E+02  0.00000000000E+00 0.  1.
         11    1    3    3    0    0 -0.81878165794E+00 -0.80173542236E+01 -0.47947672658E+01  0.93775351529E+01  0.51100000000E-03 0. -1.
        -11    1    3    3    0    0 -0.10365147256E+01 -0.76447070217E+01 -0.49830491403E+01  0.91840452536E+01  0.51100000000E-03 0.  1.
         12    1    3    3    0    0  0.48651962874E+01 -0.16727242594E+02 -0.21382849154E+02  0.27580736351E+02  0.00000000000E+00 0. -1.
</event>
<event>
 7    1  0.4047706E-008  0.4614231E+02  0.7816164E-02  0.1320468E+00
        -11   -1    0    0    0    0  0.00000000000E+00  0.00000000000E+00  0.45593999997E+02  0.45594000000E+02  0.51100000000E-03 0.  1.
         11   -1    0    0    0    0 -0.00000000000E+00 -0.00000000000E+00 -0.45593999997E+02  0.45594000000E+02  0.51100000000E-03 0. -1.
    9900012    2    1    2    0    0 -0.43729237843E+02 -0.42937054226E+00 -0.10802025289E+02  0.46142308178E+02  0.99999126130E+01 0.  0.
        -12    1    1    2    0    0  0.43729237843E+02  0.42937054226E+00  0.10802025289E+02  0.45045691822E+02  0.00000000000E+00 0.  1.
         11    1    3    3    0    0 -0.56518426801E+00 -0.49686731127E+00 -0.90682700429E+00  0.11784081885E+01  0.51100000000E-03 0. -1.
        -11    1    3    3    0    0 -0.18265497462E+02  0.98671347179E+00 -0.38833553505E+00  0.18296251139E+02  0.51100000000E-03 0.  1.
         12    1    3    3    0    0 -0.24898556113E+02 -0.91921670278E+00 -0.95068627492E+01  0.26667648850E+02  0.00000000000E+00 0. -1.
</event>
<event>
 7    1  0.4047706E-008  0.4614232E+02  0.7816164E-02  0.1320468E+00
        -11   -1    0    0    0    0  0.00000000000E+00  0.00000000000E+00  0.45593999997E+02  0.45594000000E+02  0.51100000000E-03 0. -1.
         11   -1    0    0    0    0 -0.00000000000E+00 -0.00000000000E+00 -0.45593999997E+02  0.45594000000E+02  0.51100000000E-03 0.  1.
    9900012    2    1    2    0    0 -0.38219537509E+02 -0.10484838585E+02  0.21411400996E+02  0.46142323402E+02  0.10000051439E+02 0.  0.
        -12    1    1    2    0    0  0.38219537509E+02  0.10484838585E+02 -0.21411400996E+02  0.45045676598E+02  0.00000000000E+00 0.  1.
         11    1    3    3    0    0 -0.34425119466E+02 -0.94575571768E+01  0.15424678825E+02  0.38890293841E+02  0.51100000000E-03 0. -1.
        -11    1    3    3    0    0 -0.62621124718E+00 -0.24196307027E+00  0.19405832790E+01  0.20534240617E+01  0.51100000000E-03 0.  1.
         12    1    3    3    0    0 -0.31682067960E+01 -0.78531833814E+00  0.40461388926E+01  0.51986054989E+01  0.00000000000E+00 0. -1.
</event>
<event>
 7    1  0.4047706E-008  0.4614232E+02  0.7816164E-02  0.1320468E+00
        -11   -1    0    0    0    0  0.00000000000E+00  0.00000000000E+00  0.45593999997E+02  0.45594000000E+02  0.51100000000E-03 0.  1.
         11   -1    0    0    0    0 -0.00000000000E+00 -0.00000000000E+00 -0.45593999997E+02  0.45594000000E+02  0.51100000000E-03 0. -1.
    9900012    2    1    2    0    0 -0.14589973397E+02 -0.90152842441E+01 -0.41652982001E+02  0.46142316707E+02  0.99999903894E+01 0.  0.
        -12    1    1    2    0    0  0.14589973397E+02  0.90152842441E+01  0.41652982001E+02  0.45045683293E+02  0.00000000000E+00 0.  1.
         11    1    3    3    0    0 -0.36185937769E+01 -0.40005718364E+01 -0.18560971250E+02  0.19328953669E+02  0.51100000000E-03 0. -1.
        -11    1    3    3    0    0 -0.55026376567E+01 -0.58803748789E+01 -0.12695792585E+02  0.15034659275E+02  0.51100000000E-03 0.  1.
        -12    1    3    3    0    0 -0.54687419631E+01  0.86566247115E+00 -0.10396218167E+02  0.11778703763E+02  0.00000000000E+00 0.  1.
</event>
<event>
 7    1  0.4047706E-008  0.4614231E+02  0.7816164E-02  0.1320468E+00
        -11   -1    0    0    0    0  0.00000000000E+00  0.00000000000E+00  0.45593999997E+02  0.45594000000E+02  0.51100000000E-03 0.  1.
         11   -1    0    0    0    0 -0.00000000000E+00 -0.00000000000E+00 -0.45593999997E+02  0.45594000000E+02  0.51100000000E-03 0. -1.
    9900012    2    1    2    0    0 -0.14130868040E+02  0.12650847633E+02 -0.40858149256E+02  0.46142314990E+02  0.99999747325E+01 0.  0.
        -12    1    1    2    0    0  0.14130868040E+02 -0.12650847633E+02  0.40858149256E+02  0.45045685010E+02  0.00000000000E+00 0.  1.
         11    1    3    3    0    0 -0.73410153539E+01  0.26439637436E+01 -0.18505803799E+02  0.20083471443E+02  0.51100000000E-03 0. -1.
        -11    1    3    3    0    0 -0.99480018246E+00  0.45372766453E+01 -0.43163745626E+01  0.63409460166E+01  0.51100000000E-03 0.  1.
        -12    1    3    3    0    0 -0.57950525038E+01  0.54696072442E+01 -0.18035970894E+02  0.19717897530E+02  0.00000000000E+00 0.  1.
</event>
<event>
 7    1  0.4047706E-008  0.4614232E+02  0.7816164E-02  0.1320468E+00
        -11   -1    0    0    0    0  0.00000000000E+00  0.00000000000E+00  0.45593999997E+02  0.45594000000E+02  0.51100000000E-03 0.  1.
         11   -1    0    0    0    0 -0.00000000000E+00 -0.00000000000E+00 -0.45593999997E+02  0.45594000000E+02  0.51100000000E-03 0. -1.
    9900012    2    1    2    0    0  0.21661612710E+01  0.80403193528E+01 -0.44269341146E+02  0.46142317017E+02  0.99999932141E+01 0.  0.
        -12    1    1    2    0    0 -0.21661612710E+01 -0.80403193528E+01  0.44269341146E+02  0.45045682983E+02  0.00000000000E+00 0.  1.
         11    1    3    3    0    0  0.50781344093E+00  0.46555190479E+00 -0.75893398907E+01  0.76205441606E+01  0.51100000000E-03 0. -1.
        -11    1    3    3    0    0  0.30614534077E+01  0.24933262117E+01 -0.48298858738E+01  0.62383467666E+01  0.51100000000E-03 0.  1.
         12    1    3    3    0    0 -0.14031055776E+01  0.50814412363E+01 -0.31850115381E+02  0.32283426090E+02  0.00000000000E+00 0. -1.
</event>
<event>
 7    1  0.4047706E-008  0.4614232E+02  0.7816164E-02  0.1320468E+00
        -11   -1    0    0    0    0  0.00000000000E+00  0.00000000000E+00  0.45593999997E+02  0.45594000000E+02  0.51100000000E-03 0.  1.
         11   -1    0    0    0    0 -0.00000000000E+00 -0.00000000000E+00 -0.45593999997E+02  0.45594000000E+02  0.51100000000E-03 0. -1.
    9900012    2    1    2    0    0  0.43865126332E+02  0.85386200410E+01 -0.56618214664E+01  0.46142316937E+02  0.99999924824E+01 0.  0.
        -12    1    1    2    0    0 -0.43865126332E+02 -0.85386200410E+01  0.56618214664E+01  0.45045683063E+02  0.00000000000E+00 0.  1.
         11    1    3    3    0    0  0.17472785594E+02  0.36691356982E+01 -0.26264793808E+01  0.18046029685E+02  0.51100000000E-03 0. -1.
        -11    1    3    3    0    0  0.22883445222E+02  0.22683386863E+01 -0.46102033968E+01  0.23453174652E+02  0.51100000000E-03 0.  1.
        -12    1    3    3    0    0  0.35088955157E+01  0.26011456565E+01  0.15748613111E+01  0.46431125999E+01  0.00000000000E+00 0.  1.
</event>
<event>
 7    1  0.4047706E-008  0.4614232E+02  0.7816164E-02  0.1320468E+00
        -11   -1    0    0    0    0  0.00000000000E+00  0.00000000000E+00  0.45593999997E+02  0.45594000000E+02  0.51100000000E-03 0. -1.
         11   -1    0    0    0    0 -0.00000000000E+00 -0.00000000000E+00 -0.45593999997E+02  0.45594000000E+02  0.51100000000E-03 0.  1.
    9900012    2    1    2    0    0  0.37419153408E+02 -0.23796661290E+02 -0.79145022767E+01  0.46142317892E+02  0.10000001190E+02 0.  0.
        -12    1    1    2    0    0 -0.37419153408E+02  0.23796661290E+02  0.79145022767E+01  0.45045682108E+02  0.00000000000E+00 0.  1.
         11    1    3    3    0    0  0.32725429331E+02 -0.20782324342E+02 -0.60875244538E+01  0.39241772184E+02  0.51100000000E-03 0.  1.
        -11    1    3    3    0    0  0.33211721824E+01 -0.26665030414E-01 -0.51680613854E+00  0.33612474670E+01  0.51100000000E-03 0. -1.
        -12    1    3    3    0    0  0.13725518952E+01 -0.29876719172E+01 -0.13101716844E+01  0.35392982401E+01  0.00000000000E+00 0.  1.
</event>
<event>
 7    1  0.4047706E-008  0.4614232E+02  0.7816164E-02  0.1320468E+00
        -11   -1    0    0    0    0  0.00000000000E+00  0.00000000000E+00  0.45593999997E+02  0.45594000000E+02  0.51100000000E-03 0.  1.
         11   -1    0    0    0    0 -0.00000000000E+00 -0.00000000000E+00 -0.45593999997E+02  0.45594000000E+02  0.51100000000E-03 0. -1.
    9900012    2    1    2    0    0  0.20918890727E+01 -0.80107772113E+01 -0.44278267120E+02  0.46142317737E+02  0.99999997791E+01 0.  0.
        -12    1    1    2    0    0 -0.20918890727E+01  0.80107772113E+01  0.44278267120E+02  0.45045682263E+02  0.00000000000E+00 0.  1.
         11    1    3    3    0    0  0.19792253534E+01 -0.41711287034E+01 -0.39133049498E+02  0.39404456740E+02  0.51100000000E-03 0. -1.
        -11    1    3    3    0    0  0.88845706327E+00 -0.13431977412E+01 -0.27784229430E+01  0.32114125298E+01  0.51100000000E-03 0.  1.
         12    1    3    3    0    0 -0.77579334397E+00 -0.24964507667E+01 -0.23667946787E+01  0.35264484675E+01  0.00000000000E+00 0. -1.
</event>
<event>
 7    1  0.4047706E-008  0.4614232E+02  0.7816164E-02  0.1320468E+00
        -11   -1    0    0    0    0  0.00000000000E+00  0.00000000000E+00  0.45593999997E+02  0.45594000000E+02  0.51100000000E-03 0. -1.
         11   -1    0    0    0    0 -0.00000000000E+00 -0.00000000000E+00 -0.45593999997E+02  0.45594000000E+02  0.51100000000E-03 0.  1.
    9900012    2    1    2    0    0 -0.30607289991E+02  0.30452030698E+02  0.12844496439E+02  0.46142318043E+02  0.10000002567E+02 0.  0.
        -12    1    1    2    0    0  0.30607289991E+02 -0.30452030698E+02 -0.12844496439E+02  0.45045681957E+02  0.00000000000E+00 0.  1.
         11    1    3    3    0    0 -0.13818346570E+02  0.10428292568E+02  0.63315164106E+01  0.18433233252E+02  0.51100000000E-03 0.  1.
        -11    1    3    3    0    0 -0.34938505528E+01  0.42837832966E+01 -0.12917783611E+01  0.56768373777E+01  0.51100000000E-03 0. -1.
         12    1    3    3    0    0 -0.13295092868E+02  0.15739954833E+02  0.78047583899E+01  0.22032247413E+02  0.00000000000E+00 0. -1.
</event>
<event>
 7    1  0.4047706E-008  0.4614232E+02  0.7816164E-02  0.1320468E+00
        -11   -1    0    0    0    0  0.00000000000E+00  0.00000000000E+00  0.45593999997E+02  0.45594000000E+02  0.51100000000E-03 0.  1.
         11   -1    0    0    0    0 -0.00000000000E+00 -0.00000000000E+00 -0.45593999997E+02  0.45594000000E+02  0.51100000000E-03 0. -1.
    9900012    2    1    2    0    0 -0.35124280278E+02 -0.77190335998E+01 -0.27125911801E+02  0.46142316124E+02  0.99999850737E+01 0.  0.
        -12    1    1    2    0    0  0.35124280278E+02  0.77190335998E+01  0.27125911801E+02  0.45045683876E+02  0.00000000000E+00 0.  1.
         11    1    3    3    0    0 -0.23783561723E+02 -0.14628065917E+01 -0.16460999670E+02  0.28961390190E+02  0.51100000000E-03 0. -1.
        -11    1    3    3    0    0 -0.52784198834E+01 -0.15102357176E+01 -0.61975439744E+01  0.82796183466E+01  0.51100000000E-03 0.  1.
        -12    1    3    3    0    0 -0.60622986719E+01 -0.47459912905E+01 -0.44673681567E+01  0.89013075873E+01  0.00000000000E+00 0.  1.
</event>
<event>
 7    1  0.4047706E-008  0.4614232E+02  0.7816164E-02  0.1320468E+00
        -11   -1    0    0    0    0  0.00000000000E+00  0.00000000000E+00  0.45593999997E+02  0.45594000000E+02  0.51100000000E-03 0.  1.
         11   -1    0    0    0    0 -0.00000000000E+00 -0.00000000000E+00 -0.45593999997E+02  0.45594000000E+02  0.51100000000E-03 0. -1.
    9900012    2    1    2    0    0  0.17213456987E+02  0.40391536010E+02 -0.10066488091E+02  0.46142318018E+02  0.10000002345E+02 0.  0.
        -12    1    1    2    0    0 -0.17213456987E+02 -0.40391536010E+02  0.10066488091E+02  0.45045681982E+02  0.00000000000E+00 0.  1.
         11    1    3    3    0    0  0.61180060118E+01  0.11724939529E+02 -0.37082231498E+01  0.13735178328E+02  0.51100000000E-03 0. -1.
        -11    1    3    3    0    0  0.11256725403E+02  0.20262292155E+02 -0.30725392963E+01  0.23381934226E+02  0.51100000000E-03 0.  1.
        -12    1    3    3    0    0 -0.16127442789E+00  0.84043043260E+01 -0.32857256449E+01  0.90252054635E+01  0.00000000000E+00 0.  1.
</event>
<event>
 7    1  0.4047706E-008  0.4614232E+02  0.7816164E-02  0.1320468E+00
        -11   -1    0    0    0    0  0.00000000000E+00  0.00000000000E+00  0.45593999997E+02  0.45594000000E+02  0.51100000000E-03 0.  1.
         11   -1    0    0    0    0 -0.00000000000E+00 -0.00000000000E+00 -0.45593999997E+02  0.45594000000E+02  0.51100000000E-03 0. -1.
    9900012    2    1    2    0    0 -0.61136953935E+01 -0.14004198123E+02 -0.42374741026E+02  0.46142317482E+02  0.99999974564E+01 0.  0.
        -12    1    1    2    0    0  0.61136953935E+01  0.14004198123E+02  0.42374741026E+02  0.45045682518E+02  0.00000000000E+00 0.  1.
         11    1    3    3    0    0 -0.21893487872E+01 -0.29357442220E+01 -0.12366268485E+02  0.12897148474E+02  0.51100000000E-03 0. -1.
        -11    1    3    3    0    0 -0.25917944820E+01  0.50567711826E+00 -0.49339558781E+01  0.55961619752E+01  0.51100000000E-03 0.  1.
         12    1    3    3    0    0 -0.13325521243E+01 -0.11574131020E+02 -0.25074516663E+02  0.27649007033E+02  0.00000000000E+00 0. -1.
</event>
<event>
 7    1  0.4047706E-008  0.4614232E+02  0.7816164E-02  0.1320468E+00
        -11   -1    0    0    0    0  0.00000000000E+00  0.00000000000E+00  0.45593999997E+02  0.45594000000E+02  0.51100000000E-03 0.  1.
         11   -1    0    0    0    0 -0.00000000000E+00 -0.00000000000E+00 -0.45593999997E+02  0.45594000000E+02  0.51100000000E-03 0. -1.
    9900012    2    1    2    0    0  0.68128962199E+01  0.10073287921E+02 -0.43373112678E+02  0.46142316657E+02  0.99999899300E+01 0.  0.
        -12    1    1    2    0    0 -0.68128962199E+01 -0.10073287921E+02  0.43373112678E+02  0.45045683343E+02  0.00000000000E+00 0.  1.
         11    1    3    3    0    0  0.31042202259E+01  0.14311865891E+01 -0.16404824696E+02  0.16757170161E+02  0.51100000000E-03 0. -1.
        -11    1    3    3    0    0  0.36361397154E+01  0.98267093647E+01 -0.23935885669E+02  0.26128764839E+02  0.51100000000E-03 0.  1.
         12    1    3    3    0    0  0.72536278568E-01 -0.11846080326E+01 -0.30324023135E+01  0.32563816566E+01  0.00000000000E+00 0. -1.
</event>
<event>
 7    1  0.4047706E-008  0.4614232E+02  0.7816164E-02  0.1320468E+00
        -11   -1    0    0    0    0  0.00000000000E+00  0.00000000000E+00  0.45593999997E+02  0.45594000000E+02  0.51100000000E-03 0.  1.
         11   -1    0    0    0    0 -0.00000000000E+00 -0.00000000000E+00 -0.45593999997E+02  0.45594000000E+02  0.51100000000E-03 0. -1.
    9900012    2    1    2    0    0  0.17391881653E+02 -0.22483237593E+02 -0.34944813398E+02  0.46142317592E+02  0.99999984617E+01 0.  0.
        -12    1    1    2    0    0 -0.17391881653E+02  0.22483237593E+02  0.34944813398E+02  0.45045682408E+02  0.00000000000E+00 0.  1.
         11    1    3    3    0    0  0.83228861969E+01 -0.65023373895E+01 -0.89384667208E+01  0.13836437900E+02  0.51100000000E-03 0. -1.
        -11    1    3    3    0    0  0.13157756826E+01 -0.27677134946E+01 -0.85380737457E+01  0.90713949965E+01  0.51100000000E-03 0.  1.
         12    1    3    3    0    0  0.77532197737E+01 -0.13213186709E+02 -0.17468272932E+02  0.23234484696E+02  0.00000000000E+00 0. -1.
</event>
<event>
 7    1  0.4047706E-008  0.4614232E+02  0.7816164E-02  0.1320468E+00
        -11   -1    0    0    0    0  0.00000000000E+00  0.00000000000E+00  0.45593999997E+02  0.45594000000E+02  0.51100000000E-03 0. -1.
         11   -1    0    0    0    0 -0.00000000000E+00 -0.00000000000E+00 -0.45593999997E+02  0.45594000000E+02  0.51100000000E-03 0.  1.
    9900012    2    1    2    0    0  0.91841239180E+01 -0.67668978437E+01  0.43577222692E+02  0.46142319007E+02  0.10000011361E+02 0.  0.
        -12    1    1    2    0    0 -0.91841239180E+01  0.67668978437E+01 -0.43577222692E+02  0.45045680993E+02  0.00000000000E+00 0.  1.
         11    1    3    3    0    0  0.50881272673E+00 -0.13583792561E+01  0.34814359988E+01  0.37715356911E+01  0.51100000000E-03 0.  1.
        -11    1    3    3    0    0  0.68311341269E+01 -0.24613687223E+01  0.37031048664E+02  0.37736206683E+02  0.51100000000E-03 0. -1.
         12    1    3    3    0    0  0.18441770644E+01 -0.29471498653E+01  0.30647380294E+01  0.46345766324E+01  0.00000000000E+00 0. -1.
</event>
<event>
 7    1  0.4047706E-008  0.4614232E+02  0.7816164E-02  0.1320468E+00
        -11   -1    0    0    0    0  0.00000000000E+00  0.00000000000E+00  0.45593999997E+02  0.45594000000E+02  0.51100000000E-03 0.  1.
         11   -1    0    0    0    0 -0.00000000000E+00 -0.00000000000E+00 -0.45593999997E+02  0.45594000000E+02  0.51100000000E-03 0. -1.
    9900012    2    1    2    0    0 -0.95137004349E+01 -0.94020521959E+01 -0.43014003121E+02  0.46142317122E+02  0.99999941745E+01 0.  0.
        -12    1    1    2    0    0  0.95137004349E+01  0.94020521959E+01  0.43014003121E+02  0.45045682878E+02  0.00000000000E+00 0.  1.
         11    1    3    3    0    0  0.85328514362E+00  0.66494858685E+00 -0.14780186043E+01  0.18316089690E+01  0.51100000000E-03 0.  1.
        -11    1    3    3    0    0 -0.54682514263E+01 -0.25345995650E+01 -0.11849565804E+02  0.13294291204E+02  0.51100000000E-03 0. -1.
         12    1    3    3    0    0 -0.48987341522E+01 -0.75324012178E+01 -0.29686418712E+02  0.31016416949E+02  0.00000000000E+00 0. -1.
</event>
<event>
 7    1  0.4047706E-008  0.4614232E+02  0.7816164E-02  0.1320468E+00
        -11   -1    0    0    0    0  0.00000000000E+00  0.00000000000E+00  0.45593999997E+02  0.45594000000E+02  0.51100000000E-03 0. -1.
         11   -1    0    0    0    0 -0.00000000000E+00 -0.00000000000E+00 -0.45593999997E+02  0.45594000000E+02  0.51100000000E-03 0.  1.
    9900012    2    1    2    0    0 -0.44287740755E+02 -0.11427156271E+01 -0.81488458704E+01  0.46142317973E+02  0.10000001935E+02 0.  0.
        -12    1    1    2    0    0  0.44287740755E+02  0.11427156271E+01  0.81488458704E+01  0.45045682027E+02  0.00000000000E+00 0.  1.
         11    1    3    3    0    0 -0.26773354150E+01  0.11329318571E+01 -0.77479540064E+00  0.30086488149E+01  0.51100000000E-03 0. -1.
        -11    1    3    3    0    0 -0.93604142719E+01  0.27185903199E+01 -0.30547030361E+01  0.10214661011E+02  0.51100000000E-03 0.  1.
        -12    1    3    3    0    0 -0.32249991069E+02 -0.49942378041E+01 -0.43193474336E+01  0.32919008147E+02  0.00000000000E+00 0.  1.
</event>
<event>
 7    1  0.4047706E-008  0.4614232E+02  0.7816164E-02  0.1320468E+00
        -11   -1    0    0    0    0  0.00000000000E+00  0.00000000000E+00  0.45593999997E+02  0.45594000000E+02  0.51100000000E-03 0. -1.
         11   -1    0    0    0    0 -0.00000000000E+00 -0.00000000000E+00 -0.45593999997E+02  0.45594000000E+02  0.51100000000E-03 0.  1.
    9900012    2    1    2    0    0 -0.28008618047E+02 -0.35262119877E+02  0.11017042513E+01  0.46142317239E+02  0.99999952429E+01 0.  0.
        -12    1    1    2    0    0  0.28008618047E+02  0.35262119877E+02 -0.11017042513E+01  0.45045682761E+02  0.00000000000E+00 0.  1.
         11    1    3    3    0    0 -0.28812165564E+01 -0.68596242650E+01 -0.13336391073E+01  0.75587331896E+01  0.51100000000E-03 0. -1.
        -11    1    3    3    0    0 -0.13146669257E+02 -0.16448414377E+02  0.45043675394E+01  0.21533104172E+02  0.51100000000E-03 0.  1.
         12    1    3    3    0    0 -0.11980732233E+02 -0.11954081235E+02 -0.20690241808E+01  0.17050479878E+02  0.00000000000E+00 0. -1.
</event>
<event>
 7    1  0.4047706E-008  0.4614232E+02  0.7816164E-02  0.1320468E+00
        -11   -1    0    0    0    0  0.00000000000E+00  0.00000000000E+00  0.45593999997E+02  0.45594000000E+02  0.51100000000E-03 0.  1.
         11   -1    0    0    0    0 -0.00000000000E+00 -0.00000000000E+00 -0.45593999997E+02  0.45594000000E+02  0.51100000000E-03 0. -1.
    9900012    2    1    2    0    0  0.14443571215E+02 -0.24651874764E+02 -0.34825017585E+02  0.46142317315E+02  0.99999959282E+01 0.  0.
        -12    1    1    2    0    0 -0.14443571215E+02  0.24651874764E+02  0.34825017585E+02  0.45045682685E+02  0.00000000000E+00 0.  1.
         11    1    3    3    0    0  0.42997945853E+01 -0.55470054411E+01 -0.14354455818E+02  0.15978357391E+02  0.51100000000E-03 0.  1.
        -11    1    3    3    0    0  0.34773860062E+01 -0.10311211769E+02 -0.79616225952E+01  0.13483350332E+02  0.51100000000E-03 0. -1.
         12    1    3    3    0    0  0.66663906231E+01 -0.87936575537E+01 -0.12508939172E+02  0.16680609591E+02  0.00000000000E+00 0. -1.
</event>
<event>
 7    1  0.4047706E-008  0.4614232E+02  0.7816164E-02  0.1320468E+00
        -11   -1    0    0    0    0  0.00000000000E+00  0.00000000000E+00  0.45593999997E+02  0.45594000000E+02  0.51100000000E-03 0. -1.
         11   -1    0    0    0    0 -0.00000000000E+00 -0.00000000000E+00 -0.45593999997E+02  0.45594000000E+02  0.51100000000E-03 0.  1.
    9900012    2    1    2    0    0 -0.21558433841E+02 -0.39407926804E+02 -0.33708636893E+01  0.46142317780E+02  0.10000000172E+02 0.  0.
        -12    1    1    2    0    0  0.21558433841E+02  0.39407926804E+02  0.33708636893E+01  0.45045682220E+02  0.00000000000E+00 0.  1.
         11    1    3    3    0    0 -0.16671781652E+02 -0.25317381251E+02 -0.34683610957E+01  0.30511434345E+02  0.51100000000E-03 0. -1.
        -11    1    3    3    0    0 -0.29001933558E+01 -0.57731407171E+01 -0.21148526446E+01  0.67980053847E+01  0.51100000000E-03 0.  1.
        -12    1    3    3    0    0 -0.19864588338E+01 -0.83174048358E+01  0.22123500510E+01  0.88328780502E+01  0.00000000000E+00 0.  1.
</event>
<event>
 7    1  0.4047706E-008  0.4614232E+02  0.7816164E-02  0.1320468E+00
        -11   -1    0    0    0    0  0.00000000000E+00  0.00000000000E+00  0.45593999997E+02  0.45594000000E+02  0.51100000000E-03 0.  1.
         11   -1    0    0    0    0 -0.00000000000E+00 -0.00000000000E+00 -0.45593999997E+02  0.45594000000E+02  0.51100000000E-03 0. -1.
    9900012    2    1    2    0    0 -0.31669452940E+02  0.38350557732E+00 -0.32031421945E+02  0.46142319654E+02  0.10000017257E+02 0.  0.
        -12    1    1    2    0    0  0.31669452940E+02 -0.38350557732E+00  0.32031421945E+02  0.45045680346E+02  0.00000000000E+00 0.  1.
         11    1    3    3    0    0 -0.13254127780E+02 -0.12132656076E+01 -0.16119423275E+02  0.20904059979E+02  0.51100000000E-03 0. -1.
        -11    1    3    3    0    0 -0.16160367502E+02  0.34572135728E+01 -0.14527605575E+02  0.22003661684E+02  0.51100000000E-03 0.  1.
        -12    1    3    3    0    0 -0.22549576590E+01 -0.18604423878E+01 -0.13843930948E+01  0.32345979910E+01  0.00000000000E+00 0.  1.
</event>
<event>
 7    1  0.4047706E-008  0.4614232E+02  0.7816164E-02  0.1320468E+00
        -11   -1    0    0    0    0  0.00000000000E+00  0.00000000000E+00  0.45593999997E+02  0.45594000000E+02  0.51100000000E-03 0.  1.
         11   -1    0    0    0    0 -0.00000000000E+00 -0.00000000000E+00 -0.45593999997E+02  0.45594000000E+02  0.51100000000E-03 0. -1.
    9900012    2    1    2    0    0 -0.44877991412E+02  0.90768139787E+00  0.37756539725E+01  0.46142316948E+02  0.99999925874E+01 0.  0.
        -12    1    1    2    0    0  0.44877991412E+02 -0.90768139787E+00 -0.37756539725E+01  0.45045683052E+02  0.00000000000E+00 0.  1.
         11    1    3    3    0    0 -0.89279350862E+01  0.10171834585E+01 -0.70073609226E+00  0.90129750041E+01  0.51100000000E-03 0. -1.
        -11    1    3    3    0    0 -0.12521284952E+02 -0.57402921752E+00 -0.22828113911E+01  0.12740616724E+02  0.51100000000E-03 0.  1.
         12    1    3    3    0    0 -0.23428771373E+02  0.46452715692E+00  0.67592014558E+01  0.24388725220E+02  0.00000000000E+00 0. -1.
</event>
<event>
 7    1  0.4047706E-008  0.4614231E+02  0.7816164E-02  0.1320468E+00
        -11   -1    0    0    0    0  0.00000000000E+00  0.00000000000E+00  0.45593999997E+02  0.45594000000E+02  0.51100000000E-03 0.  1.
         11   -1    0    0    0    0 -0.00000000000E+00 -0.00000000000E+00 -0.45593999997E+02  0.45594000000E+02  0.51100000000E-03 0. -1.
    9900012    2    1    2    0    0  0.43921475570E+02 -0.62942231601E+01 -0.77717899237E+01  0.46142312304E+02  0.99999502364E+01 0.  0.
        -12    1    1    2    0    0 -0.43921475570E+02  0.62942231601E+01  0.77717899237E+01  0.45045687696E+02  0.00000000000E+00 0.  1.
         11    1    3    3    0    0  0.25250800382E+02 -0.76316766470E+00 -0.70692111087E+00  0.25272219581E+02  0.51100000000E-03 0. -1.
        -11    1    3    3    0    0  0.71694006969E+01 -0.19631016903E+01 -0.14075512009E+01  0.75653998733E+01  0.51100000000E-03 0.  1.
         12    1    3    3    0    0  0.11501274490E+02 -0.35679538051E+01 -0.56573176119E+01  0.13304692849E+02  0.00000000000E+00 0. -1.
</event>
<event>
 7    1  0.4047706E-008  0.4614232E+02  0.7816164E-02  0.1320468E+00
        -11   -1    0    0    0    0  0.00000000000E+00  0.00000000000E+00  0.45593999997E+02  0.45594000000E+02  0.51100000000E-03 0.  1.
         11   -1    0    0    0    0 -0.00000000000E+00 -0.00000000000E+00 -0.45593999997E+02  0.45594000000E+02  0.51100000000E-03 0. -1.
    9900012    2    1    2    0    0  0.17052333318E+02  0.34402541206E+02 -0.23554115949E+02  0.46142319950E+02  0.10000019965E+02 0.  0.
        -12    1    1    2    0    0 -0.17052333318E+02 -0.34402541206E+02  0.23554115949E+02  0.45045680050E+02  0.00000000000E+00 0.  1.
         11    1    3    3    0    0  0.47885110911E+01  0.84616841837E+01 -0.32409029789E+01  0.10248579905E+02  0.51100000000E-03 0.  1.
        -11    1    3    3    0    0  0.12385950728E+02  0.22059532157E+02 -0.19460946018E+02  0.31918069406E+02  0.51100000000E-03 0. -1.
        -12    1    3    3    0    0 -0.12212850071E+00  0.38813248645E+01 -0.85226695195E+00  0.39756706393E+01  0.00000000000E+00 0.  1.
</event>
<event>
 7    1  0.4047706E-008  0.4614232E+02  0.7816164E-02  0.1320468E+00
        -11   -1    0    0    0    0  0.00000000000E+00  0.00000000000E+00  0.45593999997E+02  0.45594000000E+02  0.51100000000E-03 0.  1.
         11   -1    0    0    0    0 -0.00000000000E+00 -0.00000000000E+00 -0.45593999997E+02  0.45594000000E+02  0.51100000000E-03 0. -1.
    9900012    2    1    2    0    0 -0.23924960583E+02 -0.34998067824E+02 -0.15226458616E+02  0.46142317273E+02  0.99999955500E+01 0.  0.
        -12    1    1    2    0    0  0.23924960583E+02  0.34998067824E+02  0.15226458616E+02  0.45045682727E+02  0.00000000000E+00 0.  1.
         11    1    3    3    0    0 -0.60595837979E+01 -0.15536251278E+02 -0.43789009898E+01  0.17241474233E+02  0.51100000000E-03 0. -1.
        -11    1    3    3    0    0 -0.10669350907E+02 -0.86574893461E+01 -0.65940836334E+01  0.15240377613E+02  0.51100000000E-03 0.  1.
         12    1    3    3    0    0 -0.71960258783E+01 -0.10804327200E+02 -0.42534739930E+01  0.13660465427E+02  0.00000000000E+00 0. -1.
</event>
<event>
 7    1  0.4047706E-008  0.4614232E+02  0.7816164E-02  0.1320468E+00
        -11   -1    0    0    0    0  0.00000000000E+00  0.00000000000E+00  0.45593999997E+02  0.45594000000E+02  0.51100000000E-03 0. -1.
         11   -1    0    0    0    0 -0.00000000000E+00 -0.00000000000E+00 -0.45593999997E+02  0.45594000000E+02  0.51100000000E-03 0.  1.
    9900012    2    1    2    0    0 -0.78140835772E+01 -0.31528915597E+02  0.31208669878E+02  0.46142317671E+02  0.99999991798E+01 0.  0.
        -12    1    1    2    0    0  0.78140835772E+01  0.31528915597E+02 -0.31208669878E+02  0.45045682329E+02  0.00000000000E+00 0.  1.
         11    1    3    3    0    0 -0.46138253027E+01 -0.15263292454E+02  0.11954211729E+02  0.19928839876E+02  0.51100000000E-03 0. -1.
        -11    1    3    3    0    0  0.78510571964E+00 -0.10355006813E+02  0.91071381378E+01  0.13812404657E+02  0.51100000000E-03 0.  1.
        -12    1    3    3    0    0 -0.39853639942E+01 -0.59106163298E+01  0.10147320011E+02  0.12401073138E+02  0.00000000000E+00 0.  1.
</event>
<event>
 7    1  0.4047706E-008  0.4614232E+02  0.7816164E-02  0.1320468E+00
        -11   -1    0    0    0    0  0.00000000000E+00  0.00000000000E+00  0.45593999997E+02  0.45594000000E+02  0.51100000000E-03 0.  1.
         11   -1    0    0    0    0 -0.00000000000E+00 -0.00000000000E+00 -0.45593999997E+02  0.45594000000E+02  0.51100000000E-03 0. -1.
    9900012    2    1    2    0    0 -0.85276112060E+01 -0.40251555937E+02 -0.18335907650E+02  0.46142318547E+02  0.10000007166E+02 0.  0.
        -12    1    1    2    0    0  0.85276112060E+01  0.40251555937E+02  0.18335907650E+02  0.45045681453E+02  0.00000000000E+00 0.  1.
         11    1    3    3    0    0 -0.23023696243E+01 -0.10356161079E+02 -0.17963936111E+01  0.10760018980E+02  0.51100000000E-03 0. -1.
        -11    1    3    3    0    0  0.47344539566E+00 -0.36109990563E+01 -0.56710533181E-01  0.36423455455E+01  0.51100000000E-03 0.  1.
         12    1    3    3    0    0 -0.66986869774E+01 -0.26284395801E+02 -0.16482803506E+02  0.31739954021E+02  0.00000000000E+00 0. -1.
</event>
<event>
 7    1  0.4047706E-008  0.4614231E+02  0.7816164E-02  0.1320468E+00
        -11   -1    0    0    0    0  0.00000000000E+00  0.00000000000E+00  0.45593999997E+02  0.45594000000E+02  0.51100000000E-03 0.  1.
         11   -1    0    0    0    0 -0.00000000000E+00 -0.00000000000E+00 -0.45593999997E+02  0.45594000000E+02  0.51100000000E-03 0. -1.
    9900012    2    1    2    0    0  0.32251837862E+02  0.25635795008E+02  0.18213703284E+02  0.46142311877E+02  0.99999463474E+01 0.  0.
        -12    1    1    2    0    0 -0.32251837862E+02 -0.25635795008E+02 -0.18213703284E+02  0.45045688123E+02  0.00000000000E+00 0.  1.
         11    1    3    3    0    0  0.17150566157E+02  0.14576680069E+02  0.60583640248E+01  0.23309339250E+02  0.51100000000E-03 0. -1.
        -11    1    3    3    0    0  0.29740834593E+01  0.29535270183E+00  0.28901134327E+01  0.41575427306E+01  0.51100000000E-03 0.  1.
         12    1    3    3    0    0  0.12127188245E+02  0.10763762236E+02  0.92652258266E+01  0.18675429897E+02  0.00000000000E+00 0. -1.
</event>
<event>
 7    1  0.4047706E-008  0.4614232E+02  0.7816164E-02  0.1320468E+00
        -11   -1    0    0    0    0  0.00000000000E+00  0.00000000000E+00  0.45593999997E+02  0.45594000000E+02  0.51100000000E-03 0. -1.
         11   -1    0    0    0    0 -0.00000000000E+00 -0.00000000000E+00 -0.45593999997E+02  0.45594000000E+02  0.51100000000E-03 0.  1.
    9900012    2    1    2    0    0 -0.35843024034E+02  0.20703329708E+02  0.17769731062E+02  0.46142316800E+02  0.99999912402E+01 0.  0.
        -12    1    1    2    0    0  0.35843024034E+02 -0.20703329708E+02 -0.17769731062E+02  0.45045683200E+02  0.00000000000E+00 0.  1.
         11    1    3    3    0    0 -0.81556134467E+00 -0.63480282787E-01 -0.35901216896E+00  0.89334206876E+00  0.51100000000E-03 0.  1.
        -11    1    3    3    0    0 -0.40513363661E+01  0.24199173492E+01 -0.44201170931E+00  0.47396941821E+01  0.51100000000E-03 0. -1.
         12    1    3    3    0    0 -0.30976126323E+02  0.18346892642E+02  0.18570754940E+02  0.40509280550E+02  0.00000000000E+00 0. -1.
</event>
<event>
 7    1  0.4047706E-008  0.4614232E+02  0.7816164E-02  0.1320468E+00
        -11   -1    0    0    0    0  0.00000000000E+00  0.00000000000E+00  0.45593999997E+02  0.45594000000E+02  0.51100000000E-03 0.  1.
         11   -1    0    0    0    0 -0.00000000000E+00 -0.00000000000E+00 -0.45593999997E+02  0.45594000000E+02  0.51100000000E-03 0. -1.
    9900012    2    1    2    0    0  0.29571888434E+02 -0.61898078796E+01 -0.33411124988E+02  0.46142316743E+02  0.99999907142E+01 0.  0.
        -12    1    1    2    0    0 -0.29571888434E+02  0.61898078796E+01  0.33411124988E+02  0.45045683257E+02  0.00000000000E+00 0.  1.
         11    1    3    3    0    0  0.49762418167E+01 -0.18596057472E+00 -0.74866441846E+01  0.89915185237E+01  0.51100000000E-03 0. -1.
        -11    1    3    3    0    0  0.21274718950E+02 -0.20042589633E+01 -0.21661851827E+02  0.30428055233E+02  0.51100000000E-03 0.  1.
        -12    1    3    3    0    0  0.33209276674E+01 -0.39995883415E+01 -0.42626289760E+01  0.67227429864E+01  0.00000000000E+00 0.  1.
</event>
<event>
 7    1  0.4047706E-008  0.4614232E+02  0.7816164E-02  0.1320468E+00
        -11   -1    0    0    0    0  0.00000000000E+00  0.00000000000E+00  0.45593999997E+02  0.45594000000E+02  0.51100000000E-03 0.  1.
         11   -1    0    0    0    0 -0.00000000000E+00 -0.00000000000E+00 -0.45593999997E+02  0.45594000000E+02  0.51100000000E-03 0. -1.
    9900012    2    1    2    0    0  0.11615298790E+02 -0.41711787260E+02 -0.12422765067E+02  0.46142318139E+02  0.10000003448E+02 0.  0.
        -12    1    1    2    0    0 -0.11615298790E+02  0.41711787260E+02  0.12422765067E+02  0.45045681861E+02  0.00000000000E+00 0.  1.
         11    1    3    3    0    0  0.61102896527E+01 -0.10961245455E+02 -0.10027511022E+01  0.12589283205E+02  0.51100000000E-03 0. -1.
        -11    1    3    3    0    0  0.46983421129E+01 -0.13904131530E+02 -0.49467335805E+01  0.15487719832E+02  0.51100000000E-03 0.  1.
        -12    1    3    3    0    0  0.80666702403E+00 -0.16846410274E+02 -0.64732803847E+01  0.18065315103E+02  0.00000000000E+00 0.  1.
</event>
<event>
 7    1  0.4047706E-008  0.4614232E+02  0.7816164E-02  0.1320468E+00
        -11   -1    0    0    0    0  0.00000000000E+00  0.00000000000E+00  0.45593999997E+02  0.45594000000E+02  0.51100000000E-03 0.  1.
         11   -1    0    0    0    0 -0.00000000000E+00 -0.00000000000E+00 -0.45593999997E+02  0.45594000000E+02  0.51100000000E-03 0. -1.
    9900012    2    1    2    0    0  0.52065253192E+00 -0.49731546041E+00 -0.45039927208E+02  0.46142318247E+02  0.10000004429E+02 0.  0.
        -12    1    1    2    0    0 -0.52065253192E+00  0.49731546041E+00  0.45039927208E+02  0.45045681753E+02  0.00000000000E+00 0.  1.
         11    1    3    3    0    0  0.12720620525E+01  0.27662062417E+00 -0.39110604042E+02  0.39132263028E+02  0.51100000000E-03 0. -1.
        -11    1    3    3    0    0  0.28082597296E+00 -0.18940769974E+01 -0.46213101409E+01  0.50022893338E+01  0.51100000000E-03 0.  1.
         12    1    3    3    0    0 -0.10322354935E+01  0.11201409129E+01 -0.13080130244E+01  0.20077658855E+01  0.00000000000E+00 0. -1.
</event>
<event>
 7    1  0.4047706E-008  0.4614232E+02  0.7816164E-02  0.1320468E+00
        -11   -1    0    0    0    0  0.00000000000E+00  0.00000000000E+00  0.45593999997E+02  0.45594000000E+02  0.51100000000E-03 0. -1.
         11   -1    0    0    0    0 -0.00000000000E+00 -0.00000000000E+00 -0.45593999997E+02  0.45594000000E+02  0.51100000000E-03 0.  1.
    9900012    2    1    2    0    0  0.28493953663E+02  0.34598642554E+02 -0.44879894664E+01  0.46142317506E+02  0.99999976699E+01 0.  0.
        -12    1    1    2    0    0 -0.28493953663E+02 -0.34598642554E+02  0.44879894664E+01  0.45045682494E+02  0.00000000000E+00 0.  1.
         11    1    3    3    0    0  0.59318850011E+01  0.54564255984E+01 -0.66942815330E+00  0.80875196625E+01  0.51100000000E-03 0. -1.
        -11    1    3    3    0    0  0.14302309172E+02  0.15370616863E+02 -0.60307217295E+01  0.21844484778E+02  0.51100000000E-03 0.  1.
         12    1    3    3    0    0  0.82597594900E+01  0.13771600093E+02  0.22121604164E+01  0.16210313065E+02  0.00000000000E+00 0. -1.
</event>
<event>
 7    1  0.4047706E-008  0.4614232E+02  0.7816164E-02  0.1320468E+00
        -11   -1    0    0    0    0  0.00000000000E+00  0.00000000000E+00  0.45593999997E+02  0.45594000000E+02  0.51100000000E-03 0.  1.
         11   -1    0    0    0    0 -0.00000000000E+00 -0.00000000000E+00 -0.45593999997E+02  0.45594000000E+02  0.51100000000E-03 0. -1.
    9900012    2    1    2    0    0 -0.70183056394E+01  0.25632225806E+02 -0.36370946517E+02  0.46142319138E+02  0.10000012551E+02 0.  0.
        -12    1    1    2    0    0  0.70183056394E+01 -0.25632225806E+02  0.36370946517E+02  0.45045680862E+02  0.00000000000E+00 0.  1.
         11    1    3    3    0    0 -0.45191446718E+01  0.47600148448E+01 -0.13666427686E+02  0.15160859337E+02  0.51100000000E-03 0. -1.
        -11    1    3    3    0    0 -0.10144073147E+01  0.95473591589E+01 -0.92414410419E+01  0.13326114284E+02  0.51100000000E-03 0.  1.
         12    1    3    3    0    0 -0.14847536530E+01  0.11324851802E+02 -0.13463077789E+02  0.17655345517E+02  0.00000000000E+00 0. -1.
</event>
<event>
 7    1  0.4047706E-008  0.4614231E+02  0.7816164E-02  0.1320468E+00
        -11   -1    0    0    0    0  0.00000000000E+00  0.00000000000E+00  0.45593999997E+02  0.45594000000E+02  0.51100000000E-03 0.  1.
         11   -1    0    0    0    0 -0.00000000000E+00 -0.00000000000E+00 -0.45593999997E+02  0.45594000000E+02  0.51100000000E-03 0. -1.
    9900012    2    1    2    0    0  0.42859656894E+02  0.21296285266E+01 -0.13697761174E+02  0.46142310219E+02  0.99999312208E+01 0.  0.
        -12    1    1    2    0    0 -0.42859656894E+02 -0.21296285266E+01  0.13697761174E+02  0.45045689781E+02  0.00000000000E+00 0.  1.
         11    1    3    3    0    0  0.88293573906E+01 -0.92111362999E+00 -0.16135457461E+01  0.90227231137E+01  0.51100000000E-03 0. -1.
        -11    1    3    3    0    0  0.28785192906E+02 -0.32436112301E+00 -0.10834750654E+02  0.30758484403E+02  0.51100000000E-03 0.  1.
         12    1    3    3    0    0  0.52451065975E+01  0.33751032796E+01 -0.12494647733E+01  0.63611027021E+01  0.00000000000E+00 0. -1.
</event>
<event>
 7    1  0.4047706E-008  0.4614231E+02  0.7816164E-02  0.1320468E+00
        -11   -1    0    0    0    0  0.00000000000E+00  0.00000000000E+00  0.45593999997E+02  0.45594000000E+02  0.51100000000E-03 0.  1.
         11   -1    0    0    0    0 -0.00000000000E+00 -0.00000000000E+00 -0.45593999997E+02  0.45594000000E+02  0.51100000000E-03 0. -1.
    9900012    2    1    2    0    0 -0.80628512041E+01 -0.14541866978E+02 -0.41864522898E+02  0.46142314943E+02  0.99999743059E+01 0.  0.
        -12    1    1    2    0    0  0.80628512041E+01  0.14541866978E+02  0.41864522898E+02  0.45045685057E+02  0.00000000000E+00 0.  1.
         11    1    3    3    0    0 -0.70237107860E+01 -0.56460474037E+01 -0.16568482692E+02  0.18860672933E+02  0.51100000000E-03 0. -1.
        -11    1    3    3    0    0  0.17336861490E+01 -0.29998487988E+01 -0.11748953618E+02  0.12249190661E+02  0.51100000000E-03 0.  1.
        -12    1    3    3    0    0 -0.27728265672E+01 -0.58959707752E+01 -0.13547086588E+02  0.15032451349E+02  0.00000000000E+00 0.  1.
</event>
<event>
 7    1  0.4047706E-008  0.4614231E+02  0.7816164E-02  0.1320468E+00
        -11   -1    0    0    0    0  0.00000000000E+00  0.00000000000E+00  0.45593999997E+02  0.45594000000E+02  0.51100000000E-03 0.  1.
         11   -1    0    0    0    0 -0.00000000000E+00 -0.00000000000E+00 -0.45593999997E+02  0.45594000000E+02  0.51100000000E-03 0. -1.
    9900012    2    1    2    0    0 -0.11437829914E+02  0.42423634223E+02 -0.99259788229E+01  0.46142314864E+02  0.99999735790E+01 0.  0.
        -12    1    1    2    0    0  0.11437829914E+02 -0.42423634223E+02  0.99259788229E+01  0.45045685136E+02  0.00000000000E+00 0.  1.
         11    1    3    3    0    0 -0.21115053673E+01  0.40999039429E+01 -0.37632783211E+01  0.59523046999E+01  0.51100000000E-03 0. -1.
        -11    1    3    3    0    0 -0.32797182678E+01  0.12799314000E+02  0.13595069156E+00  0.13213533730E+02  0.51100000000E-03 0.  1.
         12    1    3    3    0    0 -0.60466062790E+01  0.25524416280E+02 -0.62986511934E+01  0.26976476433E+02  0.00000000000E+00 0. -1.
</event>
<event>
 7    1  0.4047706E-008  0.4614232E+02  0.7816164E-02  0.1320468E+00
        -11   -1    0    0    0    0  0.00000000000E+00  0.00000000000E+00  0.45593999997E+02  0.45594000000E+02  0.51100000000E-03 0.  1.
         11   -1    0    0    0    0 -0.00000000000E+00 -0.00000000000E+00 -0.45593999997E+02  0.45594000000E+02  0.51100000000E-03 0. -1.
    9900012    2    1    2    0    0  0.18641261349E+02  0.10194992948E+02 -0.39720007153E+02  0.46142317919E+02  0.10000001444E+02 0.  0.
        -12    1    1    2    0    0 -0.18641261349E+02 -0.10194992948E+02  0.39720007153E+02  0.45045682081E+02  0.00000000000E+00 0.  1.
         11    1    3    3    0    0  0.78032281510E+00  0.26867768455E+01 -0.81272483179E+01  0.85953382130E+01  0.51100000000E-03 0. -1.
        -11    1    3    3    0    0  0.39595424469E+01 -0.85449113893E+00 -0.69255678320E+01  0.80231927281E+01  0.51100000000E-03 0.  1.
         12    1    3    3    0    0  0.13901396087E+02  0.83627072416E+01 -0.24667191003E+02  0.29523786978E+02  0.00000000000E+00 0. -1.
</event>
<event>
 7    1  0.4047706E-008  0.4614232E+02  0.7816164E-02  0.1320468E+00
        -11   -1    0    0    0    0  0.00000000000E+00  0.00000000000E+00  0.45593999997E+02  0.45594000000E+02  0.51100000000E-03 0.  1.
         11   -1    0    0    0    0 -0.00000000000E+00 -0.00000000000E+00 -0.45593999997E+02  0.45594000000E+02  0.51100000000E-03 0. -1.
    9900012    2    1    2    0    0 -0.42217751462E+02  0.12052432164E+02 -0.10075409742E+02  0.46142317177E+02  0.99999946715E+01 0.  0.
        -12    1    1    2    0    0  0.42217751462E+02 -0.12052432164E+02  0.10075409742E+02  0.45045682823E+02  0.00000000000E+00 0.  1.
         11    1    3    3    0    0 -0.88763916637E+01  0.42135622232E+00 -0.18719322669E+01  0.90814096211E+01  0.51100000000E-03 0. -1.
        -11    1    3    3    0    0 -0.10711326814E+02  0.56690575844E+01 -0.60908364776E+01  0.13563518174E+02  0.51100000000E-03 0.  1.
         12    1    3    3    0    0 -0.22630032984E+02  0.59620183569E+01 -0.21126409979E+01  0.23497389382E+02  0.00000000000E+00 0. -1.
</event>
<event>
 7    1  0.4047706E-008  0.4614232E+02  0.7816164E-02  0.1320468E+00
        -11   -1    0    0    0    0  0.00000000000E+00  0.00000000000E+00  0.45593999997E+02  0.45594000000E+02  0.51100000000E-03 0. -1.
         11   -1    0    0    0    0 -0.00000000000E+00 -0.00000000000E+00 -0.45593999997E+02  0.45594000000E+02  0.51100000000E-03 0.  1.
    9900012    2    1    2    0    0  0.11411413886E+02  0.12722120423E+02  0.41677821827E+02  0.46142317109E+02  0.99999940499E+01 0.  0.
        -12    1    1    2    0    0 -0.11411413886E+02 -0.12722120423E+02 -0.41677821827E+02  0.45045682891E+02  0.00000000000E+00 0.  1.
         11    1    3    3    0    0  0.69252645977E+01  0.10481751975E+02  0.26819619733E+02  0.29616185053E+02  0.51100000000E-03 0. -1.
        -11    1    3    3    0    0  0.29128433260E+01  0.24799918044E+00  0.23160838325E+01  0.37296654563E+01  0.51100000000E-03 0.  1.
        -12    1    3    3    0    0  0.15733059623E+01  0.19923692676E+01  0.12542118261E+02  0.12796466599E+02  0.00000000000E+00 0.  1.
</event>
<event>
 7    1  0.4047706E-008  0.4614232E+02  0.7816164E-02  0.1320468E+00
        -11   -1    0    0    0    0  0.00000000000E+00  0.00000000000E+00  0.45593999997E+02  0.45594000000E+02  0.51100000000E-03 0.  1.
         11   -1    0    0    0    0 -0.00000000000E+00 -0.00000000000E+00 -0.45593999997E+02  0.45594000000E+02  0.51100000000E-03 0. -1.
    9900012    2    1    2    0    0  0.89416700599E+01 -0.27244098528E+02 -0.34740740659E+02  0.46142318413E+02  0.10000005948E+02 0.  0.
        -12    1    1    2    0    0 -0.89416700599E+01  0.27244098528E+02  0.34740740659E+02  0.45045681587E+02  0.00000000000E+00 0.  1.
         11    1    3    3    0    0  0.63146673941E+01 -0.12425839787E+02 -0.16430540153E+02  0.21546210078E+02  0.51100000000E-03 0. -1.
        -11    1    3    3    0    0  0.41541801330E+01 -0.81114042566E+01 -0.75956597798E+01  0.11863647809E+02  0.51100000000E-03 0.  1.
        -12    1    3    3    0    0 -0.15271774673E+01 -0.67068544841E+01 -0.10714540726E+02  0.12732460527E+02  0.00000000000E+00 0.  1.
</event>
<event>
 7    1  0.4047706E-008  0.4614232E+02  0.7816164E-02  0.1320468E+00
        -11   -1    0    0    0    0  0.00000000000E+00  0.00000000000E+00  0.45593999997E+02  0.45594000000E+02  0.51100000000E-03 0.  1.
         11   -1    0    0    0    0 -0.00000000000E+00 -0.00000000000E+00 -0.45593999997E+02  0.45594000000E+02  0.51100000000E-03 0. -1.
    9900012    2    1    2    0    0  0.29558143122E+02  0.19636139181E+02 -0.27746201615E+02  0.46142317734E+02  0.99999997533E+01 0.  0.
        -12    1    1    2    0    0 -0.29558143122E+02 -0.19636139181E+02  0.27746201615E+02  0.45045682266E+02  0.00000000000E+00 0.  1.
         11    1    3    3    0    0  0.20025352593E+02  0.11328006654E+02 -0.16247343223E+02  0.28165841782E+02  0.51100000000E-03 0. -1.
        -11    1    3    3    0    0  0.11654236077E+01  0.38860891650E+01 -0.52527426214E+01  0.66371082929E+01  0.51100000000E-03 0.  1.
        -12    1    3    3    0    0  0.83673669212E+01  0.44220433617E+01 -0.62461157710E+01  0.11339367659E+02  0.00000000000E+00 0.  1.
</event>
<event>
 7    1  0.4047706E-008  0.4614232E+02  0.7816164E-02  0.1320468E+00
        -11   -1    0    0    0    0  0.00000000000E+00  0.00000000000E+00  0.45593999997E+02  0.45594000000E+02  0.51100000000E-03 0.  1.
         11   -1    0    0    0    0 -0.00000000000E+00 -0.00000000000E+00 -0.45593999997E+02  0.45594000000E+02  0.51100000000E-03 0. -1.
    9900012    2    1    2    0    0  0.12523356239E+02 -0.42173142978E+01 -0.43063827728E+02  0.46142318187E+02  0.10000003887E+02 0.  0.
        -12    1    1    2    0    0 -0.12523356239E+02  0.42173142978E+01  0.43063827728E+02  0.45045681813E+02  0.00000000000E+00 0.  1.
         11    1    3    3    0    0 -0.39717355394E+00 -0.20404882406E+01 -0.64317353713E+01  0.67593312716E+01  0.51100000000E-03 0.  1.
        -11    1    3    3    0    0  0.10006803905E+01 -0.20563712926E+01 -0.35914416719E+01  0.42577550048E+01  0.51100000000E-03 0. -1.
         12    1    3    3    0    0  0.11919849403E+02 -0.12045476462E+00 -0.33040650685E+02  0.35125231911E+02  0.00000000000E+00 0. -1.
</event>
<event>
 7    1  0.4047706E-008  0.4614232E+02  0.7816164E-02  0.1320468E+00
        -11   -1    0    0    0    0  0.00000000000E+00  0.00000000000E+00  0.45593999997E+02  0.45594000000E+02  0.51100000000E-03 0. -1.
         11   -1    0    0    0    0 -0.00000000000E+00 -0.00000000000E+00 -0.45593999997E+02  0.45594000000E+02  0.51100000000E-03 0.  1.
    9900012    2    1    2    0    0  0.57442027860E+01 -0.20095562155E+02  0.39903458325E+02  0.46142317962E+02  0.10000001829E+02 0.  0.
        -12    1    1    2    0    0 -0.57442027860E+01  0.20095562155E+02 -0.39903458325E+02  0.45045682038E+02  0.00000000000E+00 0.  1.
         11    1    3    3    0    0  0.19931998199E+01 -0.10857777336E+01  0.49726596543E+01  0.54661781079E+01  0.51100000000E-03 0. -1.
        -11    1    3    3    0    0 -0.10482038586E+01 -0.75444778158E+01  0.81707811656E+01  0.11170476353E+02  0.51100000000E-03 0.  1.
         12    1    3    3    0    0  0.47992068247E+01 -0.11465306606E+02  0.26760017505E+02  0.29505663500E+02  0.00000000000E+00 0. -1.
</event>
<event>
 7    1  0.4047706E-008  0.4614232E+02  0.7816164E-02  0.1320468E+00
        -11   -1    0    0    0    0  0.00000000000E+00  0.00000000000E+00  0.45593999997E+02  0.45594000000E+02  0.51100000000E-03 0. -1.
         11   -1    0    0    0    0 -0.00000000000E+00 -0.00000000000E+00 -0.45593999997E+02  0.45594000000E+02  0.51100000000E-03 0.  1.
    9900012    2    1    2    0    0 -0.37984602298E+02 -0.17807171573E+02  0.16406956764E+02  0.46142316507E+02  0.99999885598E+01 0.  0.
        -12    1    1    2    0    0  0.37984602298E+02  0.17807171573E+02 -0.16406956764E+02  0.45045683493E+02  0.00000000000E+00 0.  1.
         11    1    3    3    0    0 -0.12009449394E+01 -0.13313737010E+00  0.17222855796E+01  0.21038683860E+01  0.51100000000E-03 0. -1.
        -11    1    3    3    0    0 -0.50676550420E+00 -0.18277155009E+01  0.30612395688E+00  0.19212150755E+01  0.51100000000E-03 0.  1.
         12    1    3    3    0    0 -0.36276891854E+02 -0.15846318702E+02  0.14378547228E+02  0.42117233045E+02  0.00000000000E+00 0. -1.
</event>
<event>
 7    1  0.4047706E-008  0.4614232E+02  0.7816164E-02  0.1320468E+00
        -11   -1    0    0    0    0  0.00000000000E+00  0.00000000000E+00  0.45593999997E+02  0.45594000000E+02  0.51100000000E-03 0.  1.
         11   -1    0    0    0    0 -0.00000000000E+00 -0.00000000000E+00 -0.45593999997E+02  0.45594000000E+02  0.51100000000E-03 0. -1.
    9900012    2    1    2    0    0 -0.36299338722E+02  0.12330850600E+02 -0.23652095895E+02  0.46142317539E+02  0.99999979729E+01 0.  0.
        -12    1    1    2    0    0  0.36299338722E+02 -0.12330850600E+02  0.23652095895E+02  0.45045682461E+02  0.00000000000E+00 0.  1.
         11    1    3    3    0    0 -0.10684623460E+02  0.50489289233E+01 -0.77661251146E+01  0.14140917979E+02  0.51100000000E-03 0. -1.
        -11    1    3    3    0    0  0.23395608097E+00  0.95468588136E-02  0.49460787556E+00  0.54723285905E+00  0.51100000000E-03 0.  1.
        -12    1    3    3    0    0 -0.25848671343E+02  0.72723748182E+01 -0.16380578656E+02  0.31454166700E+02  0.00000000000E+00 0.  1.
</event>
<event>
 7    1  0.4047706E-008  0.4614232E+02  0.7816164E-02  0.1320468E+00
        -11   -1    0    0    0    0  0.00000000000E+00  0.00000000000E+00  0.45593999997E+02  0.45594000000E+02  0.51100000000E-03 0.  1.
         11   -1    0    0    0    0 -0.00000000000E+00 -0.00000000000E+00 -0.45593999997E+02  0.45594000000E+02  0.51100000000E-03 0. -1.
    9900012    2    1    2    0    0 -0.17202098864E+02  0.32928081489E+02 -0.25474356738E+02  0.46142316444E+02  0.99999879865E+01 0.  0.
        -12    1    1    2    0    0  0.17202098864E+02 -0.32928081489E+02  0.25474356738E+02  0.45045683556E+02  0.00000000000E+00 0.  1.
         11    1    3    3    0    0 -0.32949160576E+01  0.38182557347E+01 -0.77237301281E+01  0.92245084441E+01  0.51100000000E-03 0. -1.
        -11    1    3    3    0    0 -0.20253311251E-01  0.11220606794E+01 -0.50479369482E+00  0.12305475612E+01  0.51100000000E-03 0.  1.
        -12    1    3    3    0    0 -0.13886929495E+02  0.27987765074E+02 -0.17245832915E+02  0.35687260438E+02  0.00000000000E+00 0.  1.
</event>
<event>
 7    1  0.4047706E-008  0.4614232E+02  0.7816164E-02  0.1320468E+00
        -11   -1    0    0    0    0  0.00000000000E+00  0.00000000000E+00  0.45593999997E+02  0.45594000000E+02  0.51100000000E-03 0.  1.
         11   -1    0    0    0    0 -0.00000000000E+00 -0.00000000000E+00 -0.45593999997E+02  0.45594000000E+02  0.51100000000E-03 0. -1.
    9900012    2    1    2    0    0 -0.24072158981E+02 -0.22892178224E+02 -0.30423557109E+02  0.46142317754E+02  0.99999999325E+01 0.  0.
        -12    1    1    2    0    0  0.24072158981E+02  0.22892178224E+02  0.30423557109E+02  0.45045682246E+02  0.00000000000E+00 0.  1.
         11    1    3    3    0    0 -0.63005645732E+01 -0.40064292002E+01 -0.77641856758E+01  0.10771776471E+02  0.51100000000E-03 0. -1.
        -11    1    3    3    0    0 -0.91962915890E+01 -0.43051692151E+01 -0.99104980004E+01  0.14188877046E+02  0.51100000000E-03 0.  1.
        -12    1    3    3    0    0 -0.85753028187E+01 -0.14580579809E+02 -0.12748873433E+02  0.21181664236E+02  0.00000000000E+00 0.  1.
</event>
<event>
 7    1  0.4047706E-008  0.4614232E+02  0.7816164E-02  0.1320468E+00
        -11   -1    0    0    0    0  0.00000000000E+00  0.00000000000E+00  0.45593999997E+02  0.45594000000E+02  0.51100000000E-03 0.  1.
         11   -1    0    0    0    0 -0.00000000000E+00 -0.00000000000E+00 -0.45593999997E+02  0.45594000000E+02  0.51100000000E-03 0. -1.
    9900012    2    1    2    0    0 -0.38124654566E+01  0.26761835842E+02 -0.36033078978E+02  0.46142317287E+02  0.99999956732E+01 0.  0.
        -12    1    1    2    0    0  0.38124654566E+01 -0.26761835842E+02  0.36033078978E+02  0.45045682713E+02  0.00000000000E+00 0.  1.
         11    1    3    3    0    0  0.15454017935E+01  0.48274052560E+01 -0.61492927171E+01  0.79690595047E+01  0.51100000000E-03 0. -1.
        -11    1    3    3    0    0 -0.43960640531E+01  0.68982621395E+01 -0.69543290533E+01  0.10736577320E+02  0.51100000000E-03 0.  1.
        -12    1    3    3    0    0 -0.96180319703E+00  0.15036168446E+02 -0.22929457208E+02  0.27436680462E+02  0.00000000000E+00 0.  1.
</event>
<event>
 7    1  0.4047706E-008  0.4614232E+02  0.7816164E-02  0.1320468E+00
        -11   -1    0    0    0    0  0.00000000000E+00  0.00000000000E+00  0.45593999997E+02  0.45594000000E+02  0.51100000000E-03 0.  1.
         11   -1    0    0    0    0 -0.00000000000E+00 -0.00000000000E+00 -0.45593999997E+02  0.45594000000E+02  0.51100000000E-03 0. -1.
    9900012    2    1    2    0    0  0.40450623212E+00  0.37703469038E+01 -0.44885791935E+02  0.46142318090E+02  0.10000002999E+02 0.  0.
        -12    1    1    2    0    0 -0.40450623212E+00 -0.37703469038E+01  0.44885791935E+02  0.45045681910E+02  0.00000000000E+00 0.  1.
         11    1    3    3    0    0  0.72459185534E+00 -0.50549616009E+00 -0.29236226929E+02  0.29249573075E+02  0.51100000000E-03 0. -1.
        -11    1    3    3    0    0 -0.11737578765E+01 -0.66027918917E+00 -0.30659610739E+01  0.33487003043E+01  0.51100000000E-03 0.  1.
        -12    1    3    3    0    0  0.85367225325E+00  0.49361222531E+01 -0.12583603932E+02  0.13544044711E+02  0.00000000000E+00 0.  1.
</event>
<event>
 7    1  0.4047706E-008  0.4614232E+02  0.7816164E-02  0.1320468E+00
        -11   -1    0    0    0    0  0.00000000000E+00  0.00000000000E+00  0.45593999997E+02  0.45594000000E+02  0.51100000000E-03 0.  1.
         11   -1    0    0    0    0 -0.00000000000E+00 -0.00000000000E+00 -0.45593999997E+02  0.45594000000E+02  0.51100000000E-03 0. -1.
    9900012    2    1    2    0    0 -0.37756947582E+01  0.13231907411E+02 -0.42892589730E+02  0.46142317650E+02  0.99999989897E+01 0.  0.
        -12    1    1    2    0    0  0.37756947582E+01 -0.13231907411E+02  0.42892589730E+02  0.45045682350E+02  0.00000000000E+00 0.  1.
         11    1    3    3    0    0  0.70612413989E+00  0.49567996196E+00 -0.44902430799E+00  0.97259087797E+00  0.51100000000E-03 0. -1.
        -11    1    3    3    0    0 -0.84821041910E+00  0.14000098499E+01 -0.73280062813E+00  0.17934563047E+01  0.51100000000E-03 0.  1.
         12    1    3    3    0    0 -0.36336084790E+01  0.11336217599E+02 -0.41710764794E+02  0.43376270468E+02  0.00000000000E+00 0. -1.
</event>
<event>
 7    1  0.4047706E-008  0.4614232E+02  0.7816164E-02  0.1320468E+00
        -11   -1    0    0    0    0  0.00000000000E+00  0.00000000000E+00  0.45593999997E+02  0.45594000000E+02  0.51100000000E-03 0.  1.
         11   -1    0    0    0    0 -0.00000000000E+00 -0.00000000000E+00 -0.45593999997E+02  0.45594000000E+02  0.51100000000E-03 0. -1.
    9900012    2    1    2    0    0 -0.38209224751E+02  0.13699800880E+02 -0.19531613239E+02  0.46142319675E+02  0.10000017452E+02 0.  0.
        -12    1    1    2    0    0  0.38209224751E+02 -0.13699800880E+02  0.19531613239E+02  0.45045680325E+02  0.00000000000E+00 0.  1.
         11    1    3    3    0    0 -0.25759217636E+02  0.68884585863E+01 -0.11099494372E+02  0.28882294412E+02  0.51100000000E-03 0. -1.
        -11    1    3    3    0    0 -0.97418542118E+01  0.74107578257E+01 -0.63326047955E+01  0.13781325727E+02  0.51100000000E-03 0.  1.
         12    1    3    3    0    0 -0.27081529031E+01 -0.59941553209E+00 -0.20995140713E+01  0.34786995360E+01  0.00000000000E+00 0. -1.
</event>
<event>
 7    1  0.4047706E-008  0.4614232E+02  0.7816164E-02  0.1320468E+00
        -11   -1    0    0    0    0  0.00000000000E+00  0.00000000000E+00  0.45593999997E+02  0.45594000000E+02  0.51100000000E-03 0. -1.
         11   -1    0    0    0    0 -0.00000000000E+00 -0.00000000000E+00 -0.45593999997E+02  0.45594000000E+02  0.51100000000E-03 0.  1.
    9900012    2    1    2    0    0  0.15592173920E+02  0.40099995983E+02 -0.13341216213E+02  0.46142316350E+02  0.99999871350E+01 0.  0.
        -12    1    1    2    0    0 -0.15592173920E+02 -0.40099995983E+02  0.13341216213E+02  0.45045683650E+02  0.00000000000E+00 0.  1.
         11    1    3    3    0    0  0.16637489766E+01  0.89449117946E+01 -0.24000802687E+01  0.94095639233E+01  0.51100000000E-03 0. -1.
        -11    1    3    3    0    0  0.11477431296E+02  0.18623064154E+02 -0.96118427420E+01  0.23894297830E+02  0.51100000000E-03 0.  1.
        -12    1    3    3    0    0  0.24509936475E+01  0.12532020035E+02 -0.13292932024E+01  0.12838454597E+02  0.00000000000E+00 0.  1.
</event>
<event>
 7    1  0.4047706E-008  0.4614232E+02  0.7816164E-02  0.1320468E+00
        -11   -1    0    0    0    0  0.00000000000E+00  0.00000000000E+00  0.45593999997E+02  0.45594000000E+02  0.51100000000E-03 0. -1.
         11   -1    0    0    0    0 -0.00000000000E+00 -0.00000000000E+00 -0.45593999997E+02  0.45594000000E+02  0.51100000000E-03 0.  1.
    9900012    2    1    2    0    0  0.34685356200E+02 -0.12830035547E+02  0.25718276545E+02  0.46142317684E+02  0.99999992987E+01 0.  0.
        -12    1    1    2    0    0 -0.34685356200E+02  0.12830035547E+02 -0.25718276545E+02  0.45045682316E+02  0.00000000000E+00 0.  1.
         11    1    3    3    0    0  0.24613258486E+02 -0.89589359081E+01  0.15922938403E+02  0.30653140028E+02  0.51100000000E-03 0.  1.
        -11    1    3    3    0    0  0.83266206104E+01 -0.24326894639E+01  0.45911732508E+01  0.98147573020E+01  0.51100000000E-03 0. -1.
         12    1    3    3    0    0  0.17454771038E+01 -0.14384101754E+01  0.52041648906E+01  0.56744203547E+01  0.00000000000E+00 0. -1.
</event>
<event>
 7    1  0.4047706E-008  0.4614232E+02  0.7816164E-02  0.1320468E+00
        -11   -1    0    0    0    0  0.00000000000E+00  0.00000000000E+00  0.45593999997E+02  0.45594000000E+02  0.51100000000E-03 0.  1.
         11   -1    0    0    0    0 -0.00000000000E+00 -0.00000000000E+00 -0.45593999997E+02  0.45594000000E+02  0.51100000000E-03 0. -1.
    9900012    2    1    2    0    0 -0.35638425944E+02 -0.21659329505E+02  0.17026144496E+02  0.46142317024E+02  0.99999932787E+01 0.  0.
        -12    1    1    2    0    0  0.35638425944E+02  0.21659329505E+02 -0.17026144496E+02  0.45045682976E+02  0.00000000000E+00 0.  1.
         11    1    3    3    0    0 -0.33050980854E+01 -0.23780049283E+01  0.30965590049E+01  0.51153942883E+01  0.51100000000E-03 0. -1.
        -11    1    3    3    0    0 -0.53633639170E+01 -0.23355106804E+01 -0.85341010862E+00  0.59117333937E+01  0.51100000000E-03 0.  1.
        -12    1    3    3    0    0 -0.26969963942E+02 -0.16945813897E+02  0.14782995599E+02  0.35115189342E+02  0.00000000000E+00 0.  1.
</event>
<event>
 7    1  0.4047706E-008  0.4614233E+02  0.7816164E-02  0.1320468E+00
        -11   -1    0    0    0    0  0.00000000000E+00  0.00000000000E+00  0.45593999997E+02  0.45594000000E+02  0.51100000000E-03 0. -1.
         11   -1    0    0    0    0 -0.00000000000E+00 -0.00000000000E+00 -0.45593999997E+02  0.45594000000E+02  0.51100000000E-03 0.  1.
    9900012    2    1    2    0    0  0.21633003664E+02  0.24282757183E+02  0.31168471022E+02  0.46142326181E+02  0.10000076783E+02 0.  0.
        -12    1    1    2    0    0 -0.21633003664E+02 -0.24282757183E+02 -0.31168471022E+02  0.45045673819E+02  0.00000000000E+00 0.  1.
         11    1    3    3    0    0  0.15862131758E+02  0.17302429085E+02  0.22423511985E+02  0.32462211356E+02  0.51100000000E-03 0. -1.
        -11    1    3    3    0    0  0.75736548531E+00  0.33410464250E+01  0.59890983651E+01  0.68996734111E+01  0.51100000000E-03 0.  1.
        -12    1    3    3    0    0  0.50135064210E+01  0.36392816725E+01  0.27558606720E+01  0.67804414140E+01  0.00000000000E+00 0.  1.
</event>
<event>
 7    1  0.4047706E-008  0.4614232E+02  0.7816164E-02  0.1320468E+00
        -11   -1    0    0    0    0  0.00000000000E+00  0.00000000000E+00  0.45593999997E+02  0.45594000000E+02  0.51100000000E-03 0. -1.
         11   -1    0    0    0    0 -0.00000000000E+00 -0.00000000000E+00 -0.45593999997E+02  0.45594000000E+02  0.51100000000E-03 0.  1.
    9900012    2    1    2    0    0  0.24803060811E+02 -0.24512360820E+02  0.28514309142E+02  0.46142317805E+02  0.10000000398E+02 0.  0.
        -12    1    1    2    0    0 -0.24803060811E+02  0.24512360820E+02 -0.28514309142E+02  0.45045682195E+02  0.00000000000E+00 0.  1.
         11    1    3    3    0    0  0.12520651451E+02 -0.15285304597E+02  0.19739905625E+02  0.27929753378E+02  0.51100000000E-03 0. -1.
        -11    1    3    3    0    0  0.68404799255E+00 -0.50527069604E+00 -0.50362009102E+00  0.98835903881E+00  0.51100000000E-03 0.  1.
         12    1    3    3    0    0  0.11598361367E+02 -0.87217855273E+01  0.92780236080E+01  0.17224205388E+02  0.00000000000E+00 0. -1.
</event>
<event>
 7    1  0.4047706E-008  0.4614232E+02  0.7816164E-02  0.1320468E+00
        -11   -1    0    0    0    0  0.00000000000E+00  0.00000000000E+00  0.45593999997E+02  0.45594000000E+02  0.51100000000E-03 0. -1.
         11   -1    0    0    0    0 -0.00000000000E+00 -0.00000000000E+00 -0.45593999997E+02  0.45594000000E+02  0.51100000000E-03 0.  1.
    9900012    2    1    2    0    0 -0.49843134120E+01  0.14492127582E+02  0.42358568248E+02  0.46142318231E+02  0.10000004284E+02 0.  0.
        -12    1    1    2    0    0  0.49843134120E+01 -0.14492127582E+02 -0.42358568248E+02  0.45045681769E+02  0.00000000000E+00 0.  1.
         11    1    3    3    0    0 -0.26362617834E+00  0.75141244709E+01  0.20046800961E+02  0.21410413223E+02  0.51100000000E-03 0.  1.
        -11    1    3    3    0    0  0.58325222319E+00  0.49370790644E+01  0.11081671382E+02  0.12145714212E+02  0.51100000000E-03 0. -1.
        -12    1    3    3    0    0 -0.53039394569E+01  0.20409240464E+01  0.11230095905E+02  0.12586190796E+02  0.00000000000E+00 0.  1.
</event>
<event>
 7    1  0.4047706E-008  0.4614232E+02  0.7816164E-02  0.1320468E+00
        -11   -1    0    0    0    0  0.00000000000E+00  0.00000000000E+00  0.45593999997E+02  0.45594000000E+02  0.51100000000E-03 0. -1.
         11   -1    0    0    0    0 -0.00000000000E+00 -0.00000000000E+00 -0.45593999997E+02  0.45594000000E+02  0.51100000000E-03 0.  1.
    9900012    2    1    2    0    0  0.32039760768E+02 -0.31254352442E+02  0.50727551481E+01  0.46142315840E+02  0.99999824810E+01 0.  0.
        -12    1    1    2    0    0 -0.32039760768E+02  0.31254352442E+02 -0.50727551481E+01  0.45045684160E+02  0.00000000000E+00 0.  1.
         11    1    3    3    0    0  0.85178681970E+01 -0.47877199125E+01  0.22455073233E+01  0.10025898662E+02  0.51100000000E-03 0.  1.
        -11    1    3    3    0    0  0.31691537781E+01 -0.21976440392E+01  0.21929292704E+01  0.44364528667E+01  0.51100000000E-03 0. -1.
         12    1    3    3    0    0  0.20352738793E+02 -0.24268988491E+02  0.63431855438E+00  0.31679964311E+02  0.00000000000E+00 0. -1.
</event>
<event>
 7    1  0.4047706E-008  0.4614232E+02  0.7816164E-02  0.1320468E+00
        -11   -1    0    0    0    0  0.00000000000E+00  0.00000000000E+00  0.45593999997E+02  0.45594000000E+02  0.51100000000E-03 0. -1.
         11   -1    0    0    0    0 -0.00000000000E+00 -0.00000000000E+00 -0.45593999997E+02  0.45594000000E+02  0.51100000000E-03 0.  1.
    9900012    2    1    2    0    0 -0.14765019571E+02  0.19838130424E+02  0.37650448686E+02  0.46142317544E+02  0.99999980197E+01 0.  0.
        -12    1    1    2    0    0  0.14765019571E+02 -0.19838130424E+02 -0.37650448686E+02  0.45045682456E+02  0.00000000000E+00 0.  1.
         11    1    3    3    0    0 -0.37960441961E+01  0.20784024360E+01  0.47358237132E+01  0.64154294266E+01  0.51100000000E-03 0. -1.
        -11    1    3    3    0    0 -0.91476433368E+01  0.15206583544E+02  0.21440624389E+02  0.27831994829E+02  0.51100000000E-03 0.  1.
         12    1    3    3    0    0 -0.18213320383E+01  0.25531444442E+01  0.11474000583E+02  0.11894893288E+02  0.00000000000E+00 0. -1.
</event>
<event>
 7    1  0.4047706E-008  0.4614232E+02  0.7816164E-02  0.1320468E+00
        -11   -1    0    0    0    0  0.00000000000E+00  0.00000000000E+00  0.45593999997E+02  0.45594000000E+02  0.51100000000E-03 0.  1.
         11   -1    0    0    0    0 -0.00000000000E+00 -0.00000000000E+00 -0.45593999997E+02  0.45594000000E+02  0.51100000000E-03 0. -1.
    9900012    2    1    2    0    0 -0.32918903694E+02 -0.27118601607E+02 -0.14492777402E+02  0.46142319071E+02  0.10000011945E+02 0.  0.
        -12    1    1    2    0    0  0.32918903694E+02  0.27118601607E+02  0.14492777402E+02  0.45045680929E+02  0.00000000000E+00 0.  1.
         11    1    3    3    0    0  0.39907701455E+00  0.24070370759E+00 -0.12104277551E+00  0.48151049108E+00  0.51100000000E-03 0.  1.
        -11    1    3    3    0    0 -0.15146923977E+02 -0.13085260391E+02 -0.89503955615E+01  0.21926306721E+02  0.51100000000E-03 0. -1.
        -12    1    3    3    0    0 -0.18171056732E+02 -0.14274044923E+02 -0.54213390649E+01  0.23734501859E+02  0.00000000000E+00 0.  1.
</event>
<event>
 7    1  0.4047706E-008  0.4614232E+02  0.7816164E-02  0.1320468E+00
        -11   -1    0    0    0    0  0.00000000000E+00  0.00000000000E+00  0.45593999997E+02  0.45594000000E+02  0.51100000000E-03 0.  1.
         11   -1    0    0    0    0 -0.00000000000E+00 -0.00000000000E+00 -0.45593999997E+02  0.45594000000E+02  0.51100000000E-03 0. -1.
    9900012    2    1    2    0    0 -0.91501403005E+01 -0.13127803451E+02 -0.42107590961E+02  0.46142317549E+02  0.99999980634E+01 0.  0.
        -12    1    1    2    0    0  0.91501403005E+01  0.13127803451E+02  0.42107590961E+02  0.45045682451E+02  0.00000000000E+00 0.  1.
         11    1    3    3    0    0  0.53949515365E-01 -0.23429699722E+01 -0.58108718077E+01  0.62656723716E+01  0.51100000000E-03 0. -1.
        -11    1    3    3    0    0  0.78189891779E+00  0.84429215687E+00 -0.19396784119E+01  0.22553376170E+01  0.51100000000E-03 0.  1.
        -12    1    3    3    0    0 -0.99859887336E+01 -0.11629125636E+02 -0.34357040741E+02  0.37621307560E+02  0.00000000000E+00 0.  1.
</event>
<event>
 7    1  0.4047706E-008  0.4614232E+02  0.7816164E-02  0.1320468E+00
        -11   -1    0    0    0    0  0.00000000000E+00  0.00000000000E+00  0.45593999997E+02  0.45594000000E+02  0.51100000000E-03 0.  1.
         11   -1    0    0    0    0 -0.00000000000E+00 -0.00000000000E+00 -0.45593999997E+02  0.45594000000E+02  0.51100000000E-03 0. -1.
    9900012    2    1    2    0    0 -0.24679212498E+02  0.32849160132E+02  0.18465713148E+02  0.46142318598E+02  0.10000007630E+02 0.  0.
        -12    1    1    2    0    0  0.24679212498E+02 -0.32849160132E+02 -0.18465713148E+02  0.45045681402E+02  0.00000000000E+00 0.  1.
         11    1    3    3    0    0 -0.43587324933E+01  0.11993821503E+01  0.20223494356E+01  0.49524704938E+01  0.51100000000E-03 0. -1.
        -11    1    3    3    0    0 -0.45204488894E+01  0.51976946040E+01  0.39592577943E+01  0.79452004318E+01  0.51100000000E-03 0.  1.
        -12    1    3    3    0    0 -0.15800031116E+02  0.26452083378E+02  0.12484105918E+02  0.33244647672E+02  0.00000000000E+00 0.  1.
</event>
<event>
 7    1  0.4047706E-008  0.4614232E+02  0.7816164E-02  0.1320468E+00
        -11   -1    0    0    0    0  0.00000000000E+00  0.00000000000E+00  0.45593999997E+02  0.45594000000E+02  0.51100000000E-03 0. -1.
         11   -1    0    0    0    0 -0.00000000000E+00 -0.00000000000E+00 -0.45593999997E+02  0.45594000000E+02  0.51100000000E-03 0.  1.
    9900012    2    1    2    0    0  0.36990173992E+02 -0.38105755600E+01  0.25422822772E+02  0.46142319012E+02  0.10000011404E+02 0.  0.
        -12    1    1    2    0    0 -0.36990173992E+02  0.38105755600E+01 -0.25422822772E+02  0.45045680988E+02  0.00000000000E+00 0.  1.
         11    1    3    3    0    0  0.17797528118E+02  0.62797905029E+00  0.15410120941E+02  0.23550333171E+02  0.51100000000E-03 0. -1.
        -11    1    3    3    0    0  0.72630215327E+01 -0.23085605505E+01  0.63851931123E+01  0.99424154481E+01  0.51100000000E-03 0.  1.
        -12    1    3    3    0    0  0.11929624341E+02 -0.21299940599E+01  0.36275087182E+01  0.12649570393E+02  0.00000000000E+00 0.  1.
</event>
<event>
 7    1  0.4047706E-008  0.4614232E+02  0.7816164E-02  0.1320468E+00
        -11   -1    0    0    0    0  0.00000000000E+00  0.00000000000E+00  0.45593999997E+02  0.45594000000E+02  0.51100000000E-03 0.  1.
         11   -1    0    0    0    0 -0.00000000000E+00 -0.00000000000E+00 -0.45593999997E+02  0.45594000000E+02  0.51100000000E-03 0. -1.
    9900012    2    1    2    0    0 -0.22401795155E+02  0.31260496493E+02 -0.23453240399E+02  0.46142317051E+02  0.99999935246E+01 0.  0.
        -12    1    1    2    0    0  0.22401795155E+02 -0.31260496493E+02  0.23453240399E+02  0.45045682949E+02  0.00000000000E+00 0.  1.
         11    1    3    3    0    0 -0.94390812163E+01  0.14248258886E+02 -0.58888839775E+01  0.18077281052E+02  0.51100000000E-03 0. -1.
        -11    1    3    3    0    0 -0.34974301649E+01  0.83543679645E+01 -0.75541972958E+01  0.11793785605E+02  0.51100000000E-03 0.  1.
        -12    1    3    3    0    0 -0.94652837735E+01  0.86578696425E+01 -0.10010159126E+02  0.16271250394E+02  0.00000000000E+00 0.  1.
</event>
<event>
 7    1  0.4047706E-008  0.4614232E+02  0.7816164E-02  0.1320468E+00
        -11   -1    0    0    0    0  0.00000000000E+00  0.00000000000E+00  0.45593999997E+02  0.45594000000E+02  0.51100000000E-03 0.  1.
         11   -1    0    0    0    0 -0.00000000000E+00 -0.00000000000E+00 -0.45593999997E+02  0.45594000000E+02  0.51100000000E-03 0. -1.
    9900012    2    1    2    0    0  0.41072635794E+02 -0.17075712922E+02 -0.71114072004E+01  0.46142317685E+02  0.99999993095E+01 0.  0.
        -12    1    1    2    0    0 -0.41072635794E+02  0.17075712922E+02  0.71114072004E+01  0.45045682315E+02  0.00000000000E+00 0.  1.
         11    1    3    3    0    0  0.72343280390E+00 -0.34937961972E+00 -0.19446566627E+01  0.21040700885E+01  0.51100000000E-03 0. -1.
        -11    1    3    3    0    0  0.26265948687E+02 -0.97494563641E+01 -0.32190826185E+01  0.28201320058E+02  0.51100000000E-03 0.  1.
         12    1    3    3    0    0  0.14083254303E+02 -0.69768769379E+01 -0.19476679193E+01  0.15836927539E+02  0.00000000000E+00 0. -1.
</event>
<event>
 7    1  0.4047706E-008  0.4614232E+02  0.7816164E-02  0.1320468E+00
        -11   -1    0    0    0    0  0.00000000000E+00  0.00000000000E+00  0.45593999997E+02  0.45594000000E+02  0.51100000000E-03 0.  1.
         11   -1    0    0    0    0 -0.00000000000E+00 -0.00000000000E+00 -0.45593999997E+02  0.45594000000E+02  0.51100000000E-03 0. -1.
    9900012    2    1    2    0    0  0.38378686189E+02 -0.82246433043E+01 -0.22103053884E+02  0.46142319829E+02  0.10000018855E+02 0.  0.
        -12    1    1    2    0    0 -0.38378686189E+02  0.82246433043E+01  0.22103053884E+02  0.45045680171E+02  0.00000000000E+00 0.  1.
         11    1    3    3    0    0  0.10180451519E+02 -0.36759153066E+01 -0.10276309076E+02  0.14925028475E+02  0.51100000000E-03 0. -1.
        -11    1    3    3    0    0  0.27444063006E+01 -0.11483397361E+01 -0.74467372051E-01  0.29759025089E+01  0.51100000000E-03 0.  1.
         12    1    3    3    0    0  0.25453828369E+02 -0.34003882616E+01 -0.11752277436E+02  0.28241388845E+02  0.00000000000E+00 0. -1.
</event>
<event>
 7    1  0.4047706E-008  0.4614232E+02  0.7816164E-02  0.1320468E+00
        -11   -1    0    0    0    0  0.00000000000E+00  0.00000000000E+00  0.45593999997E+02  0.45594000000E+02  0.51100000000E-03 0.  1.
         11   -1    0    0    0    0 -0.00000000000E+00 -0.00000000000E+00 -0.45593999997E+02  0.45594000000E+02  0.51100000000E-03 0. -1.
    9900012    2    1    2    0    0 -0.42650580064E+01  0.37585727011E+02 -0.24458862111E+02  0.46142317294E+02  0.99999957378E+01 0.  0.
        -12    1    1    2    0    0  0.42650580064E+01 -0.37585727011E+02  0.24458862111E+02  0.45045682706E+02  0.00000000000E+00 0.  1.
         11    1    3    3    0    0 -0.27218377611E+01  0.65654076560E+01 -0.70377228563E+01  0.10002125862E+02  0.51100000000E-03 0. -1.
        -11    1    3    3    0    0  0.22275575688E+01  0.14184960297E+02 -0.68765995723E+01  0.15920512972E+02  0.51100000000E-03 0.  1.
        -12    1    3    3    0    0 -0.37707778141E+01  0.16835359058E+02 -0.10544539682E+02  0.20219678460E+02  0.00000000000E+00 0.  1.
</event>
<event>
 7    1  0.4047706E-008  0.4614232E+02  0.7816164E-02  0.1320468E+00
        -11   -1    0    0    0    0  0.00000000000E+00  0.00000000000E+00  0.45593999997E+02  0.45594000000E+02  0.51100000000E-03 0.  1.
         11   -1    0    0    0    0 -0.00000000000E+00 -0.00000000000E+00 -0.45593999997E+02  0.45594000000E+02  0.51100000000E-03 0. -1.
    9900012    2    1    2    0    0  0.86723383409E+01  0.14628354340E+02 -0.41712291710E+02  0.46142317824E+02  0.10000000571E+02 0.  0.
        -12    1    1    2    0    0 -0.86723383409E+01 -0.14628354340E+02  0.41712291710E+02  0.45045682176E+02  0.00000000000E+00 0.  1.
         11    1    3    3    0    0  0.79208743988E+01  0.10528651650E+02 -0.24253658967E+02  0.27601317547E+02  0.51100000000E-03 0. -1.
        -11    1    3    3    0    0  0.26475655826E+01  0.29394621066E+01 -0.12393019131E+02  0.13009110824E+02  0.51100000000E-03 0.  1.
        -12    1    3    3    0    0 -0.18961016406E+01  0.11602405841E+01 -0.50656136125E+01  0.55318894526E+01  0.00000000000E+00 0.  1.
</event>
<event>
 7    1  0.4047706E-008  0.4614232E+02  0.7816164E-02  0.1320468E+00
        -11   -1    0    0    0    0  0.00000000000E+00  0.00000000000E+00  0.45593999997E+02  0.45594000000E+02  0.51100000000E-03 0. -1.
         11   -1    0    0    0    0 -0.00000000000E+00 -0.00000000000E+00 -0.45593999997E+02  0.45594000000E+02  0.51100000000E-03 0.  1.
    9900012    2    1    2    0    0 -0.36416443806E+02 -0.16238022741E+02  0.20959072507E+02  0.46142317828E+02  0.10000000610E+02 0.  0.
        -12    1    1    2    0    0  0.36416443806E+02  0.16238022741E+02 -0.20959072507E+02  0.45045682172E+02  0.00000000000E+00 0.  1.
         11    1    3    3    0    0 -0.10084997343E+02 -0.84052762102E+01  0.88459153017E+01  0.15830541916E+02  0.51100000000E-03 0. -1.
        -11    1    3    3    0    0 -0.12849952232E+02 -0.20128515078E+01  0.44388448825E+01  0.13743223338E+02  0.51100000000E-03 0.  1.
         12    1    3    3    0    0 -0.13481494230E+02 -0.58198950227E+01  0.76743123231E+01  0.16568552574E+02  0.00000000000E+00 0. -1.
</event>
<event>
 7    1  0.4047706E-008  0.4614232E+02  0.7816164E-02  0.1320468E+00
        -11   -1    0    0    0    0  0.00000000000E+00  0.00000000000E+00  0.45593999997E+02  0.45594000000E+02  0.51100000000E-03 0.  1.
         11   -1    0    0    0    0 -0.00000000000E+00 -0.00000000000E+00 -0.45593999997E+02  0.45594000000E+02  0.51100000000E-03 0. -1.
    9900012    2    1    2    0    0  0.41896434035E+02 -0.10570200269E+02  0.12730791699E+02  0.46142319010E+02  0.10000011386E+02 0.  0.
        -12    1    1    2    0    0 -0.41896434035E+02  0.10570200269E+02 -0.12730791699E+02  0.45045680990E+02  0.00000000000E+00 0.  1.
         11    1    3    3    0    0  0.14326104082E+02 -0.30952400873E+01  0.78563985603E+01  0.16629514965E+02  0.51100000000E-03 0. -1.
        -11    1    3    3    0    0  0.14600771708E+02 -0.57901497269E+01  0.48347616418E+01  0.16434210925E+02  0.51100000000E-03 0.  1.
         12    1    3    3    0    0  0.12969558245E+02 -0.16848104552E+01  0.39631497171E-01  0.13078593120E+02  0.00000000000E+00 0. -1.
</event>
<event>
 7    1  0.4047706E-008  0.4614232E+02  0.7816164E-02  0.1320468E+00
        -11   -1    0    0    0    0  0.00000000000E+00  0.00000000000E+00  0.45593999997E+02  0.45594000000E+02  0.51100000000E-03 0.  1.
         11   -1    0    0    0    0 -0.00000000000E+00 -0.00000000000E+00 -0.45593999997E+02  0.45594000000E+02  0.51100000000E-03 0. -1.
    9900012    2    1    2    0    0  0.41096968399E+01 -0.33780693083E+02 -0.29514210996E+02  0.46142317810E+02  0.10000000443E+02 0.  0.
        -12    1    1    2    0    0 -0.41096968399E+01  0.33780693083E+02  0.29514210996E+02  0.45045682190E+02  0.00000000000E+00 0.  1.
         11    1    3    3    0    0 -0.14135585237E+01 -0.69070969877E+01 -0.25256997673E+01  0.74890116887E+01  0.51100000000E-03 0.  1.
        -11    1    3    3    0    0 -0.49136527689E+00 -0.34731708142E+01 -0.35949570618E+01  0.50227554069E+01  0.51100000000E-03 0. -1.
        -12    1    3    3    0    0  0.60146206406E+01 -0.23400425281E+02 -0.23393554167E+02  0.33630550714E+02  0.00000000000E+00 0.  1.
</event>
<event>
 7    1  0.4047706E-008  0.4614231E+02  0.7816164E-02  0.1320468E+00
        -11   -1    0    0    0    0  0.00000000000E+00  0.00000000000E+00  0.45593999997E+02  0.45594000000E+02  0.51100000000E-03 0. -1.
         11   -1    0    0    0    0 -0.00000000000E+00 -0.00000000000E+00 -0.45593999997E+02  0.45594000000E+02  0.51100000000E-03 0.  1.
    9900012    2    1    2    0    0  0.12273633116E+02 -0.13123352336E+02  0.41306773252E+02  0.46142312494E+02  0.99999519709E+01 0.  0.
        -12    1    1    2    0    0 -0.12273633116E+02  0.13123352336E+02 -0.41306773252E+02  0.45045687506E+02  0.00000000000E+00 0.  1.
         11    1    3    3    0    0  0.50269819330E+01 -0.36473563215E+01  0.91442826643E+01  0.11054033707E+02  0.51100000000E-03 0. -1.
        -11    1    3    3    0    0 -0.13631122139E+01 -0.32437128377E+00  0.23490246693E+01  0.27351798470E+01  0.51100000000E-03 0.  1.
        -12    1    3    3    0    0  0.86097633968E+01 -0.91516247303E+01  0.29813465918E+02  0.32353098940E+02  0.00000000000E+00 0.  1.
</event>
<event>
 7    1  0.4047706E-008  0.4614232E+02  0.7816164E-02  0.1320468E+00
        -11   -1    0    0    0    0  0.00000000000E+00  0.00000000000E+00  0.45593999997E+02  0.45594000000E+02  0.51100000000E-03 0. -1.
         11   -1    0    0    0    0 -0.00000000000E+00 -0.00000000000E+00 -0.45593999997E+02  0.45594000000E+02  0.51100000000E-03 0.  1.
    9900012    2    1    2    0    0  0.28563191871E+02  0.26185592701E+02  0.22968944212E+02  0.46142316598E+02  0.99999893956E+01 0.  0.
        -12    1    1    2    0    0 -0.28563191871E+02 -0.26185592701E+02 -0.22968944212E+02  0.45045683402E+02  0.00000000000E+00 0.  1.
         11    1    3    3    0    0  0.46025075939E+01  0.52868783202E+01  0.21297505564E+01  0.73259809048E+01  0.51100000000E-03 0.  1.
        -11    1    3    3    0    0  0.17492258761E+01 -0.15583510485E+00  0.27577499452E+01  0.32694434950E+01  0.51100000000E-03 0. -1.
         12    1    3    3    0    0  0.22211458401E+02  0.21054549485E+02  0.18081443711E+02  0.35546892198E+02  0.00000000000E+00 0. -1.
</event>
<event>
 7    1  0.4047706E-008  0.4614232E+02  0.7816164E-02  0.1320468E+00
        -11   -1    0    0    0    0  0.00000000000E+00  0.00000000000E+00  0.45593999997E+02  0.45594000000E+02  0.51100000000E-03 0.  1.
         11   -1    0    0    0    0 -0.00000000000E+00 -0.00000000000E+00 -0.45593999997E+02  0.45594000000E+02  0.51100000000E-03 0. -1.
    9900012    2    1    2    0    0 -0.14848213240E+02 -0.39531830893E+02 -0.15680509642E+02  0.46142317934E+02  0.10000001574E+02 0.  0.
        -12    1    1    2    0    0  0.14848213240E+02  0.39531830893E+02  0.15680509642E+02  0.45045682066E+02  0.00000000000E+00 0.  1.
         11    1    3    3    0    0 -0.64356310603E+01 -0.16318676546E+02 -0.28934289914E+01  0.17778877437E+02  0.51100000000E-03 0. -1.
        -11    1    3    3    0    0 -0.30733340819E+01 -0.29714514856E+01 -0.12168162773E+01  0.44447214114E+01  0.51100000000E-03 0.  1.
        -12    1    3    3    0    0 -0.53392480982E+01 -0.20241702862E+02 -0.11570264374E+02  0.23918719085E+02  0.00000000000E+00 0.  1.
</event>
<event>
 7    1  0.4047706E-008  0.4614232E+02  0.7816164E-02  0.1320468E+00
        -11   -1    0    0    0    0  0.00000000000E+00  0.00000000000E+00  0.45593999997E+02  0.45594000000E+02  0.51100000000E-03 0.  1.
         11   -1    0    0    0    0 -0.00000000000E+00 -0.00000000000E+00 -0.45593999997E+02  0.45594000000E+02  0.51100000000E-03 0. -1.
    9900012    2    1    2    0    0 -0.17361170698E+02 -0.30722877833E+02 -0.27996572025E+02  0.46142317460E+02  0.99999972551E+01 0.  0.
        -12    1    1    2    0    0  0.17361170698E+02  0.30722877833E+02  0.27996572025E+02  0.45045682540E+02  0.00000000000E+00 0.  1.
         11    1    3    3    0    0 -0.16980727816E+01 -0.79681910015E+01 -0.65455584010E+01  0.10450830304E+02  0.51100000000E-03 0. -1.
        -11    1    3    3    0    0 -0.11826992463E+02 -0.13743548089E+02 -0.17278041623E+02  0.25045829740E+02  0.51100000000E-03 0.  1.
         12    1    3    3    0    0 -0.38361054536E+01 -0.90111387424E+01 -0.41729720008E+01  0.10645657415E+02  0.00000000000E+00 0. -1.
</event>
<event>
 7    1  0.4047706E-008  0.4614232E+02  0.7816164E-02  0.1320468E+00
        -11   -1    0    0    0    0  0.00000000000E+00  0.00000000000E+00  0.45593999997E+02  0.45594000000E+02  0.51100000000E-03 0.  1.
         11   -1    0    0    0    0 -0.00000000000E+00 -0.00000000000E+00 -0.45593999997E+02  0.45594000000E+02  0.51100000000E-03 0. -1.
    9900012    2    1    2    0    0 -0.10361523155E+02 -0.87942465565E+01 -0.42946634808E+02  0.46142319009E+02  0.10000011381E+02 0.  0.
        -12    1    1    2    0    0  0.10361523155E+02  0.87942465565E+01  0.42946634808E+02  0.45045680991E+02  0.00000000000E+00 0.  1.
         11    1    3    3    0    0  0.35249137857E+00 -0.34703964452E+00 -0.13981240576E+01  0.14830501773E+01  0.51100000000E-03 0. -1.
        -11    1    3    3    0    0 -0.81170772499E+01 -0.75339505286E+01 -0.19384950709E+02  0.22325404093E+02  0.51100000000E-03 0.  1.
         12    1    3    3    0    0 -0.25969372835E+01 -0.91325638342E+00 -0.22163560042E+02  0.22333864739E+02  0.00000000000E+00 0. -1.
</event>
<event>
 7    1  0.4047706E-008  0.4614232E+02  0.7816164E-02  0.1320468E+00
        -11   -1    0    0    0    0  0.00000000000E+00  0.00000000000E+00  0.45593999997E+02  0.45594000000E+02  0.51100000000E-03 0.  1.
         11   -1    0    0    0    0 -0.00000000000E+00 -0.00000000000E+00 -0.45593999997E+02  0.45594000000E+02  0.51100000000E-03 0. -1.
    9900012    2    1    2    0    0  0.26940299832E+02 -0.24971813234E+01 -0.36015247180E+02  0.46142315423E+02  0.99999786771E+01 0.  0.
        -12    1    1    2    0    0 -0.26940299832E+02  0.24971813234E+01  0.36015247180E+02  0.45045684577E+02  0.00000000000E+00 0.  1.
         11    1    3    3    0    0  0.19528551187E+02 -0.13413975819E+01 -0.19222202501E+02  0.27434589995E+02  0.51100000000E-03 0. -1.
        -11    1    3    3    0    0 -0.23484995280E+00  0.16882329081E+00 -0.11259576711E+00  0.31037698326E+00  0.51100000000E-03 0.  1.
         12    1    3    3    0    0  0.76465985987E+01 -0.13246070322E+01 -0.16680448911E+02  0.18397348445E+02  0.00000000000E+00 0. -1.
</event>
<event>
 7    1  0.4047706E-008  0.4614232E+02  0.7816164E-02  0.1320468E+00
        -11   -1    0    0    0    0  0.00000000000E+00  0.00000000000E+00  0.45593999997E+02  0.45594000000E+02  0.51100000000E-03 0. -1.
         11   -1    0    0    0    0 -0.00000000000E+00 -0.00000000000E+00 -0.45593999997E+02  0.45594000000E+02  0.51100000000E-03 0.  1.
    9900012    2    1    2    0    0 -0.34383982479E+02 -0.15830005759E+02  0.24418560101E+02  0.46142318622E+02  0.10000007847E+02 0.  0.
        -12    1    1    2    0    0  0.34383982479E+02  0.15830005759E+02 -0.24418560101E+02  0.45045681378E+02  0.00000000000E+00 0.  1.
         11    1    3    3    0    0 -0.17299115001E+02 -0.63236588474E+01  0.79850617361E+01  0.20075090341E+02  0.51100000000E-03 0. -1.
        -11    1    3    3    0    0 -0.33325917098E+01 -0.40467435944E+00  0.49128586157E+01  0.59503032595E+01  0.51100000000E-03 0.  1.
        -12    1    3    3    0    0 -0.13752275769E+02 -0.91016725522E+01  0.11520639749E+02  0.20116925021E+02  0.00000000000E+00 0.  1.
</event>
<event>
 7    1  0.4047706E-008  0.4614232E+02  0.7816164E-02  0.1320468E+00
        -11   -1    0    0    0    0  0.00000000000E+00  0.00000000000E+00  0.45593999997E+02  0.45594000000E+02  0.51100000000E-03 0.  1.
         11   -1    0    0    0    0 -0.00000000000E+00 -0.00000000000E+00 -0.45593999997E+02  0.45594000000E+02  0.51100000000E-03 0. -1.
    9900012    2    1    2    0    0  0.40221940708E+02  0.31884646452E+01 -0.20028548767E+02  0.46142316669E+02  0.99999900380E+01 0.  0.
        -12    1    1    2    0    0 -0.40221940708E+02 -0.31884646452E+01  0.20028548767E+02  0.45045683331E+02  0.00000000000E+00 0.  1.
         11    1    3    3    0    0  0.61477379516E+01 -0.16696669250E+01 -0.19313405342E+01  0.66567669392E+01  0.51100000000E-03 0. -1.
        -11    1    3    3    0    0  0.80850402575E+01  0.25152024149E+01 -0.75348055328E+01  0.11334346643E+02  0.51100000000E-03 0.  1.
        -12    1    3    3    0    0  0.25989162499E+02  0.23429291552E+01 -0.10562402700E+02  0.28151203086E+02  0.00000000000E+00 0.  1.
</event>
<event>
 7    1  0.4047706E-008  0.4614232E+02  0.7816164E-02  0.1320468E+00
        -11   -1    0    0    0    0  0.00000000000E+00  0.00000000000E+00  0.45593999997E+02  0.45594000000E+02  0.51100000000E-03 0.  1.
         11   -1    0    0    0    0 -0.00000000000E+00 -0.00000000000E+00 -0.45593999997E+02  0.45594000000E+02  0.51100000000E-03 0. -1.
    9900012    2    1    2    0    0 -0.34946924300E+02 -0.16144163796E+02 -0.23392137616E+02  0.46142316023E+02  0.99999841476E+01 0.  0.
        -12    1    1    2    0    0  0.34946924300E+02  0.16144163796E+02  0.23392137616E+02  0.45045683977E+02  0.00000000000E+00 0.  1.
         11    1    3    3    0    0 -0.13118377629E+02 -0.10266458996E+02 -0.13148189981E+02  0.21221849871E+02  0.51100000000E-03 0. -1.
        -11    1    3    3    0    0 -0.72098260879E+01 -0.17592402824E+01 -0.22362360968E+01  0.77509528918E+01  0.51100000000E-03 0.  1.
         12    1    3    3    0    0 -0.14618720583E+02 -0.41184645174E+01 -0.80077115387E+01  0.17169513259E+02  0.00000000000E+00 0. -1.
</event>
<event>
 7    1  0.4047706E-008  0.4614232E+02  0.7816164E-02  0.1320468E+00
        -11   -1    0    0    0    0  0.00000000000E+00  0.00000000000E+00  0.45593999997E+02  0.45594000000E+02  0.51100000000E-03 0.  1.
         11   -1    0    0    0    0 -0.00000000000E+00 -0.00000000000E+00 -0.45593999997E+02  0.45594000000E+02  0.51100000000E-03 0. -1.
    9900012    2    1    2    0    0  0.10956424350E+02  0.43164980899E+02 -0.67715980581E+01  0.46142319288E+02  0.10000013921E+02 0.  0.
        -12    1    1    2    0    0 -0.10956424350E+02 -0.43164980899E+02  0.67715980581E+01  0.45045680712E+02  0.00000000000E+00 0.  1.
         11    1    3    3    0    0  0.48044787671E+01  0.25641766237E+02 -0.80202440811E+01  0.27292993741E+02  0.51100000000E-03 0. -1.
        -11    1    3    3    0    0  0.15367071729E+01  0.15678185091E+01  0.25572597589E+00  0.22101854783E+01  0.51100000000E-03 0.  1.
         12    1    3    3    0    0  0.46152384099E+01  0.15955396154E+02  0.99292004714E+00  0.16639140069E+02  0.00000000000E+00 0. -1.
</event>
<event>
 7    1  0.4047706E-008  0.4614232E+02  0.7816164E-02  0.1320468E+00
        -11   -1    0    0    0    0  0.00000000000E+00  0.00000000000E+00  0.45593999997E+02  0.45594000000E+02  0.51100000000E-03 0.  1.
         11   -1    0    0    0    0 -0.00000000000E+00 -0.00000000000E+00 -0.45593999997E+02  0.45594000000E+02  0.51100000000E-03 0. -1.
    9900012    2    1    2    0    0  0.13309643662E+02 -0.41232575481E+02 -0.12322396857E+02  0.46142319192E+02  0.10000013044E+02 0.  0.
        -12    1    1    2    0    0 -0.13309643662E+02  0.41232575481E+02  0.12322396857E+02  0.45045680808E+02  0.00000000000E+00 0.  1.
         11    1    3    3    0    0  0.71324906316E+01 -0.21330900224E+02 -0.83445413711E+01  0.23989812378E+02  0.51100000000E-03 0.  1.
        -11    1    3    3    0    0  0.18298528175E+01 -0.11815590704E+02 -0.49086211953E+01  0.12924825233E+02  0.51100000000E-03 0. -1.
        -12    1    3    3    0    0  0.43473002126E+01 -0.80860845533E+01  0.93076570934E+00  0.92276815803E+01  0.00000000000E+00 0.  1.
</event>
<event>
 7    1  0.4047706E-008  0.4614232E+02  0.7816164E-02  0.1320468E+00
        -11   -1    0    0    0    0  0.00000000000E+00  0.00000000000E+00  0.45593999997E+02  0.45594000000E+02  0.51100000000E-03 0.  1.
         11   -1    0    0    0    0 -0.00000000000E+00 -0.00000000000E+00 -0.45593999997E+02  0.45594000000E+02  0.51100000000E-03 0. -1.
    9900012    2    1    2    0    0 -0.16587352738E+02 -0.27037053814E+02 -0.31983917712E+02  0.46142317165E+02  0.99999945674E+01 0.  0.
        -12    1    1    2    0    0  0.16587352738E+02  0.27037053814E+02  0.31983917712E+02  0.45045682835E+02  0.00000000000E+00 0.  1.
         11    1    3    3    0    0 -0.33011190950E+01 -0.46931638092E+01 -0.56670315931E+01  0.80646401753E+01  0.51100000000E-03 0. -1.
        -11    1    3    3    0    0  0.46274011496E+00 -0.17598166357E+01  0.16626658220E+00  0.18272186084E+01  0.51100000000E-03 0.  1.
        -12    1    3    3    0    0 -0.13748973758E+02 -0.20584073369E+02 -0.26483152702E+02  0.36250458382E+02  0.00000000000E+00 0.  1.
</event>
<event>
 7    1  0.4047706E-008  0.4614232E+02  0.7816164E-02  0.1320468E+00
        -11   -1    0    0    0    0  0.00000000000E+00  0.00000000000E+00  0.45593999997E+02  0.45594000000E+02  0.51100000000E-03 0.  1.
         11   -1    0    0    0    0 -0.00000000000E+00 -0.00000000000E+00 -0.45593999997E+02  0.45594000000E+02  0.51100000000E-03 0. -1.
    9900012    2    1    2    0    0  0.89209414836E+01 -0.44077419938E+02 -0.25906392223E+01  0.46142317000E+02  0.99999930602E+01 0.  0.
        -12    1    1    2    0    0 -0.89209414836E+01  0.44077419938E+02  0.25906392223E+01  0.45045683000E+02  0.00000000000E+00 0.  1.
         11    1    3    3    0    0  0.50293708448E+01 -0.13724903991E+02  0.58432113823E+00  0.14629046179E+02  0.51100000000E-03 0. -1.
        -11    1    3    3    0    0  0.71480504241E+00 -0.33359630072E+01 -0.26256013943E+01  0.43050410424E+01  0.51100000000E-03 0.  1.
         12    1    3    3    0    0  0.31767655964E+01 -0.27016552940E+02 -0.54935896613E+00  0.27208229778E+02  0.00000000000E+00 0. -1.
</event>
<event>
 7    1  0.4047706E-008  0.4614232E+02  0.7816164E-02  0.1320468E+00
        -11   -1    0    0    0    0  0.00000000000E+00  0.00000000000E+00  0.45593999997E+02  0.45594000000E+02  0.51100000000E-03 0.  1.
         11   -1    0    0    0    0 -0.00000000000E+00 -0.00000000000E+00 -0.45593999997E+02  0.45594000000E+02  0.51100000000E-03 0. -1.
    9900012    2    1    2    0    0  0.10241894396E+02 -0.40462829122E+02 -0.16940381910E+02  0.46142317846E+02  0.10000000777E+02 0.  0.
        -12    1    1    2    0    0 -0.10241894396E+02  0.40462829122E+02  0.16940381910E+02  0.45045682154E+02  0.00000000000E+00 0.  1.
         11    1    3    3    0    0  0.88971582433E+01 -0.24701870352E+02 -0.91309918315E+01  0.27797784728E+02  0.51100000000E-03 0. -1.
        -11    1    3    3    0    0  0.36684729661E+00 -0.11547344207E+02 -0.31247667917E+01  0.11968287385E+02  0.51100000000E-03 0.  1.
        -12    1    3    3    0    0  0.97788885632E+00 -0.42136145634E+01 -0.46846232873E+01  0.63762457330E+01  0.00000000000E+00 0.  1.
</event>
<event>
 7    1  0.4047706E-008  0.4614232E+02  0.7816164E-02  0.1320468E+00
        -11   -1    0    0    0    0  0.00000000000E+00  0.00000000000E+00  0.45593999997E+02  0.45594000000E+02  0.51100000000E-03 0.  1.
         11   -1    0    0    0    0 -0.00000000000E+00 -0.00000000000E+00 -0.45593999997E+02  0.45594000000E+02  0.51100000000E-03 0. -1.
    9900012    2    1    2    0    0 -0.33112746505E+02 -0.15103921621E+02 -0.26543004803E+02  0.46142317261E+02  0.99999954398E+01 0.  0.
        -12    1    1    2    0    0  0.33112746505E+02  0.15103921621E+02  0.26543004803E+02  0.45045682739E+02  0.00000000000E+00 0.  1.
         11    1    3    3    0    0 -0.18600605238E+01 -0.30286054097E+01 -0.15586415692E+01  0.38809328366E+01  0.51100000000E-03 0. -1.
        -11    1    3    3    0    0 -0.16142244561E+02 -0.29967335045E+01 -0.11036336417E+02  0.19782648784E+02  0.51100000000E-03 0.  1.
        -12    1    3    3    0    0 -0.15110441420E+02 -0.90785827071E+01 -0.13948026817E+02  0.22478735640E+02  0.00000000000E+00 0.  1.
</event>
<event>
 7    1  0.4047706E-008  0.4614232E+02  0.7816164E-02  0.1320468E+00
        -11   -1    0    0    0    0  0.00000000000E+00  0.00000000000E+00  0.45593999997E+02  0.45594000000E+02  0.51100000000E-03 0. -1.
         11   -1    0    0    0    0 -0.00000000000E+00 -0.00000000000E+00 -0.45593999997E+02  0.45594000000E+02  0.51100000000E-03 0.  1.
    9900012    2    1    2    0    0  0.11495060676E+01 -0.24613436028E+02  0.37709025309E+02  0.46142321106E+02  0.10000030499E+02 0.  0.
        -12    1    1    2    0    0 -0.11495060676E+01  0.24613436028E+02 -0.37709025309E+02  0.45045678894E+02  0.00000000000E+00 0.  1.
         11    1    3    3    0    0 -0.68770164291E+00 -0.17404368307E+02  0.29829465824E+02  0.34542466636E+02  0.51100000000E-03 0. -1.
        -11    1    3    3    0    0  0.20372230441E+01 -0.71573877839E+01  0.82901361056E+01  0.11140234941E+02  0.51100000000E-03 0.  1.
         12    1    3    3    0    0 -0.20001533357E+00 -0.51679937409E-01 -0.41057662100E+00  0.45961952886E+00  0.00000000000E+00 0. -1.
</event>
<event>
 7    1  0.4047706E-008  0.4614232E+02  0.7816164E-02  0.1320468E+00
        -11   -1    0    0    0    0  0.00000000000E+00  0.00000000000E+00  0.45593999997E+02  0.45594000000E+02  0.51100000000E-03 0.  1.
         11   -1    0    0    0    0 -0.00000000000E+00 -0.00000000000E+00 -0.45593999997E+02  0.45594000000E+02  0.51100000000E-03 0. -1.
    9900012    2    1    2    0    0 -0.31887777816E+01  0.25285946234E+02 -0.37142509876E+02  0.46142318513E+02  0.10000006860E+02 0.  0.
        -12    1    1    2    0    0  0.31887777816E+01 -0.25285946234E+02  0.37142509876E+02  0.45045681487E+02  0.00000000000E+00 0.  1.
         11    1    3    3    0    0 -0.45683085331E+00  0.16821218781E+02 -0.18066794815E+02  0.24689495152E+02  0.51100000000E-03 0. -1.
        -11    1    3    3    0    0 -0.27877767428E+00 -0.40485511934E+00 -0.19519707575E+01  0.20129120097E+01  0.51100000000E-03 0.  1.
        -12    1    3    3    0    0 -0.24531692540E+01  0.88695825729E+01 -0.17123744303E+02  0.19439911352E+02  0.00000000000E+00 0.  1.
</event>
<event>
 7    1  0.4047706E-008  0.4614232E+02  0.7816164E-02  0.1320468E+00
        -11   -1    0    0    0    0  0.00000000000E+00  0.00000000000E+00  0.45593999997E+02  0.45594000000E+02  0.51100000000E-03 0.  1.
         11   -1    0    0    0    0 -0.00000000000E+00 -0.00000000000E+00 -0.45593999997E+02  0.45594000000E+02  0.51100000000E-03 0. -1.
    9900012    2    1    2    0    0  0.21345562873E+02 -0.38089873516E+02 -0.11074380345E+02  0.46142318532E+02  0.10000007034E+02 0.  0.
        -12    1    1    2    0    0 -0.21345562873E+02  0.38089873516E+02  0.11074380345E+02  0.45045681468E+02  0.00000000000E+00 0.  1.
         11    1    3    3    0    0  0.13346241679E+02 -0.19148825805E+02 -0.44634740417E+01  0.23763886413E+02  0.51100000000E-03 0. -1.
        -11    1    3    3    0    0  0.50914501132E+00 -0.53137790060E+01  0.33274003863E+00  0.53484756858E+01  0.51100000000E-03 0.  1.
        -12    1    3    3    0    0  0.74901761832E+01 -0.13627268705E+02 -0.69436463424E+01  0.17029956434E+02  0.00000000000E+00 0.  1.
</event>
<event>
 7    1  0.4047706E-008  0.4614232E+02  0.7816164E-02  0.1320468E+00
        -11   -1    0    0    0    0  0.00000000000E+00  0.00000000000E+00  0.45593999997E+02  0.45594000000E+02  0.51100000000E-03 0. -1.
         11   -1    0    0    0    0 -0.00000000000E+00 -0.00000000000E+00 -0.45593999997E+02  0.45594000000E+02  0.51100000000E-03 0.  1.
    9900012    2    1    2    0    0 -0.82902407623E+01 -0.14373633584E+02  0.41878205683E+02  0.46142317127E+02  0.99999942169E+01 0.  0.
        -12    1    1    2    0    0  0.82902407623E+01  0.14373633584E+02 -0.41878205683E+02  0.45045682873E+02  0.00000000000E+00 0.  1.
         11    1    3    3    0    0 -0.10196622127E+01 -0.16428319683E+01  0.11258362167E+02  0.11423192498E+02  0.51100000000E-03 0. -1.
        -11    1    3    3    0    0 -0.57238589901E+01 -0.41815408261E+01  0.18461793703E+02  0.19775886134E+02  0.51100000000E-03 0.  1.
         12    1    3    3    0    0 -0.15467195594E+01 -0.85492607896E+01  0.12158049813E+02  0.14943238494E+02  0.00000000000E+00 0. -1.
</event>
<event>
 7    1  0.4047706E-008  0.4614232E+02  0.7816164E-02  0.1320468E+00
        -11   -1    0    0    0    0  0.00000000000E+00  0.00000000000E+00  0.45593999997E+02  0.45594000000E+02  0.51100000000E-03 0. -1.
         11   -1    0    0    0    0 -0.00000000000E+00 -0.00000000000E+00 -0.45593999997E+02  0.45594000000E+02  0.51100000000E-03 0.  1.
    9900012    2    1    2    0    0 -0.31888361601E+02 -0.28996394016E+02  0.13094085967E+02  0.46142316979E+02  0.99999928647E+01 0.  0.
        -12    1    1    2    0    0  0.31888361601E+02  0.28996394016E+02 -0.13094085967E+02  0.45045683021E+02  0.00000000000E+00 0.  1.
         11    1    3    3    0    0 -0.22822464343E+02 -0.16545064166E+02  0.11602109690E+02  0.30482994873E+02  0.51100000000E-03 0. -1.
        -11    1    3    3    0    0 -0.70483573053E+01 -0.77726293901E+01  0.95210913597E+00  0.10535635738E+02  0.51100000000E-03 0.  1.
         12    1    3    3    0    0 -0.20175399532E+01 -0.46787004600E+01  0.53986714061E+00  0.51236863670E+01  0.00000000000E+00 0. -1.
</event>
<event>
 7    1  0.4047706E-008  0.4614233E+02  0.7816164E-02  0.1320468E+00
        -11   -1    0    0    0    0  0.00000000000E+00  0.00000000000E+00  0.45593999997E+02  0.45594000000E+02  0.51100000000E-03 0.  1.
         11   -1    0    0    0    0 -0.00000000000E+00 -0.00000000000E+00 -0.45593999997E+02  0.45594000000E+02  0.51100000000E-03 0. -1.
    9900012    2    1    2    0    0  0.14337419855E+02 -0.29667358980E+02 -0.30714789470E+02  0.46142333292E+02  0.10000141625E+02 0.  0.
        -12    1    1    2    0    0 -0.14337419855E+02  0.29667358980E+02  0.30714789470E+02  0.45045666708E+02  0.00000000000E+00 0.  1.
         11    1    3    3    0    0  0.65860202927E+01 -0.13422217559E+02 -0.15845676492E+02  0.21785707499E+02  0.51100000000E-03 0. -1.
        -11    1    3    3    0    0  0.21962473593E+01 -0.33491576714E+00 -0.30484230099E+01  0.37720755749E+01  0.51100000000E-03 0.  1.
        -12    1    3    3    0    0  0.55551522029E+01 -0.15910225654E+02 -0.11820689969E+02  0.20584550218E+02  0.00000000000E+00 0.  1.
</event>
<event>
 7    1  0.4047706E-008  0.4614232E+02  0.7816164E-02  0.1320468E+00
        -11   -1    0    0    0    0  0.00000000000E+00  0.00000000000E+00  0.45593999997E+02  0.45594000000E+02  0.51100000000E-03 0. -1.
         11   -1    0    0    0    0 -0.00000000000E+00 -0.00000000000E+00 -0.45593999997E+02  0.45594000000E+02  0.51100000000E-03 0.  1.
    9900012    2    1    2    0    0  0.44546431323E+02 -0.11039462434E+00  0.66870544427E+01  0.46142318435E+02  0.10000006143E+02 0.  0.
        -12    1    1    2    0    0 -0.44546431323E+02  0.11039462434E+00 -0.66870544427E+01  0.45045681565E+02  0.00000000000E+00 0.  1.
         11    1    3    3    0    0  0.19420826135E+02  0.14431535864E+00 -0.85400452238E+00  0.19440129596E+02  0.51100000000E-03 0.  1.
        -11    1    3    3    0    0  0.51436008442E+01 -0.20724260893E+01  0.18574146596E+01  0.58482107536E+01  0.51100000000E-03 0. -1.
         12    1    3    3    0    0  0.19982004343E+02  0.18177161064E+01  0.56836443054E+01  0.20853978086E+02  0.00000000000E+00 0. -1.
</event>
<event>
 7    1  0.4047706E-008  0.4614232E+02  0.7816164E-02  0.1320468E+00
        -11   -1    0    0    0    0  0.00000000000E+00  0.00000000000E+00  0.45593999997E+02  0.45594000000E+02  0.51100000000E-03 0. -1.
         11   -1    0    0    0    0 -0.00000000000E+00 -0.00000000000E+00 -0.45593999997E+02  0.45594000000E+02  0.51100000000E-03 0.  1.
    9900012    2    1    2    0    0  0.27140633920E+02  0.35864303855E+02 -0.25002380543E+01  0.46142317733E+02  0.99999997424E+01 0.  0.
        -12    1    1    2    0    0 -0.27140633920E+02 -0.35864303855E+02  0.25002380543E+01  0.45045682267E+02  0.00000000000E+00 0.  1.
         11    1    3    3    0    0  0.62582710602E+01  0.53234636096E+01  0.71713781248E+00  0.82473940350E+01  0.51100000000E-03 0. -1.
        -11    1    3    3    0    0  0.21353995837E+02  0.30453418914E+02 -0.28739806103E+01  0.37305008063E+02  0.51100000000E-03 0.  1.
        -12    1    3    3    0    0 -0.47163297734E+00  0.87421331838E-01 -0.34339525648E+00  0.58991563528E+00  0.00000000000E+00 0.  1.
</event>
<event>
 7    1  0.4047706E-008  0.4614232E+02  0.7816164E-02  0.1320468E+00
        -11   -1    0    0    0    0  0.00000000000E+00  0.00000000000E+00  0.45593999997E+02  0.45594000000E+02  0.51100000000E-03 0.  1.
         11   -1    0    0    0    0 -0.00000000000E+00 -0.00000000000E+00 -0.45593999997E+02  0.45594000000E+02  0.51100000000E-03 0. -1.
    9900012    2    1    2    0    0 -0.16652783497E+02 -0.25006064507E+02 -0.33563299200E+02  0.46142317482E+02  0.99999974592E+01 0.  0.
        -12    1    1    2    0    0  0.16652783497E+02  0.25006064507E+02  0.33563299200E+02  0.45045682518E+02  0.00000000000E+00 0.  1.
         11    1    3    3    0    0 -0.59581508115E+01 -0.11246850490E+02 -0.13499226875E+02  0.18553175834E+02  0.51100000000E-03 0. -1.
        -11    1    3    3    0    0 -0.10513140548E+02 -0.81892859900E+01 -0.14921813558E+02  0.20006275249E+02  0.51100000000E-03 0.  1.
        -12    1    3    3    0    0 -0.18149213761E+00 -0.55699280267E+01 -0.51422587671E+01  0.75828664004E+01  0.00000000000E+00 0.  1.
</event>
<event>
 7    1  0.4047706E-008  0.4614232E+02  0.7816164E-02  0.1320468E+00
        -11   -1    0    0    0    0  0.00000000000E+00  0.00000000000E+00  0.45593999997E+02  0.45594000000E+02  0.51100000000E-03 0.  1.
         11   -1    0    0    0    0 -0.00000000000E+00 -0.00000000000E+00 -0.45593999997E+02  0.45594000000E+02  0.51100000000E-03 0. -1.
    9900012    2    1    2    0    0  0.39331148554E+02 -0.20703426714E+02 -0.73172698298E+01  0.46142316944E+02  0.99999925462E+01 0.  0.
        -12    1    1    2    0    0 -0.39331148554E+02  0.20703426714E+02  0.73172698298E+01  0.45045683056E+02  0.00000000000E+00 0.  1.
         11    1    3    3    0    0  0.21145007892E+02 -0.82229523442E+01 -0.72636062561E+01  0.23822012512E+02  0.51100000000E-03 0. -1.
        -11    1    3    3    0    0  0.84321641856E+01 -0.71539444948E+01 -0.13124178403E+01  0.11135652452E+02  0.51100000000E-03 0.  1.
        -12    1    3    3    0    0  0.97539764764E+01 -0.53265298745E+01  0.12587542665E+01  0.11184651980E+02  0.00000000000E+00 0.  1.
</event>
<event>
 7    1  0.4047706E-008  0.4614232E+02  0.7816164E-02  0.1320468E+00
        -11   -1    0    0    0    0  0.00000000000E+00  0.00000000000E+00  0.45593999997E+02  0.45594000000E+02  0.51100000000E-03 0.  1.
         11   -1    0    0    0    0 -0.00000000000E+00 -0.00000000000E+00 -0.45593999997E+02  0.45594000000E+02  0.51100000000E-03 0. -1.
    9900012    2    1    2    0    0 -0.10605579937E+02 -0.36552818209E+02 -0.24094113051E+02  0.46142321755E+02  0.10000036423E+02 0.  0.
        -12    1    1    2    0    0  0.10605579937E+02  0.36552818209E+02  0.24094113051E+02  0.45045678245E+02  0.00000000000E+00 0.  1.
         11    1    3    3    0    0 -0.68069724338E+01 -0.19780197383E+02 -0.17257649207E+02  0.27118582902E+02  0.51100000000E-03 0. -1.
        -11    1    3    3    0    0 -0.10186979756E+01 -0.63467533998E+00  0.16993485539E+00  0.12122031467E+01  0.51100000000E-03 0.  1.
        -12    1    3    3    0    0 -0.27799095274E+01 -0.16137945486E+02 -0.70063986998E+01  0.17811535707E+02  0.00000000000E+00 0.  1.
</event>
<event>
 7    1  0.4630912E-008  0.4614232E+02  0.7816164E-02  0.1320468E+00
        -11   -1    0    0    0    0  0.00000000000E+00  0.00000000000E+00  0.45593999997E+02  0.45594000000E+02  0.51100000000E-03 0.  1.
         11   -1    0    0    0    0 -0.00000000000E+00 -0.00000000000E+00 -0.45593999997E+02  0.45594000000E+02  0.51100000000E-03 0. -1.
    9900012    2    1    2    0    0 -0.16136146563E+02  0.35699667879E+02 -0.22232228602E+02  0.46142317619E+02  0.99999987026E+01 0.  0.
        -12    1    1    2    0    0  0.16136146563E+02 -0.35699667879E+02  0.22232228602E+02  0.45045682381E+02  0.00000000000E+00 0.  1.
         11    1    3    3    0    0 -0.44873249752E+01  0.47008216263E+01 -0.32889818020E+01  0.72836262226E+01  0.51100000000E-03 0. -1.
        -11    1    3    3    0    0 -0.21132482462E+01  0.27334728532E+01  0.12002837413E+00  0.34571807967E+01  0.51100000000E-03 0.  1.
         12    1    3    3    0    0 -0.95355733417E+01  0.28265373399E+02 -0.19063275174E+02  0.35401510600E+02  0.00000000000E+00 0. -1.
</event>
<event>
 7    1  0.4047706E-008  0.4614232E+02  0.7816164E-02  0.1320468E+00
        -11   -1    0    0    0    0  0.00000000000E+00  0.00000000000E+00  0.45593999997E+02  0.45594000000E+02  0.51100000000E-03 0. -1.
         11   -1    0    0    0    0 -0.00000000000E+00 -0.00000000000E+00 -0.45593999997E+02  0.45594000000E+02  0.51100000000E-03 0.  1.
    9900012    2    1    2    0    0 -0.23037087148E+02  0.28703950304E+02  0.25970932372E+02  0.46142317904E+02  0.10000001299E+02 0.  0.
        -12    1    1    2    0    0  0.23037087148E+02 -0.28703950304E+02 -0.25970932372E+02  0.45045682096E+02  0.00000000000E+00 0.  1.
         11    1    3    3    0    0 -0.18415934958E+02  0.24731807121E+02  0.21692991069E+02  0.37701389969E+02  0.51100000000E-03 0. -1.
        -11    1    3    3    0    0 -0.44476624064E+00  0.28769870098E+01  0.12543151246E+01  0.31698861110E+01  0.51100000000E-03 0.  1.
        -12    1    3    3    0    0 -0.41763859494E+01  0.10951561731E+01  0.30236261782E+01  0.52710418237E+01  0.00000000000E+00 0.  1.
</event>
<event>
 7    1  0.4047706E-008  0.4614232E+02  0.7816164E-02  0.1320468E+00
        -11   -1    0    0    0    0  0.00000000000E+00  0.00000000000E+00  0.45593999997E+02  0.45594000000E+02  0.51100000000E-03 0.  1.
         11   -1    0    0    0    0 -0.00000000000E+00 -0.00000000000E+00 -0.45593999997E+02  0.45594000000E+02  0.51100000000E-03 0. -1.
    9900012    2    1    2    0    0 -0.22479227416E+02  0.38452311283E+02 -0.67243710808E+01  0.46142322353E+02  0.10000041870E+02 0.  0.
        -12    1    1    2    0    0  0.22479227416E+02 -0.38452311283E+02  0.67243710808E+01  0.45045677647E+02  0.00000000000E+00 0.  1.
         11    1    3    3    0    0 -0.21605534404E+02  0.32188475251E+02 -0.46408956739E+01  0.39044013226E+02  0.51100000000E-03 0. -1.
        -11    1    3    3    0    0 -0.13465615306E+01  0.16427164024E+01 -0.88400048723E+00  0.23006960375E+01  0.51100000000E-03 0.  1.
         12    1    3    3    0    0  0.47286851850E+00  0.46211196302E+01 -0.11994749197E+01  0.47976130893E+01  0.00000000000E+00 0. -1.
</event>
<event>
 7    1  0.4047706E-008  0.4614232E+02  0.7816164E-02  0.1320468E+00
        -11   -1    0    0    0    0  0.00000000000E+00  0.00000000000E+00  0.45593999997E+02  0.45594000000E+02  0.51100000000E-03 0.  1.
         11   -1    0    0    0    0 -0.00000000000E+00 -0.00000000000E+00 -0.45593999997E+02  0.45594000000E+02  0.51100000000E-03 0. -1.
    9900012    2    1    2    0    0 -0.79670139150E+01  0.42406061693E+02  0.12937003107E+02  0.46142318426E+02  0.10000006067E+02 0.  0.
        -12    1    1    2    0    0  0.79670139150E+01 -0.42406061693E+02 -0.12937003107E+02  0.45045681574E+02  0.00000000000E+00 0.  1.
         11    1    3    3    0    0 -0.47803555235E+01  0.13904586808E+02  0.79319722145E+01  0.16706451350E+02  0.51100000000E-03 0. -1.
        -11    1    3    3    0    0 -0.15742439974E+01  0.13741446793E+02  0.20985801442E+00  0.13832918881E+02  0.51100000000E-03 0.  1.
         12    1    3    3    0    0 -0.16124143941E+01  0.14760028093E+02  0.47951728779E+01  0.15602948196E+02  0.00000000000E+00 0. -1.
</event>
<event>
 7    1  0.4047706E-008  0.4614232E+02  0.7816164E-02  0.1320468E+00
        -11   -1    0    0    0    0  0.00000000000E+00  0.00000000000E+00  0.45593999997E+02  0.45594000000E+02  0.51100000000E-03 0.  1.
         11   -1    0    0    0    0 -0.00000000000E+00 -0.00000000000E+00 -0.45593999997E+02  0.45594000000E+02  0.51100000000E-03 0. -1.
    9900012    2    1    2    0    0 -0.13410802143E+02  0.12575114573E+02 -0.41123356050E+02  0.46142317260E+02  0.99999954340E+01 0.  0.
        -12    1    1    2    0    0  0.13410802143E+02 -0.12575114573E+02  0.41123356050E+02  0.45045682740E+02  0.00000000000E+00 0.  1.
         11    1    3    3    0    0 -0.64860927587E+01  0.40605279100E+01 -0.15479527932E+02  0.17267688654E+02  0.51100000000E-03 0. -1.
        -11    1    3    3    0    0 -0.67336439277E+01  0.90205124344E+01 -0.18122824045E+02  0.21334206260E+02  0.51100000000E-03 0.  1.
         12    1    3    3    0    0 -0.19106545660E+00 -0.50592577129E+00 -0.75210040731E+01  0.75404223464E+01  0.00000000000E+00 0. -1.
</event>
<event>
 7    1  0.4047706E-008  0.4614232E+02  0.7816164E-02  0.1320468E+00
        -11   -1    0    0    0    0  0.00000000000E+00  0.00000000000E+00  0.45593999997E+02  0.45594000000E+02  0.51100000000E-03 0.  1.
         11   -1    0    0    0    0 -0.00000000000E+00 -0.00000000000E+00 -0.45593999997E+02  0.45594000000E+02  0.51100000000E-03 0. -1.
    9900012    2    1    2    0    0 -0.35563942870E+02  0.10598350864E+02 -0.25534181041E+02  0.46142317910E+02  0.10000001354E+02 0.  0.
        -12    1    1    2    0    0  0.35563942870E+02 -0.10598350864E+02  0.25534181041E+02  0.45045682090E+02  0.00000000000E+00 0.  1.
         11    1    3    3    0    0 -0.10583556313E+02  0.44135797177E+01 -0.77435127313E+01  0.13836666500E+02  0.51100000000E-03 0. -1.
        -11    1    3    3    0    0 -0.43359634437E+00  0.24138890912E+00 -0.29929260356E+01  0.30337898594E+01  0.51100000000E-03 0.  1.
        -12    1    3    3    0    0 -0.24546790213E+02  0.59433822376E+01 -0.14797742274E+02  0.29271861550E+02  0.00000000000E+00 0.  1.
</event>
<event>
 7    1  0.4047706E-008  0.4614232E+02  0.7816164E-02  0.1320468E+00
        -11   -1    0    0    0    0  0.00000000000E+00  0.00000000000E+00  0.45593999997E+02  0.45594000000E+02  0.51100000000E-03 0. -1.
         11   -1    0    0    0    0 -0.00000000000E+00 -0.00000000000E+00 -0.45593999997E+02  0.45594000000E+02  0.51100000000E-03 0.  1.
    9900012    2    1    2    0    0  0.41087226153E+02 -0.15827935614E+02  0.95094526442E+01  0.46142318871E+02  0.10000010122E+02 0.  0.
        -12    1    1    2    0    0 -0.41087226153E+02  0.15827935614E+02 -0.95094526442E+01  0.45045681129E+02  0.00000000000E+00 0.  1.
         11    1    3    3    0    0  0.16148388514E+02 -0.87536678237E+01  0.46304603883E+01  0.18943028154E+02  0.51100000000E-03 0. -1.
        -11    1    3    3    0    0  0.13302575415E+02 -0.25116326403E+01 -0.60320830972E+00  0.13551039507E+02  0.51100000000E-03 0.  1.
         12    1    3    3    0    0  0.11636262224E+02 -0.45626351502E+01  0.54822005657E+01  0.13648251210E+02  0.00000000000E+00 0. -1.
</event>
<event>
 7    1  0.4047706E-008  0.4614232E+02  0.7816164E-02  0.1320468E+00
        -11   -1    0    0    0    0  0.00000000000E+00  0.00000000000E+00  0.45593999997E+02  0.45594000000E+02  0.51100000000E-03 0. -1.
         11   -1    0    0    0    0 -0.00000000000E+00 -0.00000000000E+00 -0.45593999997E+02  0.45594000000E+02  0.51100000000E-03 0.  1.
    9900012    2    1    2    0    0  0.33081413798E+02  0.36128251581E+01  0.30359200511E+02  0.46142317630E+02  0.99999988055E+01 0.  0.
        -12    1    1    2    0    0 -0.33081413798E+02 -0.36128251581E+01 -0.30359200511E+02  0.45045682370E+02  0.00000000000E+00 0.  1.
         11    1    3    3    0    0  0.22326873163E+02 -0.93806492343E+00  0.21423653875E+02  0.30957102201E+02  0.51100000000E-03 0. -1.
        -11    1    3    3    0    0  0.13267157401E+01  0.15107985790E+01  0.30797555190E+01  0.36779860412E+01  0.51100000000E-03 0.  1.
         12    1    3    3    0    0  0.94278248946E+01  0.30400915026E+01  0.58557911173E+01  0.11507229388E+02  0.00000000000E+00 0. -1.
</event>
<event>
 7    1  0.4047706E-008  0.4614232E+02  0.7816164E-02  0.1320468E+00
        -11   -1    0    0    0    0  0.00000000000E+00  0.00000000000E+00  0.45593999997E+02  0.45594000000E+02  0.51100000000E-03 0. -1.
         11   -1    0    0    0    0 -0.00000000000E+00 -0.00000000000E+00 -0.45593999997E+02  0.45594000000E+02  0.51100000000E-03 0.  1.
    9900012    2    1    2    0    0  0.42780594491E+02 -0.86613920662E+01  0.11131692951E+02  0.46142316906E+02  0.99999921993E+01 0.  0.
        -12    1    1    2    0    0 -0.42780594491E+02  0.86613920662E+01 -0.11131692951E+02  0.45045683094E+02  0.00000000000E+00 0.  1.
         11    1    3    3    0    0  0.10538680936E+02 -0.21346134690E+01  0.12945033053E+01  0.10830332848E+02  0.51100000000E-03 0. -1.
        -11    1    3    3    0    0  0.15644340067E+02 -0.72491272710E+01  0.39727110004E+01  0.17694000545E+02  0.51100000000E-03 0.  1.
         12    1    3    3    0    0  0.16597573488E+02  0.72234867381E+00  0.58644786449E+01  0.17617983513E+02  0.00000000000E+00 0. -1.
</event>
<event>
 7    1  0.4047706E-008  0.4614232E+02  0.7816164E-02  0.1320468E+00
        -11   -1    0    0    0    0  0.00000000000E+00  0.00000000000E+00  0.45593999997E+02  0.45594000000E+02  0.51100000000E-03 0. -1.
         11   -1    0    0    0    0 -0.00000000000E+00 -0.00000000000E+00 -0.45593999997E+02  0.45594000000E+02  0.51100000000E-03 0.  1.
    9900012    2    1    2    0    0 -0.30892039071E+02 -0.12700631555E+02  0.30223987204E+02  0.46142317384E+02  0.99999965582E+01 0.  0.
        -12    1    1    2    0    0  0.30892039071E+02  0.12700631555E+02 -0.30223987204E+02  0.45045682616E+02  0.00000000000E+00 0.  1.
         11    1    3    3    0    0 -0.80509207497E+01 -0.62377580630E+01  0.75580365495E+01  0.12682699528E+02  0.51100000000E-03 0. -1.
        -11    1    3    3    0    0 -0.10950064133E+02 -0.57187502030E+01  0.87405146816E+01  0.15132898122E+02  0.51100000000E-03 0.  1.
         12    1    3    3    0    0 -0.11891054188E+02 -0.74412328945E+00  0.13925435973E+02  0.18326719734E+02  0.00000000000E+00 0. -1.
</event>
<event>
 7    1  0.4047706E-008  0.4614232E+02  0.7816164E-02  0.1320468E+00
        -11   -1    0    0    0    0  0.00000000000E+00  0.00000000000E+00  0.45593999997E+02  0.45594000000E+02  0.51100000000E-03 0.  1.
         11   -1    0    0    0    0 -0.00000000000E+00 -0.00000000000E+00 -0.45593999997E+02  0.45594000000E+02  0.51100000000E-03 0. -1.
    9900012    2    1    2    0    0  0.32263445691E+02  0.16670721379E+02  0.26650900976E+02  0.46142318720E+02  0.10000008744E+02 0.  0.
        -12    1    1    2    0    0 -0.32263445691E+02 -0.16670721379E+02 -0.26650900976E+02  0.45045681280E+02  0.00000000000E+00 0.  1.
         11    1    3    3    0    0  0.20353886811E+01  0.14127623453E+01 -0.32426382141E+00  0.24987700603E+01  0.51100000000E-03 0. -1.
        -11    1    3    3    0    0  0.14791338034E+02  0.85220852469E+01  0.10271195697E+02  0.19922526926E+02  0.51100000000E-03 0.  1.
         12    1    3    3    0    0  0.15436718976E+02  0.67358737866E+01  0.16703969100E+02  0.23721021734E+02  0.00000000000E+00 0. -1.
</event>
<event>
 7    1  0.4047706E-008  0.4614232E+02  0.7816164E-02  0.1320468E+00
        -11   -1    0    0    0    0  0.00000000000E+00  0.00000000000E+00  0.45593999997E+02  0.45594000000E+02  0.51100000000E-03 0. -1.
         11   -1    0    0    0    0 -0.00000000000E+00 -0.00000000000E+00 -0.45593999997E+02  0.45594000000E+02  0.51100000000E-03 0.  1.
    9900012    2    1    2    0    0 -0.61529435153E+01  0.43644050467E+02  0.92979420514E+01  0.46142316727E+02  0.99999905734E+01 0.  0.
        -12    1    1    2    0    0  0.61529435153E+01 -0.43644050467E+02 -0.92979420514E+01  0.45045683273E+02  0.00000000000E+00 0.  1.
         11    1    3    3    0    0  0.19575768182E+01  0.14846537516E+02  0.34270095866E+01  0.15362167105E+02  0.51100000000E-03 0. -1.
        -11    1    3    3    0    0 -0.14906393639E+01  0.14822575402E+01  0.57739259485E+00  0.21800173390E+01  0.51100000000E-03 0.  1.
        -12    1    3    3    0    0 -0.66198809696E+01  0.27315255412E+02  0.52935398699E+01  0.28600132283E+02  0.00000000000E+00 0.  1.
</event>
<event>
 7    1  0.4047706E-008  0.4614232E+02  0.7816164E-02  0.1320468E+00
        -11   -1    0    0    0    0  0.00000000000E+00  0.00000000000E+00  0.45593999997E+02  0.45594000000E+02  0.51100000000E-03 0. -1.
         11   -1    0    0    0    0 -0.00000000000E+00 -0.00000000000E+00 -0.45593999997E+02  0.45594000000E+02  0.51100000000E-03 0.  1.
    9900012    2    1    2    0    0 -0.19156669603E+02 -0.32336543822E+01  0.40640854673E+02  0.46142316749E+02  0.99999907737E+01 0.  0.
        -12    1    1    2    0    0  0.19156669603E+02  0.32336543822E+01 -0.40640854673E+02  0.45045683251E+02  0.00000000000E+00 0.  1.
         11    1    3    3    0    0 -0.14500497177E+01 -0.26156181696E+01  0.28135682690E+01  0.41061258211E+01  0.51100000000E-03 0. -1.
        -11    1    3    3    0    0 -0.11484173824E+01  0.61542663929E+00  0.10119253149E+01  0.16497289282E+01  0.51100000000E-03 0.  1.
         12    1    3    3    0    0 -0.16558202503E+02 -0.12334628519E+01  0.36815361089E+02  0.40386462000E+02  0.00000000000E+00 0. -1.
</event>
<event>
 7    1  0.4047706E-008  0.4614231E+02  0.7816164E-02  0.1320468E+00
        -11   -1    0    0    0    0  0.00000000000E+00  0.00000000000E+00  0.45593999997E+02  0.45594000000E+02  0.51100000000E-03 0.  1.
         11   -1    0    0    0    0 -0.00000000000E+00 -0.00000000000E+00 -0.45593999997E+02  0.45594000000E+02  0.51100000000E-03 0. -1.
    9900012    2    1    2    0    0  0.24193010379E+02 -0.97914782212E+01 -0.36714289142E+02  0.46142314034E+02  0.99999660087E+01 0.  0.
        -12    1    1    2    0    0 -0.24193010379E+02  0.97914782212E+01  0.36714289142E+02  0.45045685966E+02  0.00000000000E+00 0.  1.
         11    1    3    3    0    0  0.31852447411E+01 -0.81015806854E+00 -0.73897863544E+01  0.80877118384E+01  0.51100000000E-03 0. -1.
        -11    1    3    3    0    0  0.93277733524E+01 -0.80238323137E+01 -0.12398070559E+02  0.17467151873E+02  0.51100000000E-03 0.  1.
        -12    1    3    3    0    0  0.11679992286E+02 -0.95748783895E+00 -0.16926432229E+02  0.20587450322E+02  0.00000000000E+00 0.  1.
</event>
<event>
 7    1  0.4047706E-008  0.4614232E+02  0.7816164E-02  0.1320468E+00
        -11   -1    0    0    0    0  0.00000000000E+00  0.00000000000E+00  0.45593999997E+02  0.45594000000E+02  0.51100000000E-03 0.  1.
         11   -1    0    0    0    0 -0.00000000000E+00 -0.00000000000E+00 -0.45593999997E+02  0.45594000000E+02  0.51100000000E-03 0. -1.
    9900012    2    1    2    0    0  0.18116919643E+02  0.22109861247E+01 -0.41182544967E+02  0.46142320440E+02  0.10000024430E+02 0.  0.
        -12    1    1    2    0    0 -0.18116919643E+02 -0.22109861247E+01  0.41182544967E+02  0.45045679560E+02  0.00000000000E+00 0.  1.
         11    1    3    3    0    0  0.11941600946E+02  0.32413267535E+01 -0.20295862078E+02  0.23770360746E+02  0.51100000000E-03 0. -1.
        -11    1    3    3    0    0  0.31415034110E+01  0.13958542329E+01 -0.53674656506E+01  0.63739423038E+01  0.51100000000E-03 0.  1.
        -12    1    3    3    0    0  0.30338152869E+01 -0.24261948617E+01 -0.15519217239E+02  0.15998017390E+02  0.00000000000E+00 0.  1.
</event>
<event>
 7    1  0.4047706E-008  0.4614232E+02  0.7816164E-02  0.1320468E+00
        -11   -1    0    0    0    0  0.00000000000E+00  0.00000000000E+00  0.45593999997E+02  0.45594000000E+02  0.51100000000E-03 0. -1.
         11   -1    0    0    0    0 -0.00000000000E+00 -0.00000000000E+00 -0.45593999997E+02  0.45594000000E+02  0.51100000000E-03 0.  1.
    9900012    2    1    2    0    0  0.84858171230E+01  0.21605180887E+02  0.38604669552E+02  0.46142318247E+02  0.10000004427E+02 0.  0.
        -12    1    1    2    0    0 -0.84858171230E+01 -0.21605180887E+02 -0.38604669552E+02  0.45045681753E+02  0.00000000000E+00 0.  1.
         11    1    3    3    0    0  0.55100665952E+01  0.12717335904E+02  0.18353042337E+02  0.22998383196E+02  0.51100000000E-03 0. -1.
        -11    1    3    3    0    0  0.35222652031E+01  0.88795383877E+01  0.14484018303E+02  0.17350485313E+02  0.51100000000E-03 0.  1.
        -12    1    3    3    0    0 -0.54651467537E+00  0.83065955638E-02  0.57676089121E+01  0.57934497368E+01  0.00000000000E+00 0.  1.
</event>
<event>
 7    1  0.4047706E-008  0.4614232E+02  0.7816164E-02  0.1320468E+00
        -11   -1    0    0    0    0  0.00000000000E+00  0.00000000000E+00  0.45593999997E+02  0.45594000000E+02  0.51100000000E-03 0.  1.
         11   -1    0    0    0    0 -0.00000000000E+00 -0.00000000000E+00 -0.45593999997E+02  0.45594000000E+02  0.51100000000E-03 0. -1.
    9900012    2    1    2    0    0  0.32215393070E+02 -0.33965084586E+01 -0.31300890324E+02  0.46142317017E+02  0.99999932121E+01 0.  0.
        -12    1    1    2    0    0 -0.32215393070E+02  0.33965084586E+01  0.31300890324E+02  0.45045682983E+02  0.00000000000E+00 0.  1.
         11    1    3    3    0    0  0.17372412729E+02 -0.42518621245E+01 -0.22394911281E+02  0.28660270534E+02  0.51100000000E-03 0. -1.
        -11    1    3    3    0    0  0.12097249831E+00  0.76307552640E-01 -0.48122648114E+00  0.50203224519E+00  0.51100000000E-03 0.  1.
        -12    1    3    3    0    0  0.14722007843E+02  0.77904611321E+00 -0.84247525615E+01  0.16980014237E+02  0.00000000000E+00 0.  1.
</event>
<event>
 7    1  0.4047706E-008  0.4614232E+02  0.7816164E-02  0.1320468E+00
        -11   -1    0    0    0    0  0.00000000000E+00  0.00000000000E+00  0.45593999997E+02  0.45594000000E+02  0.51100000000E-03 0. -1.
         11   -1    0    0    0    0 -0.00000000000E+00 -0.00000000000E+00 -0.45593999997E+02  0.45594000000E+02  0.51100000000E-03 0.  1.
    9900012    2    1    2    0    0  0.38205009952E+02 -0.15170217184E+02 -0.18421597992E+02  0.46142317106E+02  0.99999940260E+01 0.  0.
        -12    1    1    2    0    0 -0.38205009952E+02  0.15170217184E+02  0.18421597992E+02  0.45045682894E+02  0.00000000000E+00 0.  1.
         11    1    3    3    0    0  0.27401329415E+02 -0.10787847485E+02 -0.13129633976E+02  0.32242794476E+02  0.51100000000E-03 0. -1.
        -11    1    3    3    0    0  0.54602430261E-01 -0.86326501517E+00  0.68824949283E+00  0.11053938381E+01  0.51100000000E-03 0.  1.
         12    1    3    3    0    0  0.10749078107E+02 -0.35191046841E+01 -0.59802135089E+01  0.12794128791E+02  0.00000000000E+00 0. -1.
</event>
<event>
 7    1  0.4047706E-008  0.4614232E+02  0.7816164E-02  0.1320468E+00
        -11   -1    0    0    0    0  0.00000000000E+00  0.00000000000E+00  0.45593999997E+02  0.45594000000E+02  0.51100000000E-03 0.  1.
         11   -1    0    0    0    0 -0.00000000000E+00 -0.00000000000E+00 -0.45593999997E+02  0.45594000000E+02  0.51100000000E-03 0. -1.
    9900012    2    1    2    0    0 -0.78707380813E+01 -0.31657986747E+02 -0.31063432234E+02  0.46142318020E+02  0.10000002365E+02 0.  0.
        -12    1    1    2    0    0  0.78707380813E+01  0.31657986747E+02  0.31063432234E+02  0.45045681980E+02  0.00000000000E+00 0.  1.
         11    1    3    3    0    0  0.23074007007E-01 -0.10539811390E+01 -0.28507219972E+01  0.30394119196E+01  0.51100000000E-03 0. -1.
        -11    1    3    3    0    0  0.15024839811E+01 -0.72282904078E+01 -0.59401318533E+01  0.94758011286E+01  0.51100000000E-03 0.  1.
         12    1    3    3    0    0 -0.93962960694E+01 -0.23375715200E+02 -0.22272578384E+02  0.33627104972E+02  0.00000000000E+00 0. -1.
</event>
<event>
 7    1  0.4047706E-008  0.4614232E+02  0.7816164E-02  0.1320468E+00
        -11   -1    0    0    0    0  0.00000000000E+00  0.00000000000E+00  0.45593999997E+02  0.45594000000E+02  0.51100000000E-03 0.  1.
         11   -1    0    0    0    0 -0.00000000000E+00 -0.00000000000E+00 -0.45593999997E+02  0.45594000000E+02  0.51100000000E-03 0. -1.
    9900012    2    1    2    0    0  0.10954604208E+02  0.36621220060E+02 -0.23832671472E+02  0.46142319390E+02  0.10000014857E+02 0.  0.
        -12    1    1    2    0    0 -0.10954604208E+02 -0.36621220060E+02  0.23832671472E+02  0.45045680610E+02  0.00000000000E+00 0.  1.
         11    1    3    3    0    0  0.57751250999E+01  0.27777372032E+02 -0.16881709804E+02  0.33014036304E+02  0.51100000000E-03 0. -1.
        -11    1    3    3    0    0 -0.22929182862E+00  0.17194597784E+01 -0.27370920600E+01  0.32404922278E+01  0.51100000000E-03 0.  1.
        -12    1    3    3    0    0  0.54087709372E+01  0.71243882503E+01 -0.42138696081E+01  0.98877908587E+01  0.00000000000E+00 0.  1.
</event>
<event>
 7    1  0.4047706E-008  0.4614232E+02  0.7816164E-02  0.1320468E+00
        -11   -1    0    0    0    0  0.00000000000E+00  0.00000000000E+00  0.45593999997E+02  0.45594000000E+02  0.51100000000E-03 0.  1.
         11   -1    0    0    0    0 -0.00000000000E+00 -0.00000000000E+00 -0.45593999997E+02  0.45594000000E+02  0.51100000000E-03 0. -1.
    9900012    2    1    2    0    0  0.22176766999E+02 -0.14159513379E+02 -0.36562448786E+02  0.46142317911E+02  0.10000001367E+02 0.  0.
        -12    1    1    2    0    0 -0.22176766999E+02  0.14159513379E+02  0.36562448786E+02  0.45045682089E+02  0.00000000000E+00 0.  1.
         11    1    3    3    0    0  0.71149185751E+01 -0.34442207581E+01 -0.18217129594E+02  0.19858210742E+02  0.51100000000E-03 0. -1.
        -11    1    3    3    0    0  0.65591626729E+01 -0.43007490259E+01 -0.54107425985E+01  0.95286511576E+01  0.51100000000E-03 0.  1.
         12    1    3    3    0    0  0.85026857506E+01 -0.64145435951E+01 -0.12934576593E+02  0.16755456011E+02  0.00000000000E+00 0. -1.
</event>
<event>
 7    1  0.4047706E-008  0.4614232E+02  0.7816164E-02  0.1320468E+00
        -11   -1    0    0    0    0  0.00000000000E+00  0.00000000000E+00  0.45593999997E+02  0.45594000000E+02  0.51100000000E-03 0. -1.
         11   -1    0    0    0    0 -0.00000000000E+00 -0.00000000000E+00 -0.45593999997E+02  0.45594000000E+02  0.51100000000E-03 0.  1.
    9900012    2    1    2    0    0  0.33296758820E+01  0.25801509394E+02 -0.36773752172E+02  0.46142317883E+02  0.10000001116E+02 0.  0.
        -12    1    1    2    0    0 -0.33296758820E+01 -0.25801509394E+02  0.36773752172E+02  0.45045682117E+02  0.00000000000E+00 0.  1.
         11    1    3    3    0    0  0.11979285539E+01  0.34124476565E+00 -0.28083528115E+01  0.30721859621E+01  0.51100000000E-03 0. -1.
        -11    1    3    3    0    0 -0.19837790694E+01  0.48653402833E+01 -0.92351207541E+01  0.10625176284E+02  0.51100000000E-03 0.  1.
         12    1    3    3    0    0  0.41155263974E+01  0.20594924346E+02 -0.24730278607E+02  0.32444955637E+02  0.00000000000E+00 0. -1.
</event>
<event>
 7    1  0.4047706E-008  0.4614232E+02  0.7816164E-02  0.1320468E+00
        -11   -1    0    0    0    0  0.00000000000E+00  0.00000000000E+00  0.45593999997E+02  0.45594000000E+02  0.51100000000E-03 0. -1.
         11   -1    0    0    0    0 -0.00000000000E+00 -0.00000000000E+00 -0.45593999997E+02  0.45594000000E+02  0.51100000000E-03 0.  1.
    9900012    2    1    2    0    0 -0.76385916804E+01  0.55062754625E+01  0.44050498868E+02  0.46142316490E+02  0.99999884113E+01 0.  0.
        -12    1    1    2    0    0  0.76385916804E+01 -0.55062754625E+01 -0.44050498868E+02  0.45045683510E+02  0.00000000000E+00 0.  1.
         11    1    3    3    0    0 -0.21169104470E+01  0.52495014926E+01  0.25926789062E+02  0.26537463464E+02  0.51100000000E-03 0. -1.
        -11    1    3    3    0    0 -0.15466269124E+01  0.18013440295E+01  0.26672953679E+01  0.35709046416E+01  0.51100000000E-03 0.  1.
        -12    1    3    3    0    0 -0.39750543210E+01 -0.15445700596E+01  0.15456414438E+02  0.16033948385E+02  0.00000000000E+00 0.  1.
</event>
<event>
 7    1  0.4047706E-008  0.4614232E+02  0.7816164E-02  0.1320468E+00
        -11   -1    0    0    0    0  0.00000000000E+00  0.00000000000E+00  0.45593999997E+02  0.45594000000E+02  0.51100000000E-03 0.  1.
         11   -1    0    0    0    0 -0.00000000000E+00 -0.00000000000E+00 -0.45593999997E+02  0.45594000000E+02  0.51100000000E-03 0. -1.
    9900012    2    1    2    0    0  0.40479426134E+02 -0.19760578561E+02  0.22134423428E+00  0.46142318759E+02  0.10000009097E+02 0.  0.
        -12    1    1    2    0    0 -0.40479426134E+02  0.19760578561E+02 -0.22134423428E+00  0.45045681241E+02  0.00000000000E+00 0.  1.
         11    1    3    3    0    0  0.48487662727E+01 -0.33861870905E+01  0.22030819641E+01  0.63111304677E+01  0.51100000000E-03 0. -1.
        -11    1    3    3    0    0  0.83411790837E+01 -0.99714289607E+00 -0.12960752648E+01  0.84999631655E+01  0.51100000000E-03 0.  1.
         12    1    3    3    0    0  0.27289480778E+02 -0.15377248575E+02 -0.68566246509E+00  0.31331225125E+02  0.00000000000E+00 0. -1.
</event>
<event>
 7    1  0.4047706E-008  0.4614232E+02  0.7816164E-02  0.1320468E+00
        -11   -1    0    0    0    0  0.00000000000E+00  0.00000000000E+00  0.45593999997E+02  0.45594000000E+02  0.51100000000E-03 0. -1.
         11   -1    0    0    0    0 -0.00000000000E+00 -0.00000000000E+00 -0.45593999997E+02  0.45594000000E+02  0.51100000000E-03 0.  1.
    9900012    2    1    2    0    0 -0.42613656421E+02 -0.14468107398E+02  0.19656109226E+01  0.46142317948E+02  0.10000001704E+02 0.  0.
        -12    1    1    2    0    0  0.42613656421E+02  0.14468107398E+02 -0.19656109226E+01  0.45045682052E+02  0.00000000000E+00 0.  1.
         11    1    3    3    0    0 -0.41918951227E+01 -0.10900759824E+01 -0.11277353728E+01  0.44757164453E+01  0.51100000000E-03 0. -1.
        -11    1    3    3    0    0 -0.11476573813E+02 -0.79350770413E+01 -0.38494194966E+00  0.13957986055E+02  0.51100000000E-03 0.  1.
        -12    1    3    3    0    0 -0.26945187485E+02 -0.54429543739E+01  0.34782882451E+01  0.27708615448E+02  0.00000000000E+00 0.  1.
</event>
<event>
 7    1  0.4047706E-008  0.4614232E+02  0.7816164E-02  0.1320468E+00
        -11   -1    0    0    0    0  0.00000000000E+00  0.00000000000E+00  0.45593999997E+02  0.45594000000E+02  0.51100000000E-03 0.  1.
         11   -1    0    0    0    0 -0.00000000000E+00 -0.00000000000E+00 -0.45593999997E+02  0.45594000000E+02  0.51100000000E-03 0. -1.
    9900012    2    1    2    0    0 -0.23281831307E+01  0.27249553553E+02  0.35793224441E+02  0.46142317394E+02  0.99999966540E+01 0.  0.
        -12    1    1    2    0    0  0.23281831307E+01 -0.27249553553E+02 -0.35793224441E+02  0.45045682606E+02  0.00000000000E+00 0.  1.
         11    1    3    3    0    0  0.14986310181E+01  0.99120881224E+00  0.25019677382E+01  0.30802974957E+01  0.51100000000E-03 0. -1.
        -11    1    3    3    0    0 -0.20839274538E+01  0.26501644650E+01  0.23763821519E+01  0.41247203199E+01  0.51100000000E-03 0.  1.
         12    1    3    3    0    0 -0.17428866950E+01  0.23608180276E+02  0.30914874551E+02  0.38937299579E+02  0.00000000000E+00 0. -1.
</event>
<event>
 7    1  0.4047706E-008  0.4614232E+02  0.7816164E-02  0.1320468E+00
        -11   -1    0    0    0    0  0.00000000000E+00  0.00000000000E+00  0.45593999997E+02  0.45594000000E+02  0.51100000000E-03 0. -1.
         11   -1    0    0    0    0 -0.00000000000E+00 -0.00000000000E+00 -0.45593999997E+02  0.45594000000E+02  0.51100000000E-03 0.  1.
    9900012    2    1    2    0    0 -0.21846197109E+02 -0.31209617131E+02  0.24037825509E+02  0.46142316691E+02  0.99999902434E+01 0.  0.
        -12    1    1    2    0    0  0.21846197109E+02  0.31209617131E+02 -0.24037825509E+02  0.45045683309E+02  0.00000000000E+00 0.  1.
         11    1    3    3    0    0 -0.11131792162E+02 -0.11462724991E+02  0.11974389218E+02  0.19967394882E+02  0.51100000000E-03 0. -1.
        -11    1    3    3    0    0 -0.42423412211E+01 -0.10798447499E+02  0.32583315844E+01  0.12050753188E+02  0.51100000000E-03 0.  1.
        -12    1    3    3    0    0 -0.64720637257E+01 -0.89484446418E+01  0.88051047058E+01  0.14124168622E+02  0.00000000000E+00 0.  1.
</event>
<event>
 7    1  0.4047706E-008  0.4614232E+02  0.7816164E-02  0.1320468E+00
        -11   -1    0    0    0    0  0.00000000000E+00  0.00000000000E+00  0.45593999997E+02  0.45594000000E+02  0.51100000000E-03 0.  1.
         11   -1    0    0    0    0 -0.00000000000E+00 -0.00000000000E+00 -0.45593999997E+02  0.45594000000E+02  0.51100000000E-03 0. -1.
    9900012    2    1    2    0    0  0.13503639196E+02 -0.26415356737E+02 -0.33896814477E+02  0.46142319022E+02  0.10000011501E+02 0.  0.
        -12    1    1    2    0    0 -0.13503639196E+02  0.26415356737E+02  0.33896814477E+02  0.45045680978E+02  0.00000000000E+00 0.  1.
         11    1    3    3    0    0  0.77318601832E+01 -0.18506865757E+02 -0.21898241997E+02  0.29695433064E+02  0.51100000000E-03 0. -1.
        -11    1    3    3    0    0  0.36636662396E+01 -0.22355634717E+01 -0.19443958017E+01  0.47117798809E+01  0.51100000000E-03 0.  1.
         12    1    3    3    0    0  0.21081127737E+01 -0.56729275079E+01 -0.10054176678E+02  0.11735106077E+02  0.00000000000E+00 0. -1.
</event>
<event>
 7    1  0.4047706E-008  0.4614232E+02  0.7816164E-02  0.1320468E+00
        -11   -1    0    0    0    0  0.00000000000E+00  0.00000000000E+00  0.45593999997E+02  0.45594000000E+02  0.51100000000E-03 0. -1.
         11   -1    0    0    0    0 -0.00000000000E+00 -0.00000000000E+00 -0.45593999997E+02  0.45594000000E+02  0.51100000000E-03 0.  1.
    9900012    2    1    2    0    0 -0.15766893644E+02  0.38060699059E+02  0.18218173419E+02  0.46142316624E+02  0.99999896311E+01 0.  0.
        -12    1    1    2    0    0  0.15766893644E+02 -0.38060699059E+02 -0.18218173419E+02  0.45045683376E+02  0.00000000000E+00 0.  1.
         11    1    3    3    0    0 -0.78521692890E+01  0.17906296956E+02  0.63754899717E+01  0.20565478499E+02  0.51100000000E-03 0. -1.
        -11    1    3    3    0    0 -0.57366165731E+01  0.65124900473E+01  0.61413164181E+01  0.10631889010E+02  0.51100000000E-03 0.  1.
         12    1    3    3    0    0 -0.21781077822E+01  0.13641912056E+02  0.57013670295E+01  0.14944949115E+02  0.00000000000E+00 0. -1.
</event>
<event>
 7    1  0.4047706E-008  0.4614233E+02  0.7816164E-02  0.1320468E+00
        -11   -1    0    0    0    0  0.00000000000E+00  0.00000000000E+00  0.45593999997E+02  0.45594000000E+02  0.51100000000E-03 0. -1.
         11   -1    0    0    0    0 -0.00000000000E+00 -0.00000000000E+00 -0.45593999997E+02  0.45594000000E+02  0.51100000000E-03 0.  1.
    9900012    2    1    2    0    0 -0.10090780087E+02 -0.32413897793E+02  0.29607905172E+02  0.46142326938E+02  0.10000083681E+02 0.  0.
        -12    1    1    2    0    0  0.10090780087E+02  0.32413897793E+02 -0.29607905172E+02  0.45045673062E+02  0.00000000000E+00 0.  1.
         11    1    3    3    0    0 -0.40773350798E+01 -0.15683113451E+02  0.19390911740E+02  0.25270381225E+02  0.51100000000E-03 0. -1.
        -11    1    3    3    0    0 -0.24694404405E+00 -0.36969089196E+01  0.35716134638E+01  0.51463132354E+01  0.51100000000E-03 0.  1.
        -12    1    3    3    0    0 -0.57665009637E+01 -0.13033875423E+02  0.66453799678E+01  0.15725632478E+02  0.00000000000E+00 0.  1.
</event>
<event>
 7    1  0.4047706E-008  0.4614232E+02  0.7816164E-02  0.1320468E+00
        -11   -1    0    0    0    0  0.00000000000E+00  0.00000000000E+00  0.45593999997E+02  0.45594000000E+02  0.51100000000E-03 0. -1.
         11   -1    0    0    0    0 -0.00000000000E+00 -0.00000000000E+00 -0.45593999997E+02  0.45594000000E+02  0.51100000000E-03 0.  1.
    9900012    2    1    2    0    0  0.16995685179E+02 -0.37259575644E+02  0.18761238694E+02  0.46142319084E+02  0.10000012061E+02 0.  0.
        -12    1    1    2    0    0 -0.16995685179E+02  0.37259575644E+02 -0.18761238694E+02  0.45045680916E+02  0.00000000000E+00 0.  1.
         11    1    3    3    0    0  0.12394735133E+00 -0.96611167457E+01  0.35662833934E+01  0.10299073610E+02  0.51100000000E-03 0. -1.
        -11    1    3    3    0    0  0.55810841212E+01 -0.90944419176E+01  0.36066450281E+01  0.11263448068E+02  0.51100000000E-03 0.  1.
        -12    1    3    3    0    0  0.11290653706E+02 -0.18504016981E+02  0.11588310273E+02  0.24579797406E+02  0.00000000000E+00 0.  1.
</event>
<event>
 7    1  0.4047706E-008  0.4614232E+02  0.7816164E-02  0.1320468E+00
        -11   -1    0    0    0    0  0.00000000000E+00  0.00000000000E+00  0.45593999997E+02  0.45594000000E+02  0.51100000000E-03 0.  1.
         11   -1    0    0    0    0 -0.00000000000E+00 -0.00000000000E+00 -0.45593999997E+02  0.45594000000E+02  0.51100000000E-03 0. -1.
    9900012    2    1    2    0    0 -0.28324814802E+02 -0.30507393747E+02 -0.17208063109E+02  0.46142316047E+02  0.99999843712E+01 0.  0.
        -12    1    1    2    0    0  0.28324814802E+02  0.30507393747E+02  0.17208063109E+02  0.45045683953E+02  0.00000000000E+00 0.  1.
         11    1    3    3    0    0 -0.14014652636E+02 -0.12773200197E+02 -0.88875180099E+01  0.20941659638E+02  0.51100000000E-03 0. -1.
        -11    1    3    3    0    0 -0.35579698011E+00 -0.17380115640E+01  0.97824628561E+00  0.20258928264E+01  0.51100000000E-03 0.  1.
         12    1    3    3    0    0 -0.13954365186E+02 -0.15996181987E+02 -0.92987913848E+01  0.23174763583E+02  0.00000000000E+00 0. -1.
</event>
<event>
 7    1  0.4047706E-008  0.4614232E+02  0.7816164E-02  0.1320468E+00
        -11   -1    0    0    0    0  0.00000000000E+00  0.00000000000E+00  0.45593999997E+02  0.45594000000E+02  0.51100000000E-03 0. -1.
         11   -1    0    0    0    0 -0.00000000000E+00 -0.00000000000E+00 -0.45593999997E+02  0.45594000000E+02  0.51100000000E-03 0.  1.
    9900012    2    1    2    0    0  0.34587852174E+02  0.25663505045E+02  0.13197669378E+02  0.46142317785E+02  0.10000000215E+02 0.  0.
        -12    1    1    2    0    0 -0.34587852174E+02 -0.25663505045E+02 -0.13197669378E+02  0.45045682215E+02  0.00000000000E+00 0.  1.
         11    1    3    3    0    0  0.20509641097E+02  0.98196372134E+01  0.88078129228E+01  0.24385410017E+02  0.51100000000E-03 0. -1.
        -11    1    3    3    0    0  0.11539842775E+01  0.21949546428E+01  0.90356564635E+00  0.26393061086E+01  0.51100000000E-03 0.  1.
         12    1    3    3    0    0  0.12924226800E+02  0.13648913189E+02  0.34862908093E+01  0.19117601659E+02  0.00000000000E+00 0. -1.
</event>
<event>
 7    1  0.4047706E-008  0.4614232E+02  0.7816164E-02  0.1320468E+00
        -11   -1    0    0    0    0  0.00000000000E+00  0.00000000000E+00  0.45593999997E+02  0.45594000000E+02  0.51100000000E-03 0. -1.
         11   -1    0    0    0    0 -0.00000000000E+00 -0.00000000000E+00 -0.45593999997E+02  0.45594000000E+02  0.51100000000E-03 0.  1.
    9900012    2    1    2    0    0  0.31681987705E+02 -0.29589957340E+02  0.12239264313E+02  0.46142317507E+02  0.99999976831E+01 0.  0.
        -12    1    1    2    0    0 -0.31681987705E+02  0.29589957340E+02 -0.12239264313E+02  0.45045682493E+02  0.00000000000E+00 0.  1.
         11    1    3    3    0    0  0.70455749232E+01 -0.71826689666E+01  0.55023156305E+01  0.11467621246E+02  0.51100000000E-03 0. -1.
        -11    1    3    3    0    0  0.52044529251E+01 -0.15440090691E+01  0.19286777215E+01  0.57610842964E+01  0.51100000000E-03 0.  1.
         12    1    3    3    0    0  0.19431959857E+02 -0.20863279304E+02  0.48082709607E+01  0.28913611965E+02  0.00000000000E+00 0. -1.
</event>
<event>
 7    1  0.4047706E-008  0.4614232E+02  0.7816164E-02  0.1320468E+00
        -11   -1    0    0    0    0  0.00000000000E+00  0.00000000000E+00  0.45593999997E+02  0.45594000000E+02  0.51100000000E-03 0. -1.
         11   -1    0    0    0    0 -0.00000000000E+00 -0.00000000000E+00 -0.45593999997E+02  0.45594000000E+02  0.51100000000E-03 0.  1.
    9900012    2    1    2    0    0  0.31290472687E+02  0.14827285232E+02  0.28812695244E+02  0.46142317904E+02  0.10000001299E+02 0.  0.
        -12    1    1    2    0    0 -0.31290472687E+02 -0.14827285232E+02 -0.28812695244E+02  0.45045682096E+02  0.00000000000E+00 0.  1.
         11    1    3    3    0    0  0.11981598302E+02  0.59963077938E+01  0.11190233951E+02  0.17456681849E+02  0.51100000000E-03 0. -1.
        -11    1    3    3    0    0  0.17118888017E+02  0.82194975528E+01  0.11610422383E+02  0.22257995758E+02  0.51100000000E-03 0.  1.
         12    1    3    3    0    0  0.21899863678E+01  0.61147988528E+00  0.60120389093E+01  0.64276402971E+01  0.00000000000E+00 0. -1.
</event>
<event>
 7    1  0.4047706E-008  0.4614232E+02  0.7816164E-02  0.1320468E+00
        -11   -1    0    0    0    0  0.00000000000E+00  0.00000000000E+00  0.45593999997E+02  0.45594000000E+02  0.51100000000E-03 0.  1.
         11   -1    0    0    0    0 -0.00000000000E+00 -0.00000000000E+00 -0.45593999997E+02  0.45594000000E+02  0.51100000000E-03 0. -1.
    9900012    2    1    2    0    0 -0.31846625116E+02  0.24486156376E+02 -0.20379747556E+02  0.46142317679E+02  0.99999992497E+01 0.  0.
        -12    1    1    2    0    0  0.31846625116E+02 -0.24486156376E+02  0.20379747556E+02  0.45045682321E+02  0.00000000000E+00 0.  1.
         11    1    3    3    0    0 -0.47515554051E+01  0.41167139834E+01 -0.45062249264E+01  0.77350291620E+01  0.51100000000E-03 0. -1.
        -11    1    3    3    0    0 -0.14408451767E+02  0.10161009451E+02 -0.35471362367E+01  0.17984208938E+02  0.51100000000E-03 0.  1.
        -12    1    3    3    0    0 -0.12686617944E+02  0.10208432941E+02 -0.12326386393E+02  0.20423079578E+02  0.00000000000E+00 0.  1.
</event>
<event>
 7    1  0.4047706E-008  0.4614231E+02  0.7816164E-02  0.1320468E+00
        -11   -1    0    0    0    0  0.00000000000E+00  0.00000000000E+00  0.45593999997E+02  0.45594000000E+02  0.51100000000E-03 0.  1.
         11   -1    0    0    0    0 -0.00000000000E+00 -0.00000000000E+00 -0.45593999997E+02  0.45594000000E+02  0.51100000000E-03 0. -1.
    9900012    2    1    2    0    0  0.64685387620E+01  0.24367613673E+02 -0.37329495442E+02  0.46142314082E+02  0.99999664542E+01 0.  0.
        -12    1    1    2    0    0 -0.64685387620E+01 -0.24367613673E+02  0.37329495442E+02  0.45045685918E+02  0.00000000000E+00 0.  1.
         11    1    3    3    0    0 -0.11506394374E+00  0.61986506074E+01 -0.82715223673E+01  0.10337049463E+02  0.51100000000E-03 0. -1.
        -11    1    3    3    0    0  0.30068308861E+01  0.15516141820E+02 -0.25916590524E+02  0.30355581919E+02  0.51100000000E-03 0.  1.
        -12    1    3    3    0    0  0.35767718196E+01  0.26528212461E+01 -0.31413825502E+01  0.54496827009E+01  0.00000000000E+00 0.  1.
</event>
<event>
 7    1  0.4047706E-008  0.4614232E+02  0.7816164E-02  0.1320468E+00
        -11   -1    0    0    0    0  0.00000000000E+00  0.00000000000E+00  0.45593999997E+02  0.45594000000E+02  0.51100000000E-03 0.  1.
         11   -1    0    0    0    0 -0.00000000000E+00 -0.00000000000E+00 -0.45593999997E+02  0.45594000000E+02  0.51100000000E-03 0. -1.
    9900012    2    1    2    0    0 -0.43496763732E+02  0.57392478646E+01 -0.10208137526E+02  0.46142317710E+02  0.99999995342E+01 0.  0.
        -12    1    1    2    0    0  0.43496763732E+02 -0.57392478646E+01  0.10208137526E+02  0.45045682290E+02  0.00000000000E+00 0.  1.
         11    1    3    3    0    0 -0.19027874898E+02  0.38284655443E+01 -0.21939934042E+01  0.19532812876E+02  0.51100000000E-03 0. -1.
        -11    1    3    3    0    0 -0.10372335155E+02  0.37827150330E+01 -0.47521445454E+01  0.12019864709E+02  0.51100000000E-03 0.  1.
        -12    1    3    3    0    0 -0.14096553680E+02 -0.18719327128E+01 -0.32619995764E+01  0.14589640125E+02  0.00000000000E+00 0.  1.
</event>
<event>
 7    1  0.4047706E-008  0.4614232E+02  0.7816164E-02  0.1320468E+00
        -11   -1    0    0    0    0  0.00000000000E+00  0.00000000000E+00  0.45593999997E+02  0.45594000000E+02  0.51100000000E-03 0.  1.
         11   -1    0    0    0    0 -0.00000000000E+00 -0.00000000000E+00 -0.45593999997E+02  0.45594000000E+02  0.51100000000E-03 0. -1.
    9900012    2    1    2    0    0  0.16812489576E+02  0.41045495666E+02 -0.78562704764E+01  0.46142317565E+02  0.99999982141E+01 0.  0.
        -12    1    1    2    0    0 -0.16812489576E+02 -0.41045495666E+02  0.78562704764E+01  0.45045682435E+02  0.00000000000E+00 0.  1.
         11    1    3    3    0    0  0.16324135337E+02  0.33325420311E+02 -0.73179289715E+01  0.37823446671E+02  0.51100000000E-03 0. -1.
        -11    1    3    3    0    0  0.36349141369E-01  0.13564986071E+01  0.10833261963E+01  0.17363771595E+01  0.51100000000E-03 0.  1.
         12    1    3    3    0    0  0.45200509845E+00  0.63635767479E+01 -0.16216677012E+01  0.65824937348E+01  0.00000000000E+00 0. -1.
</event>
<event>
 7    1  0.4047706E-008  0.4614232E+02  0.7816164E-02  0.1320468E+00
        -11   -1    0    0    0    0  0.00000000000E+00  0.00000000000E+00  0.45593999997E+02  0.45594000000E+02  0.51100000000E-03 0. -1.
         11   -1    0    0    0    0 -0.00000000000E+00 -0.00000000000E+00 -0.45593999997E+02  0.45594000000E+02  0.51100000000E-03 0.  1.
    9900012    2    1    2    0    0 -0.14956321796E+01 -0.19325295677E+02  0.40662139112E+02  0.46142317346E+02  0.99999962140E+01 0.  0.
        -12    1    1    2    0    0  0.14956321796E+01  0.19325295677E+02 -0.40662139112E+02  0.45045682654E+02  0.00000000000E+00 0.  1.
         11    1    3    3    0    0 -0.78913196647E+00 -0.95218959490E+01  0.19084640725E+02  0.21342744519E+02  0.51100000000E-03 0. -1.
        -11    1    3    3    0    0  0.12011447939E+01 -0.55531060482E+01  0.18142649838E+02  0.19011456519E+02  0.51100000000E-03 0.  1.
        -12    1    3    3    0    0 -0.19076450070E+01 -0.42502936799E+01  0.34348485493E+01  0.57881163080E+01  0.00000000000E+00 0.  1.
</event>
<event>
 7    1  0.4047706E-008  0.4614232E+02  0.7816164E-02  0.1320468E+00
        -11   -1    0    0    0    0  0.00000000000E+00  0.00000000000E+00  0.45593999997E+02  0.45594000000E+02  0.51100000000E-03 0.  1.
         11   -1    0    0    0    0 -0.00000000000E+00 -0.00000000000E+00 -0.45593999997E+02  0.45594000000E+02  0.51100000000E-03 0. -1.
    9900012    2    1    2    0    0 -0.33255408211E+02  0.38791701881E+01 -0.30135417179E+02  0.46142317575E+02  0.99999982985E+01 0.  0.
        -12    1    1    2    0    0  0.33255408211E+02 -0.38791701881E+01  0.30135417179E+02  0.45045682425E+02  0.00000000000E+00 0.  1.
         11    1    3    3    0    0 -0.13673930178E+02  0.22502960511E+01 -0.13751428024E+02  0.19522857675E+02  0.51100000000E-03 0. -1.
        -11    1    3    3    0    0 -0.13463045651E+02 -0.23030140627E+01 -0.98180060577E+01  0.16821138938E+02  0.51100000000E-03 0.  1.
        -12    1    3    3    0    0 -0.61184323818E+01  0.39318881997E+01 -0.65659830971E+01  0.97983209611E+01  0.00000000000E+00 0.  1.
</event>
<event>
 7    1  0.4047706E-008  0.4614232E+02  0.7816164E-02  0.1320468E+00
        -11   -1    0    0    0    0  0.00000000000E+00  0.00000000000E+00  0.45593999997E+02  0.45594000000E+02  0.51100000000E-03 0.  1.
         11   -1    0    0    0    0 -0.00000000000E+00 -0.00000000000E+00 -0.45593999997E+02  0.45594000000E+02  0.51100000000E-03 0. -1.
    9900012    2    1    2    0    0 -0.23074816244E+02  0.38686093669E+02 -0.22879325967E+00  0.46142319470E+02  0.10000015587E+02 0.  0.
        -12    1    1    2    0    0  0.23074816244E+02 -0.38686093669E+02  0.22879325967E+00  0.45045680530E+02  0.00000000000E+00 0.  1.
         11    1    3    3    0    0 -0.59000416564E+00  0.37388212666E+01 -0.17486009157E+01  0.41694717654E+01  0.51100000000E-03 0. -1.
        -11    1    3    3    0    0 -0.53841750394E+01  0.94477223793E+01  0.28493171405E+01  0.11241325875E+02  0.51100000000E-03 0.  1.
         12    1    3    3    0    0 -0.17100637039E+02  0.25499550023E+02 -0.13295094845E+01  0.30731521830E+02  0.00000000000E+00 0. -1.
</event>
<event>
 7    1  0.4047706E-008  0.4614232E+02  0.7816164E-02  0.1320468E+00
        -11   -1    0    0    0    0  0.00000000000E+00  0.00000000000E+00  0.45593999997E+02  0.45594000000E+02  0.51100000000E-03 0.  1.
         11   -1    0    0    0    0 -0.00000000000E+00 -0.00000000000E+00 -0.45593999997E+02  0.45594000000E+02  0.51100000000E-03 0. -1.
    9900012    2    1    2    0    0  0.41700355651E+02  0.19393912942E+01  0.16924319060E+02  0.46142317902E+02  0.10000001284E+02 0.  0.
        -12    1    1    2    0    0 -0.41700355651E+02 -0.19393912942E+01 -0.16924319060E+02  0.45045682098E+02  0.00000000000E+00 0.  1.
         11    1    3    3    0    0  0.59485950563E+00  0.58920515875E+00 -0.55720485306E+00  0.10057325986E+01  0.51100000000E-03 0. -1.
        -11    1    3    3    0    0  0.50012474918E+01  0.37823965140E-01  0.45574447401E+01  0.67664030287E+01  0.51100000000E-03 0.  1.
         12    1    3    3    0    0  0.36104248654E+02  0.13123621703E+01  0.12924079173E+02  0.38370182275E+02  0.00000000000E+00 0. -1.
</event>
<event>
 7    1  0.4047706E-008  0.4614232E+02  0.7816164E-02  0.1320468E+00
        -11   -1    0    0    0    0  0.00000000000E+00  0.00000000000E+00  0.45593999997E+02  0.45594000000E+02  0.51100000000E-03 0.  1.
         11   -1    0    0    0    0 -0.00000000000E+00 -0.00000000000E+00 -0.45593999997E+02  0.45594000000E+02  0.51100000000E-03 0. -1.
    9900012    2    1    2    0    0  0.16503872293E+02  0.12211622109E+02 -0.40095037064E+02  0.46142317495E+02  0.99999975710E+01 0.  0.
        -12    1    1    2    0    0 -0.16503872293E+02 -0.12211622109E+02  0.40095037064E+02  0.45045682505E+02  0.00000000000E+00 0.  1.
         11    1    3    3    0    0  0.80332247991E+01  0.32123356761E+01 -0.16218328286E+02  0.18381674946E+02  0.51100000000E-03 0. -1.
        -11    1    3    3    0    0  0.42255701886E+01  0.24620495576E-01 -0.67034974071E+01  0.79241988450E+01  0.51100000000E-03 0.  1.
         12    1    3    3    0    0  0.42450773055E+01  0.89746659377E+01 -0.17173211371E+02  0.19836443704E+02  0.00000000000E+00 0. -1.
</event>
<event>
 7    1  0.4047706E-008  0.4614232E+02  0.7816164E-02  0.1320468E+00
        -11   -1    0    0    0    0  0.00000000000E+00  0.00000000000E+00  0.45593999997E+02  0.45594000000E+02  0.51100000000E-03 0. -1.
         11   -1    0    0    0    0 -0.00000000000E+00 -0.00000000000E+00 -0.45593999997E+02  0.45594000000E+02  0.51100000000E-03 0.  1.
    9900012    2    1    2    0    0  0.19613010882E+02  0.37488942066E+02  0.15460352996E+02  0.46142317767E+02  0.10000000051E+02 0.  0.
        -12    1    1    2    0    0 -0.19613010882E+02 -0.37488942066E+02 -0.15460352996E+02  0.45045682233E+02  0.00000000000E+00 0.  1.
         11    1    3    3    0    0  0.10438819619E+02  0.17205557011E+02  0.52174245209E+01  0.20789941462E+02  0.51100000000E-03 0. -1.
        -11    1    3    3    0    0  0.36740085801E+01  0.30648742059E+01  0.39766284137E+01  0.62213637369E+01  0.51100000000E-03 0.  1.
         12    1    3    3    0    0  0.55001826825E+01  0.17218510849E+02  0.62663000609E+01  0.19131012568E+02  0.00000000000E+00 0. -1.
</event>
<event>
 7    1  0.4047706E-008  0.4614232E+02  0.7816164E-02  0.1320468E+00
        -11   -1    0    0    0    0  0.00000000000E+00  0.00000000000E+00  0.45593999997E+02  0.45594000000E+02  0.51100000000E-03 0. -1.
         11   -1    0    0    0    0 -0.00000000000E+00 -0.00000000000E+00 -0.45593999997E+02  0.45594000000E+02  0.51100000000E-03 0.  1.
    9900012    2    1    2    0    0  0.49737864919E+01 -0.25001883412E+02  0.37138669250E+02  0.46142317855E+02  0.10000000859E+02 0.  0.
        -12    1    1    2    0    0 -0.49737864919E+01  0.25001883412E+02 -0.37138669250E+02  0.45045682145E+02  0.00000000000E+00 0.  1.
         11    1    3    3    0    0  0.70064504192E+00 -0.17202570567E+02  0.19846175343E+02  0.26273370808E+02  0.51100000000E-03 0. -1.
        -11    1    3    3    0    0  0.23132164549E+01 -0.22477063148E+01  0.29736729573E+01  0.43870132394E+01  0.51100000000E-03 0.  1.
        -12    1    3    3    0    0  0.19599249950E+01 -0.55516065306E+01  0.14318820950E+02  0.15481933808E+02  0.00000000000E+00 0.  1.
</event>
<event>
 7    1  0.4047706E-008  0.4614232E+02  0.7816164E-02  0.1320468E+00
        -11   -1    0    0    0    0  0.00000000000E+00  0.00000000000E+00  0.45593999997E+02  0.45594000000E+02  0.51100000000E-03 0.  1.
         11   -1    0    0    0    0 -0.00000000000E+00 -0.00000000000E+00 -0.45593999997E+02  0.45594000000E+02  0.51100000000E-03 0. -1.
    9900012    2    1    2    0    0 -0.41251039080E+01 -0.22460749622E+02 -0.38827974186E+02  0.46142319461E+02  0.10000015497E+02 0.  0.
        -12    1    1    2    0    0  0.41251039080E+01  0.22460749622E+02  0.38827974186E+02  0.45045680539E+02  0.00000000000E+00 0.  1.
         11    1    3    3    0    0  0.11774342404E+00 -0.54703619148E+01 -0.91412627504E+01  0.10653703953E+02  0.51100000000E-03 0. -1.
        -11    1    3    3    0    0  0.11900920623E+01 -0.66280392462E+01 -0.57884890067E+01  0.88799678269E+01  0.51100000000E-03 0.  1.
         12    1    3    3    0    0 -0.54329393943E+01 -0.10362348461E+02 -0.23898222429E+02  0.26608647680E+02  0.00000000000E+00 0. -1.
</event>
<event>
 7    1  0.4047706E-008  0.4614231E+02  0.7816164E-02  0.1320468E+00
        -11   -1    0    0    0    0  0.00000000000E+00  0.00000000000E+00  0.45593999997E+02  0.45594000000E+02  0.51100000000E-03 0. -1.
         11   -1    0    0    0    0 -0.00000000000E+00 -0.00000000000E+00 -0.45593999997E+02  0.45594000000E+02  0.51100000000E-03 0.  1.
    9900012    2    1    2    0    0 -0.25213763604E+01 -0.13646065816E+02  0.42854890099E+02  0.46142311456E+02  0.99999425052E+01 0.  0.
        -12    1    1    2    0    0  0.25213763604E+01  0.13646065816E+02 -0.42854890099E+02  0.45045688544E+02  0.00000000000E+00 0.  1.
         11    1    3    3    0    0 -0.12621060757E+01 -0.18225406968E+01  0.15522201042E+02  0.15679709556E+02  0.51100000000E-03 0. -1.
        -11    1    3    3    0    0 -0.80087058706E+00  0.19155413422E+00  0.29986785611E+00  0.87636047138E+00  0.51100000000E-03 0.  1.
        -12    1    3    3    0    0 -0.45839969765E+00 -0.12015079254E+02  0.27032821201E+02  0.29586241428E+02  0.00000000000E+00 0.  1.
</event>
<event>
 7    1  0.4047706E-008  0.4614232E+02  0.7816164E-02  0.1320468E+00
        -11   -1    0    0    0    0  0.00000000000E+00  0.00000000000E+00  0.45593999997E+02  0.45594000000E+02  0.51100000000E-03 0. -1.
         11   -1    0    0    0    0 -0.00000000000E+00 -0.00000000000E+00 -0.45593999997E+02  0.45594000000E+02  0.51100000000E-03 0.  1.
    9900012    2    1    2    0    0  0.11207624920E+02 -0.21354685994E+02  0.38045762068E+02  0.46142317836E+02  0.10000000685E+02 0.  0.
        -12    1    1    2    0    0 -0.11207624920E+02  0.21354685994E+02 -0.38045762068E+02  0.45045682164E+02  0.00000000000E+00 0.  1.
         11    1    3    3    0    0  0.81917793555E+01 -0.92600807311E+01  0.17825363634E+02  0.21693269304E+02  0.51100000000E-03 0. -1.
        -11    1    3    3    0    0  0.11300734210E+01 -0.70512634662E+01  0.62977482254E+01  0.95215027899E+01  0.51100000000E-03 0.  1.
         12    1    3    3    0    0  0.18857721436E+01 -0.50433417969E+01  0.13922650208E+02  0.14927545742E+02  0.00000000000E+00 0. -1.
</event>
<event>
 7    1  0.4047706E-008  0.4614232E+02  0.7816164E-02  0.1320468E+00
        -11   -1    0    0    0    0  0.00000000000E+00  0.00000000000E+00  0.45593999997E+02  0.45594000000E+02  0.51100000000E-03 0. -1.
         11   -1    0    0    0    0 -0.00000000000E+00 -0.00000000000E+00 -0.45593999997E+02  0.45594000000E+02  0.51100000000E-03 0.  1.
    9900012    2    1    2    0    0  0.44951019966E+02 -0.27855216341E+01 -0.87185106720E+00  0.46142318176E+02  0.10000003781E+02 0.  0.
        -12    1    1    2    0    0 -0.44951019966E+02  0.27855216341E+01  0.87185106720E+00  0.45045681824E+02  0.00000000000E+00 0.  1.
         11    1    3    3    0    0  0.28959289369E+02 -0.24198613613E+01 -0.23984586410E+01  0.29159025599E+02  0.51100000000E-03 0. -1.
        -11    1    3    3    0    0  0.29940808967E+01  0.17053849847E+01 -0.98597771384E+00  0.35839936768E+01  0.51100000000E-03 0.  1.
         12    1    3    3    0    0  0.12997649700E+02 -0.20710452575E+01  0.25125852876E+01  0.13399298900E+02  0.00000000000E+00 0. -1.
</event>
<event>
 7    1  0.4047706E-008  0.4614232E+02  0.7816164E-02  0.1320468E+00
        -11   -1    0    0    0    0  0.00000000000E+00  0.00000000000E+00  0.45593999997E+02  0.45594000000E+02  0.51100000000E-03 0. -1.
         11   -1    0    0    0    0 -0.00000000000E+00 -0.00000000000E+00 -0.45593999997E+02  0.45594000000E+02  0.51100000000E-03 0.  1.
    9900012    2    1    2    0    0  0.39638934566E+02 -0.20322444223E+02 -0.66982506796E+01  0.46142318355E+02  0.10000005412E+02 0.  0.
        -12    1    1    2    0    0 -0.39638934566E+02  0.20322444223E+02  0.66982506796E+01  0.45045681645E+02  0.00000000000E+00 0.  1.
         11    1    3    3    0    0  0.16615758364E+02 -0.14086949251E+02 -0.37841993156E+01  0.22109855946E+02  0.51100000000E-03 0. -1.
        -11    1    3    3    0    0  0.57947017953E+01 -0.14147819749E+01 -0.71700108430E+00  0.60078505099E+01  0.51100000000E-03 0.  1.
         12    1    3    3    0    0  0.17228474407E+02 -0.48207129973E+01 -0.21970502797E+01  0.18024611899E+02  0.00000000000E+00 0. -1.
</event>
<event>
 7    1  0.4047706E-008  0.4614232E+02  0.7816164E-02  0.1320468E+00
        -11   -1    0    0    0    0  0.00000000000E+00  0.00000000000E+00  0.45593999997E+02  0.45594000000E+02  0.51100000000E-03 0.  1.
         11   -1    0    0    0    0 -0.00000000000E+00 -0.00000000000E+00 -0.45593999997E+02  0.45594000000E+02  0.51100000000E-03 0. -1.
    9900012    2    1    2    0    0  0.40096144410E+02 -0.51189274261E+01 -0.19879870300E+02  0.46142318102E+02  0.10000003106E+02 0.  0.
        -12    1    1    2    0    0 -0.40096144410E+02  0.51189274261E+01  0.19879870300E+02  0.45045681898E+02  0.00000000000E+00 0.  1.
         11    1    3    3    0    0  0.23071874965E+02 -0.22969028055E+01 -0.11003396897E+02  0.25664409606E+02  0.51100000000E-03 0. -1.
        -11    1    3    3    0    0  0.55345042878E+01 -0.15187093929E+01  0.25339467461E+00  0.57446866803E+01  0.51100000000E-03 0.  1.
         12    1    3    3    0    0  0.11489765157E+02 -0.13033152278E+01 -0.91298680773E+01  0.14733221815E+02  0.00000000000E+00 0. -1.
</event>
<event>
 7    1  0.4047706E-008  0.4614232E+02  0.7816164E-02  0.1320468E+00
        -11   -1    0    0    0    0  0.00000000000E+00  0.00000000000E+00  0.45593999997E+02  0.45594000000E+02  0.51100000000E-03 0.  1.
         11   -1    0    0    0    0 -0.00000000000E+00 -0.00000000000E+00 -0.45593999997E+02  0.45594000000E+02  0.51100000000E-03 0. -1.
    9900012    2    1    2    0    0  0.53541861359E+00  0.45018967337E+02  0.14557956515E+01  0.46142318362E+02  0.10000005482E+02 0.  0.
        -12    1    1    2    0    0 -0.53541861359E+00 -0.45018967337E+02 -0.14557956515E+01  0.45045681638E+02  0.00000000000E+00 0.  1.
         11    1    3    3    0    0  0.20335232183E+00  0.79003100086E+01  0.18865039878E+01  0.81249706433E+01  0.51100000000E-03 0. -1.
        -11    1    3    3    0    0  0.29630203973E+01  0.11177513111E+02  0.23346324775E+01  0.11796897825E+02  0.51100000000E-03 0.  1.
         12    1    3    3    0    0 -0.26309541056E+01  0.25941144218E+02 -0.27653408138E+01  0.26220449894E+02  0.00000000000E+00 0. -1.
</event>
<event>
 7    1  0.4047706E-008  0.4614232E+02  0.7816164E-02  0.1320468E+00
        -11   -1    0    0    0    0  0.00000000000E+00  0.00000000000E+00  0.45593999997E+02  0.45594000000E+02  0.51100000000E-03 0.  1.
         11   -1    0    0    0    0 -0.00000000000E+00 -0.00000000000E+00 -0.45593999997E+02  0.45594000000E+02  0.51100000000E-03 0. -1.
    9900012    2    1    2    0    0 -0.15271902837E+01 -0.22615653005E+01 -0.44962945581E+02  0.46142318042E+02  0.10000002563E+02 0.  0.
        -12    1    1    2    0    0  0.15271902837E+01  0.22615653005E+01  0.44962945581E+02  0.45045681958E+02  0.00000000000E+00 0.  1.
         11    1    3    3    0    0 -0.13825065874E+01 -0.14468214813E+01 -0.21425522963E+01  0.29317481929E+01  0.51100000000E-03 0. -1.
        -11    1    3    3    0    0 -0.10917015130E+01 -0.19399014142E+01 -0.66970394050E+01  0.70572917428E+01  0.51100000000E-03 0.  1.
        -12    1    3    3    0    0  0.94701781661E+00  0.11251575949E+01 -0.36123353879E+02  0.36153278106E+02  0.00000000000E+00 0.  1.
</event>
<event>
 7    1  0.4047706E-008  0.4614232E+02  0.7816164E-02  0.1320468E+00
        -11   -1    0    0    0    0  0.00000000000E+00  0.00000000000E+00  0.45593999997E+02  0.45594000000E+02  0.51100000000E-03 0.  1.
         11   -1    0    0    0    0 -0.00000000000E+00 -0.00000000000E+00 -0.45593999997E+02  0.45594000000E+02  0.51100000000E-03 0. -1.
    9900012    2    1    2    0    0 -0.30750476765E+02  0.20430380292E+02 -0.25809324185E+02  0.46142317909E+02  0.10000001351E+02 0.  0.
        -12    1    1    2    0    0  0.30750476765E+02 -0.20430380292E+02  0.25809324185E+02  0.45045682091E+02  0.00000000000E+00 0.  1.
         11    1    3    3    0    0 -0.95920756450E+01  0.41061179599E+01 -0.77022724816E+01  0.12968929082E+02  0.51100000000E-03 0. -1.
        -11    1    3    3    0    0 -0.43887425929E+00 -0.22792333931E+00 -0.21875548567E+01  0.22427563792E+01  0.51100000000E-03 0.  1.
        -12    1    3    3    0    0 -0.20719526860E+02  0.16552185671E+02 -0.15919496847E+02  0.30930632449E+02  0.00000000000E+00 0.  1.
</event>
<event>
 7    1  0.4047706E-008  0.4614232E+02  0.7816164E-02  0.1320468E+00
        -11   -1    0    0    0    0  0.00000000000E+00  0.00000000000E+00  0.45593999997E+02  0.45594000000E+02  0.51100000000E-03 0.  1.
         11   -1    0    0    0    0 -0.00000000000E+00 -0.00000000000E+00 -0.45593999997E+02  0.45594000000E+02  0.51100000000E-03 0. -1.
    9900012    2    1    2    0    0 -0.40736069533E+02  0.15093952470E+02 -0.11910448865E+02  0.46142317029E+02  0.99999933232E+01 0.  0.
        -12    1    1    2    0    0  0.40736069533E+02 -0.15093952470E+02  0.11910448865E+02  0.45045682971E+02  0.00000000000E+00 0.  1.
         11    1    3    3    0    0 -0.14280980593E+02  0.84715574081E+01 -0.38320325923E+01  0.17041072902E+02  0.51100000000E-03 0. -1.
        -11    1    3    3    0    0 -0.34787992926E+01  0.29674800517E+01 -0.23507130371E+01  0.51413844847E+01  0.51100000000E-03 0.  1.
        -12    1    3    3    0    0 -0.22976289648E+02  0.36549150099E+01 -0.57277032352E+01  0.23959859642E+02  0.00000000000E+00 0.  1.
</event>
<event>
 7    1  0.4047706E-008  0.4614232E+02  0.7816164E-02  0.1320468E+00
        -11   -1    0    0    0    0  0.00000000000E+00  0.00000000000E+00  0.45593999997E+02  0.45594000000E+02  0.51100000000E-03 0.  1.
         11   -1    0    0    0    0 -0.00000000000E+00 -0.00000000000E+00 -0.45593999997E+02  0.45594000000E+02  0.51100000000E-03 0. -1.
    9900012    2    1    2    0    0  0.20045132881E+02 -0.13178309201E+02 -0.38126608571E+02  0.46142318001E+02  0.10000002191E+02 0.  0.
        -12    1    1    2    0    0 -0.20045132881E+02  0.13178309201E+02  0.38126608571E+02  0.45045681999E+02  0.00000000000E+00 0.  1.
         11    1    3    3    0    0  0.12417090295E+01  0.14437562755E+01 -0.37334101641E+01  0.41910172049E+01  0.51100000000E-03 0. -1.
        -11    1    3    3    0    0  0.39699225309E+00 -0.10208382589E+01 -0.11164557394E+01  0.15640291810E+01  0.51100000000E-03 0.  1.
         12    1    3    3    0    0  0.18406431598E+02 -0.13601227217E+02 -0.33276742667E+02  0.40387271616E+02  0.00000000000E+00 0. -1.
</event>
<event>
 7    1  0.4047706E-008  0.4614232E+02  0.7816164E-02  0.1320468E+00
        -11   -1    0    0    0    0  0.00000000000E+00  0.00000000000E+00  0.45593999997E+02  0.45594000000E+02  0.51100000000E-03 0.  1.
         11   -1    0    0    0    0 -0.00000000000E+00 -0.00000000000E+00 -0.45593999997E+02  0.45594000000E+02  0.51100000000E-03 0. -1.
    9900012    2    1    2    0    0 -0.19154338749E+02 -0.17718250122E+02 -0.36719046844E+02  0.46142317838E+02  0.10000000699E+02 0.  0.
        -12    1    1    2    0    0  0.19154338749E+02  0.17718250122E+02  0.36719046844E+02  0.45045682162E+02  0.00000000000E+00 0.  1.
         11    1    3    3    0    0 -0.33361434449E+01 -0.42996729606E+01 -0.11190310773E+02  0.12443476046E+02  0.51100000000E-03 0. -1.
        -11    1    3    3    0    0 -0.12685537294E+01 -0.43863166818E+00 -0.58288594885E+01  0.59814069835E+01  0.51100000000E-03 0.  1.
         12    1    3    3    0    0 -0.14549641574E+02 -0.12979945493E+02 -0.19699876583E+02  0.27717434808E+02  0.00000000000E+00 0. -1.
</event>
<event>
 7    1  0.4047706E-008  0.4614232E+02  0.7816164E-02  0.1320468E+00
        -11   -1    0    0    0    0  0.00000000000E+00  0.00000000000E+00  0.45593999997E+02  0.45594000000E+02  0.51100000000E-03 0.  1.
         11   -1    0    0    0    0 -0.00000000000E+00 -0.00000000000E+00 -0.45593999997E+02  0.45594000000E+02  0.51100000000E-03 0. -1.
    9900012    2    1    2    0    0 -0.15461520196E+02  0.41328453730E+02 -0.90561479892E+01  0.46142317511E+02  0.99999977173E+01 0.  0.
        -12    1    1    2    0    0  0.15461520196E+02 -0.41328453730E+02  0.90561479892E+01  0.45045682489E+02  0.00000000000E+00 0.  1.
         11    1    3    3    0    0 -0.38483900212E+01  0.16581211820E+02 -0.34432846358E+01  0.17366718186E+02  0.51100000000E-03 0. -1.
        -11    1    3    3    0    0  0.42540751492E+00 -0.22860388755E+00  0.20198686419E-01  0.48336274081E+00  0.51100000000E-03 0.  1.
        -12    1    3    3    0    0 -0.12038537690E+02  0.24975845798E+02 -0.56330620399E+01  0.28292236584E+02  0.00000000000E+00 0.  1.
</event>
<event>
 7    1  0.4047706E-008  0.4614232E+02  0.7816164E-02  0.1320468E+00
        -11   -1    0    0    0    0  0.00000000000E+00  0.00000000000E+00  0.45593999997E+02  0.45594000000E+02  0.51100000000E-03 0. -1.
         11   -1    0    0    0    0 -0.00000000000E+00 -0.00000000000E+00 -0.45593999997E+02  0.45594000000E+02  0.51100000000E-03 0.  1.
    9900012    2    1    2    0    0 -0.34756780955E+02 -0.19976394656E+02  0.20543206229E+02  0.46142317765E+02  0.10000000037E+02 0.  0.
        -12    1    1    2    0    0  0.34756780955E+02  0.19976394656E+02 -0.20543206229E+02  0.45045682235E+02  0.00000000000E+00 0.  1.
         11    1    3    3    0    0 -0.57513080602E+01 -0.43913958980E+01  0.40741948042E+01  0.83042739538E+01  0.51100000000E-03 0. -1.
        -11    1    3    3    0    0 -0.14024211061E+02 -0.90042568371E+01  0.36731013636E+01  0.17065954733E+02  0.51100000000E-03 0.  1.
         12    1    3    3    0    0 -0.14981261835E+02 -0.65807419211E+01  0.12795910061E+02  0.20772089078E+02  0.00000000000E+00 0. -1.
</event>
<event>
 7    1  0.4047706E-008  0.4614232E+02  0.7816164E-02  0.1320468E+00
        -11   -1    0    0    0    0  0.00000000000E+00  0.00000000000E+00  0.45593999997E+02  0.45594000000E+02  0.51100000000E-03 0.  1.
         11   -1    0    0    0    0 -0.00000000000E+00 -0.00000000000E+00 -0.45593999997E+02  0.45594000000E+02  0.51100000000E-03 0. -1.
    9900012    2    1    2    0    0 -0.39958601334E+02  0.17507982515E+02 -0.11220262096E+02  0.46142317035E+02  0.99999933789E+01 0.  0.
        -12    1    1    2    0    0  0.39958601334E+02 -0.17507982515E+02  0.11220262096E+02  0.45045682965E+02  0.00000000000E+00 0.  1.
         11    1    3    3    0    0 -0.19863360642E+02  0.10512951245E+02 -0.82710319402E+01  0.23947551221E+02  0.51100000000E-03 0. -1.
        -11    1    3    3    0    0 -0.47827205299E+00  0.52363596446E+00  0.93744292686E+00  0.11754736416E+01  0.51100000000E-03 0.  1.
         12    1    3    3    0    0 -0.19616968639E+02  0.64713953054E+01 -0.38866730825E+01  0.21019292172E+02  0.00000000000E+00 0. -1.
</event>
<event>
 7    1  0.4047706E-008  0.4614232E+02  0.7816164E-02  0.1320468E+00
        -11   -1    0    0    0    0  0.00000000000E+00  0.00000000000E+00  0.45593999997E+02  0.45594000000E+02  0.51100000000E-03 0.  1.
         11   -1    0    0    0    0 -0.00000000000E+00 -0.00000000000E+00 -0.45593999997E+02  0.45594000000E+02  0.51100000000E-03 0. -1.
    9900012    2    1    2    0    0 -0.94070421589E+01  0.19270423530E+02 -0.39614036105E+02  0.46142317391E+02  0.99999966229E+01 0.  0.
        -12    1    1    2    0    0  0.94070421589E+01 -0.19270423530E+02  0.39614036105E+02  0.45045682609E+02  0.00000000000E+00 0.  1.
         11    1    3    3    0    0 -0.54197478219E+00  0.19840491270E+01 -0.20790909878E+01  0.29245182850E+01  0.51100000000E-03 0. -1.
        -11    1    3    3    0    0 -0.73324758847E+00  0.61449204381E+01 -0.52709462436E+01  0.81289958655E+01  0.51100000000E-03 0.  1.
        -12    1    3    3    0    0 -0.81318197882E+01  0.11141453965E+02 -0.32263998873E+02  0.35088803240E+02  0.00000000000E+00 0.  1.
</event>
<event>
 7    1  0.4047706E-008  0.4614232E+02  0.7816164E-02  0.1320468E+00
        -11   -1    0    0    0    0  0.00000000000E+00  0.00000000000E+00  0.45593999997E+02  0.45594000000E+02  0.51100000000E-03 0.  1.
         11   -1    0    0    0    0 -0.00000000000E+00 -0.00000000000E+00 -0.45593999997E+02  0.45594000000E+02  0.51100000000E-03 0. -1.
    9900012    2    1    2    0    0 -0.14994650001E+02 -0.20698412721E+02 -0.37092448129E+02  0.46142317344E+02  0.99999961933E+01 0.  0.
        -12    1    1    2    0    0  0.14994650001E+02  0.20698412721E+02  0.37092448129E+02  0.45045682656E+02  0.00000000000E+00 0.  1.
         11    1    3    3    0    0 -0.37099498383E+00  0.34457181286E+00 -0.49546453489E+00  0.70841539982E+00  0.51100000000E-03 0. -1.
        -11    1    3    3    0    0 -0.66235331145E+01 -0.39795481622E+01 -0.75099968180E+01  0.10775344401E+02  0.51100000000E-03 0.  1.
         12    1    3    3    0    0 -0.80001219024E+01 -0.17063436372E+02 -0.29086986776E+02  0.34658557543E+02  0.00000000000E+00 0. -1.
</event>
<event>
 7    1  0.4047706E-008  0.4614232E+02  0.7816164E-02  0.1320468E+00
        -11   -1    0    0    0    0  0.00000000000E+00  0.00000000000E+00  0.45593999997E+02  0.45594000000E+02  0.51100000000E-03 0.  1.
         11   -1    0    0    0    0 -0.00000000000E+00 -0.00000000000E+00 -0.45593999997E+02  0.45594000000E+02  0.51100000000E-03 0. -1.
    9900012    2    1    2    0    0  0.69132423192E+01 -0.15038916961E+02 -0.41894528874E+02  0.46142317718E+02  0.99999996068E+01 0.  0.
        -12    1    1    2    0    0 -0.69132423192E+01  0.15038916961E+02  0.41894528874E+02  0.45045682282E+02  0.00000000000E+00 0.  1.
         11    1    3    3    0    0  0.35704227120E+00 -0.27106597660E+01 -0.30359519761E+01  0.40856040205E+01  0.51100000000E-03 0. -1.
        -11    1    3    3    0    0 -0.17006421479E+01 -0.34169897923E+01 -0.11646800567E+02  0.12256262345E+02  0.51100000000E-03 0.  1.
         12    1    3    3    0    0  0.82568421959E+01 -0.89112674026E+01 -0.27211776331E+02  0.29800451353E+02  0.00000000000E+00 0. -1.
</event>
<event>
 7    1  0.4047706E-008  0.4614232E+02  0.7816164E-02  0.1320468E+00
        -11   -1    0    0    0    0  0.00000000000E+00  0.00000000000E+00  0.45593999997E+02  0.45594000000E+02  0.51100000000E-03 0.  1.
         11   -1    0    0    0    0 -0.00000000000E+00 -0.00000000000E+00 -0.45593999997E+02  0.45594000000E+02  0.51100000000E-03 0. -1.
    9900012    2    1    2    0    0  0.97710659588E+01 -0.54301667555E+01 -0.43636600679E+02  0.46142319189E+02  0.10000013017E+02 0.  0.
        -12    1    1    2    0    0 -0.97710659588E+01  0.54301667555E+01  0.43636600679E+02  0.45045680811E+02  0.00000000000E+00 0.  1.
         11    1    3    3    0    0  0.79285338899E+01 -0.57255679779E+01 -0.29990453270E+02  0.31544747041E+02  0.51100000000E-03 0. -1.
        -11    1    3    3    0    0  0.14448059339E+01 -0.21005084964E+01 -0.90106569433E+01  0.93643760573E+01  0.51100000000E-03 0.  1.
        -12    1    3    3    0    0  0.39772613499E+00  0.23959097188E+01 -0.46354904660E+01  0.52331960903E+01  0.00000000000E+00 0.  1.
</event>
<event>
 7    1  0.4047706E-008  0.4614232E+02  0.7816164E-02  0.1320468E+00
        -11   -1    0    0    0    0  0.00000000000E+00  0.00000000000E+00  0.45593999997E+02  0.45594000000E+02  0.51100000000E-03 0.  1.
         11   -1    0    0    0    0 -0.00000000000E+00 -0.00000000000E+00 -0.45593999997E+02  0.45594000000E+02  0.51100000000E-03 0. -1.
    9900012    2    1    2    0    0 -0.38842882904E+00  0.23368377174E+01 -0.44983350483E+02  0.46142317542E+02  0.99999979996E+01 0.  0.
        -12    1    1    2    0    0  0.38842882904E+00 -0.23368377174E+01  0.44983350483E+02  0.45045682458E+02  0.00000000000E+00 0.  1.
         11    1    3    3    0    0  0.11302936090E+01  0.47324791309E+01 -0.24823537887E+02  0.25295888121E+02  0.51100000000E-03 0. -1.
        -11    1    3    3    0    0  0.49399527816E-01 -0.82563500547E+00 -0.32626383367E+00  0.88913543731E+00  0.51100000000E-03 0.  1.
         12    1    3    3    0    0 -0.15681219659E+01 -0.15700064080E+01 -0.19833548762E+02  0.19957293983E+02  0.00000000000E+00 0. -1.
</event>
<event>
 7    1  0.4047706E-008  0.4614232E+02  0.7816164E-02  0.1320468E+00
        -11   -1    0    0    0    0  0.00000000000E+00  0.00000000000E+00  0.45593999997E+02  0.45594000000E+02  0.51100000000E-03 0.  1.
         11   -1    0    0    0    0 -0.00000000000E+00 -0.00000000000E+00 -0.45593999997E+02  0.45594000000E+02  0.51100000000E-03 0. -1.
    9900012    2    1    2    0    0 -0.10986417216E+01 -0.16937051884E+02 -0.41725804905E+02  0.46142317242E+02  0.99999952658E+01 0.  0.
        -12    1    1    2    0    0  0.10986417216E+01  0.16937051884E+02  0.41725804905E+02  0.45045682758E+02  0.00000000000E+00 0.  1.
         11    1    3    3    0    0  0.39915912150E+01 -0.81808228796E+01 -0.21107475063E+02  0.22986608432E+02  0.51100000000E-03 0. -1.
        -11    1    3    3    0    0 -0.77945966033E+00 -0.10291739336E+01 -0.99557998168E+00  0.16303177938E+01  0.51100000000E-03 0.  1.
         12    1    3    3    0    0 -0.43107732762E+01 -0.77270550705E+01 -0.19622749861E+02  0.21525391016E+02  0.00000000000E+00 0. -1.
</event>
<event>
 7    1  0.4047706E-008  0.4614231E+02  0.7816164E-02  0.1320468E+00
        -11   -1    0    0    0    0  0.00000000000E+00  0.00000000000E+00  0.45593999997E+02  0.45594000000E+02  0.51100000000E-03 0. -1.
         11   -1    0    0    0    0 -0.00000000000E+00 -0.00000000000E+00 -0.45593999997E+02  0.45594000000E+02  0.51100000000E-03 0.  1.
    9900012    2    1    2    0    0  0.20792440417E+02  0.24679645753E+02  0.31427747623E+02  0.46142314151E+02  0.99999670799E+01 0.  0.
        -12    1    1    2    0    0 -0.20792440417E+02 -0.24679645753E+02 -0.31427747623E+02  0.45045685849E+02  0.00000000000E+00 0.  1.
         11    1    3    3    0    0  0.17813593837E+02  0.17407471259E+02  0.25015127246E+02  0.35300152584E+02  0.51100000000E-03 0. -1.
        -11    1    3    3    0    0  0.12475959175E+01  0.52920927949E+01  0.61345817543E+01  0.81973065872E+01  0.51100000000E-03 0.  1.
         12    1    3    3    0    0  0.17312506618E+01  0.19800816995E+01  0.27803862218E+00  0.26448549802E+01  0.00000000000E+00 0. -1.
</event>
<event>
 7    1  0.4047706E-008  0.4614232E+02  0.7816164E-02  0.1320468E+00
        -11   -1    0    0    0    0  0.00000000000E+00  0.00000000000E+00  0.45593999997E+02  0.45594000000E+02  0.51100000000E-03 0.  1.
         11   -1    0    0    0    0 -0.00000000000E+00 -0.00000000000E+00 -0.45593999997E+02  0.45594000000E+02  0.51100000000E-03 0. -1.
    9900012    2    1    2    0    0  0.61419342505E+01  0.38848212085E+02  0.21959193413E+02  0.46142321918E+02  0.10000037903E+02 0.  0.
        -12    1    1    2    0    0 -0.61419342505E+01 -0.38848212085E+02 -0.21959193413E+02  0.45045678082E+02  0.00000000000E+00 0.  1.
         11    1    3    3    0    0  0.30902179355E+01  0.22191441719E+02  0.15380119529E+02  0.27176416420E+02  0.51100000000E-03 0. -1.
        -11    1    3    3    0    0 -0.88242194719E+00  0.19850799158E+01  0.23455280457E+01  0.31969849608E+01  0.51100000000E-03 0.  1.
         12    1    3    3    0    0  0.39341382621E+01  0.14671690450E+02  0.42335458384E+01  0.15768920537E+02  0.00000000000E+00 0. -1.
</event>
<event>
 7    1  0.4047706E-008  0.4614232E+02  0.7816164E-02  0.1320468E+00
        -11   -1    0    0    0    0  0.00000000000E+00  0.00000000000E+00  0.45593999997E+02  0.45594000000E+02  0.51100000000E-03 0.  1.
         11   -1    0    0    0    0 -0.00000000000E+00 -0.00000000000E+00 -0.45593999997E+02  0.45594000000E+02  0.51100000000E-03 0. -1.
    9900012    2    1    2    0    0 -0.37402150265E+02 -0.22835013726E+02 -0.10428555654E+02  0.46142317972E+02  0.10000001925E+02 0.  0.
        -12    1    1    2    0    0  0.37402150265E+02  0.22835013726E+02  0.10428555654E+02  0.45045682028E+02  0.00000000000E+00 0.  1.
         11    1    3    3    0    0 -0.72401259819E+01 -0.12847012993E+01 -0.98461962308E+00  0.74188515099E+01  0.51100000000E-03 0.  1.
        -11    1    3    3    0    0 -0.24326525037E+02 -0.14311338062E+02 -0.64088481735E+01  0.28942486982E+02  0.51100000000E-03 0. -1.
        -12    1    3    3    0    0 -0.58354992464E+01 -0.72389743641E+01 -0.30350878576E+01  0.97809794807E+01  0.00000000000E+00 0.  1.
</event>
<event>
 7    1  0.4047706E-008  0.4614232E+02  0.7816164E-02  0.1320468E+00
        -11   -1    0    0    0    0  0.00000000000E+00  0.00000000000E+00  0.45593999997E+02  0.45594000000E+02  0.51100000000E-03 0.  1.
         11   -1    0    0    0    0 -0.00000000000E+00 -0.00000000000E+00 -0.45593999997E+02  0.45594000000E+02  0.51100000000E-03 0. -1.
    9900012    2    1    2    0    0  0.23346462845E+02  0.28065162899E+02 -0.26389443699E+02  0.46142318357E+02  0.10000005434E+02 0.  0.
        -12    1    1    2    0    0 -0.23346462845E+02 -0.28065162899E+02  0.26389443699E+02  0.45045681643E+02  0.00000000000E+00 0.  1.
         11    1    3    3    0    0  0.18139623841E+02  0.17406635369E+02 -0.18119480130E+02  0.30989554182E+02  0.51100000000E-03 0. -1.
        -11    1    3    3    0    0  0.26512988129E+01  0.77469882419E+01 -0.32446316203E+01  0.88075448809E+01  0.51100000000E-03 0.  1.
         12    1    3    3    0    0  0.25555401910E+01  0.29115392889E+01 -0.50253319489E+01  0.63452192945E+01  0.00000000000E+00 0. -1.
</event>
<event>
 7    1  0.4047706E-008  0.4614232E+02  0.7816164E-02  0.1320468E+00
        -11   -1    0    0    0    0  0.00000000000E+00  0.00000000000E+00  0.45593999997E+02  0.45594000000E+02  0.51100000000E-03 0.  1.
         11   -1    0    0    0    0 -0.00000000000E+00 -0.00000000000E+00 -0.45593999997E+02  0.45594000000E+02  0.51100000000E-03 0. -1.
    9900012    2    1    2    0    0 -0.37198297086E+02 -0.24927512651E+02 -0.49009550949E+01  0.46142317033E+02  0.99999933628E+01 0.  0.
        -12    1    1    2    0    0  0.37198297086E+02  0.24927512651E+02  0.49009550949E+01  0.45045682967E+02  0.00000000000E+00 0.  1.
         11    1    3    3    0    0 -0.10228053104E+02 -0.84705150842E+01 -0.11535051386E+01  0.13330163932E+02  0.51100000000E-03 0. -1.
        -11    1    3    3    0    0 -0.15028785952E+02 -0.88616024769E+01 -0.60657205776E+01  0.18471203860E+02  0.51100000000E-03 0.  1.
        -12    1    3    3    0    0 -0.11941458030E+02 -0.75953950904E+01  0.23182706214E+01  0.14340949241E+02  0.00000000000E+00 0.  1.
</event>
<event>
 7    1  0.4047706E-008  0.4614232E+02  0.7816164E-02  0.1320468E+00
        -11   -1    0    0    0    0  0.00000000000E+00  0.00000000000E+00  0.45593999997E+02  0.45594000000E+02  0.51100000000E-03 0. -1.
         11   -1    0    0    0    0 -0.00000000000E+00 -0.00000000000E+00 -0.45593999997E+02  0.45594000000E+02  0.51100000000E-03 0.  1.
    9900012    2    1    2    0    0 -0.46513073866E+01  0.39547879388E+02  0.21058107323E+02  0.46142319757E+02  0.10000018200E+02 0.  0.
        -12    1    1    2    0    0  0.46513073866E+01 -0.39547879388E+02 -0.21058107323E+02  0.45045680243E+02  0.00000000000E+00 0.  1.
         11    1    3    3    0    0 -0.24198687809E+01  0.12818208023E+02  0.30989868731E+01  0.13407682191E+02  0.51100000000E-03 0.  1.
        -11    1    3    3    0    0 -0.48487997791E+00  0.16343011190E+02  0.13854060543E+02  0.21430448365E+02  0.51100000000E-03 0. -1.
        -12    1    3    3    0    0 -0.17465586278E+01  0.10386660176E+02  0.41050599072E+01  0.11304189201E+02  0.00000000000E+00 0.  1.
</event>
<event>
 7    1  0.4047706E-008  0.4614230E+02  0.7816164E-02  0.1320468E+00
        -11   -1    0    0    0    0  0.00000000000E+00  0.00000000000E+00  0.45593999997E+02  0.45594000000E+02  0.51100000000E-03 0.  1.
         11   -1    0    0    0    0 -0.00000000000E+00 -0.00000000000E+00 -0.45593999997E+02  0.45594000000E+02  0.51100000000E-03 0. -1.
    9900012    2    1    2    0    0  0.29070385579E+02 -0.16778846807E+02 -0.30041600942E+02  0.46142303147E+02  0.99998667320E+01 0.  0.
        -12    1    1    2    0    0 -0.29070385579E+02  0.16778846807E+02  0.30041600942E+02  0.45045696853E+02  0.00000000000E+00 0.  1.
         11    1    3    3    0    0  0.16273647290E+02 -0.12244378653E+02 -0.16635936014E+02  0.26296592404E+02  0.51100000000E-03 0.  1.
        -11    1    3    3    0    0  0.67491779015E+01 -0.48917735534E+01 -0.94965207954E+01  0.12635852101E+02  0.51100000000E-03 0. -1.
        -12    1    3    3    0    0  0.60475603871E+01  0.35730539958E+00 -0.39091441320E+01  0.72098586414E+01  0.00000000000E+00 0.  1.
</event>
<event>
 7    1  0.4047706E-008  0.4614232E+02  0.7816164E-02  0.1320468E+00
        -11   -1    0    0    0    0  0.00000000000E+00  0.00000000000E+00  0.45593999997E+02  0.45594000000E+02  0.51100000000E-03 0.  1.
         11   -1    0    0    0    0 -0.00000000000E+00 -0.00000000000E+00 -0.45593999997E+02  0.45594000000E+02  0.51100000000E-03 0. -1.
    9900012    2    1    2    0    0  0.28891584365E+02 -0.25805581316E+02 -0.22988297903E+02  0.46142317469E+02  0.99999973373E+01 0.  0.
        -12    1    1    2    0    0 -0.28891584365E+02  0.25805581316E+02  0.22988297903E+02  0.45045682531E+02  0.00000000000E+00 0.  1.
         11    1    3    3    0    0  0.33840466930E+01 -0.20459251671E+01 -0.60838804250E+01  0.72561134981E+01  0.51100000000E-03 0. -1.
        -11    1    3    3    0    0  0.57254563131E+01 -0.56991530893E+01 -0.24131285677E+01  0.84311556547E+01  0.51100000000E-03 0.  1.
         12    1    3    3    0    0  0.19782081359E+02 -0.18060503059E+02 -0.14491288911E+02  0.30455048316E+02  0.00000000000E+00 0. -1.
</event>
<event>
 7    1  0.4047706E-008  0.4614232E+02  0.7816164E-02  0.1320468E+00
        -11   -1    0    0    0    0  0.00000000000E+00  0.00000000000E+00  0.45593999997E+02  0.45594000000E+02  0.51100000000E-03 0. -1.
         11   -1    0    0    0    0 -0.00000000000E+00 -0.00000000000E+00 -0.45593999997E+02  0.45594000000E+02  0.51100000000E-03 0.  1.
    9900012    2    1    2    0    0 -0.30334850964E+02  0.26945044982E+02  0.19567189454E+02  0.46142317241E+02  0.99999952574E+01 0.  0.
        -12    1    1    2    0    0  0.30334850964E+02 -0.26945044982E+02 -0.19567189454E+02  0.45045682759E+02  0.00000000000E+00 0.  1.
         11    1    3    3    0    0 -0.65658332515E+01  0.90371360941E+01  0.96800334210E+01  0.14781171887E+02  0.51100000000E-03 0. -1.
        -11    1    3    3    0    0 -0.82736792529E+01  0.61149145384E+01  0.32888111398E+01  0.10801028986E+02  0.51100000000E-03 0.  1.
         12    1    3    3    0    0 -0.15495338459E+02  0.11792994350E+02  0.65983448933E+01  0.20560116367E+02  0.00000000000E+00 0. -1.
</event>
<event>
 7    1  0.4047706E-008  0.4614231E+02  0.7816164E-02  0.1320468E+00
        -11   -1    0    0    0    0  0.00000000000E+00  0.00000000000E+00  0.45593999997E+02  0.45594000000E+02  0.51100000000E-03 0. -1.
         11   -1    0    0    0    0 -0.00000000000E+00 -0.00000000000E+00 -0.45593999997E+02  0.45594000000E+02  0.51100000000E-03 0.  1.
    9900012    2    1    2    0    0 -0.44861257119E+02 -0.21062850583E+01  0.34849936200E+01  0.46142311997E+02  0.99999474426E+01 0.  0.
        -12    1    1    2    0    0  0.44861257119E+02  0.21062850583E+01 -0.34849936200E+01  0.45045688003E+02  0.00000000000E+00 0.  1.
         11    1    3    3    0    0 -0.21372163496E+02 -0.39774382393E-01  0.51327847709E+01  0.21979909788E+02  0.51100000000E-03 0. -1.
        -11    1    3    3    0    0  0.72003299458E-01  0.99282568645E-01  0.39533486268E+00  0.41392199548E+00  0.51100000000E-03 0.  1.
        -12    1    3    3    0    0 -0.23561096923E+02 -0.21657932446E+01 -0.20431260136E+01  0.23748480214E+02  0.00000000000E+00 0.  1.
</event>
<event>
 7    1  0.4047706E-008  0.4614232E+02  0.7816164E-02  0.1320468E+00
        -11   -1    0    0    0    0  0.00000000000E+00  0.00000000000E+00  0.45593999997E+02  0.45594000000E+02  0.51100000000E-03 0.  1.
         11   -1    0    0    0    0 -0.00000000000E+00 -0.00000000000E+00 -0.45593999997E+02  0.45594000000E+02  0.51100000000E-03 0. -1.
    9900012    2    1    2    0    0 -0.16701395691E+01 -0.27636193457E+02 -0.35532593217E+02  0.46142315016E+02  0.99999749645E+01 0.  0.
        -12    1    1    2    0    0  0.16701395691E+01  0.27636193457E+02  0.35532593217E+02  0.45045684984E+02  0.00000000000E+00 0.  1.
         11    1    3    3    0    0  0.10100377812E+01 -0.13924587235E+02 -0.12826584900E+02  0.18958786523E+02  0.51100000000E-03 0. -1.
        -11    1    3    3    0    0 -0.52643278835E+00 -0.25093962717E+01 -0.89654576833E+01  0.93248931822E+01  0.51100000000E-03 0.  1.
         12    1    3    3    0    0 -0.21537445620E+01 -0.11202209951E+02 -0.13740550634E+02  0.17858635310E+02  0.00000000000E+00 0. -1.
</event>
<event>
 7    1  0.4047706E-008  0.4614232E+02  0.7816164E-02  0.1320468E+00
        -11   -1    0    0    0    0  0.00000000000E+00  0.00000000000E+00  0.45593999997E+02  0.45594000000E+02  0.51100000000E-03 0.  1.
         11   -1    0    0    0    0 -0.00000000000E+00 -0.00000000000E+00 -0.45593999997E+02  0.45594000000E+02  0.51100000000E-03 0. -1.
    9900012    2    1    2    0    0 -0.11717384595E+02  0.28616761652E+02 -0.32755105583E+02  0.46142322173E+02  0.10000040227E+02 0.  0.
        -12    1    1    2    0    0  0.11717384595E+02 -0.28616761652E+02  0.32755105583E+02  0.45045677827E+02  0.00000000000E+00 0.  1.
         11    1    3    3    0    0  0.45022914176E+00  0.66008720635E+01 -0.70197944709E+01  0.96463326168E+01  0.51100000000E-03 0. -1.
        -11    1    3    3    0    0 -0.36195351101E+01  0.62130125432E+01 -0.37707104203E+01  0.81191635413E+01  0.51100000000E-03 0.  1.
         12    1    3    3    0    0 -0.85480786264E+01  0.15802877046E+02 -0.21964600691E+02  0.28376826014E+02  0.00000000000E+00 0. -1.
</event>
<event>
 7    1  0.4047706E-008  0.4614232E+02  0.7816164E-02  0.1320468E+00
        -11   -1    0    0    0    0  0.00000000000E+00  0.00000000000E+00  0.45593999997E+02  0.45594000000E+02  0.51100000000E-03 0.  1.
         11   -1    0    0    0    0 -0.00000000000E+00 -0.00000000000E+00 -0.45593999997E+02  0.45594000000E+02  0.51100000000E-03 0. -1.
    9900012    2    1    2    0    0  0.31679066327E+02  0.64400662175E+01 -0.31369982253E+02  0.46142317823E+02  0.10000000563E+02 0.  0.
        -12    1    1    2    0    0 -0.31679066327E+02 -0.64400662175E+01  0.31369982253E+02  0.45045682177E+02  0.00000000000E+00 0.  1.
         11    1    3    3    0    0  0.95188467971E+01  0.12422492749E+01 -0.14979446676E+02  0.17791443184E+02  0.51100000000E-03 0. -1.
        -11    1    3    3    0    0  0.88894586697E+01  0.16191293244E+01 -0.89648902130E+01  0.12728444995E+02  0.51100000000E-03 0.  1.
        -12    1    3    3    0    0  0.13270760860E+02  0.35786876182E+01 -0.74256453646E+01  0.15622429643E+02  0.00000000000E+00 0.  1.
</event>
<event>
 7    1  0.4047706E-008  0.4614232E+02  0.7816164E-02  0.1320468E+00
        -11   -1    0    0    0    0  0.00000000000E+00  0.00000000000E+00  0.45593999997E+02  0.45594000000E+02  0.51100000000E-03 0.  1.
         11   -1    0    0    0    0 -0.00000000000E+00 -0.00000000000E+00 -0.45593999997E+02  0.45594000000E+02  0.51100000000E-03 0. -1.
    9900012    2    1    2    0    0 -0.25839112728E+02 -0.36954479457E+00 -0.36896030184E+02  0.46142319260E+02  0.10000013672E+02 0.  0.
        -12    1    1    2    0    0  0.25839112728E+02  0.36954479457E+00  0.36896030184E+02  0.45045680740E+02  0.00000000000E+00 0.  1.
         11    1    3    3    0    0 -0.19918682472E+02  0.32578710328E+01 -0.31009379694E+02  0.36999314377E+02  0.51100000000E-03 0. -1.
        -11    1    3    3    0    0 -0.21953102667E+00 -0.22214542017E+00 -0.51314712800E+00  0.60071848271E+00  0.51100000000E-03 0.  1.
         12    1    3    3    0    0 -0.57008992296E+01 -0.34052704072E+01 -0.53735033620E+01  0.85422864008E+01  0.00000000000E+00 0. -1.
</event>
<event>
 7    1  0.4047706E-008  0.4614232E+02  0.7816164E-02  0.1320468E+00
        -11   -1    0    0    0    0  0.00000000000E+00  0.00000000000E+00  0.45593999997E+02  0.45594000000E+02  0.51100000000E-03 0. -1.
         11   -1    0    0    0    0 -0.00000000000E+00 -0.00000000000E+00 -0.45593999997E+02  0.45594000000E+02  0.51100000000E-03 0.  1.
    9900012    2    1    2    0    0 -0.58749265661E+01  0.40976420569E+02  0.17763213210E+02  0.46142317095E+02  0.99999939298E+01 0.  0.
        -12    1    1    2    0    0  0.58749265661E+01 -0.40976420569E+02 -0.17763213210E+02  0.45045682905E+02  0.00000000000E+00 0.  1.
         11    1    3    3    0    0 -0.55949879099E-01  0.68757603999E+01  0.32409919386E+01  0.76015288247E+01  0.51100000000E-03 0. -1.
        -11    1    3    3    0    0 -0.30258751267E+01  0.23271180961E+02  0.53317193630E+01  0.24065141080E+02  0.51100000000E-03 0.  1.
         12    1    3    3    0    0 -0.27931015604E+01  0.10829479208E+02  0.91905019089E+01  0.14475647190E+02  0.00000000000E+00 0. -1.
</event>
<event>
 7    1  0.4047706E-008  0.4614232E+02  0.7816164E-02  0.1320468E+00
        -11   -1    0    0    0    0  0.00000000000E+00  0.00000000000E+00  0.45593999997E+02  0.45594000000E+02  0.51100000000E-03 0. -1.
         11   -1    0    0    0    0 -0.00000000000E+00 -0.00000000000E+00 -0.45593999997E+02  0.45594000000E+02  0.51100000000E-03 0.  1.
    9900012    2    1    2    0    0 -0.27967604876E+02 -0.97797867361E+01  0.33930550720E+02  0.46142318484E+02  0.10000006592E+02 0.  0.
        -12    1    1    2    0    0  0.27967604876E+02  0.97797867361E+01 -0.33930550720E+02  0.45045681516E+02  0.00000000000E+00 0.  1.
         11    1    3    3    0    0 -0.51642587882E+01 -0.15878665826E+01  0.29776419245E+01  0.61690550984E+01  0.51100000000E-03 0. -1.
        -11    1    3    3    0    0 -0.67799909440E+01  0.85972632928E+00  0.72282419918E+01  0.99476072055E+01  0.51100000000E-03 0.  1.
         12    1    3    3    0    0 -0.16023355143E+02 -0.90516464827E+01  0.23724666804E+02  0.30025656180E+02  0.00000000000E+00 0. -1.
</event>
<event>
 7    1  0.4047706E-008  0.4614232E+02  0.7816164E-02  0.1320468E+00
        -11   -1    0    0    0    0  0.00000000000E+00  0.00000000000E+00  0.45593999997E+02  0.45594000000E+02  0.51100000000E-03 0. -1.
         11   -1    0    0    0    0 -0.00000000000E+00 -0.00000000000E+00 -0.45593999997E+02  0.45594000000E+02  0.51100000000E-03 0.  1.
    9900012    2    1    2    0    0  0.20245289156E+02  0.36277794328E+02  0.17411587833E+02  0.46142317796E+02  0.10000000318E+02 0.  0.
        -12    1    1    2    0    0 -0.20245289156E+02 -0.36277794328E+02 -0.17411587833E+02  0.45045682204E+02  0.00000000000E+00 0.  1.
         11    1    3    3    0    0  0.39841565775E+01  0.51427016460E+01  0.36057444989E+00  0.65154353690E+01  0.51100000000E-03 0. -1.
        -11    1    3    3    0    0  0.15617828200E+02  0.30665313943E+02  0.15217461367E+02  0.37627771229E+02  0.51100000000E-03 0.  1.
        -12    1    3    3    0    0  0.64330437886E+00  0.46977873945E+00  0.18335520160E+01  0.19991111983E+01  0.00000000000E+00 0.  1.
</event>
<event>
 7    1  0.4047706E-008  0.4614232E+02  0.7816164E-02  0.1320468E+00
        -11   -1    0    0    0    0  0.00000000000E+00  0.00000000000E+00  0.45593999997E+02  0.45594000000E+02  0.51100000000E-03 0.  1.
         11   -1    0    0    0    0 -0.00000000000E+00 -0.00000000000E+00 -0.45593999997E+02  0.45594000000E+02  0.51100000000E-03 0. -1.
    9900012    2    1    2    0    0  0.35412121580E+01 -0.17683654679E+02 -0.41277858795E+02  0.46142318153E+02  0.10000003574E+02 0.  0.
        -12    1    1    2    0    0 -0.35412121580E+01  0.17683654679E+02  0.41277858795E+02  0.45045681847E+02  0.00000000000E+00 0.  1.
         11    1    3    3    0    0 -0.20634371066E+00 -0.60865251769E+01 -0.86904244226E+01  0.10611872755E+02  0.51100000000E-03 0. -1.
        -11    1    3    3    0    0 -0.92088453209E+00 -0.78776266049E+01 -0.15163885652E+02  0.17112815594E+02  0.51100000000E-03 0.  1.
         12    1    3    3    0    0  0.46684404007E+01 -0.37195028974E+01 -0.17423548720E+02  0.18417629804E+02  0.00000000000E+00 0. -1.
</event>
<event>
 7    1  0.4047706E-008  0.4614232E+02  0.7816164E-02  0.1320468E+00
        -11   -1    0    0    0    0  0.00000000000E+00  0.00000000000E+00  0.45593999997E+02  0.45594000000E+02  0.51100000000E-03 0.  1.
         11   -1    0    0    0    0 -0.00000000000E+00 -0.00000000000E+00 -0.45593999997E+02  0.45594000000E+02  0.51100000000E-03 0. -1.
    9900012    2    1    2    0    0  0.24877168672E+02 -0.37506322464E+02  0.18750437217E+01  0.46142317244E+02  0.99999952883E+01 0.  0.
        -12    1    1    2    0    0 -0.24877168672E+02  0.37506322464E+02 -0.18750437217E+01  0.45045682756E+02  0.00000000000E+00 0.  1.
         11    1    3    3    0    0  0.18656935906E+02 -0.29001821038E+02 -0.26154414353E+01  0.34583629293E+02  0.51100000000E-03 0. -1.
        -11    1    3    3    0    0  0.13712648746E+01 -0.10991869092E+01  0.37447466175E+00  0.17968891872E+01  0.51100000000E-03 0.  1.
        -12    1    3    3    0    0  0.48489678920E+01 -0.74053145176E+01  0.41160104953E+01  0.97617987646E+01  0.00000000000E+00 0.  1.
</event>
<event>
 7    1  0.4047706E-008  0.4614232E+02  0.7816164E-02  0.1320468E+00
        -11   -1    0    0    0    0  0.00000000000E+00  0.00000000000E+00  0.45593999997E+02  0.45594000000E+02  0.51100000000E-03 0. -1.
         11   -1    0    0    0    0 -0.00000000000E+00 -0.00000000000E+00 -0.45593999997E+02  0.45594000000E+02  0.51100000000E-03 0.  1.
    9900012    2    1    2    0    0  0.13802710874E+02 -0.42813605110E+02  0.23651150381E+01  0.46142318973E+02  0.10000011054E+02 0.  0.
        -12    1    1    2    0    0 -0.13802710874E+02  0.42813605110E+02 -0.23651150381E+01  0.45045681027E+02  0.00000000000E+00 0.  1.
         11    1    3    3    0    0  0.17201813583E+01 -0.12643612291E+02  0.26227861970E+01  0.13026855467E+02  0.51100000000E-03 0. -1.
        -11    1    3    3    0    0  0.57912929864E+00 -0.60469514314E+01  0.17301253657E+01  0.63161971471E+01  0.51100000000E-03 0.  1.
         12    1    3    3    0    0  0.11503400217E+02 -0.24123041388E+02 -0.19877965245E+01  0.26799266359E+02  0.00000000000E+00 0. -1.
</event>
<event>
 7    1  0.4047706E-008  0.4614232E+02  0.7816164E-02  0.1320468E+00
        -11   -1    0    0    0    0  0.00000000000E+00  0.00000000000E+00  0.45593999997E+02  0.45594000000E+02  0.51100000000E-03 0. -1.
         11   -1    0    0    0    0 -0.00000000000E+00 -0.00000000000E+00 -0.45593999997E+02  0.45594000000E+02  0.51100000000E-03 0.  1.
    9900012    2    1    2    0    0  0.21112498780E+01  0.35144679221E+02  0.28098179708E+02  0.46142317004E+02  0.99999930996E+01 0.  0.
        -12    1    1    2    0    0 -0.21112498780E+01 -0.35144679221E+02 -0.28098179708E+02  0.45045682996E+02  0.00000000000E+00 0.  1.
         11    1    3    3    0    0 -0.81822850478E+00  0.68999984272E+01  0.52737367042E+01  0.87230599716E+01  0.51100000000E-03 0. -1.
        -11    1    3    3    0    0  0.48369829450E+01  0.82266671833E+01  0.73025553848E+01  0.12016728855E+02  0.51100000000E-03 0.  1.
        -12    1    3    3    0    0 -0.19075045622E+01  0.20018013611E+02  0.15521887619E+02  0.25402528178E+02  0.00000000000E+00 0.  1.
</event>
<event>
 7    1  0.4047706E-008  0.4614231E+02  0.7816164E-02  0.1320468E+00
        -11   -1    0    0    0    0  0.00000000000E+00  0.00000000000E+00  0.45593999997E+02  0.45594000000E+02  0.51100000000E-03 0.  1.
         11   -1    0    0    0    0 -0.00000000000E+00 -0.00000000000E+00 -0.45593999997E+02  0.45594000000E+02  0.51100000000E-03 0. -1.
    9900012    2    1    2    0    0  0.78103759054E+01  0.95133754307E+00 -0.44353204591E+02  0.46142314609E+02  0.99999712540E+01 0.  0.
        -12    1    1    2    0    0 -0.78103759054E+01 -0.95133754307E+00  0.44353204591E+02  0.45045685391E+02  0.00000000000E+00 0.  1.
         11    1    3    3    0    0 -0.11163290079E+01  0.17719177313E+01 -0.14400249927E+02  0.14551738080E+02  0.51100000000E-03 0. -1.
        -11    1    3    3    0    0  0.19756467885E+01  0.17256339003E+01 -0.71415148301E+01  0.76080369952E+01  0.51100000000E-03 0.  1.
        -12    1    3    3    0    0  0.69510581247E+01 -0.25462140885E+01 -0.22811439833E+02  0.23982539534E+02  0.00000000000E+00 0.  1.
</event>
<event>
 7    1  0.4047706E-008  0.4614232E+02  0.7816164E-02  0.1320468E+00
        -11   -1    0    0    0    0  0.00000000000E+00  0.00000000000E+00  0.45593999997E+02  0.45594000000E+02  0.51100000000E-03 0. -1.
         11   -1    0    0    0    0 -0.00000000000E+00 -0.00000000000E+00 -0.45593999997E+02  0.45594000000E+02  0.51100000000E-03 0.  1.
    9900012    2    1    2    0    0  0.20680291949E+02  0.15499414624E+02  0.36894541475E+02  0.46142317416E+02  0.99999968573E+01 0.  0.
        -12    1    1    2    0    0 -0.20680291949E+02 -0.15499414624E+02 -0.36894541475E+02  0.45045682584E+02  0.00000000000E+00 0.  1.
         11    1    3    3    0    0  0.28012815729E+00  0.29777487131E+01  0.59110677941E+01  0.66246646640E+01  0.51100000000E-03 0.  1.
        -11    1    3    3    0    0  0.32890315444E+01  0.44300934455E+01  0.84151043082E+01  0.10062675450E+02  0.51100000000E-03 0. -1.
         12    1    3    3    0    0  0.17111132247E+02  0.80915724654E+01  0.22568369372E+02  0.29454977302E+02  0.00000000000E+00 0. -1.
</event>
<event>
 7    1  0.4047706E-008  0.4614232E+02  0.7816164E-02  0.1320468E+00
        -11   -1    0    0    0    0  0.00000000000E+00  0.00000000000E+00  0.45593999997E+02  0.45594000000E+02  0.51100000000E-03 0.  1.
         11   -1    0    0    0    0 -0.00000000000E+00 -0.00000000000E+00 -0.45593999997E+02  0.45594000000E+02  0.51100000000E-03 0. -1.
    9900012    2    1    2    0    0 -0.40442755732E+02 -0.59130694674E+01 -0.18934956730E+02  0.46142317986E+02  0.10000002054E+02 0.  0.
        -12    1    1    2    0    0  0.40442755732E+02  0.59130694674E+01  0.18934956730E+02  0.45045682014E+02  0.00000000000E+00 0.  1.
         11    1    3    3    0    0 -0.27305862556E+02 -0.26753692005E+01 -0.92612050162E+01  0.28957514549E+02  0.51100000000E-03 0. -1.
        -11    1    3    3    0    0 -0.72613514915E+01 -0.12478908869E+01 -0.26892392045E+01  0.78432432647E+01  0.51100000000E-03 0.  1.
        -12    1    3    3    0    0 -0.58755416844E+01 -0.19898093800E+01 -0.69845125097E+01  0.93415601723E+01  0.00000000000E+00 0.  1.
</event>
<event>
 7    1  0.4047706E-008  0.4614232E+02  0.7816164E-02  0.1320468E+00
        -11   -1    0    0    0    0  0.00000000000E+00  0.00000000000E+00  0.45593999997E+02  0.45594000000E+02  0.51100000000E-03 0.  1.
         11   -1    0    0    0    0 -0.00000000000E+00 -0.00000000000E+00 -0.45593999997E+02  0.45594000000E+02  0.51100000000E-03 0. -1.
    9900012    2    1    2    0    0  0.47971635698E+01 -0.22062008356E+01 -0.44735147525E+02  0.46142317360E+02  0.99999963379E+01 0.  0.
        -12    1    1    2    0    0 -0.47971635698E+01  0.22062008356E+01  0.44735147525E+02  0.45045682640E+02  0.00000000000E+00 0.  1.
         11    1    3    3    0    0  0.53566717791E+01 -0.25934308739E+01 -0.12051050109E+02  0.13440521762E+02  0.51100000000E-03 0.  1.
        -11    1    3    3    0    0 -0.81207138980E-01  0.54761394034E+00 -0.14128601917E+02  0.14139443696E+02  0.51100000000E-03 0. -1.
        -12    1    3    3    0    0 -0.47830107029E+00 -0.16038390205E+00 -0.18555495499E+02  0.18562351902E+02  0.00000000000E+00 0.  1.
</event>
<event>
 7    1  0.4047706E-008  0.4614233E+02  0.7816164E-02  0.1320468E+00
        -11   -1    0    0    0    0  0.00000000000E+00  0.00000000000E+00  0.45593999997E+02  0.45594000000E+02  0.51100000000E-03 0.  1.
         11   -1    0    0    0    0 -0.00000000000E+00 -0.00000000000E+00 -0.45593999997E+02  0.45594000000E+02  0.51100000000E-03 0. -1.
    9900012    2    1    2    0    0 -0.20669283485E+02  0.20113346376E+02 -0.34602699247E+02  0.46142325652E+02  0.10000071957E+02 0.  0.
        -12    1    1    2    0    0  0.20669283485E+02 -0.20113346376E+02  0.34602699247E+02  0.45045674348E+02  0.00000000000E+00 0.  1.
         11    1    3    3    0    0 -0.90263222211E+01  0.10059480973E+02 -0.14747743689E+02  0.20004089443E+02  0.51100000000E-03 0. -1.
        -11    1    3    3    0    0 -0.54479031131E+01  0.86918349795E+01 -0.14897999066E+02  0.18088062917E+02  0.51100000000E-03 0.  1.
        -12    1    3    3    0    0 -0.61950581510E+01  0.13620304244E+01 -0.49569564920E+01  0.80501732922E+01  0.00000000000E+00 0.  1.
</event>
<event>
 7    1  0.4047706E-008  0.4614232E+02  0.7816164E-02  0.1320468E+00
        -11   -1    0    0    0    0  0.00000000000E+00  0.00000000000E+00  0.45593999997E+02  0.45594000000E+02  0.51100000000E-03 0.  1.
         11   -1    0    0    0    0 -0.00000000000E+00 -0.00000000000E+00 -0.45593999997E+02  0.45594000000E+02  0.51100000000E-03 0. -1.
    9900012    2    1    2    0    0 -0.41391589570E+02  0.11840349392E+02 -0.13253526323E+02  0.46142317401E+02  0.99999967120E+01 0.  0.
        -12    1    1    2    0    0  0.41391589570E+02 -0.11840349392E+02  0.13253526323E+02  0.45045682599E+02  0.00000000000E+00 0.  1.
         11    1    3    3    0    0 -0.22817292719E+02  0.69235958339E+01 -0.81475844616E+01  0.25198177695E+02  0.51100000000E-03 0. -1.
        -11    1    3    3    0    0 -0.18976916840E+02  0.47448320747E+01 -0.55370930593E+01  0.20329687749E+02  0.51100000000E-03 0.  1.
        -12    1    3    3    0    0  0.40261998937E+00  0.17192148350E+00  0.43115119735E+00  0.61445195688E+00  0.00000000000E+00 0.  1.
</event>
<event>
 7    1  0.4047706E-008  0.4614232E+02  0.7816164E-02  0.1320468E+00
        -11   -1    0    0    0    0  0.00000000000E+00  0.00000000000E+00  0.45593999997E+02  0.45594000000E+02  0.51100000000E-03 0.  1.
         11   -1    0    0    0    0 -0.00000000000E+00 -0.00000000000E+00 -0.45593999997E+02  0.45594000000E+02  0.51100000000E-03 0. -1.
    9900012    2    1    2    0    0 -0.15435880361E+02  0.14555822061E+02 -0.39736319968E+02  0.46142317820E+02  0.10000000541E+02 0.  0.
        -12    1    1    2    0    0  0.15435880361E+02 -0.14555822061E+02  0.39736319968E+02  0.45045682180E+02  0.00000000000E+00 0.  1.
         11    1    3    3    0    0 -0.28842364249E+01  0.57945806774E+00 -0.12376076390E+02  0.12720922076E+02  0.51100000000E-03 0. -1.
        -11    1    3    3    0    0 -0.45201955538E+01  0.79619565723E+01 -0.13416770089E+02  0.16242987416E+02  0.51100000000E-03 0.  1.
         12    1    3    3    0    0 -0.80314483825E+01  0.60144074206E+01 -0.13943473490E+02  0.17178408329E+02  0.00000000000E+00 0. -1.
</event>
<event>
 7    1  0.4047706E-008  0.4614231E+02  0.7816164E-02  0.1320468E+00
        -11   -1    0    0    0    0  0.00000000000E+00  0.00000000000E+00  0.45593999997E+02  0.45594000000E+02  0.51100000000E-03 0.  1.
         11   -1    0    0    0    0 -0.00000000000E+00 -0.00000000000E+00 -0.45593999997E+02  0.45594000000E+02  0.51100000000E-03 0. -1.
    9900012    2    1    2    0    0  0.23934148195E+02  0.36108337305E+02 -0.12347417787E+02  0.46142309876E+02  0.99999280983E+01 0.  0.
        -12    1    1    2    0    0 -0.23934148195E+02 -0.36108337305E+02  0.12347417787E+02  0.45045690124E+02  0.00000000000E+00 0.  1.
         11    1    3    3    0    0  0.10582804973E+01  0.30459443632E+01  0.72107042552E+00  0.33041908986E+01  0.51100000000E-03 0. -1.
        -11    1    3    3    0    0  0.12431811630E+02  0.17757805340E+02 -0.34108170855E+01  0.21943638357E+02  0.51100000000E-03 0.  1.
         12    1    3    3    0    0  0.10444056067E+02  0.15304587602E+02 -0.96576711274E+01  0.20894480620E+02  0.00000000000E+00 0. -1.
</event>
<event>
 7    1  0.4047706E-008  0.4614232E+02  0.7816164E-02  0.1320468E+00
        -11   -1    0    0    0    0  0.00000000000E+00  0.00000000000E+00  0.45593999997E+02  0.45594000000E+02  0.51100000000E-03 0.  1.
         11   -1    0    0    0    0 -0.00000000000E+00 -0.00000000000E+00 -0.45593999997E+02  0.45594000000E+02  0.51100000000E-03 0. -1.
    9900012    2    1    2    0    0  0.34594957549E+02 -0.18518829575E+02 -0.22121380714E+02  0.46142316285E+02  0.99999865361E+01 0.  0.
        -12    1    1    2    0    0 -0.34594957549E+02  0.18518829575E+02  0.22121380714E+02  0.45045683715E+02  0.00000000000E+00 0.  1.
         11    1    3    3    0    0  0.11068287035E+02 -0.45637420978E+01 -0.20388132943E+01  0.12144607023E+02  0.51100000000E-03 0. -1.
        -11    1    3    3    0    0  0.57104638629E+01 -0.23845704967E+01 -0.46013949895E+01  0.77115763689E+01  0.51100000000E-03 0.  1.
         12    1    3    3    0    0  0.17816206652E+02 -0.11570516981E+02 -0.15481172430E+02  0.26286132893E+02  0.00000000000E+00 0. -1.
</event>
<event>
 7    1  0.4047706E-008  0.4614232E+02  0.7816164E-02  0.1320468E+00
        -11   -1    0    0    0    0  0.00000000000E+00  0.00000000000E+00  0.45593999997E+02  0.45594000000E+02  0.51100000000E-03 0.  1.
         11   -1    0    0    0    0 -0.00000000000E+00 -0.00000000000E+00 -0.45593999997E+02  0.45594000000E+02  0.51100000000E-03 0. -1.
    9900012    2    1    2    0    0 -0.25970245414E+02 -0.35060423903E+02 -0.11199400484E+02  0.46142317162E+02  0.99999945356E+01 0.  0.
        -12    1    1    2    0    0  0.25970245414E+02  0.35060423903E+02  0.11199400484E+02  0.45045682838E+02  0.00000000000E+00 0.  1.
         11    1    3    3    0    0 -0.39985626462E+01 -0.46648300121E+01  0.69646040010E+00  0.61833809221E+01  0.51100000000E-03 0. -1.
        -11    1    3    3    0    0 -0.73366301731E+01 -0.83218829899E+01 -0.67281390934E+01  0.12974888621E+02  0.51100000000E-03 0.  1.
         12    1    3    3    0    0 -0.14635052595E+02 -0.22073710901E+02 -0.51677217902E+01  0.26984047619E+02  0.00000000000E+00 0. -1.
</event>
<event>
 7    1  0.4047706E-008  0.4614232E+02  0.7816164E-02  0.1320468E+00
        -11   -1    0    0    0    0  0.00000000000E+00  0.00000000000E+00  0.45593999997E+02  0.45594000000E+02  0.51100000000E-03 0.  1.
         11   -1    0    0    0    0 -0.00000000000E+00 -0.00000000000E+00 -0.45593999997E+02  0.45594000000E+02  0.51100000000E-03 0. -1.
    9900012    2    1    2    0    0 -0.21653502339E+02 -0.30219448033E+02  0.25436673180E+02  0.46142317128E+02  0.99999942239E+01 0.  0.
        -12    1    1    2    0    0  0.21653502339E+02  0.30219448033E+02 -0.25436673180E+02  0.45045682872E+02  0.00000000000E+00 0.  1.
         11    1    3    3    0    0 -0.79016287351E+01 -0.11603148096E+02  0.11958928129E+02  0.18441386734E+02  0.51100000000E-03 0. -1.
        -11    1    3    3    0    0  0.14618666736E+00  0.10212049453E+00 -0.49115746759E+00  0.52252756502E+00  0.51100000000E-03 0.  1.
        -12    1    3    3    0    0 -0.13898060271E+02 -0.18718420432E+02  0.13968902518E+02  0.27178402829E+02  0.00000000000E+00 0.  1.
</event>
<event>
 7    1  0.4047706E-008  0.4614231E+02  0.7816164E-02  0.1320468E+00
        -11   -1    0    0    0    0  0.00000000000E+00  0.00000000000E+00  0.45593999997E+02  0.45594000000E+02  0.51100000000E-03 0.  1.
         11   -1    0    0    0    0 -0.00000000000E+00 -0.00000000000E+00 -0.45593999997E+02  0.45594000000E+02  0.51100000000E-03 0. -1.
    9900012    2    1    2    0    0 -0.24839259849E+01 -0.44680394593E+02  0.51581739874E+01  0.46142308661E+02  0.99999170210E+01 0.  0.
        -12    1    1    2    0    0  0.24839259849E+01  0.44680394593E+02 -0.51581739874E+01  0.45045691339E+02  0.00000000000E+00 0.  1.
         11    1    3    3    0    0  0.33415780200E+00 -0.12599518587E+00  0.81000904197E-01  0.36619343399E+00  0.51100000000E-03 0. -1.
        -11    1    3    3    0    0  0.31698237346E+01 -0.14463573791E+02  0.20016082564E+01  0.14941525531E+02  0.51100000000E-03 0.  1.
         12    1    3    3    0    0 -0.59879075215E+01 -0.30090825616E+02  0.30755648268E+01  0.30834589696E+02  0.00000000000E+00 0. -1.
</event>
<event>
 7    1  0.4047706E-008  0.4614232E+02  0.7816164E-02  0.1320468E+00
        -11   -1    0    0    0    0  0.00000000000E+00  0.00000000000E+00  0.45593999997E+02  0.45594000000E+02  0.51100000000E-03 0.  1.
         11   -1    0    0    0    0 -0.00000000000E+00 -0.00000000000E+00 -0.45593999997E+02  0.45594000000E+02  0.51100000000E-03 0. -1.
    9900012    2    1    2    0    0 -0.29693494418E+02  0.14364052694E+02 -0.30677090090E+02  0.46142317888E+02  0.10000001156E+02 0.  0.
        -12    1    1    2    0    0  0.29693494418E+02 -0.14364052694E+02  0.30677090090E+02  0.45045682112E+02  0.00000000000E+00 0.  1.
         11    1    3    3    0    0 -0.15111705188E+02  0.10858798535E+02 -0.14152553317E+02  0.23378877325E+02  0.51100000000E-03 0. -1.
        -11    1    3    3    0    0 -0.78914056871E+01  0.56797163871E+00 -0.59026997874E+01  0.98711063485E+01  0.51100000000E-03 0.  1.
         12    1    3    3    0    0 -0.66903835430E+01  0.29372825204E+01 -0.10621836985E+02  0.12892334214E+02  0.00000000000E+00 0. -1.
</event>
<event>
 7    1  0.4047706E-008  0.4614232E+02  0.7816164E-02  0.1320468E+00
        -11   -1    0    0    0    0  0.00000000000E+00  0.00000000000E+00  0.45593999997E+02  0.45594000000E+02  0.51100000000E-03 0.  1.
         11   -1    0    0    0    0 -0.00000000000E+00 -0.00000000000E+00 -0.45593999997E+02  0.45594000000E+02  0.51100000000E-03 0. -1.
    9900012    2    1    2    0    0 -0.27005566722E+01 -0.41386684590E+02 -0.17577333909E+02  0.46142319463E+02  0.10000015520E+02 0.  0.
        -12    1    1    2    0    0  0.27005566722E+01  0.41386684590E+02  0.17577333909E+02  0.45045680537E+02  0.00000000000E+00 0.  1.
         11    1    3    3    0    0  0.30338562476E+01 -0.17646137844E+02 -0.67131286291E+01  0.19122148435E+02  0.51100000000E-03 0. -1.
        -11    1    3    3    0    0 -0.45924373889E+01 -0.22804995131E+02 -0.10165983128E+02  0.25387112819E+02  0.51100000000E-03 0.  1.
        -12    1    3    3    0    0 -0.11419755310E+01 -0.93555161542E+00 -0.69822215162E+00  0.16330582082E+01  0.00000000000E+00 0.  1.
</event>
<event>
 7    1  0.4047706E-008  0.4614232E+02  0.7816164E-02  0.1320468E+00
        -11   -1    0    0    0    0  0.00000000000E+00  0.00000000000E+00  0.45593999997E+02  0.45594000000E+02  0.51100000000E-03 0.  1.
         11   -1    0    0    0    0 -0.00000000000E+00 -0.00000000000E+00 -0.45593999997E+02  0.45594000000E+02  0.51100000000E-03 0. -1.
    9900012    2    1    2    0    0  0.98332370684E+00 -0.43420472184E+02  0.11950282032E+02  0.46142316846E+02  0.99999916553E+01 0.  0.
        -12    1    1    2    0    0 -0.98332370684E+00  0.43420472184E+02 -0.11950282032E+02  0.45045683154E+02  0.00000000000E+00 0.  1.
         11    1    3    3    0    0  0.59288559840E+00 -0.96976952749E+01  0.15079477936E+01  0.98321266157E+01  0.51100000000E-03 0.  1.
        -11    1    3    3    0    0 -0.23500939938E+01 -0.30259663740E+02  0.88361172047E+01  0.31610870899E+02  0.51100000000E-03 0. -1.
         12    1    3    3    0    0  0.27405321022E+01 -0.34631131683E+01  0.16062170336E+01  0.46993193315E+01  0.00000000000E+00 0. -1.
</event>
<event>
 7    1  0.4047706E-008  0.4614232E+02  0.7816164E-02  0.1320468E+00
        -11   -1    0    0    0    0  0.00000000000E+00  0.00000000000E+00  0.45593999997E+02  0.45594000000E+02  0.51100000000E-03 0.  1.
         11   -1    0    0    0    0 -0.00000000000E+00 -0.00000000000E+00 -0.45593999997E+02  0.45594000000E+02  0.51100000000E-03 0. -1.
    9900012    2    1    2    0    0  0.27251087046E+02  0.34376210830E+02 -0.10235615442E+02  0.46142318301E+02  0.10000004927E+02 0.  0.
        -12    1    1    2    0    0 -0.27251087046E+02 -0.34376210830E+02  0.10235615442E+02  0.45045681699E+02  0.00000000000E+00 0.  1.
         11    1    3    3    0    0  0.15694205212E+02  0.15997945968E+02 -0.74344629442E+01  0.23611725730E+02  0.51100000000E-03 0. -1.
        -11    1    3    3    0    0  0.10270921104E+02  0.16590953595E+02 -0.75917476912E+00  0.19527619110E+02  0.51100000000E-03 0.  1.
        -12    1    3    3    0    0  0.12859607296E+01  0.17873112670E+01 -0.20419777288E+01  0.30029734611E+01  0.00000000000E+00 0.  1.
</event>
<event>
 7    1  0.4047706E-008  0.4614232E+02  0.7816164E-02  0.1320468E+00
        -11   -1    0    0    0    0  0.00000000000E+00  0.00000000000E+00  0.45593999997E+02  0.45594000000E+02  0.51100000000E-03 0.  1.
         11   -1    0    0    0    0 -0.00000000000E+00 -0.00000000000E+00 -0.45593999997E+02  0.45594000000E+02  0.51100000000E-03 0. -1.
    9900012    2    1    2    0    0  0.15023457085E+02  0.29645336533E+02 -0.30406630255E+02  0.46142318693E+02  0.10000008500E+02 0.  0.
        -12    1    1    2    0    0 -0.15023457085E+02 -0.29645336533E+02  0.30406630255E+02  0.45045681307E+02  0.00000000000E+00 0.  1.
         11    1    3    3    0    0  0.13659090154E+02  0.24794148800E+02 -0.22375357221E+02  0.36082920746E+02  0.51100000000E-03 0. -1.
        -11    1    3    3    0    0 -0.88714382105E+00  0.85651512699E+00 -0.71655311878E+00  0.14262156061E+01  0.51100000000E-03 0.  1.
         12    1    3    3    0    0  0.22515107525E+01  0.39946726059E+01 -0.73147199151E+01  0.86331823410E+01  0.00000000000E+00 0. -1.
</event>
<event>
 7    1  0.4047706E-008  0.4614232E+02  0.7816164E-02  0.1320468E+00
        -11   -1    0    0    0    0  0.00000000000E+00  0.00000000000E+00  0.45593999997E+02  0.45594000000E+02  0.51100000000E-03 0.  1.
         11   -1    0    0    0    0 -0.00000000000E+00 -0.00000000000E+00 -0.45593999997E+02  0.45594000000E+02  0.51100000000E-03 0. -1.
    9900012    2    1    2    0    0  0.48290090388E+01 -0.31313083988E+02 -0.32020070074E+02  0.46142318246E+02  0.10000004422E+02 0.  0.
        -12    1    1    2    0    0 -0.48290090388E+01  0.31313083988E+02  0.32020070074E+02  0.45045681754E+02  0.00000000000E+00 0.  1.
         11    1    3    3    0    0  0.27243944479E+01 -0.13552412957E+02 -0.19575403120E+02  0.23964278200E+02  0.51100000000E-03 0. -1.
        -11    1    3    3    0    0 -0.12088875740E+01 -0.41798289831E+01 -0.34763910873E+01  0.55693513758E+01  0.51100000000E-03 0.  1.
        -12    1    3    3    0    0  0.33135021649E+01 -0.13580842048E+02 -0.89682758668E+01  0.16608688671E+02  0.00000000000E+00 0.  1.
</event>
<event>
 7    1  0.4047706E-008  0.4614232E+02  0.7816164E-02  0.1320468E+00
        -11   -1    0    0    0    0  0.00000000000E+00  0.00000000000E+00  0.45593999997E+02  0.45594000000E+02  0.51100000000E-03 0.  1.
         11   -1    0    0    0    0 -0.00000000000E+00 -0.00000000000E+00 -0.45593999997E+02  0.45594000000E+02  0.51100000000E-03 0. -1.
    9900012    2    1    2    0    0 -0.19493063428E+02 -0.30213580389E+02 -0.27134359144E+02  0.46142318654E+02  0.10000008142E+02 0.  0.
        -12    1    1    2    0    0  0.19493063428E+02  0.30213580389E+02  0.27134359144E+02  0.45045681346E+02  0.00000000000E+00 0.  1.
         11    1    3    3    0    0 -0.78253581240E+01 -0.14385831472E+02 -0.13837981081E+02  0.21440104887E+02  0.51100000000E-03 0. -1.
        -11    1    3    3    0    0 -0.93990872235E+01 -0.70475583684E+01 -0.76758226903E+01  0.14033145543E+02  0.51100000000E-03 0.  1.
        -12    1    3    3    0    0 -0.22686180808E+01 -0.87801905493E+01 -0.56205553733E+01  0.10669068225E+02  0.00000000000E+00 0.  1.
</event>
<event>
 7    1  0.4047706E-008  0.4614232E+02  0.7816164E-02  0.1320468E+00
        -11   -1    0    0    0    0  0.00000000000E+00  0.00000000000E+00  0.45593999997E+02  0.45594000000E+02  0.51100000000E-03 0.  1.
         11   -1    0    0    0    0 -0.00000000000E+00 -0.00000000000E+00 -0.45593999997E+02  0.45594000000E+02  0.51100000000E-03 0. -1.
    9900012    2    1    2    0    0 -0.39497415419E+02 -0.11812870214E+02 -0.18152789240E+02  0.46142317802E+02  0.10000000372E+02 0.  0.
        -12    1    1    2    0    0  0.39497415419E+02  0.11812870214E+02  0.18152789240E+02  0.45045682198E+02  0.00000000000E+00 0.  1.
         11    1    3    3    0    0 -0.24736386724E+02 -0.10553886700E+02 -0.10248912020E+02  0.28780436940E+02  0.51100000000E-03 0. -1.
        -11    1    3    3    0    0 -0.19043350297E+01 -0.14720545466E+01 -0.23210343064E+01  0.33437459542E+01  0.51100000000E-03 0.  1.
        -12    1    3    3    0    0 -0.12856693666E+02  0.21307103234E+00 -0.55828429138E+01  0.14018134908E+02  0.00000000000E+00 0.  1.
</event>
<event>
 7    1  0.4047706E-008  0.4614232E+02  0.7816164E-02  0.1320468E+00
        -11   -1    0    0    0    0  0.00000000000E+00  0.00000000000E+00  0.45593999997E+02  0.45594000000E+02  0.51100000000E-03 0. -1.
         11   -1    0    0    0    0 -0.00000000000E+00 -0.00000000000E+00 -0.45593999997E+02  0.45594000000E+02  0.51100000000E-03 0.  1.
    9900012    2    1    2    0    0 -0.30204330263E+02  0.19937330183E+02  0.26820044467E+02  0.46142317780E+02  0.10000000171E+02 0.  0.
        -12    1    1    2    0    0  0.30204330263E+02 -0.19937330183E+02 -0.26820044467E+02  0.45045682220E+02  0.00000000000E+00 0.  1.
         11    1    3    3    0    0 -0.13487941231E+02  0.63254141480E+01  0.97489930489E+01  0.17803884085E+02  0.51100000000E-03 0. -1.
        -11    1    3    3    0    0 -0.40039638266E+01  0.48794938556E+01  0.88240052360E+01  0.10849159197E+02  0.51100000000E-03 0.  1.
         12    1    3    3    0    0 -0.12712425206E+02  0.87324221794E+01  0.82470461819E+01  0.17489274498E+02  0.00000000000E+00 0. -1.
</event>
<event>
 7    1  0.4047706E-008  0.4614232E+02  0.7816164E-02  0.1320468E+00
        -11   -1    0    0    0    0  0.00000000000E+00  0.00000000000E+00  0.45593999997E+02  0.45594000000E+02  0.51100000000E-03 0.  1.
         11   -1    0    0    0    0 -0.00000000000E+00 -0.00000000000E+00 -0.45593999997E+02  0.45594000000E+02  0.51100000000E-03 0. -1.
    9900012    2    1    2    0    0 -0.23081542420E+02  0.22925931087E+02 -0.31156984321E+02  0.46142316647E+02  0.99999898447E+01 0.  0.
        -12    1    1    2    0    0  0.23081542420E+02 -0.22925931087E+02  0.31156984321E+02  0.45045683353E+02  0.00000000000E+00 0.  1.
         11    1    3    3    0    0 -0.75015603040E+01  0.44380767943E+01 -0.82835626557E+01  0.12024447728E+02  0.51100000000E-03 0. -1.
        -11    1    3    3    0    0 -0.64544088440E+01  0.10709186367E+02 -0.73553749278E+01  0.14506812426E+02  0.51100000000E-03 0.  1.
         12    1    3    3    0    0 -0.91255732723E+01  0.77786679255E+01 -0.15518046738E+02  0.19611056494E+02  0.00000000000E+00 0. -1.
</event>
<event>
 7    1  0.4047706E-008  0.4614232E+02  0.7816164E-02  0.1320468E+00
        -11   -1    0    0    0    0  0.00000000000E+00  0.00000000000E+00  0.45593999997E+02  0.45594000000E+02  0.51100000000E-03 0. -1.
         11   -1    0    0    0    0 -0.00000000000E+00 -0.00000000000E+00 -0.45593999997E+02  0.45594000000E+02  0.51100000000E-03 0.  1.
    9900012    2    1    2    0    0  0.31177648727E+02  0.13232900942E+02  0.29697778807E+02  0.46142317481E+02  0.99999974464E+01 0.  0.
        -12    1    1    2    0    0 -0.31177648727E+02 -0.13232900942E+02 -0.29697778807E+02  0.45045682519E+02  0.00000000000E+00 0.  1.
         11    1    3    3    0    0  0.24322416136E+01  0.10614843123E+01  0.39685618306E+00  0.26832896421E+01  0.51100000000E-03 0. -1.
        -11    1    3    3    0    0  0.11975122911E+01 -0.82680731089E+00  0.50068938242E+00  0.15389399389E+01  0.51100000000E-03 0.  1.
         12    1    3    3    0    0  0.27547894823E+02  0.12998223940E+02  0.28800233242E+02  0.41920087900E+02  0.00000000000E+00 0. -1.
</event>
<event>
 7    1  0.4047706E-008  0.4614232E+02  0.7816164E-02  0.1320468E+00
        -11   -1    0    0    0    0  0.00000000000E+00  0.00000000000E+00  0.45593999997E+02  0.45594000000E+02  0.51100000000E-03 0.  1.
         11   -1    0    0    0    0 -0.00000000000E+00 -0.00000000000E+00 -0.45593999997E+02  0.45594000000E+02  0.51100000000E-03 0. -1.
    9900012    2    1    2    0    0 -0.17867528336E+02 -0.36952045796E+02 -0.18558321259E+02  0.46142317129E+02  0.99999942363E+01 0.  0.
        -12    1    1    2    0    0  0.17867528336E+02  0.36952045796E+02  0.18558321259E+02  0.45045682871E+02  0.00000000000E+00 0.  1.
         11    1    3    3    0    0  0.32191340593E+00 -0.16112124388E+01 -0.17557926559E+01  0.24046708456E+01  0.51100000000E-03 0. -1.
        -11    1    3    3    0    0 -0.25018843173E+01 -0.49290121000E+01  0.19088132326E+00  0.55309150563E+01  0.51100000000E-03 0.  1.
         12    1    3    3    0    0 -0.15687557425E+02 -0.30411821257E+02 -0.16993409927E+02  0.38206731227E+02  0.00000000000E+00 0. -1.
</event>
<event>
 7    1  0.4047706E-008  0.4614232E+02  0.7816164E-02  0.1320468E+00
        -11   -1    0    0    0    0  0.00000000000E+00  0.00000000000E+00  0.45593999997E+02  0.45594000000E+02  0.51100000000E-03 0. -1.
         11   -1    0    0    0    0 -0.00000000000E+00 -0.00000000000E+00 -0.45593999997E+02  0.45594000000E+02  0.51100000000E-03 0.  1.
    9900012    2    1    2    0    0 -0.80944257971E+00 -0.45036975204E+02 -0.35945240597E+00  0.46142317201E+02  0.99999948936E+01 0.  0.
        -12    1    1    2    0    0  0.80944257971E+00  0.45036975204E+02  0.35945240597E+00  0.45045682799E+02  0.00000000000E+00 0.  1.
         11    1    3    3    0    0 -0.12849542419E+01 -0.50965351306E+01 -0.12819554220E+01  0.54101005265E+01  0.51100000000E-03 0. -1.
        -11    1    3    3    0    0  0.77920667908E+00 -0.38941951966E+02 -0.51822990230E+00  0.38953194329E+02  0.51100000000E-03 0.  1.
        -12    1    3    3    0    0 -0.30369501684E+00 -0.99848810730E+00  0.14407329184E+01  0.17790223455E+01  0.00000000000E+00 0.  1.
</event>
<event>
 7    1  0.4047706E-008  0.4614232E+02  0.7816164E-02  0.1320468E+00
        -11   -1    0    0    0    0  0.00000000000E+00  0.00000000000E+00  0.45593999997E+02  0.45594000000E+02  0.51100000000E-03 0.  1.
         11   -1    0    0    0    0 -0.00000000000E+00 -0.00000000000E+00 -0.45593999997E+02  0.45594000000E+02  0.51100000000E-03 0. -1.
    9900012    2    1    2    0    0  0.61350291155E+01  0.69646103090E+01 -0.44079123883E+02  0.46142317174E+02  0.99999946466E+01 0.  0.
        -12    1    1    2    0    0 -0.61350291155E+01 -0.69646103090E+01  0.44079123883E+02  0.45045682826E+02  0.00000000000E+00 0.  1.
         11    1    3    3    0    0  0.28963377045E+01  0.34557642055E+01 -0.30149977081E+02  0.30485278358E+02  0.51100000000E-03 0. -1.
        -11    1    3    3    0    0  0.22504316033E+01  0.49034522345E+01 -0.97767751415E+01  0.11166629691E+02  0.51100000000E-03 0.  1.
         12    1    3    3    0    0  0.98825980769E+00 -0.13946061309E+01 -0.41523716604E+01  0.44904091254E+01  0.00000000000E+00 0. -1.
</event>
<event>
 7    1  0.4047706E-008  0.4614232E+02  0.7816164E-02  0.1320468E+00
        -11   -1    0    0    0    0  0.00000000000E+00  0.00000000000E+00  0.45593999997E+02  0.45594000000E+02  0.51100000000E-03 0. -1.
         11   -1    0    0    0    0 -0.00000000000E+00 -0.00000000000E+00 -0.45593999997E+02  0.45594000000E+02  0.51100000000E-03 0.  1.
    9900012    2    1    2    0    0 -0.36495117748E+02  0.24201375150E+02  0.10559979084E+02  0.46142319443E+02  0.10000015338E+02 0.  0.
        -12    1    1    2    0    0  0.36495117748E+02 -0.24201375150E+02 -0.10559979084E+02  0.45045680557E+02  0.00000000000E+00 0.  1.
         11    1    3    3    0    0 -0.51940591764E+01  0.47643585742E+01  0.42609583521E+01  0.82360870376E+01  0.51100000000E-03 0. -1.
        -11    1    3    3    0    0 -0.78872208611E+01  0.48513913697E+01  0.44100159921E+01  0.10256339135E+02  0.51100000000E-03 0.  1.
         12    1    3    3    0    0 -0.23413837710E+02  0.14585625206E+02  0.18890047395E+01  0.27649893271E+02  0.00000000000E+00 0. -1.
</event>
<event>
 7    1  0.4047706E-008  0.4614232E+02  0.7816164E-02  0.1320468E+00
        -11   -1    0    0    0    0  0.00000000000E+00  0.00000000000E+00  0.45593999997E+02  0.45594000000E+02  0.51100000000E-03 0. -1.
         11   -1    0    0    0    0 -0.00000000000E+00 -0.00000000000E+00 -0.45593999997E+02  0.45594000000E+02  0.51100000000E-03 0.  1.
    9900012    2    1    2    0    0  0.15569598222E+02 -0.35865218155E+02 -0.22369340013E+02  0.46142316137E+02  0.99999851879E+01 0.  0.
        -12    1    1    2    0    0 -0.15569598222E+02  0.35865218155E+02  0.22369340013E+02  0.45045683863E+02  0.00000000000E+00 0.  1.
         11    1    3    3    0    0  0.29874302567E+01 -0.71837123684E+01 -0.78965181842E+01  0.11085371560E+02  0.51100000000E-03 0. -1.
        -11    1    3    3    0    0  0.56173717128E+01 -0.16413486604E+02 -0.10955770671E+02  0.20517951134E+02  0.51100000000E-03 0.  1.
         12    1    3    3    0    0  0.69647962522E+01 -0.12268019182E+02 -0.35170511583E+01  0.14538993443E+02  0.00000000000E+00 0. -1.
</event>
<event>
 7    1  0.4047706E-008  0.4614232E+02  0.7816164E-02  0.1320468E+00
        -11   -1    0    0    0    0  0.00000000000E+00  0.00000000000E+00  0.45593999997E+02  0.45594000000E+02  0.51100000000E-03 0.  1.
         11   -1    0    0    0    0 -0.00000000000E+00 -0.00000000000E+00 -0.45593999997E+02  0.45594000000E+02  0.51100000000E-03 0. -1.
    9900012    2    1    2    0    0  0.40203999032E+02 -0.14733073976E+02 -0.13988867220E+02  0.46142318598E+02  0.10000007627E+02 0.  0.
        -12    1    1    2    0    0 -0.40203999032E+02  0.14733073976E+02  0.13988867220E+02  0.45045681402E+02  0.00000000000E+00 0.  1.
         11    1    3    3    0    0  0.60016607543E+01 -0.37064263310E+00 -0.17524113643E+01  0.62632462527E+01  0.51100000000E-03 0. -1.
        -11    1    3    3    0    0  0.10259366031E+02 -0.37199038854E+01 -0.75282749862E+01  0.13257722308E+02  0.51100000000E-03 0.  1.
         12    1    3    3    0    0  0.23942972246E+02 -0.10642527457E+02 -0.47081808697E+01  0.26621350037E+02  0.00000000000E+00 0. -1.
</event>
<event>
 7    1  0.4047706E-008  0.4614232E+02  0.7816164E-02  0.1320468E+00
        -11   -1    0    0    0    0  0.00000000000E+00  0.00000000000E+00  0.45593999997E+02  0.45594000000E+02  0.51100000000E-03 0.  1.
         11   -1    0    0    0    0 -0.00000000000E+00 -0.00000000000E+00 -0.45593999997E+02  0.45594000000E+02  0.51100000000E-03 0. -1.
    9900012    2    1    2    0    0  0.21032391858E+01 -0.25295290112E+02 -0.37213413812E+02  0.46142317804E+02  0.10000000394E+02 0.  0.
        -12    1    1    2    0    0 -0.21032391858E+01  0.25295290112E+02  0.37213413812E+02  0.45045682196E+02  0.00000000000E+00 0.  1.
         11    1    3    3    0    0 -0.45588458118E+00 -0.46470601692E+01 -0.10345110141E+02  0.11350079429E+02  0.51100000000E-03 0. -1.
        -11    1    3    3    0    0  0.18496307890E+01 -0.12169677142E+02 -0.98487823823E+01  0.15764539019E+02  0.51100000000E-03 0.  1.
        -12    1    3    3    0    0  0.70949297797E+00 -0.84785528004E+01 -0.17019521289E+02  0.19027699356E+02  0.00000000000E+00 0.  1.
</event>
<event>
 7    1  0.4047706E-008  0.4614232E+02  0.7816164E-02  0.1320468E+00
        -11   -1    0    0    0    0  0.00000000000E+00  0.00000000000E+00  0.45593999997E+02  0.45594000000E+02  0.51100000000E-03 0.  1.
         11   -1    0    0    0    0 -0.00000000000E+00 -0.00000000000E+00 -0.45593999997E+02  0.45594000000E+02  0.51100000000E-03 0. -1.
    9900012    2    1    2    0    0  0.15402146280E+02  0.30825573741E+02 -0.29011573031E+02  0.46142317895E+02  0.10000001224E+02 0.  0.
        -12    1    1    2    0    0 -0.15402146280E+02 -0.30825573741E+02  0.29011573031E+02  0.45045682105E+02  0.00000000000E+00 0.  1.
         11    1    3    3    0    0  0.38837127959E+01  0.13345364074E+02 -0.15473648800E+02  0.20799417655E+02  0.51100000000E-03 0.  1.
        -11    1    3    3    0    0  0.55303028882E+01  0.12363435014E+02 -0.87814424294E+01  0.16141638912E+02  0.51100000000E-03 0. -1.
        -12    1    3    3    0    0  0.59881305963E+01  0.51167746534E+01 -0.47564818025E+01  0.92012613282E+01  0.00000000000E+00 0.  1.
</event>
<event>
 7    1  0.4047706E-008  0.4614232E+02  0.7816164E-02  0.1320468E+00
        -11   -1    0    0    0    0  0.00000000000E+00  0.00000000000E+00  0.45593999997E+02  0.45594000000E+02  0.51100000000E-03 0.  1.
         11   -1    0    0    0    0 -0.00000000000E+00 -0.00000000000E+00 -0.45593999997E+02  0.45594000000E+02  0.51100000000E-03 0. -1.
    9900012    2    1    2    0    0  0.34928060927E+01  0.79178689628E+01 -0.44206573738E+02  0.46142317577E+02  0.99999983183E+01 0.  0.
        -12    1    1    2    0    0 -0.34928060927E+01 -0.79178689628E+01  0.44206573738E+02  0.45045682423E+02  0.00000000000E+00 0.  1.
         11    1    3    3    0    0  0.21058976811E+01  0.18006054574E+01 -0.11329027944E+02  0.11662926712E+02  0.51100000000E-03 0. -1.
        -11    1    3    3    0    0  0.45548375908E+01  0.19752667408E+01 -0.12619595054E+02  0.13561062044E+02  0.51100000000E-03 0.  1.
         12    1    3    3    0    0 -0.31679291793E+01  0.41419967645E+01 -0.20257950740E+02  0.20918328821E+02  0.00000000000E+00 0. -1.
</event>
<event>
 7    1  0.4047706E-008  0.4614232E+02  0.7816164E-02  0.1320468E+00
        -11   -1    0    0    0    0  0.00000000000E+00  0.00000000000E+00  0.45593999997E+02  0.45594000000E+02  0.51100000000E-03 0.  1.
         11   -1    0    0    0    0 -0.00000000000E+00 -0.00000000000E+00 -0.45593999997E+02  0.45594000000E+02  0.51100000000E-03 0. -1.
    9900012    2    1    2    0    0 -0.27173527907E+02  0.33882742082E+02 -0.11944566286E+02  0.46142317702E+02  0.99999994641E+01 0.  0.
        -12    1    1    2    0    0  0.27173527907E+02 -0.33882742082E+02  0.11944566286E+02  0.45045682298E+02  0.00000000000E+00 0.  1.
         11    1    3    3    0    0 -0.22477347041E+02  0.23962083670E+02 -0.99516474274E+01  0.34328528523E+02  0.51100000000E-03 0. -1.
        -11    1    3    3    0    0 -0.49914277389E+01  0.98430237947E+01 -0.13711657571E+01  0.11121131421E+02  0.51100000000E-03 0.  1.
        -12    1    3    3    0    0  0.29524687315E+00  0.77634617883E-01 -0.62175310182E+00  0.69265775794E+00  0.00000000000E+00 0.  1.
</event>
<event>
 7    1  0.4047706E-008  0.4614232E+02  0.7816164E-02  0.1320468E+00
        -11   -1    0    0    0    0  0.00000000000E+00  0.00000000000E+00  0.45593999997E+02  0.45594000000E+02  0.51100000000E-03 0.  1.
         11   -1    0    0    0    0 -0.00000000000E+00 -0.00000000000E+00 -0.45593999997E+02  0.45594000000E+02  0.51100000000E-03 0. -1.
    9900012    2    1    2    0    0 -0.15281091581E+02 -0.28489473703E+02 -0.31368001195E+02  0.46142319067E+02  0.10000011908E+02 0.  0.
        -12    1    1    2    0    0  0.15281091581E+02  0.28489473703E+02  0.31368001195E+02  0.45045680933E+02  0.00000000000E+00 0.  1.
         11    1    3    3    0    0 -0.88167748714E+01 -0.10277090944E+02 -0.17567712296E+02  0.22180591358E+02  0.51100000000E-03 0. -1.
        -11    1    3    3    0    0 -0.53931718189E+01 -0.10525587542E+02 -0.82285640204E+01  0.14407760460E+02  0.51100000000E-03 0.  1.
         12    1    3    3    0    0 -0.10711448906E+01 -0.76867952168E+01 -0.55717248785E+01  0.95539672495E+01  0.00000000000E+00 0. -1.
</event>
<event>
 7    1  0.4047706E-008  0.4614232E+02  0.7816164E-02  0.1320468E+00
        -11   -1    0    0    0    0  0.00000000000E+00  0.00000000000E+00  0.45593999997E+02  0.45594000000E+02  0.51100000000E-03 0.  1.
         11   -1    0    0    0    0 -0.00000000000E+00 -0.00000000000E+00 -0.45593999997E+02  0.45594000000E+02  0.51100000000E-03 0. -1.
    9900012    2    1    2    0    0  0.31782158533E+02  0.31647198296E+02  0.41788375832E+01  0.46142318247E+02  0.10000004434E+02 0.  0.
        -12    1    1    2    0    0 -0.31782158533E+02 -0.31647198296E+02 -0.41788375832E+01  0.45045681753E+02  0.00000000000E+00 0.  1.
         11    1    3    3    0    0  0.20361299245E+02  0.16679974081E+02  0.29840823202E+01  0.26489786520E+02  0.51100000000E-03 0. -1.
        -11    1    3    3    0    0 -0.19498525271E+00 -0.34516791679E+00  0.18705449691E-01  0.39687566633E+00  0.51100000000E-03 0.  1.
         12    1    3    3    0    0  0.11615844540E+02  0.15312392132E+02  0.11760498133E+01  0.19255656061E+02  0.00000000000E+00 0. -1.
</event>
<event>
 7    1  0.4047706E-008  0.4614232E+02  0.7816164E-02  0.1320468E+00
        -11   -1    0    0    0    0  0.00000000000E+00  0.00000000000E+00  0.45593999997E+02  0.45594000000E+02  0.51100000000E-03 0.  1.
         11   -1    0    0    0    0 -0.00000000000E+00 -0.00000000000E+00 -0.45593999997E+02  0.45594000000E+02  0.51100000000E-03 0. -1.
    9900012    2    1    2    0    0  0.39321662506E+02  0.20985134509E+02 -0.65226061356E+01  0.46142318704E+02  0.10000008600E+02 0.  0.
        -12    1    1    2    0    0 -0.39321662506E+02 -0.20985134509E+02  0.65226061356E+01  0.45045681296E+02  0.00000000000E+00 0.  1.
         11    1    3    3    0    0  0.17869535464E+02  0.69848889056E+01 -0.57409392334E+01  0.20026666079E+02  0.51100000000E-03 0. -1.
        -11    1    3    3    0    0  0.56815627416E+01  0.12654250531E+01  0.16647803270E+00  0.58231581593E+01  0.51100000000E-03 0.  1.
         12    1    3    3    0    0  0.15770564301E+02  0.12734820551E+02 -0.94814493490E+00  0.20292494466E+02  0.00000000000E+00 0. -1.
</event>
<event>
 7    1  0.4047706E-008  0.4614232E+02  0.7816164E-02  0.1320468E+00
        -11   -1    0    0    0    0  0.00000000000E+00  0.00000000000E+00  0.45593999997E+02  0.45594000000E+02  0.51100000000E-03 0. -1.
         11   -1    0    0    0    0 -0.00000000000E+00 -0.00000000000E+00 -0.45593999997E+02  0.45594000000E+02  0.51100000000E-03 0.  1.
    9900012    2    1    2    0    0 -0.19815105756E+02 -0.37630818297E+02  0.14845760665E+02  0.46142317504E+02  0.99999976547E+01 0.  0.
        -12    1    1    2    0    0  0.19815105756E+02  0.37630818297E+02 -0.14845760665E+02  0.45045682496E+02  0.00000000000E+00 0.  1.
         11    1    3    3    0    0 -0.15347211527E+02 -0.23559665681E+02  0.11355296708E+02  0.30323876933E+02  0.51100000000E-03 0. -1.
        -11    1    3    3    0    0 -0.50289953919E+01 -0.10240530719E+02  0.16350682992E+01  0.11525307487E+02  0.51100000000E-03 0.  1.
         12    1    3    3    0    0  0.56110116308E+00 -0.38306218966E+01  0.18553956573E+01  0.42931330838E+01  0.00000000000E+00 0. -1.
</event>
<event>
 7    1  0.4047706E-008  0.4614232E+02  0.7816164E-02  0.1320468E+00
        -11   -1    0    0    0    0  0.00000000000E+00  0.00000000000E+00  0.45593999997E+02  0.45594000000E+02  0.51100000000E-03 0.  1.
         11   -1    0    0    0    0 -0.00000000000E+00 -0.00000000000E+00 -0.45593999997E+02  0.45594000000E+02  0.51100000000E-03 0. -1.
    9900012    2    1    2    0    0 -0.38435154627E+02  0.14868474514E+02 -0.18187380418E+02  0.46142318164E+02  0.10000003674E+02 0.  0.
        -12    1    1    2    0    0  0.38435154627E+02 -0.14868474514E+02  0.18187380418E+02  0.45045681836E+02  0.00000000000E+00 0.  1.
         11    1    3    3    0    0 -0.16496470754E+02  0.70968617034E+01 -0.30525032238E+01  0.18215838426E+02  0.51100000000E-03 0. -1.
        -11    1    3    3    0    0 -0.73591015623E+01  0.29618774457E+01 -0.35365573716E+01  0.86854091505E+01  0.51100000000E-03 0.  1.
        -12    1    3    3    0    0 -0.14579582311E+02  0.48097353651E+01 -0.11598319823E+02  0.19241070587E+02  0.00000000000E+00 0.  1.
</event>
<event>
 7    1  0.4047706E-008  0.4614232E+02  0.7816164E-02  0.1320468E+00
        -11   -1    0    0    0    0  0.00000000000E+00  0.00000000000E+00  0.45593999997E+02  0.45594000000E+02  0.51100000000E-03 0. -1.
         11   -1    0    0    0    0 -0.00000000000E+00 -0.00000000000E+00 -0.45593999997E+02  0.45594000000E+02  0.51100000000E-03 0.  1.
    9900012    2    1    2    0    0  0.13283988689E+02 -0.34629173885E+02  0.25563049018E+02  0.46142317470E+02  0.99999973450E+01 0.  0.
        -12    1    1    2    0    0 -0.13283988689E+02  0.34629173885E+02 -0.25563049018E+02  0.45045682530E+02  0.00000000000E+00 0.  1.
         11    1    3    3    0    0  0.26562898587E+01 -0.96514588806E+01  0.58169402733E+01  0.11577708268E+02  0.51100000000E-03 0. -1.
        -11    1    3    3    0    0  0.14893924595E+01 -0.17089501403E+00 -0.10786733574E+00  0.15030404610E+01  0.51100000000E-03 0.  1.
         12    1    3    3    0    0  0.91383063711E+01 -0.24806819991E+02  0.19853976081E+02  0.33061568741E+02  0.00000000000E+00 0. -1.
</event>
<event>
 7    1  0.4047706E-008  0.4614232E+02  0.7816164E-02  0.1320468E+00
        -11   -1    0    0    0    0  0.00000000000E+00  0.00000000000E+00  0.45593999997E+02  0.45594000000E+02  0.51100000000E-03 0.  1.
         11   -1    0    0    0    0 -0.00000000000E+00 -0.00000000000E+00 -0.45593999997E+02  0.45594000000E+02  0.51100000000E-03 0. -1.
    9900012    2    1    2    0    0 -0.40626711682E+01  0.38521455533E+02 -0.22993597650E+02  0.46142319116E+02  0.10000012357E+02 0.  0.
        -12    1    1    2    0    0  0.40626711682E+01 -0.38521455533E+02  0.22993597650E+02  0.45045680884E+02  0.00000000000E+00 0.  1.
         11    1    3    3    0    0 -0.57334942569E+00  0.79459518077E+01 -0.36608848410E+01  0.87674943841E+01  0.51100000000E-03 0. -1.
        -11    1    3    3    0    0  0.46849840597E+00  0.61018469307E+01 -0.31292710958E+00  0.61278014294E+01  0.51100000000E-03 0.  1.
         12    1    3    3    0    0 -0.39578201485E+01  0.24473656794E+02 -0.19019785700E+02  0.31247023303E+02  0.00000000000E+00 0. -1.
</event>
<event>
 7    1  0.4047706E-008  0.4614232E+02  0.7816164E-02  0.1320468E+00
        -11   -1    0    0    0    0  0.00000000000E+00  0.00000000000E+00  0.45593999997E+02  0.45594000000E+02  0.51100000000E-03 0.  1.
         11   -1    0    0    0    0 -0.00000000000E+00 -0.00000000000E+00 -0.45593999997E+02  0.45594000000E+02  0.51100000000E-03 0. -1.
    9900012    2    1    2    0    0  0.30854526712E+02  0.57672229339E+01 -0.32308678938E+02  0.46142318590E+02  0.10000007558E+02 0.  0.
        -12    1    1    2    0    0 -0.30854526712E+02 -0.57672229339E+01  0.32308678938E+02  0.45045681410E+02  0.00000000000E+00 0.  1.
         11    1    3    3    0    0  0.30443836514E+02  0.66898159406E+01 -0.31065313894E+02  0.44007210166E+02  0.51100000000E-03 0.  1.
        -11    1    3    3    0    0  0.47174697015E+00 -0.26713624367E+00 -0.13622524303E+01  0.14661646979E+01  0.51100000000E-03 0. -1.
        -12    1    3    3    0    0 -0.61056772961E-01 -0.65545676302E+00  0.11888738594E+00  0.66894372577E+00  0.00000000000E+00 0.  1.
</event>
<event>
 7    1  0.4047706E-008  0.4614230E+02  0.7816164E-02  0.1320468E+00
        -11   -1    0    0    0    0  0.00000000000E+00  0.00000000000E+00  0.45593999997E+02  0.45594000000E+02  0.51100000000E-03 0.  1.
         11   -1    0    0    0    0 -0.00000000000E+00 -0.00000000000E+00 -0.45593999997E+02  0.45594000000E+02  0.51100000000E-03 0. -1.
    9900012    2    1    2    0    0  0.37224571484E+02  0.18824068619E+02 -0.17002952417E+02  0.46142304618E+02  0.99998801520E+01 0.  0.
        -12    1    1    2    0    0 -0.37224571484E+02 -0.18824068619E+02  0.17002952417E+02  0.45045695382E+02  0.00000000000E+00 0.  1.
         11    1    3    3    0    0  0.14300973193E+02  0.11130978034E+02 -0.84103564654E+01  0.19978753775E+02  0.51100000000E-03 0. -1.
        -11    1    3    3    0    0  0.99792537326E+01  0.34496502527E+01 -0.64528837012E+01  0.12374380803E+02  0.51100000000E-03 0.  1.
        -12    1    3    3    0    0  0.12944344558E+02  0.42434403318E+01 -0.21397122502E+01  0.13789170040E+02  0.00000000000E+00 0.  1.
</event>
<event>
 7    1  0.4047706E-008  0.4614232E+02  0.7816164E-02  0.1320468E+00
        -11   -1    0    0    0    0  0.00000000000E+00  0.00000000000E+00  0.45593999997E+02  0.45594000000E+02  0.51100000000E-03 0. -1.
         11   -1    0    0    0    0 -0.00000000000E+00 -0.00000000000E+00 -0.45593999997E+02  0.45594000000E+02  0.51100000000E-03 0.  1.
    9900012    2    1    2    0    0 -0.31032125977E+01 -0.44724165470E+02  0.43854976841E+01  0.46142317684E+02  0.99999992931E+01 0.  0.
        -12    1    1    2    0    0  0.31032125977E+01  0.44724165470E+02 -0.43854976841E+01  0.45045682316E+02  0.00000000000E+00 0.  1.
         11    1    3    3    0    0  0.89458629076E+00 -0.23110135850E+02 -0.19681876197E+01  0.23211041045E+02  0.51100000000E-03 0. -1.
        -11    1    3    3    0    0 -0.10667571631E+00 -0.24850427704E+01  0.10729720572E+01  0.27088902850E+01  0.51100000000E-03 0.  1.
         12    1    3    3    0    0 -0.38911231722E+01 -0.19128986849E+02  0.52807132466E+01  0.20222386353E+02  0.00000000000E+00 0. -1.
</event>
<event>
 7    1  0.4047706E-008  0.4614232E+02  0.7816164E-02  0.1320468E+00
        -11   -1    0    0    0    0  0.00000000000E+00  0.00000000000E+00  0.45593999997E+02  0.45594000000E+02  0.51100000000E-03 0.  1.
         11   -1    0    0    0    0 -0.00000000000E+00 -0.00000000000E+00 -0.45593999997E+02  0.45594000000E+02  0.51100000000E-03 0. -1.
    9900012    2    1    2    0    0 -0.89942361407E+01 -0.88928838771E+01 -0.43233481743E+02  0.46142316400E+02  0.99999875869E+01 0.  0.
        -12    1    1    2    0    0  0.89942361407E+01  0.88928838771E+01  0.43233481743E+02  0.45045683600E+02  0.00000000000E+00 0.  1.
         11    1    3    3    0    0  0.17857800160E+00 -0.41898337561E+01 -0.81462781201E+01  0.91623383739E+01  0.51100000000E-03 0. -1.
        -11    1    3    3    0    0 -0.68537416082E+00  0.10459398338E+01 -0.21820213736E+01  0.25149444153E+01  0.51100000000E-03 0.  1.
         12    1    3    3    0    0 -0.84874399815E+01 -0.57489899548E+01 -0.32905182249E+02  0.34465033611E+02  0.00000000000E+00 0. -1.
</event>
<event>
 7    1  0.4047706E-008  0.4614232E+02  0.7816164E-02  0.1320468E+00
        -11   -1    0    0    0    0  0.00000000000E+00  0.00000000000E+00  0.45593999997E+02  0.45594000000E+02  0.51100000000E-03 0. -1.
         11   -1    0    0    0    0 -0.00000000000E+00 -0.00000000000E+00 -0.45593999997E+02  0.45594000000E+02  0.51100000000E-03 0.  1.
    9900012    2    1    2    0    0  0.37661987610E+02 -0.24541785815E+02  0.28963701130E+01  0.46142317393E+02  0.99999966417E+01 0.  0.
        -12    1    1    2    0    0 -0.37661987610E+02  0.24541785815E+02 -0.28963701130E+01  0.45045682607E+02  0.00000000000E+00 0.  1.
         11    1    3    3    0    0  0.15630563239E+02 -0.12779075943E+02 -0.25082978120E+00  0.20191141745E+02  0.51100000000E-03 0.  1.
        -11    1    3    3    0    0  0.10005157838E+02 -0.86177420430E+01  0.28921035316E+01  0.13517874255E+02  0.51100000000E-03 0. -1.
        -12    1    3    3    0    0  0.12026266533E+02 -0.31449678291E+01  0.25509636255E+00  0.12433301393E+02  0.00000000000E+00 0.  1.
</event>
<event>
 7    1  0.4047706E-008  0.4614232E+02  0.7816164E-02  0.1320468E+00
        -11   -1    0    0    0    0  0.00000000000E+00  0.00000000000E+00  0.45593999997E+02  0.45594000000E+02  0.51100000000E-03 0.  1.
         11   -1    0    0    0    0 -0.00000000000E+00 -0.00000000000E+00 -0.45593999997E+02  0.45594000000E+02  0.51100000000E-03 0. -1.
    9900012    2    1    2    0    0  0.26935207383E+02  0.26295535420E+02 -0.24741727276E+02  0.46142315984E+02  0.99999837994E+01 0.  0.
        -12    1    1    2    0    0 -0.26935207383E+02 -0.26295535420E+02  0.24741727276E+02  0.45045684016E+02  0.00000000000E+00 0.  1.
         11    1    3    3    0    0  0.11175812415E+01  0.21318467300E+01 -0.16596083900E+01  0.29237063089E+01  0.51100000000E-03 0. -1.
        -11    1    3    3    0    0  0.23373396385E+02  0.17360850517E+02 -0.20199910694E+02  0.35436579710E+02  0.51100000000E-03 0.  1.
        -12    1    3    3    0    0  0.24442297560E+01  0.68028381738E+01 -0.28822081927E+01  0.77820299656E+01  0.00000000000E+00 0.  1.
</event>
<event>
 7    1  0.4047706E-008  0.4614232E+02  0.7816164E-02  0.1320468E+00
        -11   -1    0    0    0    0  0.00000000000E+00  0.00000000000E+00  0.45593999997E+02  0.45594000000E+02  0.51100000000E-03 0.  1.
         11   -1    0    0    0    0 -0.00000000000E+00 -0.00000000000E+00 -0.45593999997E+02  0.45594000000E+02  0.51100000000E-03 0. -1.
    9900012    2    1    2    0    0 -0.43717287527E+02  0.10533710127E+02 -0.26369086793E+01  0.46142316909E+02  0.99999922324E+01 0.  0.
        -12    1    1    2    0    0  0.43717287527E+02 -0.10533710127E+02  0.26369086793E+01  0.45045683091E+02  0.00000000000E+00 0.  1.
         11    1    3    3    0    0 -0.69520251129E+01  0.12890157883E+01 -0.27165386130E+01  0.75744172826E+01  0.51100000000E-03 0. -1.
        -11    1    3    3    0    0 -0.32355606843E+02  0.64546302943E+01  0.18831186784E+01  0.33046840736E+02  0.51100000000E-03 0.  1.
        -12    1    3    3    0    0 -0.44096555712E+01  0.27900640441E+01 -0.18034887447E+01  0.55210588911E+01  0.00000000000E+00 0.  1.
</event>
<event>
 7    1  0.4047706E-008  0.4614232E+02  0.7816164E-02  0.1320468E+00
        -11   -1    0    0    0    0  0.00000000000E+00  0.00000000000E+00  0.45593999997E+02  0.45594000000E+02  0.51100000000E-03 0.  1.
         11   -1    0    0    0    0 -0.00000000000E+00 -0.00000000000E+00 -0.45593999997E+02  0.45594000000E+02  0.51100000000E-03 0. -1.
    9900012    2    1    2    0    0  0.19440405980E+02  0.26975562971E+02 -0.30389193464E+02  0.46142318057E+02  0.10000002701E+02 0.  0.
        -12    1    1    2    0    0 -0.19440405980E+02 -0.26975562971E+02  0.30389193464E+02  0.45045681943E+02  0.00000000000E+00 0.  1.
         11    1    3    3    0    0  0.74415064384E+01  0.15328034379E+02 -0.14262864938E+02  0.22220575431E+02  0.51100000000E-03 0. -1.
        -11    1    3    3    0    0  0.17181868062E+01  0.52669188809E+01 -0.44380664077E+01  0.70985233746E+01  0.51100000000E-03 0.  1.
        -12    1    3    3    0    0  0.10280712735E+02  0.63806097115E+01 -0.11688262118E+02  0.16823219251E+02  0.00000000000E+00 0.  1.
</event>
<event>
 7    1  0.4047706E-008  0.4614232E+02  0.7816164E-02  0.1320468E+00
        -11   -1    0    0    0    0  0.00000000000E+00  0.00000000000E+00  0.45593999997E+02  0.45594000000E+02  0.51100000000E-03 0. -1.
         11   -1    0    0    0    0 -0.00000000000E+00 -0.00000000000E+00 -0.45593999997E+02  0.45594000000E+02  0.51100000000E-03 0.  1.
    9900012    2    1    2    0    0  0.10262442080E+02  0.46345023189E+01  0.43615560712E+02  0.46142318016E+02  0.10000002321E+02 0.  0.
        -12    1    1    2    0    0 -0.10262442080E+02 -0.46345023189E+01 -0.43615560712E+02  0.45045681984E+02  0.00000000000E+00 0.  1.
         11    1    3    3    0    0  0.36318393980E+01 -0.30302194477E+00  0.21969237624E+02  0.22269474214E+02  0.51100000000E-03 0. -1.
        -11    1    3    3    0    0  0.10223818616E+01 -0.12009050628E+01  0.53549107637E+01  0.55823388637E+01  0.51100000000E-03 0.  1.
        -12    1    3    3    0    0  0.56082208206E+01  0.61384293264E+01  0.16291412324E+02  0.18290504938E+02  0.00000000000E+00 0.  1.
</event>
<event>
 7    1  0.4047706E-008  0.4614232E+02  0.7816164E-02  0.1320468E+00
        -11   -1    0    0    0    0  0.00000000000E+00  0.00000000000E+00  0.45593999997E+02  0.45594000000E+02  0.51100000000E-03 0. -1.
         11   -1    0    0    0    0 -0.00000000000E+00 -0.00000000000E+00 -0.45593999997E+02  0.45594000000E+02  0.51100000000E-03 0.  1.
    9900012    2    1    2    0    0  0.96801641350E+01 -0.43974551382E+02 -0.12832523547E+01  0.46142317814E+02  0.10000000485E+02 0.  0.
        -12    1    1    2    0    0 -0.96801641350E+01  0.43974551382E+02  0.12832523547E+01  0.45045682186E+02  0.00000000000E+00 0.  1.
         11    1    3    3    0    0  0.28633303563E+01 -0.12322543764E+02  0.38426136476E-01  0.12650898086E+02  0.51100000000E-03 0. -1.
        -11    1    3    3    0    0  0.70584282172E+01 -0.13731814567E+02  0.70239205405E+00  0.15455662233E+02  0.51100000000E-03 0.  1.
         12    1    3    3    0    0 -0.24159443848E+00 -0.17920193051E+02 -0.20240705452E+01  0.18035757495E+02  0.00000000000E+00 0. -1.
</event>
<event>
 7    1  0.4047706E-008  0.4614232E+02  0.7816164E-02  0.1320468E+00
        -11   -1    0    0    0    0  0.00000000000E+00  0.00000000000E+00  0.45593999997E+02  0.45594000000E+02  0.51100000000E-03 0.  1.
         11   -1    0    0    0    0 -0.00000000000E+00 -0.00000000000E+00 -0.45593999997E+02  0.45594000000E+02  0.51100000000E-03 0. -1.
    9900012    2    1    2    0    0 -0.14202661560E+01  0.46297566478E+01 -0.44784614222E+02  0.46142317925E+02  0.10000001498E+02 0.  0.
        -12    1    1    2    0    0  0.14202661560E+01 -0.46297566478E+01  0.44784614222E+02  0.45045682075E+02  0.00000000000E+00 0.  1.
         11    1    3    3    0    0 -0.27382997767E+00  0.10677185540E+01  0.42554520001E-01  0.11030942460E+01  0.51100000000E-03 0. -1.
        -11    1    3    3    0    0  0.14207140439E+00 -0.11246654453E+00 -0.37135581986E+00  0.41320505037E+00  0.51100000000E-03 0.  1.
         12    1    3    3    0    0 -0.12885075828E+01  0.36745046383E+01 -0.44455812922E+02  0.44626018629E+02  0.00000000000E+00 0. -1.
</event>
<event>
 7    1  0.4047706E-008  0.4614232E+02  0.7816164E-02  0.1320468E+00
        -11   -1    0    0    0    0  0.00000000000E+00  0.00000000000E+00  0.45593999997E+02  0.45594000000E+02  0.51100000000E-03 0.  1.
         11   -1    0    0    0    0 -0.00000000000E+00 -0.00000000000E+00 -0.45593999997E+02  0.45594000000E+02  0.51100000000E-03 0. -1.
    9900012    2    1    2    0    0  0.22110942383E+02 -0.18128000356E+02 -0.34807976924E+02  0.46142318437E+02  0.10000006159E+02 0.  0.
        -12    1    1    2    0    0 -0.22110942383E+02  0.18128000356E+02  0.34807976924E+02  0.45045681563E+02  0.00000000000E+00 0.  1.
         11    1    3    3    0    0  0.12472771574E+02 -0.96661436848E+01 -0.17962260570E+02  0.23909144056E+02  0.51100000000E-03 0. -1.
        -11    1    3    3    0    0  0.38974857968E+01 -0.77891786925E+01 -0.10693183396E+02  0.13791514479E+02  0.51100000000E-03 0.  1.
         12    1    3    3    0    0  0.57406850119E+01 -0.67267797846E+00 -0.61525329588E+01  0.84416599006E+01  0.00000000000E+00 0. -1.
</event>
<event>
 7    1  0.4047706E-008  0.4614232E+02  0.7816164E-02  0.1320468E+00
        -11   -1    0    0    0    0  0.00000000000E+00  0.00000000000E+00  0.45593999997E+02  0.45594000000E+02  0.51100000000E-03 0. -1.
         11   -1    0    0    0    0 -0.00000000000E+00 -0.00000000000E+00 -0.45593999997E+02  0.45594000000E+02  0.51100000000E-03 0.  1.
    9900012    2    1    2    0    0  0.75542950405E+01 -0.44274162427E+02  0.34416104731E+01  0.46142317468E+02  0.99999973241E+01 0.  0.
        -12    1    1    2    0    0 -0.75542950405E+01  0.44274162427E+02 -0.34416104731E+01  0.45045682532E+02  0.00000000000E+00 0.  1.
         11    1    3    3    0    0 -0.13095627583E+01 -0.79717902919E+01 -0.10338113845E+01  0.81445172549E+01  0.51100000000E-03 0. -1.
        -11    1    3    3    0    0  0.54491265888E+00 -0.16508009136E+01 -0.90152387173E+00  0.19582693927E+01  0.51100000000E-03 0.  1.
        -12    1    3    3    0    0  0.83189451399E+01 -0.34651571221E+02  0.53769457293E+01  0.36039530820E+02  0.00000000000E+00 0.  1.
</event>
<event>
 7    1  0.4047706E-008  0.4614232E+02  0.7816164E-02  0.1320468E+00
        -11   -1    0    0    0    0  0.00000000000E+00  0.00000000000E+00  0.45593999997E+02  0.45594000000E+02  0.51100000000E-03 0.  1.
         11   -1    0    0    0    0 -0.00000000000E+00 -0.00000000000E+00 -0.45593999997E+02  0.45594000000E+02  0.51100000000E-03 0. -1.
    9900012    2    1    2    0    0  0.42791461517E+02 -0.10632096720E+02 -0.92175212296E+01  0.46142319218E+02  0.10000013289E+02 0.  0.
        -12    1    1    2    0    0 -0.42791461517E+02  0.10632096720E+02  0.92175212296E+01  0.45045680782E+02  0.00000000000E+00 0.  1.
         11    1    3    3    0    0  0.16633901018E+02 -0.61555854461E+01 -0.20180198815E+01  0.17850778688E+02  0.51100000000E-03 0. -1.
        -11    1    3    3    0    0  0.19028261133E+01 -0.92340624038E+00  0.11343546981E+01  0.24000389881E+01  0.51100000000E-03 0.  1.
        -12    1    3    3    0    0  0.24254734386E+02 -0.35531050339E+01 -0.83338560462E+01  0.25891501542E+02  0.00000000000E+00 0.  1.
</event>
<event>
 7    1  0.4047706E-008  0.4614232E+02  0.7816164E-02  0.1320468E+00
        -11   -1    0    0    0    0  0.00000000000E+00  0.00000000000E+00  0.45593999997E+02  0.45594000000E+02  0.51100000000E-03 0.  1.
         11   -1    0    0    0    0 -0.00000000000E+00 -0.00000000000E+00 -0.45593999997E+02  0.45594000000E+02  0.51100000000E-03 0. -1.
    9900012    2    1    2    0    0  0.28529811126E+02  0.12476129237E+02 -0.32550107925E+02  0.46142318192E+02  0.10000003930E+02 0.  0.
        -12    1    1    2    0    0 -0.28529811126E+02 -0.12476129237E+02  0.32550107925E+02  0.45045681808E+02  0.00000000000E+00 0.  1.
         11    1    3    3    0    0  0.18310731569E+02  0.93138938783E+01 -0.20894311745E+02  0.29301941460E+02  0.51100000000E-03 0. -1.
        -11    1    3    3    0    0  0.97769219379E+01  0.44701802089E+01 -0.99759618399E+01  0.14665964972E+02  0.51100000000E-03 0.  1.
        -12    1    3    3    0    0  0.44215761971E+00 -0.13079448503E+01 -0.16798343400E+01  0.21744117600E+01  0.00000000000E+00 0.  1.
</event>
<event>
 7    1  0.4047706E-008  0.4614232E+02  0.7816164E-02  0.1320468E+00
        -11   -1    0    0    0    0  0.00000000000E+00  0.00000000000E+00  0.45593999997E+02  0.45594000000E+02  0.51100000000E-03 0. -1.
         11   -1    0    0    0    0 -0.00000000000E+00 -0.00000000000E+00 -0.45593999997E+02  0.45594000000E+02  0.51100000000E-03 0.  1.
    9900012    2    1    2    0    0  0.21645062476E+02 -0.77959457097E+01  0.38727608719E+02  0.46142321226E+02  0.10000031596E+02 0.  0.
        -12    1    1    2    0    0 -0.21645062476E+02  0.77959457097E+01 -0.38727608719E+02  0.45045678774E+02  0.00000000000E+00 0.  1.
         11    1    3    3    0    0  0.32270521876E+01 -0.36376703099E+00  0.46935463770E+01  0.57075012158E+01  0.51100000000E-03 0. -1.
        -11    1    3    3    0    0  0.85559379692E+01 -0.64829690684E+01  0.24205821226E+02  0.26479326728E+02  0.51100000000E-03 0.  1.
        -12    1    3    3    0    0  0.98620723196E+01 -0.94920961036E+00  0.98282411157E+01  0.13955493282E+02  0.00000000000E+00 0.  1.
</event>
<event>
 7    1  0.4047706E-008  0.4614232E+02  0.7816164E-02  0.1320468E+00
        -11   -1    0    0    0    0  0.00000000000E+00  0.00000000000E+00  0.45593999997E+02  0.45594000000E+02  0.51100000000E-03 0.  1.
         11   -1    0    0    0    0 -0.00000000000E+00 -0.00000000000E+00 -0.45593999997E+02  0.45594000000E+02  0.51100000000E-03 0. -1.
    9900012    2    1    2    0    0 -0.13959095319E+02 -0.38240242989E+02 -0.19285773551E+02  0.46142316662E+02  0.99999899733E+01 0.  0.
        -12    1    1    2    0    0  0.13959095319E+02  0.38240242989E+02  0.19285773551E+02  0.45045683338E+02  0.00000000000E+00 0.  1.
         11    1    3    3    0    0 -0.58551764964E+01 -0.10099248743E+02 -0.60381102645E+01  0.13142933189E+02  0.51100000000E-03 0. -1.
        -11    1    3    3    0    0  0.39533376007E+00 -0.12290563231E+01 -0.24742511392E+01  0.27908398715E+01  0.51100000000E-03 0.  1.
        -12    1    3    3    0    0 -0.84992525828E+01 -0.26911937922E+02 -0.10773412147E+02  0.30208543601E+02  0.00000000000E+00 0.  1.
</event>
<event>
 7    1  0.4047706E-008  0.4614232E+02  0.7816164E-02  0.1320468E+00
        -11   -1    0    0    0    0  0.00000000000E+00  0.00000000000E+00  0.45593999997E+02  0.45594000000E+02  0.51100000000E-03 0.  1.
         11   -1    0    0    0    0 -0.00000000000E+00 -0.00000000000E+00 -0.45593999997E+02  0.45594000000E+02  0.51100000000E-03 0. -1.
    9900012    2    1    2    0    0 -0.40366729010E+02  0.80740136430E+01  0.18287984281E+02  0.46142324555E+02  0.10000061952E+02 0.  0.
        -12    1    1    2    0    0  0.40366729010E+02 -0.80740136430E+01 -0.18287984281E+02  0.45045675445E+02  0.00000000000E+00 0.  1.
         11    1    3    3    0    0 -0.26857606716E+02  0.19916927989E+01  0.12908880974E+02  0.29865315785E+02  0.51100000000E-03 0. -1.
        -11    1    3    3    0    0 -0.20800086501E+01  0.49844460234E+00  0.23957264210E+01  0.32116021472E+01  0.51100000000E-03 0.  1.
        -12    1    3    3    0    0 -0.11429113644E+02  0.55838762418E+01  0.29833768855E+01  0.13065406622E+02  0.00000000000E+00 0.  1.
</event>
<event>
 7    1  0.4047706E-008  0.4614232E+02  0.7816164E-02  0.1320468E+00
        -11   -1    0    0    0    0  0.00000000000E+00  0.00000000000E+00  0.45593999997E+02  0.45594000000E+02  0.51100000000E-03 0.  1.
         11   -1    0    0    0    0 -0.00000000000E+00 -0.00000000000E+00 -0.45593999997E+02  0.45594000000E+02  0.51100000000E-03 0. -1.
    9900012    2    1    2    0    0  0.56809106792E+00  0.32948160984E+02 -0.30711714861E+02  0.46142317972E+02  0.10000001923E+02 0.  0.
        -12    1    1    2    0    0 -0.56809106792E+00 -0.32948160984E+02  0.30711714861E+02  0.45045682028E+02  0.00000000000E+00 0.  1.
         11    1    3    3    0    0  0.58082579271E-01  0.11159579549E+01 -0.32365649112E+01  0.34240456230E+01  0.51100000000E-03 0. -1.
        -11    1    3    3    0    0 -0.34809244341E+01  0.12942829779E+02 -0.11440388967E+02  0.17621469223E+02  0.51100000000E-03 0.  1.
         12    1    3    3    0    0  0.39909329228E+01  0.18889373250E+02 -0.16034760983E+02  0.25096803126E+02  0.00000000000E+00 0. -1.
</event>
<event>
 7    1  0.4047706E-008  0.4614232E+02  0.7816164E-02  0.1320468E+00
        -11   -1    0    0    0    0  0.00000000000E+00  0.00000000000E+00  0.45593999997E+02  0.45594000000E+02  0.51100000000E-03 0.  1.
         11   -1    0    0    0    0 -0.00000000000E+00 -0.00000000000E+00 -0.45593999997E+02  0.45594000000E+02  0.51100000000E-03 0. -1.
    9900012    2    1    2    0    0  0.20208669030E+02 -0.39959788832E+01 -0.40059398348E+02  0.46142317107E+02  0.99999940397E+01 0.  0.
        -12    1    1    2    0    0 -0.20208669030E+02  0.39959788832E+01  0.40059398348E+02  0.45045682893E+02  0.00000000000E+00 0.  1.
         11    1    3    3    0    0  0.31812519890E+01  0.13357674764E+01 -0.10622887250E+02  0.11169170638E+02  0.51100000000E-03 0. -1.
        -11    1    3    3    0    0  0.36550108775E+01 -0.36372051851E+01 -0.57788845691E+01  0.77449256418E+01  0.51100000000E-03 0.  1.
         12    1    3    3    0    0  0.13372406164E+02 -0.16945411746E+01 -0.23657626530E+02  0.27228220827E+02  0.00000000000E+00 0. -1.
</event>
<event>
 7    1  0.4047706E-008  0.4614232E+02  0.7816164E-02  0.1320468E+00
        -11   -1    0    0    0    0  0.00000000000E+00  0.00000000000E+00  0.45593999997E+02  0.45594000000E+02  0.51100000000E-03 0.  1.
         11   -1    0    0    0    0 -0.00000000000E+00 -0.00000000000E+00 -0.45593999997E+02  0.45594000000E+02  0.51100000000E-03 0. -1.
    9900012    2    1    2    0    0  0.19841743335E+02  0.36567300622E+02 -0.17269953106E+02  0.46142317258E+02  0.99999954148E+01 0.  0.
        -12    1    1    2    0    0 -0.19841743335E+02 -0.36567300622E+02  0.17269953106E+02  0.45045682742E+02  0.00000000000E+00 0.  1.
         11    1    3    3    0    0  0.86788005818E+01  0.17711030713E+02 -0.69108267650E+01  0.20898844831E+02  0.51100000000E-03 0. -1.
        -11    1    3    3    0    0  0.99490606654E+01  0.10303816411E+02 -0.55824805755E+01  0.15372590230E+02  0.51100000000E-03 0.  1.
        -12    1    3    3    0    0  0.12138820881E+01  0.85524534988E+01 -0.47766457653E+01  0.98708821966E+01  0.00000000000E+00 0.  1.
</event>
<event>
 7    1  0.4047706E-008  0.4614232E+02  0.7816164E-02  0.1320468E+00
        -11   -1    0    0    0    0  0.00000000000E+00  0.00000000000E+00  0.45593999997E+02  0.45594000000E+02  0.51100000000E-03 0. -1.
         11   -1    0    0    0    0 -0.00000000000E+00 -0.00000000000E+00 -0.45593999997E+02  0.45594000000E+02  0.51100000000E-03 0.  1.
    9900012    2    1    2    0    0 -0.34882567849E+01  0.33929653672E+02  0.29423191418E+02  0.46142317334E+02  0.99999961018E+01 0.  0.
        -12    1    1    2    0    0  0.34882567849E+01 -0.33929653672E+02 -0.29423191418E+02  0.45045682666E+02  0.00000000000E+00 0.  1.
         11    1    3    3    0    0 -0.18543518341E+01  0.70253213328E+01  0.85727141798E+01  0.11237668318E+02  0.51100000000E-03 0. -1.
        -11    1    3    3    0    0 -0.59704992906E+00  0.19780226386E+02  0.19083735152E+02  0.27491867381E+02  0.51100000000E-03 0.  1.
         12    1    3    3    0    0 -0.10368550218E+01  0.71241059528E+01  0.17667420863E+01  0.74127816346E+01  0.00000000000E+00 0. -1.
</event>
<event>
 7    1  0.4047706E-008  0.4614232E+02  0.7816164E-02  0.1320468E+00
        -11   -1    0    0    0    0  0.00000000000E+00  0.00000000000E+00  0.45593999997E+02  0.45594000000E+02  0.51100000000E-03 0. -1.
         11   -1    0    0    0    0 -0.00000000000E+00 -0.00000000000E+00 -0.45593999997E+02  0.45594000000E+02  0.51100000000E-03 0.  1.
    9900012    2    1    2    0    0 -0.14863907103E+02 -0.30947398755E+02  0.29162236614E+02  0.46142320202E+02  0.10000022262E+02 0.  0.
        -12    1    1    2    0    0  0.14863907103E+02  0.30947398755E+02 -0.29162236614E+02  0.45045679798E+02  0.00000000000E+00 0.  1.
         11    1    3    3    0    0 -0.58450378910E+01 -0.62158637234E+01  0.94915322246E+01  0.12762860730E+02  0.51100000000E-03 0. -1.
        -11    1    3    3    0    0 -0.76637259733E+01 -0.16606799695E+02  0.16230402233E+02  0.24452902666E+02  0.51100000000E-03 0.  1.
        -12    1    3    3    0    0 -0.13551432390E+01 -0.81247353364E+01  0.34403021568E+01  0.89265568063E+01  0.00000000000E+00 0.  1.
</event>
<event>
 7    1  0.4047706E-008  0.4614232E+02  0.7816164E-02  0.1320468E+00
        -11   -1    0    0    0    0  0.00000000000E+00  0.00000000000E+00  0.45593999997E+02  0.45594000000E+02  0.51100000000E-03 0. -1.
         11   -1    0    0    0    0 -0.00000000000E+00 -0.00000000000E+00 -0.45593999997E+02  0.45594000000E+02  0.51100000000E-03 0.  1.
    9900012    2    1    2    0    0 -0.28175357151E+02  0.32710822116E+02 -0.12855538201E+02  0.46142317671E+02  0.99999991761E+01 0.  0.
        -12    1    1    2    0    0  0.28175357151E+02 -0.32710822116E+02  0.12855538201E+02  0.45045682329E+02  0.00000000000E+00 0.  1.
         11    1    3    3    0    0 -0.33491049134E+01  0.24048436797E+01  0.13579910244E+01  0.43409580427E+01  0.51100000000E-03 0. -1.
        -11    1    3    3    0    0 -0.18104337754E+01  0.34641277117E+01 -0.20181452723E+01  0.43989500860E+01  0.51100000000E-03 0.  1.
         12    1    3    3    0    0 -0.23015818462E+02  0.26841850725E+02 -0.12195383953E+02  0.37402409542E+02  0.00000000000E+00 0. -1.
</event>
<event>
 7    1  0.4047706E-008  0.4614232E+02  0.7816164E-02  0.1320468E+00
        -11   -1    0    0    0    0  0.00000000000E+00  0.00000000000E+00  0.45593999997E+02  0.45594000000E+02  0.51100000000E-03 0.  1.
         11   -1    0    0    0    0 -0.00000000000E+00 -0.00000000000E+00 -0.45593999997E+02  0.45594000000E+02  0.51100000000E-03 0. -1.
    9900012    2    1    2    0    0  0.80891742316E+01  0.84651734849E+01 -0.43497345464E+02  0.46142323579E+02  0.10000053048E+02 0.  0.
        -12    1    1    2    0    0 -0.80891742316E+01 -0.84651734849E+01  0.43497345464E+02  0.45045676421E+02  0.00000000000E+00 0.  1.
         11    1    3    3    0    0  0.50471689852E+01  0.54386465655E+01 -0.11534142436E+02  0.13714562816E+02  0.51100000000E-03 0. -1.
        -11    1    3    3    0    0  0.14301800815E+01  0.57355865497E-02 -0.38542536465E+01  0.41110484545E+01  0.51100000000E-03 0.  1.
         12    1    3    3    0    0  0.16118251648E+01  0.30207913328E+01 -0.28108949381E+02  0.28316712308E+02  0.00000000000E+00 0. -1.
</event>
<event>
 7    1  0.4047706E-008  0.4614232E+02  0.7816164E-02  0.1320468E+00
        -11   -1    0    0    0    0  0.00000000000E+00  0.00000000000E+00  0.45593999997E+02  0.45594000000E+02  0.51100000000E-03 0.  1.
         11   -1    0    0    0    0 -0.00000000000E+00 -0.00000000000E+00 -0.45593999997E+02  0.45594000000E+02  0.51100000000E-03 0. -1.
    9900012    2    1    2    0    0 -0.28117046694E+02 -0.20651145728E+01 -0.35132328448E+02  0.46142317464E+02  0.99999972900E+01 0.  0.
        -12    1    1    2    0    0  0.28117046694E+02  0.20651145728E+01  0.35132328448E+02  0.45045682536E+02  0.00000000000E+00 0.  1.
         11    1    3    3    0    0 -0.90826244072E+01  0.12448275048E+01 -0.10181269935E+02  0.13700435008E+02  0.51100000000E-03 0. -1.
        -11    1    3    3    0    0 -0.10055536276E+01  0.17142234970E+01 -0.18991185836E+01  0.27488819457E+01  0.51100000000E-03 0.  1.
         12    1    3    3    0    0 -0.18028868659E+02 -0.50241655746E+01 -0.23051939929E+02  0.29693000511E+02  0.00000000000E+00 0. -1.
</event>
<event>
 7    1  0.4047706E-008  0.4614232E+02  0.7816164E-02  0.1320468E+00
        -11   -1    0    0    0    0  0.00000000000E+00  0.00000000000E+00  0.45593999997E+02  0.45594000000E+02  0.51100000000E-03 0.  1.
         11   -1    0    0    0    0 -0.00000000000E+00 -0.00000000000E+00 -0.45593999997E+02  0.45594000000E+02  0.51100000000E-03 0. -1.
    9900012    2    1    2    0    0  0.28252768312E+02  0.17424286658E+02 -0.30451415132E+02  0.46142319116E+02  0.10000012351E+02 0.  0.
        -12    1    1    2    0    0 -0.28252768312E+02 -0.17424286658E+02  0.30451415132E+02  0.45045680884E+02  0.00000000000E+00 0.  1.
         11    1    3    3    0    0  0.13702966125E+02  0.81321427529E+01 -0.10105349559E+02  0.18868521838E+02  0.51100000000E-03 0.  1.
        -11    1    3    3    0    0  0.12991840412E+01  0.32096774105E+01 -0.27475662692E+01  0.44202973788E+01  0.51100000000E-03 0. -1.
         12    1    3    3    0    0  0.13250618146E+02  0.60824664946E+01 -0.17598499303E+02  0.22853499899E+02  0.00000000000E+00 0. -1.
</event>
<event>
 7    1  0.4047706E-008  0.4614232E+02  0.7816164E-02  0.1320468E+00
        -11   -1    0    0    0    0  0.00000000000E+00  0.00000000000E+00  0.45593999997E+02  0.45594000000E+02  0.51100000000E-03 0.  1.
         11   -1    0    0    0    0 -0.00000000000E+00 -0.00000000000E+00 -0.45593999997E+02  0.45594000000E+02  0.51100000000E-03 0. -1.
    9900012    2    1    2    0    0 -0.25604232464E+02  0.22541883929E+02 -0.29417686122E+02  0.46142317544E+02  0.99999980181E+01 0.  0.
        -12    1    1    2    0    0  0.25604232464E+02 -0.22541883929E+02  0.29417686122E+02  0.45045682456E+02  0.00000000000E+00 0.  1.
         11    1    3    3    0    0 -0.25423724947E+02  0.22248000270E+02 -0.26563058001E+02  0.42975985815E+02  0.51100000000E-03 0. -1.
        -11    1    3    3    0    0 -0.30007170837E+00 -0.42810653624E+00 -0.18562145856E+01  0.19284322870E+01  0.51100000000E-03 0.  1.
         12    1    3    3    0    0  0.11956419118E+00  0.72199019556E+00 -0.99841353599E+00  0.12378994415E+01  0.00000000000E+00 0. -1.
</event>
<event>
 7    1  0.4047706E-008  0.4614232E+02  0.7816164E-02  0.1320468E+00
        -11   -1    0    0    0    0  0.00000000000E+00  0.00000000000E+00  0.45593999997E+02  0.45594000000E+02  0.51100000000E-03 0.  1.
         11   -1    0    0    0    0 -0.00000000000E+00 -0.00000000000E+00 -0.45593999997E+02  0.45594000000E+02  0.51100000000E-03 0. -1.
    9900012    2    1    2    0    0 -0.18234703701E+02  0.34567177922E+02 -0.22399090822E+02  0.46142317874E+02  0.10000001026E+02 0.  0.
        -12    1    1    2    0    0  0.18234703701E+02 -0.34567177922E+02  0.22399090822E+02  0.45045682126E+02  0.00000000000E+00 0.  1.
         11    1    3    3    0    0 -0.10232897018E+02  0.24124110159E+02 -0.16411473050E+02  0.30919594439E+02  0.51100000000E-03 0. -1.
        -11    1    3    3    0    0 -0.53645337181E+01  0.66011360597E+01 -0.62499582217E+01  0.10555339754E+02  0.51100000000E-03 0.  1.
        -12    1    3    3    0    0 -0.26372729654E+01  0.38419317031E+01  0.26234044976E+00  0.46673836800E+01  0.00000000000E+00 0.  1.
</event>
<event>
 7    1  0.4047706E-008  0.4614232E+02  0.7816164E-02  0.1320468E+00
        -11   -1    0    0    0    0  0.00000000000E+00  0.00000000000E+00  0.45593999997E+02  0.45594000000E+02  0.51100000000E-03 0.  1.
         11   -1    0    0    0    0 -0.00000000000E+00 -0.00000000000E+00 -0.45593999997E+02  0.45594000000E+02  0.51100000000E-03 0. -1.
    9900012    2    1    2    0    0  0.10352205194E+01  0.24231082149E+02 -0.37959143027E+02  0.46142316933E+02  0.99999924487E+01 0.  0.
        -12    1    1    2    0    0 -0.10352205194E+01 -0.24231082149E+02  0.37959143027E+02  0.45045683067E+02  0.00000000000E+00 0.  1.
         11    1    3    3    0    0 -0.16854305328E+01  0.11337872371E+02 -0.12672110248E+02  0.17087141492E+02  0.51100000000E-03 0. -1.
        -11    1    3    3    0    0  0.19523943893E+01  0.59059648141E+01 -0.17460282867E+02  0.18535202785E+02  0.51100000000E-03 0.  1.
        -12    1    3    3    0    0  0.76825666289E+00  0.69872449646E+01 -0.78267499121E+01  0.10519972656E+02  0.00000000000E+00 0.  1.
</event>
<event>
 7    1  0.4047706E-008  0.4614232E+02  0.7816164E-02  0.1320468E+00
        -11   -1    0    0    0    0  0.00000000000E+00  0.00000000000E+00  0.45593999997E+02  0.45594000000E+02  0.51100000000E-03 0.  1.
         11   -1    0    0    0    0 -0.00000000000E+00 -0.00000000000E+00 -0.45593999997E+02  0.45594000000E+02  0.51100000000E-03 0. -1.
    9900012    2    1    2    0    0  0.37943108957E+01  0.29328145462E+02 -0.33979059934E+02  0.46142318460E+02  0.10000006376E+02 0.  0.
        -12    1    1    2    0    0 -0.37943108957E+01 -0.29328145462E+02  0.33979059934E+02  0.45045681540E+02  0.00000000000E+00 0.  1.
         11    1    3    3    0    0 -0.15410210332E+00  0.10104897485E+02 -0.17216760801E+02  0.19963705903E+02  0.51100000000E-03 0. -1.
        -11    1    3    3    0    0  0.36395554185E+01  0.10799619210E+02 -0.74375177153E+01  0.13608629937E+02  0.51100000000E-03 0.  1.
        -12    1    3    3    0    0  0.30885758051E+00  0.84236287669E+01 -0.93247814176E+01  0.12569982621E+02  0.00000000000E+00 0.  1.
</event>
<event>
 7    1  0.4047706E-008  0.4614232E+02  0.7816164E-02  0.1320468E+00
        -11   -1    0    0    0    0  0.00000000000E+00  0.00000000000E+00  0.45593999997E+02  0.45594000000E+02  0.51100000000E-03 0. -1.
         11   -1    0    0    0    0 -0.00000000000E+00 -0.00000000000E+00 -0.45593999997E+02  0.45594000000E+02  0.51100000000E-03 0.  1.
    9900012    2    1    2    0    0  0.38804946719E+02 -0.10926236731E+02  0.20097435215E+02  0.46142318285E+02  0.10000004776E+02 0.  0.
        -12    1    1    2    0    0 -0.38804946719E+02  0.10926236731E+02 -0.20097435215E+02  0.45045681715E+02  0.00000000000E+00 0.  1.
         11    1    3    3    0    0  0.12227345638E+02 -0.31914769604E+01  0.55941206371E+01  0.13819829685E+02  0.51100000000E-03 0. -1.
        -11    1    3    3    0    0  0.16103096240E+02 -0.43591082010E+00  0.76629243600E+01  0.17838725761E+02  0.51100000000E-03 0.  1.
        -12    1    3    3    0    0  0.10474504840E+02 -0.72988489505E+01  0.68403902179E+01  0.14483762839E+02  0.00000000000E+00 0.  1.
</event>
<event>
 7    1  0.4047706E-008  0.4614232E+02  0.7816164E-02  0.1320468E+00
        -11   -1    0    0    0    0  0.00000000000E+00  0.00000000000E+00  0.45593999997E+02  0.45594000000E+02  0.51100000000E-03 0.  1.
         11   -1    0    0    0    0 -0.00000000000E+00 -0.00000000000E+00 -0.45593999997E+02  0.45594000000E+02  0.51100000000E-03 0. -1.
    9900012    2    1    2    0    0 -0.23540548984E+02 -0.16169738537E+02 -0.34835262855E+02  0.46142318420E+02  0.10000006007E+02 0.  0.
        -12    1    1    2    0    0  0.23540548984E+02  0.16169738537E+02  0.34835262855E+02  0.45045681580E+02  0.00000000000E+00 0.  1.
         11    1    3    3    0    0 -0.45508720755E+01 -0.48404387967E+01 -0.31316235886E+01  0.73448860409E+01  0.51100000000E-03 0.  1.
        -11    1    3    3    0    0 -0.12382908863E+02 -0.70426296929E+01 -0.17588543919E+02  0.22633867154E+02  0.51100000000E-03 0. -1.
        -12    1    3    3    0    0 -0.66067680450E+01 -0.42866700478E+01 -0.14115095348E+02  0.16163565225E+02  0.00000000000E+00 0.  1.
</event>
<event>
 7    1  0.4047706E-008  0.4614232E+02  0.7816164E-02  0.1320468E+00
        -11   -1    0    0    0    0  0.00000000000E+00  0.00000000000E+00  0.45593999997E+02  0.45594000000E+02  0.51100000000E-03 0.  1.
         11   -1    0    0    0    0 -0.00000000000E+00 -0.00000000000E+00 -0.45593999997E+02  0.45594000000E+02  0.51100000000E-03 0. -1.
    9900012    2    1    2    0    0 -0.19798513066E+02  0.14914959859E+02 -0.37612182204E+02  0.46142318771E+02  0.10000009208E+02 0.  0.
        -12    1    1    2    0    0  0.19798513066E+02 -0.14914959859E+02  0.37612182204E+02  0.45045681229E+02  0.00000000000E+00 0.  1.
         11    1    3    3    0    0 -0.59720486700E+00  0.24026115206E+00  0.17421880216E+00  0.66688194345E+00  0.51100000000E-03 0. -1.
        -11    1    3    3    0    0 -0.13290691535E+02  0.56495893589E+01 -0.19913724777E+02  0.24599121451E+02  0.51100000000E-03 0.  1.
         12    1    3    3    0    0 -0.59106166640E+01  0.90251093482E+01 -0.17872676230E+02  0.20876315377E+02  0.00000000000E+00 0. -1.
</event>
<event>
 7    1  0.4047706E-008  0.4614232E+02  0.7816164E-02  0.1320468E+00
        -11   -1    0    0    0    0  0.00000000000E+00  0.00000000000E+00  0.45593999997E+02  0.45594000000E+02  0.51100000000E-03 0. -1.
         11   -1    0    0    0    0 -0.00000000000E+00 -0.00000000000E+00 -0.45593999997E+02  0.45594000000E+02  0.51100000000E-03 0.  1.
    9900012    2    1    2    0    0 -0.26167180417E+02  0.34290918103E+02  0.12981722905E+02  0.46142317356E+02  0.99999963032E+01 0.  0.
        -12    1    1    2    0    0  0.26167180417E+02 -0.34290918103E+02 -0.12981722905E+02  0.45045682644E+02  0.00000000000E+00 0.  1.
         11    1    3    3    0    0 -0.42112181615E+00  0.35826796314E+00 -0.73819483114E+00  0.92229680000E+00  0.51100000000E-03 0.  1.
        -11    1    3    3    0    0 -0.16378593134E+02  0.26396697355E+02  0.97672448006E+01  0.32564444039E+02  0.51100000000E-03 0. -1.
        -12    1    3    3    0    0 -0.93674654664E+01  0.75359527853E+01  0.39526729356E+01  0.12655576517E+02  0.00000000000E+00 0.  1.
</event>
<event>
 7    1  0.4047706E-008  0.4614232E+02  0.7816164E-02  0.1320468E+00
        -11   -1    0    0    0    0  0.00000000000E+00  0.00000000000E+00  0.45593999997E+02  0.45594000000E+02  0.51100000000E-03 0.  1.
         11   -1    0    0    0    0 -0.00000000000E+00 -0.00000000000E+00 -0.45593999997E+02  0.45594000000E+02  0.51100000000E-03 0. -1.
    9900012    2    1    2    0    0 -0.28396599759E+02 -0.31522677101E+02  0.15134970943E+02  0.46142318798E+02  0.10000009457E+02 0.  0.
        -12    1    1    2    0    0  0.28396599759E+02  0.31522677101E+02 -0.15134970943E+02  0.45045681202E+02  0.00000000000E+00 0.  1.
         11    1    3    3    0    0 -0.10965774889E+02 -0.92734309066E+01  0.52581269110E+01  0.15293548920E+02  0.51100000000E-03 0.  1.
        -11    1    3    3    0    0 -0.11582855470E+02 -0.87720286165E+01  0.51644151661E+01  0.15420188428E+02  0.51100000000E-03 0. -1.
         12    1    3    3    0    0 -0.58479694000E+01 -0.13477217578E+02  0.47124288661E+01  0.15428581450E+02  0.00000000000E+00 0. -1.
</event>
<event>
 7    1  0.4047706E-008  0.4614232E+02  0.7816164E-02  0.1320468E+00
        -11   -1    0    0    0    0  0.00000000000E+00  0.00000000000E+00  0.45593999997E+02  0.45594000000E+02  0.51100000000E-03 0.  1.
         11   -1    0    0    0    0 -0.00000000000E+00 -0.00000000000E+00 -0.45593999997E+02  0.45594000000E+02  0.51100000000E-03 0. -1.
    9900012    2    1    2    0    0  0.32863276352E+02 -0.17628628228E+01 -0.30757286943E+02  0.46142319652E+02  0.10000017240E+02 0.  0.
        -12    1    1    2    0    0 -0.32863276352E+02  0.17628628228E+01  0.30757286943E+02  0.45045680348E+02  0.00000000000E+00 0.  1.
         11    1    3    3    0    0  0.11051501146E+02 -0.23681937871E+01 -0.12010810732E+02  0.16492531464E+02  0.51100000000E-03 0. -1.
        -11    1    3    3    0    0  0.17036339635E+02  0.17537947915E+01 -0.17697341592E+02  0.24627394584E+02  0.51100000000E-03 0.  1.
        -12    1    3    3    0    0  0.47754355712E+01 -0.11484638272E+01 -0.10491346192E+01  0.50223936033E+01  0.00000000000E+00 0.  1.
</event>
<event>
 7    1  0.4047706E-008  0.4614232E+02  0.7816164E-02  0.1320468E+00
        -11   -1    0    0    0    0  0.00000000000E+00  0.00000000000E+00  0.45593999997E+02  0.45594000000E+02  0.51100000000E-03 0.  1.
         11   -1    0    0    0    0 -0.00000000000E+00 -0.00000000000E+00 -0.45593999997E+02  0.45594000000E+02  0.51100000000E-03 0. -1.
    9900012    2    1    2    0    0  0.31691616687E+02  0.90923327024E+01 -0.30693390398E+02  0.46142319893E+02  0.10000019436E+02 0.  0.
        -12    1    1    2    0    0 -0.31691616687E+02 -0.90923327024E+01  0.30693390398E+02  0.45045680107E+02  0.00000000000E+00 0.  1.
         11    1    3    3    0    0  0.51826315598E+01  0.10571830921E+01 -0.87200675374E+01  0.10198866804E+02  0.51100000000E-03 0. -1.
        -11    1    3    3    0    0  0.12575732284E+02  0.17768493803E+01 -0.67692042827E+01  0.14391954804E+02  0.51100000000E-03 0.  1.
         12    1    3    3    0    0  0.13933252844E+02  0.62583002299E+01 -0.15204118578E+02  0.21551498284E+02  0.00000000000E+00 0. -1.
</event>
<event>
 7    1  0.4047706E-008  0.4614231E+02  0.7816164E-02  0.1320468E+00
        -11   -1    0    0    0    0  0.00000000000E+00  0.00000000000E+00  0.45593999997E+02  0.45594000000E+02  0.51100000000E-03 0.  1.
         11   -1    0    0    0    0 -0.00000000000E+00 -0.00000000000E+00 -0.45593999997E+02  0.45594000000E+02  0.51100000000E-03 0. -1.
    9900012    2    1    2    0    0 -0.11590567980E+02  0.41987458014E+02 -0.11481543765E+02  0.46142314926E+02  0.99999741485E+01 0.  0.
        -12    1    1    2    0    0  0.11590567980E+02 -0.41987458014E+02  0.11481543765E+02  0.45045685074E+02  0.00000000000E+00 0.  1.
         11    1    3    3    0    0 -0.48399062513E+01  0.13286802528E+02 -0.17759466637E+01  0.14251940245E+02  0.51100000000E-03 0. -1.
        -11    1    3    3    0    0  0.14291996170E+01  0.20440789899E+01 -0.78518775932E+00  0.26148404427E+01  0.51100000000E-03 0.  1.
         12    1    3    3    0    0 -0.81798613461E+01  0.26656576496E+02 -0.89204093416E+01  0.29275534238E+02  0.00000000000E+00 0. -1.
</event>
<event>
 7    1  0.4047706E-008  0.4614232E+02  0.7816164E-02  0.1320468E+00
        -11   -1    0    0    0    0  0.00000000000E+00  0.00000000000E+00  0.45593999997E+02  0.45594000000E+02  0.51100000000E-03 0. -1.
         11   -1    0    0    0    0 -0.00000000000E+00 -0.00000000000E+00 -0.45593999997E+02  0.45594000000E+02  0.51100000000E-03 0.  1.
    9900012    2    1    2    0    0 -0.32188111333E+02 -0.94821122644E+01  0.30052095939E+02  0.46142318359E+02  0.10000005448E+02 0.  0.
        -12    1    1    2    0    0  0.32188111333E+02  0.94821122644E+01 -0.30052095939E+02  0.45045681641E+02  0.00000000000E+00 0.  1.
         11    1    3    3    0    0 -0.55433527123E+01 -0.11605884840E+01  0.27290543295E+01  0.62867688614E+01  0.51100000000E-03 0. -1.
        -11    1    3    3    0    0 -0.20850721323E+02 -0.77872363928E+01  0.25296051173E+02  0.33693973283E+02  0.51100000000E-03 0.  1.
         12    1    3    3    0    0 -0.57940372976E+01 -0.53428738753E+00  0.20269904365E+01  0.61615762146E+01  0.00000000000E+00 0. -1.
</event>
<event>
 7    1  0.4047706E-008  0.4614232E+02  0.7816164E-02  0.1320468E+00
        -11   -1    0    0    0    0  0.00000000000E+00  0.00000000000E+00  0.45593999997E+02  0.45594000000E+02  0.51100000000E-03 0.  1.
         11   -1    0    0    0    0 -0.00000000000E+00 -0.00000000000E+00 -0.45593999997E+02  0.45594000000E+02  0.51100000000E-03 0. -1.
    9900012    2    1    2    0    0  0.15691936198E+02  0.29031835406E+02 -0.30659894662E+02  0.46142317972E+02  0.10000001922E+02 0.  0.
        -12    1    1    2    0    0 -0.15691936198E+02 -0.29031835406E+02  0.30659894662E+02  0.45045682028E+02  0.00000000000E+00 0.  1.
         11    1    3    3    0    0  0.16413970298E+01  0.36547380711E+01 -0.23591933734E+01  0.46494180509E+01  0.51100000000E-03 0.  1.
        -11    1    3    3    0    0 -0.89593708036E+00  0.48885641224E+01 -0.42020515005E+01  0.65083023520E+01  0.51100000000E-03 0. -1.
         12    1    3    3    0    0  0.14946476248E+02  0.20488533212E+02 -0.24098649788E+02  0.34984597569E+02  0.00000000000E+00 0. -1.
</event>
<event>
 7    1  0.4047706E-008  0.4614231E+02  0.7816164E-02  0.1320468E+00
        -11   -1    0    0    0    0  0.00000000000E+00  0.00000000000E+00  0.45593999997E+02  0.45594000000E+02  0.51100000000E-03 0.  1.
         11   -1    0    0    0    0 -0.00000000000E+00 -0.00000000000E+00 -0.45593999997E+02  0.45594000000E+02  0.51100000000E-03 0. -1.
    9900012    2    1    2    0    0  0.10564844625E+02 -0.43380684175E+02 -0.59677603208E+01  0.46142313584E+02  0.99999619116E+01 0.  0.
        -12    1    1    2    0    0 -0.10564844625E+02  0.43380684175E+02  0.59677603208E+01  0.45045686416E+02  0.00000000000E+00 0.  1.
         11    1    3    3    0    0  0.10568366982E+02 -0.27102102067E+02 -0.41716355789E+01  0.29387358860E+02  0.51100000000E-03 0. -1.
        -11    1    3    3    0    0 -0.11770500027E+01 -0.82724021135E+01  0.41672116812E+00  0.83661066350E+01  0.51100000000E-03 0.  1.
         12    1    3    3    0    0  0.11735276453E+01 -0.80061799948E+01 -0.22128459100E+01  0.83888480892E+01  0.00000000000E+00 0. -1.
</event>
<event>
 7    1  0.4047706E-008  0.4614232E+02  0.7816164E-02  0.1320468E+00
        -11   -1    0    0    0    0  0.00000000000E+00  0.00000000000E+00  0.45593999997E+02  0.45594000000E+02  0.51100000000E-03 0.  1.
         11   -1    0    0    0    0 -0.00000000000E+00 -0.00000000000E+00 -0.45593999997E+02  0.45594000000E+02  0.51100000000E-03 0. -1.
    9900012    2    1    2    0    0  0.42559093264E+02 -0.72416497280E+01 -0.12860621553E+02  0.46142317665E+02  0.99999991260E+01 0.  0.
        -12    1    1    2    0    0 -0.42559093264E+02  0.72416497280E+01  0.12860621553E+02  0.45045682335E+02  0.00000000000E+00 0.  1.
         11    1    3    3    0    0  0.98512943188E+01 -0.31383429242E+01  0.14036223726E+00  0.10340062760E+02  0.51100000000E-03 0. -1.
        -11    1    3    3    0    0  0.31816350074E+01 -0.19883356671E+01 -0.16526178245E+01  0.40996860832E+01  0.51100000000E-03 0.  1.
        -12    1    3    3    0    0  0.29526163938E+02 -0.21149711367E+01 -0.11348365966E+02  0.31702568822E+02  0.00000000000E+00 0.  1.
</event>
<event>
 7    1  0.4047706E-008  0.4614232E+02  0.7816164E-02  0.1320468E+00
        -11   -1    0    0    0    0  0.00000000000E+00  0.00000000000E+00  0.45593999997E+02  0.45594000000E+02  0.51100000000E-03 0.  1.
         11   -1    0    0    0    0 -0.00000000000E+00 -0.00000000000E+00 -0.45593999997E+02  0.45594000000E+02  0.51100000000E-03 0. -1.
    9900012    2    1    2    0    0  0.14412245331E+02 -0.40417015610E+02 -0.13706405384E+02  0.46142317467E+02  0.99999973157E+01 0.  0.
        -12    1    1    2    0    0 -0.14412245331E+02  0.40417015610E+02  0.13706405384E+02  0.45045682533E+02  0.00000000000E+00 0.  1.
         11    1    3    3    0    0  0.72958895519E+01 -0.18603621375E+02 -0.67899563725E+01  0.21105170940E+02  0.51100000000E-03 0. -1.
        -11    1    3    3    0    0  0.24869418549E+01 -0.11731107869E+02 -0.53987743654E-01  0.11991942568E+02  0.51100000000E-03 0.  1.
        -12    1    3    3    0    0  0.46294139242E+01 -0.10082286367E+02 -0.68624612680E+01  0.13045203958E+02  0.00000000000E+00 0.  1.
</event>
<event>
 7    1  0.4047706E-008  0.4614232E+02  0.7816164E-02  0.1320468E+00
        -11   -1    0    0    0    0  0.00000000000E+00  0.00000000000E+00  0.45593999997E+02  0.45594000000E+02  0.51100000000E-03 0. -1.
         11   -1    0    0    0    0 -0.00000000000E+00 -0.00000000000E+00 -0.45593999997E+02  0.45594000000E+02  0.51100000000E-03 0.  1.
    9900012    2    1    2    0    0 -0.42196127273E+02  0.13379933794E+02  0.83413310497E+01  0.46142316646E+02  0.99999898318E+01 0.  0.
        -12    1    1    2    0    0  0.42196127273E+02 -0.13379933794E+02 -0.83413310497E+01  0.45045683354E+02  0.00000000000E+00 0.  1.
         11    1    3    3    0    0 -0.48267576695E+01  0.12596968126E+01  0.23544030695E+01  0.55161254277E+01  0.51100000000E-03 0. -1.
        -11    1    3    3    0    0 -0.10163115613E+02  0.64226070632E+00  0.42868942906E+01  0.11048931201E+02  0.51100000000E-03 0.  1.
         12    1    3    3    0    0 -0.27206253991E+02  0.11477976275E+02  0.17000336896E+01  0.29577260017E+02  0.00000000000E+00 0. -1.
</event>
<event>
 7    1  0.4047706E-008  0.4614232E+02  0.7816164E-02  0.1320468E+00
        -11   -1    0    0    0    0  0.00000000000E+00  0.00000000000E+00  0.45593999997E+02  0.45594000000E+02  0.51100000000E-03 0.  1.
         11   -1    0    0    0    0 -0.00000000000E+00 -0.00000000000E+00 -0.45593999997E+02  0.45594000000E+02  0.51100000000E-03 0. -1.
    9900012    2    1    2    0    0  0.20959374742E+01  0.27926631362E+02 -0.35282060619E+02  0.46142317692E+02  0.99999993670E+01 0.  0.
        -12    1    1    2    0    0 -0.20959374742E+01 -0.27926631362E+02  0.35282060619E+02  0.45045682308E+02  0.00000000000E+00 0.  1.
         11    1    3    3    0    0  0.63286268049E+00  0.84327833993E+01 -0.10377210175E+02  0.13386517184E+02  0.51100000000E-03 0. -1.
        -11    1    3    3    0    0  0.38638312355E+01  0.90368045497E+01 -0.77242946809E+01  0.12500310271E+02  0.51100000000E-03 0.  1.
        -12    1    3    3    0    0 -0.24007564418E+01  0.10457043413E+02 -0.17180555763E+02  0.20255490237E+02  0.00000000000E+00 0.  1.
</event>
<event>
 7    1  0.4047706E-008  0.4614232E+02  0.7816164E-02  0.1320468E+00
        -11   -1    0    0    0    0  0.00000000000E+00  0.00000000000E+00  0.45593999997E+02  0.45594000000E+02  0.51100000000E-03 0.  1.
         11   -1    0    0    0    0 -0.00000000000E+00 -0.00000000000E+00 -0.45593999997E+02  0.45594000000E+02  0.51100000000E-03 0. -1.
    9900012    2    1    2    0    0  0.35545295084E+02 -0.26687853137E+01 -0.27541294826E+02  0.46142319427E+02  0.10000015188E+02 0.  0.
        -12    1    1    2    0    0 -0.35545295084E+02  0.26687853137E+01  0.27541294826E+02  0.45045680573E+02  0.00000000000E+00 0.  1.
         11    1    3    3    0    0  0.10654145890E+02 -0.46260295160E+00 -0.91522570285E+01  0.14053064972E+02  0.51100000000E-03 0. -1.
        -11    1    3    3    0    0  0.89297409827E+01 -0.47822017533E+01 -0.70734456789E+01  0.12354892216E+02  0.51100000000E-03 0.  1.
        -12    1    3    3    0    0  0.15961408211E+02  0.25760193912E+01 -0.11315592118E+02  0.19734362239E+02  0.00000000000E+00 0.  1.
</event>
<event>
 7    1  0.4047706E-008  0.4614232E+02  0.7816164E-02  0.1320468E+00
        -11   -1    0    0    0    0  0.00000000000E+00  0.00000000000E+00  0.45593999997E+02  0.45594000000E+02  0.51100000000E-03 0. -1.
         11   -1    0    0    0    0 -0.00000000000E+00 -0.00000000000E+00 -0.45593999997E+02  0.45594000000E+02  0.51100000000E-03 0.  1.
    9900012    2    1    2    0    0 -0.38918565037E+02 -0.19212639699E+02 -0.12055432197E+02  0.46142315698E+02  0.99999811913E+01 0.  0.
        -12    1    1    2    0    0  0.38918565037E+02  0.19212639699E+02  0.12055432197E+02  0.45045684302E+02  0.00000000000E+00 0.  1.
         11    1    3    3    0    0 -0.10798181619E+02 -0.80050045776E+01 -0.52984611149E+01  0.14448339524E+02  0.51100000000E-03 0.  1.
        -11    1    3    3    0    0 -0.21804814345E+02 -0.66362859925E+01 -0.71505369822E+01  0.23887662083E+02  0.51100000000E-03 0. -1.
         12    1    3    3    0    0 -0.63155690734E+01 -0.45713491284E+01  0.39356590018E+00  0.78063140913E+01  0.00000000000E+00 0. -1.
</event>
<event>
 7    1  0.4047706E-008  0.4614232E+02  0.7816164E-02  0.1320468E+00
        -11   -1    0    0    0    0  0.00000000000E+00  0.00000000000E+00  0.45593999997E+02  0.45594000000E+02  0.51100000000E-03 0.  1.
         11   -1    0    0    0    0 -0.00000000000E+00 -0.00000000000E+00 -0.45593999997E+02  0.45594000000E+02  0.51100000000E-03 0. -1.
    9900012    2    1    2    0    0  0.22265253387E+02 -0.54068842138E+01 -0.38783213779E+02  0.46142316785E+02  0.99999911029E+01 0.  0.
        -12    1    1    2    0    0 -0.22265253387E+02  0.54068842138E+01  0.38783213779E+02  0.45045683215E+02  0.00000000000E+00 0.  1.
         11    1    3    3    0    0  0.17372036388E+00  0.57872569223E+00 -0.33479487860E+01  0.34020381430E+01  0.51100000000E-03 0. -1.
        -11    1    3    3    0    0  0.16139440835E+02 -0.15771632965E+01 -0.21174896903E+02  0.26671056478E+02  0.51100000000E-03 0.  1.
        -12    1    3    3    0    0  0.59520921873E+01 -0.44084466095E+01 -0.14260368090E+02  0.16069222164E+02  0.00000000000E+00 0.  1.
</event>
<event>
 7    1  0.4047706E-008  0.4614232E+02  0.7816164E-02  0.1320468E+00
        -11   -1    0    0    0    0  0.00000000000E+00  0.00000000000E+00  0.45593999997E+02  0.45594000000E+02  0.51100000000E-03 0.  1.
         11   -1    0    0    0    0 -0.00000000000E+00 -0.00000000000E+00 -0.45593999997E+02  0.45594000000E+02  0.51100000000E-03 0. -1.
    9900012    2    1    2    0    0  0.38787141186E+02 -0.22394243213E+02 -0.48133615164E+01  0.46142324297E+02  0.10000059598E+02 0.  0.
        -12    1    1    2    0    0 -0.38787141186E+02  0.22394243213E+02  0.48133615164E+01  0.45045675703E+02  0.00000000000E+00 0.  1.
         11    1    3    3    0    0  0.25477983292E+02 -0.16230493654E+02 -0.55145869320E+01  0.30707771429E+02  0.51100000000E-03 0. -1.
        -11    1    3    3    0    0  0.10943213266E+02 -0.65537780179E+01 -0.47345083066E+00  0.12764406717E+02  0.51100000000E-03 0.  1.
        -12    1    3    3    0    0  0.23659446280E+01  0.39002845821E+00  0.11746762462E+01  0.26701461504E+01  0.00000000000E+00 0.  1.
</event>
<event>
 7    1  0.4047706E-008  0.4614232E+02  0.7816164E-02  0.1320468E+00
        -11   -1    0    0    0    0  0.00000000000E+00  0.00000000000E+00  0.45593999997E+02  0.45594000000E+02  0.51100000000E-03 0. -1.
         11   -1    0    0    0    0 -0.00000000000E+00 -0.00000000000E+00 -0.45593999997E+02  0.45594000000E+02  0.51100000000E-03 0.  1.
    9900012    2    1    2    0    0 -0.40095052263E+02  0.15397257024E+02 -0.13580308454E+02  0.46142317437E+02  0.99999970488E+01 0.  0.
        -12    1    1    2    0    0  0.40095052263E+02 -0.15397257024E+02  0.13580308454E+02  0.45045682563E+02  0.00000000000E+00 0.  1.
         11    1    3    3    0    0 -0.88362969277E+01 -0.44421182641E+00 -0.38102427548E+01  0.96330378206E+01  0.51100000000E-03 0. -1.
        -11    1    3    3    0    0 -0.19551615366E+02  0.93150144558E+01 -0.74740684482E+01  0.22910627603E+02  0.51100000000E-03 0.  1.
         12    1    3    3    0    0 -0.11707139970E+02  0.65264543943E+01 -0.22959972511E+01  0.13598652014E+02  0.00000000000E+00 0. -1.
</event>
<event>
 7    1  0.4047706E-008  0.4614232E+02  0.7816164E-02  0.1320468E+00
        -11   -1    0    0    0    0  0.00000000000E+00  0.00000000000E+00  0.45593999997E+02  0.45594000000E+02  0.51100000000E-03 0.  1.
         11   -1    0    0    0    0 -0.00000000000E+00 -0.00000000000E+00 -0.45593999997E+02  0.45594000000E+02  0.51100000000E-03 0. -1.
    9900012    2    1    2    0    0 -0.32281936044E+02 -0.10033022726E+02 -0.29771269871E+02  0.46142318193E+02  0.10000003934E+02 0.  0.
        -12    1    1    2    0    0  0.32281936044E+02  0.10033022726E+02  0.29771269871E+02  0.45045681807E+02  0.00000000000E+00 0.  1.
         11    1    3    3    0    0 -0.63765706458E+01 -0.28752462457E+01 -0.34573502065E+01  0.78026255123E+01  0.51100000000E-03 0. -1.
        -11    1    3    3    0    0 -0.92754708713E+01 -0.58905662180E+01 -0.12834489046E+02  0.16895479856E+02  0.51100000000E-03 0.  1.
         12    1    3    3    0    0 -0.16629894527E+02 -0.12672102620E+01 -0.13479430618E+02  0.21444212824E+02  0.00000000000E+00 0. -1.
</event>
<event>
 7    1  0.4047706E-008  0.4614232E+02  0.7816164E-02  0.1320468E+00
        -11   -1    0    0    0    0  0.00000000000E+00  0.00000000000E+00  0.45593999997E+02  0.45594000000E+02  0.51100000000E-03 0.  1.
         11   -1    0    0    0    0 -0.00000000000E+00 -0.00000000000E+00 -0.45593999997E+02  0.45594000000E+02  0.51100000000E-03 0. -1.
    9900012    2    1    2    0    0 -0.26185253518E+02  0.25339384205E+02 -0.26483233514E+02  0.46142317065E+02  0.99999936547E+01 0.  0.
        -12    1    1    2    0    0  0.26185253518E+02 -0.25339384205E+02  0.26483233514E+02  0.45045682935E+02  0.00000000000E+00 0.  1.
         11    1    3    3    0    0 -0.75862885845E+01  0.78401583750E+01 -0.10781747016E+02  0.15338380841E+02  0.51100000000E-03 0. -1.
        -11    1    3    3    0    0 -0.54932712973E+01  0.13004030055E+01 -0.28615065189E+01  0.63289254492E+01  0.51100000000E-03 0.  1.
         12    1    3    3    0    0 -0.13105693636E+02  0.16198822825E+02 -0.12839979978E+02  0.24475010775E+02  0.00000000000E+00 0. -1.
</event>
<event>
 7    1  0.4047706E-008  0.4614232E+02  0.7816164E-02  0.1320468E+00
        -11   -1    0    0    0    0  0.00000000000E+00  0.00000000000E+00  0.45593999997E+02  0.45594000000E+02  0.51100000000E-03 0. -1.
         11   -1    0    0    0    0 -0.00000000000E+00 -0.00000000000E+00 -0.45593999997E+02  0.45594000000E+02  0.51100000000E-03 0.  1.
    9900012    2    1    2    0    0  0.29607382373E+02  0.33895179327E+02  0.19060976435E+01  0.46142317845E+02  0.10000000765E+02 0.  0.
        -12    1    1    2    0    0 -0.29607382373E+02 -0.33895179327E+02 -0.19060976435E+01  0.45045682155E+02  0.00000000000E+00 0.  1.
         11    1    3    3    0    0  0.50737366902E+01  0.78706777411E+01 -0.31337723429E+01  0.98747608307E+01  0.51100000000E-03 0. -1.
        -11    1    3    3    0    0  0.33429546664E+01  0.25035420265E+01  0.13765532250E+01  0.43974956080E+01  0.51100000000E-03 0.  1.
         12    1    3    3    0    0  0.21190691016E+02  0.23520959559E+02  0.36633167614E+01  0.31870061406E+02  0.00000000000E+00 0. -1.
</event>
<event>
 7    1  0.4047706E-008  0.4614232E+02  0.7816164E-02  0.1320468E+00
        -11   -1    0    0    0    0  0.00000000000E+00  0.00000000000E+00  0.45593999997E+02  0.45594000000E+02  0.51100000000E-03 0. -1.
         11   -1    0    0    0    0 -0.00000000000E+00 -0.00000000000E+00 -0.45593999997E+02  0.45594000000E+02  0.51100000000E-03 0.  1.
    9900012    2    1    2    0    0  0.15041263919E+02 -0.36707316110E+02 -0.21341200139E+02  0.46142317636E+02  0.99999988592E+01 0.  0.
        -12    1    1    2    0    0 -0.15041263919E+02  0.36707316110E+02  0.21341200139E+02  0.45045682364E+02  0.00000000000E+00 0.  1.
         11    1    3    3    0    0  0.83187093222E+00 -0.82587173430E+01 -0.76008009800E+01  0.11254803295E+02  0.51100000000E-03 0. -1.
        -11    1    3    3    0    0  0.10818783930E+01 -0.53493683652E+01 -0.16879579925E+01  0.57127406040E+01  0.51100000000E-03 0.  1.
         12    1    3    3    0    0  0.13127514594E+02 -0.23099230401E+02 -0.12052441166E+02  0.29174773737E+02  0.00000000000E+00 0. -1.
</event>
<event>
 7    1  0.4047706E-008  0.4614232E+02  0.7816164E-02  0.1320468E+00
        -11   -1    0    0    0    0  0.00000000000E+00  0.00000000000E+00  0.45593999997E+02  0.45594000000E+02  0.51100000000E-03 0.  1.
         11   -1    0    0    0    0 -0.00000000000E+00 -0.00000000000E+00 -0.45593999997E+02  0.45594000000E+02  0.51100000000E-03 0. -1.
    9900012    2    1    2    0    0 -0.34035198148E+02  0.25928564913E+02 -0.14086453105E+02  0.46142319269E+02  0.10000013754E+02 0.  0.
        -12    1    1    2    0    0  0.34035198148E+02 -0.25928564913E+02  0.14086453105E+02  0.45045680731E+02  0.00000000000E+00 0.  1.
         11    1    3    3    0    0 -0.33616411223E+01 -0.26888487455E+00 -0.23816010770E+01  0.41285535072E+01  0.51100000000E-03 0.  1.
        -11    1    3    3    0    0 -0.16343938519E+02  0.13310222104E+02 -0.60804069732E+01  0.21937586193E+02  0.51100000000E-03 0. -1.
        -12    1    3    3    0    0 -0.14329618506E+02  0.12887227684E+02 -0.56244450544E+01  0.20076179569E+02  0.00000000000E+00 0.  1.
</event>
<event>
 7    1  0.4047706E-008  0.4614232E+02  0.7816164E-02  0.1320468E+00
        -11   -1    0    0    0    0  0.00000000000E+00  0.00000000000E+00  0.45593999997E+02  0.45594000000E+02  0.51100000000E-03 0.  1.
         11   -1    0    0    0    0 -0.00000000000E+00 -0.00000000000E+00 -0.45593999997E+02  0.45594000000E+02  0.51100000000E-03 0. -1.
    9900012    2    1    2    0    0 -0.21586648629E+02 -0.39246967974E+02  0.47754832828E+01  0.46142321686E+02  0.10000035789E+02 0.  0.
        -12    1    1    2    0    0  0.21586648629E+02  0.39246967974E+02 -0.47754832828E+01  0.45045678314E+02  0.00000000000E+00 0.  1.
         11    1    3    3    0    0 -0.12026354874E+02 -0.28968145909E+02  0.41811926469E+01  0.31642835858E+02  0.51100000000E-03 0. -1.
        -11    1    3    3    0    0 -0.74650775128E+01 -0.65279258809E+01  0.17040655903E+01  0.10062059351E+02  0.51100000000E-03 0.  1.
         12    1    3    3    0    0 -0.20952162421E+01 -0.37508961848E+01 -0.11097749544E+01  0.44374264771E+01  0.00000000000E+00 0. -1.
</event>
<event>
 7    1  0.4047706E-008  0.4614232E+02  0.7816164E-02  0.1320468E+00
        -11   -1    0    0    0    0  0.00000000000E+00  0.00000000000E+00  0.45593999997E+02  0.45594000000E+02  0.51100000000E-03 0.  1.
         11   -1    0    0    0    0 -0.00000000000E+00 -0.00000000000E+00 -0.45593999997E+02  0.45594000000E+02  0.51100000000E-03 0. -1.
    9900012    2    1    2    0    0 -0.89521563623E+00  0.10252546653E+01 -0.45025113487E+02  0.46142318713E+02  0.10000008677E+02 0.  0.
        -12    1    1    2    0    0  0.89521563623E+00 -0.10252546653E+01  0.45025113487E+02  0.45045681287E+02  0.00000000000E+00 0.  1.
         11    1    3    3    0    0 -0.40906030647E+01  0.23840650207E+01 -0.13155033875E+02  0.13981119982E+02  0.51100000000E-03 0. -1.
        -11    1    3    3    0    0  0.14520654653E+01  0.39923730314E+00 -0.65758919723E+01  0.67461277806E+01  0.51100000000E-03 0.  1.
        -12    1    3    3    0    0  0.17433219633E+01 -0.17580476585E+01 -0.25294187640E+02  0.25415070950E+02  0.00000000000E+00 0.  1.
</event>
<event>
 7    1  0.4047706E-008  0.4614232E+02  0.7816164E-02  0.1320468E+00
        -11   -1    0    0    0    0  0.00000000000E+00  0.00000000000E+00  0.45593999997E+02  0.45594000000E+02  0.51100000000E-03 0. -1.
         11   -1    0    0    0    0 -0.00000000000E+00 -0.00000000000E+00 -0.45593999997E+02  0.45594000000E+02  0.51100000000E-03 0.  1.
    9900012    2    1    2    0    0 -0.56652565893E+01  0.40865997557E+02  0.18082830735E+02  0.46142315901E+02  0.99999830347E+01 0.  0.
        -12    1    1    2    0    0  0.56652565893E+01 -0.40865997557E+02 -0.18082830735E+02  0.45045684099E+02  0.00000000000E+00 0.  1.
         11    1    3    3    0    0 -0.24672163145E+01  0.28957379459E+01  0.28667085424E+01  0.47634517655E+01  0.51100000000E-03 0.  1.
        -11    1    3    3    0    0 -0.28493666366E+01  0.10374624712E+02  0.57754137980E+01  0.12210943164E+02  0.51100000000E-03 0. -1.
        -12    1    3    3    0    0 -0.34867363817E+00  0.27595634899E+02  0.94407083948E+01  0.29167920971E+02  0.00000000000E+00 0.  1.
</event>
<event>
 7    1  0.4047706E-008  0.4614232E+02  0.7816164E-02  0.1320468E+00
        -11   -1    0    0    0    0  0.00000000000E+00  0.00000000000E+00  0.45593999997E+02  0.45594000000E+02  0.51100000000E-03 0.  1.
         11   -1    0    0    0    0 -0.00000000000E+00 -0.00000000000E+00 -0.45593999997E+02  0.45594000000E+02  0.51100000000E-03 0. -1.
    9900012    2    1    2    0    0 -0.22697200058E+02 -0.25514033401E+02 -0.29376600455E+02  0.46142318241E+02  0.10000004373E+02 0.  0.
        -12    1    1    2    0    0  0.22697200058E+02  0.25514033401E+02  0.29376600455E+02  0.45045681759E+02  0.00000000000E+00 0.  1.
         11    1    3    3    0    0 -0.18852298980E+01 -0.48846982093E+01 -0.50469860990E+01  0.72723061892E+01  0.51100000000E-03 0. -1.
        -11    1    3    3    0    0 -0.30698636492E+01 -0.28739083270E+01 -0.45708882999E+00  0.42299340842E+01  0.51100000000E-03 0.  1.
         12    1    3    3    0    0 -0.17742106511E+02 -0.17755426864E+02 -0.23872525526E+02  0.34640077967E+02  0.00000000000E+00 0. -1.
</event>
<event>
 7    1  0.4047706E-008  0.4614232E+02  0.7816164E-02  0.1320468E+00
        -11   -1    0    0    0    0  0.00000000000E+00  0.00000000000E+00  0.45593999997E+02  0.45594000000E+02  0.51100000000E-03 0.  1.
         11   -1    0    0    0    0 -0.00000000000E+00 -0.00000000000E+00 -0.45593999997E+02  0.45594000000E+02  0.51100000000E-03 0. -1.
    9900012    2    1    2    0    0 -0.20360179248E+02 -0.78570512779E+01 -0.39406134785E+02  0.46142316384E+02  0.99999874387E+01 0.  0.
        -12    1    1    2    0    0  0.20360179248E+02  0.78570512779E+01  0.39406134785E+02  0.45045683616E+02  0.00000000000E+00 0.  1.
         11    1    3    3    0    0 -0.46534656690E+01 -0.23359826521E+00 -0.11209350021E+02  0.12139144906E+02  0.51100000000E-03 0. -1.
        -11    1    3    3    0    0 -0.75666948333E+01 -0.77867575854E+01 -0.15733447330E+02  0.19116219018E+02  0.51100000000E-03 0.  1.
        -12    1    3    3    0    0 -0.81400187454E+01  0.16330457279E+00 -0.12463337433E+02  0.14886952460E+02  0.00000000000E+00 0.  1.
</event>
<event>
 7    1  0.4047706E-008  0.4614231E+02  0.7816164E-02  0.1320468E+00
        -11   -1    0    0    0    0  0.00000000000E+00  0.00000000000E+00  0.45593999997E+02  0.45594000000E+02  0.51100000000E-03 0. -1.
         11   -1    0    0    0    0 -0.00000000000E+00 -0.00000000000E+00 -0.45593999997E+02  0.45594000000E+02  0.51100000000E-03 0.  1.
    9900012    2    1    2    0    0  0.16485747841E+02 -0.23984687644E+02  0.34381225907E+02  0.46142314100E+02  0.99999666173E+01 0.  0.
        -12    1    1    2    0    0 -0.16485747841E+02  0.23984687644E+02 -0.34381225907E+02  0.45045685900E+02  0.00000000000E+00 0.  1.
         11    1    3    3    0    0  0.71079204679E+01 -0.11133803586E+02  0.19017181981E+02  0.23154639414E+02  0.51100000000E-03 0. -1.
        -11    1    3    3    0    0  0.32929687218E+01 -0.12435793338E+01  0.57194533476E+01  0.67158230634E+01  0.51100000000E-03 0.  1.
         12    1    3    3    0    0  0.60848586517E+01 -0.11607304725E+02  0.96445905792E+01  0.16271851623E+02  0.00000000000E+00 0. -1.
</event>
<event>
 7    1  0.4047706E-008  0.4614232E+02  0.7816164E-02  0.1320468E+00
        -11   -1    0    0    0    0  0.00000000000E+00  0.00000000000E+00  0.45593999997E+02  0.45594000000E+02  0.51100000000E-03 0. -1.
         11   -1    0    0    0    0 -0.00000000000E+00 -0.00000000000E+00 -0.45593999997E+02  0.45594000000E+02  0.51100000000E-03 0.  1.
    9900012    2    1    2    0    0  0.42873904650E+01  0.25900371825E+02  0.36604678098E+02  0.46142318339E+02  0.10000005269E+02 0.  0.
        -12    1    1    2    0    0 -0.42873904650E+01 -0.25900371825E+02 -0.36604678098E+02  0.45045681661E+02  0.00000000000E+00 0.  1.
         11    1    3    3    0    0  0.78337423145E+00  0.37070185976E+01  0.34654486590E+01  0.51346856514E+01  0.51100000000E-03 0. -1.
        -11    1    3    3    0    0  0.43519401427E+01  0.53529169676E+01  0.13204117951E+02  0.14897712381E+02  0.51100000000E-03 0.  1.
        -12    1    3    3    0    0 -0.84792390917E+00  0.16840436259E+02  0.19935111488E+02  0.26109920307E+02  0.00000000000E+00 0.  1.
</event>
<event>
 7    1  0.4047706E-008  0.4614232E+02  0.7816164E-02  0.1320468E+00
        -11   -1    0    0    0    0  0.00000000000E+00  0.00000000000E+00  0.45593999997E+02  0.45594000000E+02  0.51100000000E-03 0.  1.
         11   -1    0    0    0    0 -0.00000000000E+00 -0.00000000000E+00 -0.45593999997E+02  0.45594000000E+02  0.51100000000E-03 0. -1.
    9900012    2    1    2    0    0 -0.24864381263E+02 -0.37472765554E+02 -0.25822387168E+01  0.46142316848E+02  0.99999916699E+01 0.  0.
        -12    1    1    2    0    0  0.24864381263E+02  0.37472765554E+02  0.25822387168E+01  0.45045683152E+02  0.00000000000E+00 0.  1.
         11    1    3    3    0    0 -0.10609050396E+02 -0.19740171519E+02  0.14644938297E+01  0.22458207060E+02  0.51100000000E-03 0. -1.
        -11    1    3    3    0    0 -0.13773992758E+02 -0.14390818685E+02 -0.29711549377E+01  0.20140662870E+02  0.51100000000E-03 0.  1.
         12    1    3    3    0    0 -0.48133810925E+00 -0.33417753504E+01 -0.10755776087E+01  0.35434469180E+01  0.00000000000E+00 0. -1.
</event>
<event>
 7    1  0.4047706E-008  0.4614232E+02  0.7816164E-02  0.1320468E+00
        -11   -1    0    0    0    0  0.00000000000E+00  0.00000000000E+00  0.45593999997E+02  0.45594000000E+02  0.51100000000E-03 0.  1.
         11   -1    0    0    0    0 -0.00000000000E+00 -0.00000000000E+00 -0.45593999997E+02  0.45594000000E+02  0.51100000000E-03 0. -1.
    9900012    2    1    2    0    0 -0.15184568678E+01 -0.43600802816E+02 -0.11215063732E+02  0.46142319053E+02  0.10000011782E+02 0.  0.
        -12    1    1    2    0    0  0.15184568678E+01  0.43600802816E+02  0.11215063732E+02  0.45045680947E+02  0.00000000000E+00 0.  1.
         11    1    3    3    0    0  0.25311522275E-01 -0.96052814583E+01 -0.34219897461E+01  0.10196670371E+02  0.51100000000E-03 0. -1.
        -11    1    3    3    0    0  0.49251423502E+00 -0.82843287580E+01 -0.57025827853E+01  0.10069365617E+02  0.51100000000E-03 0.  1.
        -12    1    3    3    0    0 -0.20362826251E+01 -0.25711192600E+02 -0.20904912005E+01  0.25876283065E+02  0.00000000000E+00 0.  1.
</event>
<event>
 7    1  0.4047706E-008  0.4614232E+02  0.7816164E-02  0.1320468E+00
        -11   -1    0    0    0    0  0.00000000000E+00  0.00000000000E+00  0.45593999997E+02  0.45594000000E+02  0.51100000000E-03 0.  1.
         11   -1    0    0    0    0 -0.00000000000E+00 -0.00000000000E+00 -0.45593999997E+02  0.45594000000E+02  0.51100000000E-03 0. -1.
    9900012    2    1    2    0    0  0.24548017533E+02  0.35884036395E+02 -0.11783219623E+02  0.46142317660E+02  0.99999990777E+01 0.  0.
        -12    1    1    2    0    0 -0.24548017533E+02 -0.35884036395E+02  0.11783219623E+02  0.45045682340E+02  0.00000000000E+00 0.  1.
         11    1    3    3    0    0  0.56815158265E+01  0.60883653624E+01  0.41528992216E+00  0.83378822763E+01  0.51100000000E-03 0. -1.
        -11    1    3    3    0    0  0.14463058101E+02  0.18014748986E+02 -0.92586612211E+01  0.24888431822E+02  0.51100000000E-03 0.  1.
         12    1    3    3    0    0  0.44034436056E+01  0.11780922046E+02 -0.29398483237E+01  0.12916003562E+02  0.00000000000E+00 0. -1.
</event>
<event>
 7    1  0.4047706E-008  0.4614232E+02  0.7816164E-02  0.1320468E+00
        -11   -1    0    0    0    0  0.00000000000E+00  0.00000000000E+00  0.45593999997E+02  0.45594000000E+02  0.51100000000E-03 0.  1.
         11   -1    0    0    0    0 -0.00000000000E+00 -0.00000000000E+00 -0.45593999997E+02  0.45594000000E+02  0.51100000000E-03 0. -1.
    9900012    2    1    2    0    0  0.15749212991E+02 -0.36402609989E+02 -0.21352419609E+02  0.46142317110E+02  0.99999940599E+01 0.  0.
        -12    1    1    2    0    0 -0.15749212991E+02  0.36402609989E+02  0.21352419609E+02  0.45045682890E+02  0.00000000000E+00 0.  1.
         11    1    3    3    0    0  0.94158299342E+01 -0.20566494585E+02 -0.16950687980E+02  0.28265957902E+02  0.51100000000E-03 0. -1.
        -11    1    3    3    0    0  0.27495638799E+01 -0.34648976686E+01 -0.15281427219E+01  0.46798330978E+01  0.51100000000E-03 0.  1.
         12    1    3    3    0    0  0.35838191773E+01 -0.12371217736E+02 -0.28735889075E+01  0.13196526110E+02  0.00000000000E+00 0. -1.
</event>
<event>
 7    1  0.4047706E-008  0.4614232E+02  0.7816164E-02  0.1320468E+00
        -11   -1    0    0    0    0  0.00000000000E+00  0.00000000000E+00  0.45593999997E+02  0.45594000000E+02  0.51100000000E-03 0.  1.
         11   -1    0    0    0    0 -0.00000000000E+00 -0.00000000000E+00 -0.45593999997E+02  0.45594000000E+02  0.51100000000E-03 0. -1.
    9900012    2    1    2    0    0  0.13485390201E+02  0.38710895708E+02 -0.18674148984E+02  0.46142322786E+02  0.10000045823E+02 0.  0.
        -12    1    1    2    0    0 -0.13485390201E+02 -0.38710895708E+02  0.18674148984E+02  0.45045677214E+02  0.00000000000E+00 0.  1.
         11    1    3    3    0    0 -0.92905863099E-02  0.96016732192E+01 -0.63212673663E+01  0.11495679027E+02  0.51100000000E-03 0.  1.
        -11    1    3    3    0    0  0.44510171725E+00  0.22447247010E+01 -0.19929892619E+01  0.30346187539E+01  0.51100000000E-03 0. -1.
        -12    1    3    3    0    0  0.13049579070E+02  0.26864497787E+02 -0.10359892356E+02  0.31612025005E+02  0.00000000000E+00 0.  1.
</event>
<event>
 7    1  0.4047706E-008  0.4614232E+02  0.7816164E-02  0.1320468E+00
        -11   -1    0    0    0    0  0.00000000000E+00  0.00000000000E+00  0.45593999997E+02  0.45594000000E+02  0.51100000000E-03 0. -1.
         11   -1    0    0    0    0 -0.00000000000E+00 -0.00000000000E+00 -0.45593999997E+02  0.45594000000E+02  0.51100000000E-03 0.  1.
    9900012    2    1    2    0    0 -0.25503305442E+02 -0.32204174978E+02  0.18482032596E+02  0.46142323145E+02  0.10000049092E+02 0.  0.
        -12    1    1    2    0    0  0.25503305442E+02  0.32204174978E+02 -0.18482032596E+02  0.45045676855E+02  0.00000000000E+00 0.  1.
         11    1    3    3    0    0 -0.92324192974E+01 -0.12146623667E+02  0.10363999176E+02  0.18444254167E+02  0.51100000000E-03 0. -1.
        -11    1    3    3    0    0 -0.68554633484E+01 -0.90673422690E+01  0.66061505021E+01  0.13147444553E+02  0.51100000000E-03 0.  1.
        -12    1    3    3    0    0 -0.94154227959E+01 -0.10990209042E+02  0.15118829183E+01  0.14550624426E+02  0.00000000000E+00 0.  1.
</event>
<event>
 7    1  0.4047706E-008  0.4614232E+02  0.7816164E-02  0.1320468E+00
        -11   -1    0    0    0    0  0.00000000000E+00  0.00000000000E+00  0.45593999997E+02  0.45594000000E+02  0.51100000000E-03 0.  1.
         11   -1    0    0    0    0 -0.00000000000E+00 -0.00000000000E+00 -0.45593999997E+02  0.45594000000E+02  0.51100000000E-03 0. -1.
    9900012    2    1    2    0    0  0.49373303447E+01  0.26850709167E+01 -0.44693698828E+02  0.46142317059E+02  0.99999935935E+01 0.  0.
        -12    1    1    2    0    0 -0.49373303447E+01 -0.26850709167E+01  0.44693698828E+02  0.45045682941E+02  0.00000000000E+00 0.  1.
         11    1    3    3    0    0  0.38641053097E+01  0.32282758486E+01 -0.14916941026E+02  0.15743830684E+02  0.51100000000E-03 0.  1.
        -11    1    3    3    0    0 -0.24957770802E+01  0.59994452502E-01 -0.11968664659E+02  0.12226260121E+02  0.51100000000E-03 0. -1.
         12    1    3    3    0    0  0.35690021152E+01 -0.60319938444E+00 -0.17808093143E+02  0.18172226253E+02  0.00000000000E+00 0. -1.
</event>
<event>
 7    1  0.4047706E-008  0.4614232E+02  0.7816164E-02  0.1320468E+00
        -11   -1    0    0    0    0  0.00000000000E+00  0.00000000000E+00  0.45593999997E+02  0.45594000000E+02  0.51100000000E-03 0.  1.
         11   -1    0    0    0    0 -0.00000000000E+00 -0.00000000000E+00 -0.45593999997E+02  0.45594000000E+02  0.51100000000E-03 0. -1.
    9900012    2    1    2    0    0  0.75091666233E+01  0.26926246762E+01 -0.44333682997E+02  0.46142320306E+02  0.10000023205E+02 0.  0.
        -12    1    1    2    0    0 -0.75091666233E+01 -0.26926246762E+01  0.44333682997E+02  0.45045679694E+02  0.00000000000E+00 0.  1.
         11    1    3    3    0    0  0.18670154565E+01  0.33116569013E+00 -0.14021651761E+01  0.23582800663E+01  0.51100000000E-03 0.  1.
        -11    1    3    3    0    0 -0.94506369076E+00  0.53132909378E+00 -0.14564307882E+02  0.14604606134E+02  0.51100000000E-03 0. -1.
        -12    1    3    3    0    0  0.65872148576E+01  0.18301298923E+01 -0.28367209939E+02  0.29179434105E+02  0.00000000000E+00 0.  1.
</event>
<event>
 7    1  0.4047706E-008  0.4614232E+02  0.7816164E-02  0.1320468E+00
        -11   -1    0    0    0    0  0.00000000000E+00  0.00000000000E+00  0.45593999997E+02  0.45594000000E+02  0.51100000000E-03 0.  1.
         11   -1    0    0    0    0 -0.00000000000E+00 -0.00000000000E+00 -0.45593999997E+02  0.45594000000E+02  0.51100000000E-03 0. -1.
    9900012    2    1    2    0    0  0.21004105352E+02  0.24201538524E+02 -0.31657959946E+02  0.46142319447E+02  0.10000015374E+02 0.  0.
        -12    1    1    2    0    0 -0.21004105352E+02 -0.24201538524E+02  0.31657959946E+02  0.45045680553E+02  0.00000000000E+00 0.  1.
         11    1    3    3    0    0  0.62797822922E+01  0.10323123451E+02 -0.12428548519E+02  0.17334109783E+02  0.51100000000E-03 0. -1.
        -11    1    3    3    0    0  0.14065335319E+02  0.14700369551E+02 -0.18679165909E+02  0.27619662595E+02  0.51100000000E-03 0.  1.
        -12    1    3    3    0    0  0.65898774086E+00 -0.82195447723E+00 -0.55024551685E+00  0.11885470685E+01  0.00000000000E+00 0.  1.
</event>
<event>
 7    1  0.4047706E-008  0.4614232E+02  0.7816164E-02  0.1320468E+00
        -11   -1    0    0    0    0  0.00000000000E+00  0.00000000000E+00  0.45593999997E+02  0.45594000000E+02  0.51100000000E-03 0.  1.
         11   -1    0    0    0    0 -0.00000000000E+00 -0.00000000000E+00 -0.45593999997E+02  0.45594000000E+02  0.51100000000E-03 0. -1.
    9900012    2    1    2    0    0 -0.44317917611E+02 -0.74283897815E+01  0.31392226303E+01  0.46142317467E+02  0.99999973226E+01 0.  0.
        -12    1    1    2    0    0  0.44317917611E+02  0.74283897815E+01 -0.31392226303E+01  0.45045682533E+02  0.00000000000E+00 0.  1.
         11    1    3    3    0    0 -0.24203854642E+02 -0.69058907479E+00  0.27763165564E+00  0.24215296249E+02  0.51100000000E-03 0. -1.
        -11    1    3    3    0    0 -0.14348939479E+01 -0.12906672614E+01  0.14589030266E+01  0.24193265434E+01  0.51100000000E-03 0.  1.
         12    1    3    3    0    0 -0.18679169021E+02 -0.54471334453E+01  0.14026879480E+01  0.19507694675E+02  0.00000000000E+00 0. -1.
</event>
<event>
 7    1  0.4047706E-008  0.4614232E+02  0.7816164E-02  0.1320468E+00
        -11   -1    0    0    0    0  0.00000000000E+00  0.00000000000E+00  0.45593999997E+02  0.45594000000E+02  0.51100000000E-03 0.  1.
         11   -1    0    0    0    0 -0.00000000000E+00 -0.00000000000E+00 -0.45593999997E+02  0.45594000000E+02  0.51100000000E-03 0. -1.
    9900012    2    1    2    0    0  0.38107486076E+02  0.27461156699E+01 -0.23861933298E+02  0.46142317554E+02  0.99999981098E+01 0.  0.
        -12    1    1    2    0    0 -0.38107486076E+02 -0.27461156699E+01  0.23861933298E+02  0.45045682446E+02  0.00000000000E+00 0.  1.
         11    1    3    3    0    0  0.29122432391E+02  0.55137482127E+00 -0.20822057909E+02  0.35804722850E+02  0.51100000000E-03 0. -1.
        -11    1    3    3    0    0  0.59684091294E+00  0.10854937844E+01 -0.11003923114E+01  0.16569186255E+01  0.51100000000E-03 0.  1.
         12    1    3    3    0    0  0.83882127723E+01  0.11092470643E+01 -0.19394830776E+01  0.86806760780E+01  0.00000000000E+00 0. -1.
</event>
<event>
 7    1  0.4047706E-008  0.4614232E+02  0.7816164E-02  0.1320468E+00
        -11   -1    0    0    0    0  0.00000000000E+00  0.00000000000E+00  0.45593999997E+02  0.45594000000E+02  0.51100000000E-03 0.  1.
         11   -1    0    0    0    0 -0.00000000000E+00 -0.00000000000E+00 -0.45593999997E+02  0.45594000000E+02  0.51100000000E-03 0. -1.
    9900012    2    1    2    0    0  0.14051824497E+02  0.41897344408E+02 -0.87334002614E+01  0.46142317407E+02  0.99999967723E+01 0.  0.
        -12    1    1    2    0    0 -0.14051824497E+02 -0.41897344408E+02  0.87334002614E+01  0.45045682593E+02  0.00000000000E+00 0.  1.
         11    1    3    3    0    0  0.58325523091E+01  0.19620374634E+02 -0.96601092453E+00  0.20491728688E+02  0.51100000000E-03 0. -1.
        -11    1    3    3    0    0  0.74167144436E+01  0.18709194139E+02 -0.42353872986E+01  0.20566480114E+02  0.51100000000E-03 0.  1.
        -12    1    3    3    0    0  0.80255774480E+00  0.35677756343E+01 -0.35320020383E+01  0.50841086052E+01  0.00000000000E+00 0.  1.
</event>
<event>
 7    1  0.4047706E-008  0.4614232E+02  0.7816164E-02  0.1320468E+00
        -11   -1    0    0    0    0  0.00000000000E+00  0.00000000000E+00  0.45593999997E+02  0.45594000000E+02  0.51100000000E-03 0.  1.
         11   -1    0    0    0    0 -0.00000000000E+00 -0.00000000000E+00 -0.45593999997E+02  0.45594000000E+02  0.51100000000E-03 0. -1.
    9900012    2    1    2    0    0 -0.31024530259E+02  0.10646432972E+02 -0.30874672172E+02  0.46142318802E+02  0.10000009495E+02 0.  0.
        -12    1    1    2    0    0  0.31024530259E+02 -0.10646432972E+02  0.30874672172E+02  0.45045681198E+02  0.00000000000E+00 0.  1.
         11    1    3    3    0    0 -0.16165590007E+02  0.31445506862E+01 -0.13906831213E+02  0.21554917164E+02  0.51100000000E-03 0. -1.
        -11    1    3    3    0    0 -0.14191849432E+02  0.69911476450E+01 -0.17501488597E+02  0.23592092723E+02  0.51100000000E-03 0.  1.
        -12    1    3    3    0    0 -0.66709081988E+00  0.51073464096E+00  0.53364763772E+00  0.99530891521E+00  0.00000000000E+00 0.  1.
</event>
<event>
 7    1  0.4047706E-008  0.4614232E+02  0.7816164E-02  0.1320468E+00
        -11   -1    0    0    0    0  0.00000000000E+00  0.00000000000E+00  0.45593999997E+02  0.45594000000E+02  0.51100000000E-03 0. -1.
         11   -1    0    0    0    0 -0.00000000000E+00 -0.00000000000E+00 -0.45593999997E+02  0.45594000000E+02  0.51100000000E-03 0.  1.
    9900012    2    1    2    0    0 -0.24121033984E+02 -0.36953990079E+02  0.90383541046E+01  0.46142317542E+02  0.99999980003E+01 0.  0.
        -12    1    1    2    0    0  0.24121033984E+02  0.36953990079E+02 -0.90383541046E+01  0.45045682458E+02  0.00000000000E+00 0.  1.
         11    1    3    3    0    0 -0.92152152454E+01 -0.10841958888E+02  0.27490527624E+01  0.14492258482E+02  0.51100000000E-03 0. -1.
        -11    1    3    3    0    0 -0.69029767984E+01 -0.52627975135E+01  0.20438879392E+01  0.89177129644E+01  0.51100000000E-03 0.  1.
        -12    1    3    3    0    0 -0.80028419400E+01 -0.20849233677E+02  0.42454134029E+01  0.22732346095E+02  0.00000000000E+00 0.  1.
</event>
<event>
 7    1  0.4047706E-008  0.4614232E+02  0.7816164E-02  0.1320468E+00
        -11   -1    0    0    0    0  0.00000000000E+00  0.00000000000E+00  0.45593999997E+02  0.45594000000E+02  0.51100000000E-03 0. -1.
         11   -1    0    0    0    0 -0.00000000000E+00 -0.00000000000E+00 -0.45593999997E+02  0.45594000000E+02  0.51100000000E-03 0.  1.
    9900012    2    1    2    0    0  0.35152265161E+02 -0.15633297626E+02  0.23431426380E+02  0.46142317823E+02  0.10000000560E+02 0.  0.
        -12    1    1    2    0    0 -0.35152265161E+02  0.15633297626E+02 -0.23431426380E+02  0.45045682177E+02  0.00000000000E+00 0.  1.
         11    1    3    3    0    0  0.13621153005E+02 -0.97002971175E+01  0.70319944544E+01  0.18140576606E+02  0.51100000000E-03 0. -1.
        -11    1    3    3    0    0  0.49244286118E+01 -0.21275134895E+01  0.59691176651E+01  0.80253770480E+01  0.51100000000E-03 0.  1.
         12    1    3    3    0    0  0.16606683545E+02 -0.38054870189E+01  0.10430314261E+02  0.19976364168E+02  0.00000000000E+00 0. -1.
</event>
<event>
 7    1  0.4047706E-008  0.4614232E+02  0.7816164E-02  0.1320468E+00
        -11   -1    0    0    0    0  0.00000000000E+00  0.00000000000E+00  0.45593999997E+02  0.45594000000E+02  0.51100000000E-03 0. -1.
         11   -1    0    0    0    0 -0.00000000000E+00 -0.00000000000E+00 -0.45593999997E+02  0.45594000000E+02  0.51100000000E-03 0.  1.
    9900012    2    1    2    0    0  0.19364354545E+01 -0.18992490720E+02  0.40800110370E+02  0.46142317718E+02  0.99999996103E+01 0.  0.
        -12    1    1    2    0    0 -0.19364354545E+01  0.18992490720E+02 -0.40800110370E+02  0.45045682282E+02  0.00000000000E+00 0.  1.
         11    1    3    3    0    0  0.53748151730E+00 -0.53574780723E+01  0.11214340102E+02  0.12439971136E+02  0.51100000000E-03 0. -1.
        -11    1    3    3    0    0 -0.24523863817E+01 -0.11433002536E+02  0.20870999235E+02  0.23923343314E+02  0.51100000000E-03 0.  1.
         12    1    3    3    0    0  0.38513403189E+01 -0.22020101116E+01  0.87147710327E+01  0.97790032690E+01  0.00000000000E+00 0. -1.
</event>
<event>
 7    1  0.4047706E-008  0.4614232E+02  0.7816164E-02  0.1320468E+00
        -11   -1    0    0    0    0  0.00000000000E+00  0.00000000000E+00  0.45593999997E+02  0.45594000000E+02  0.51100000000E-03 0. -1.
         11   -1    0    0    0    0 -0.00000000000E+00 -0.00000000000E+00 -0.45593999997E+02  0.45594000000E+02  0.51100000000E-03 0.  1.
    9900012    2    1    2    0    0  0.36125332846E+02 -0.24691186344E+02  0.10696683157E+02  0.46142318888E+02  0.10000010274E+02 0.  0.
        -12    1    1    2    0    0 -0.36125332846E+02  0.24691186344E+02 -0.10696683157E+02  0.45045681112E+02  0.00000000000E+00 0.  1.
         11    1    3    3    0    0  0.16135607182E+02 -0.77559139105E+01  0.70862884479E+01  0.19254285340E+02  0.51100000000E-03 0. -1.
        -11    1    3    3    0    0  0.46362104667E+00 -0.19325713329E+01 -0.79184814402E-01  0.19889813794E+01  0.51100000000E-03 0.  1.
         12    1    3    3    0    0  0.19526104617E+02 -0.15002701101E+02  0.36895795237E+01  0.24899052169E+02  0.00000000000E+00 0. -1.
</event>
<event>
 7    1  0.4047706E-008  0.4614232E+02  0.7816164E-02  0.1320468E+00
        -11   -1    0    0    0    0  0.00000000000E+00  0.00000000000E+00  0.45593999997E+02  0.45594000000E+02  0.51100000000E-03 0.  1.
         11   -1    0    0    0    0 -0.00000000000E+00 -0.00000000000E+00 -0.45593999997E+02  0.45594000000E+02  0.51100000000E-03 0. -1.
    9900012    2    1    2    0    0  0.38171036479E+02 -0.99325833670E+01 -0.21758425429E+02  0.46142319681E+02  0.10000017508E+02 0.  0.
        -12    1    1    2    0    0 -0.38171036479E+02  0.99325833670E+01  0.21758425429E+02  0.45045680319E+02  0.00000000000E+00 0.  1.
         11    1    3    3    0    0  0.19246878182E+01  0.15512797259E+01 -0.13814544226E+01  0.28318383726E+01  0.51100000000E-03 0. -1.
        -11    1    3    3    0    0  0.85260841534E+01 -0.43635519612E+01 -0.45142284916E+01  0.10588340561E+02  0.51100000000E-03 0.  1.
         12    1    3    3    0    0  0.27720264508E+02 -0.71203111318E+01 -0.15862742514E+02  0.32722140747E+02  0.00000000000E+00 0. -1.
</event>
<event>
 7    1  0.4047706E-008  0.4614233E+02  0.7816164E-02  0.1320468E+00
        -11   -1    0    0    0    0  0.00000000000E+00  0.00000000000E+00  0.45593999997E+02  0.45594000000E+02  0.51100000000E-03 0.  1.
         11   -1    0    0    0    0 -0.00000000000E+00 -0.00000000000E+00 -0.45593999997E+02  0.45594000000E+02  0.51100000000E-03 0. -1.
    9900012    2    1    2    0    0 -0.37433869753E+02 -0.24979441808E+02  0.19610275921E+01  0.46142325991E+02  0.10000075047E+02 0.  0.
        -12    1    1    2    0    0  0.37433869753E+02  0.24979441808E+02 -0.19610275921E+01  0.45045674009E+02  0.00000000000E+00 0.  1.
         11    1    3    3    0    0 -0.41509439896E+01 -0.39607590744E+01  0.14381155838E+00  0.57392186294E+01  0.51100000000E-03 0. -1.
        -11    1    3    3    0    0 -0.20498096670E+02 -0.79419059361E+01  0.23437862457E+01  0.22107446058E+02  0.51100000000E-03 0.  1.
        -12    1    3    3    0    0 -0.12784829094E+02 -0.13076776797E+02 -0.52657021196E+00  0.18295661304E+02  0.00000000000E+00 0.  1.
</event>
<event>
 7    1  0.4047706E-008  0.4614232E+02  0.7816164E-02  0.1320468E+00
        -11   -1    0    0    0    0  0.00000000000E+00  0.00000000000E+00  0.45593999997E+02  0.45594000000E+02  0.51100000000E-03 0.  1.
         11   -1    0    0    0    0 -0.00000000000E+00 -0.00000000000E+00 -0.45593999997E+02  0.45594000000E+02  0.51100000000E-03 0. -1.
    9900012    2    1    2    0    0  0.31768946485E+02 -0.28301749844E+02 -0.14793868107E+02  0.46142317203E+02  0.99999949131E+01 0.  0.
        -12    1    1    2    0    0 -0.31768946485E+02  0.28301749844E+02  0.14793868107E+02  0.45045682797E+02  0.00000000000E+00 0.  1.
         11    1    3    3    0    0  0.24260170695E+01 -0.44027470608E+00  0.69502432986E+00  0.25617298294E+01  0.51100000000E-03 0. -1.
        -11    1    3    3    0    0  0.63802855253E+01 -0.43376173218E+01 -0.44325180943E+01  0.88977628836E+01  0.51100000000E-03 0.  1.
         12    1    3    3    0    0  0.22962643891E+02 -0.23523857817E+02 -0.11056374343E+02  0.34682824490E+02  0.00000000000E+00 0. -1.
</event>
<event>
 7    1  0.4047706E-008  0.4614232E+02  0.7816164E-02  0.1320468E+00
        -11   -1    0    0    0    0  0.00000000000E+00  0.00000000000E+00  0.45593999997E+02  0.45594000000E+02  0.51100000000E-03 0.  1.
         11   -1    0    0    0    0 -0.00000000000E+00 -0.00000000000E+00 -0.45593999997E+02  0.45594000000E+02  0.51100000000E-03 0. -1.
    9900012    2    1    2    0    0  0.74977926451E+01  0.40198252983E+02 -0.18894367999E+02  0.46142316750E+02  0.99999907753E+01 0.  0.
        -12    1    1    2    0    0 -0.74977926451E+01 -0.40198252983E+02  0.18894367999E+02  0.45045683250E+02  0.00000000000E+00 0.  1.
         11    1    3    3    0    0  0.47809364438E+01  0.10700659281E+02 -0.29407758774E+01  0.12083444267E+02  0.51100000000E-03 0. -1.
        -11    1    3    3    0    0  0.18709701960E+01  0.22532410991E+02 -0.14597208353E+02  0.26912609805E+02  0.51100000000E-03 0.  1.
        -12    1    3    3    0    0  0.84588600531E+00  0.69651827110E+01 -0.13563837676E+01  0.71462626776E+01  0.00000000000E+00 0.  1.
</event>
<event>
 7    1  0.4047706E-008  0.4614232E+02  0.7816164E-02  0.1320468E+00
        -11   -1    0    0    0    0  0.00000000000E+00  0.00000000000E+00  0.45593999997E+02  0.45594000000E+02  0.51100000000E-03 0. -1.
         11   -1    0    0    0    0 -0.00000000000E+00 -0.00000000000E+00 -0.45593999997E+02  0.45594000000E+02  0.51100000000E-03 0.  1.
    9900012    2    1    2    0    0  0.22466947627E+02  0.34477835509E+02  0.18320168481E+02  0.46142318185E+02  0.10000003864E+02 0.  0.
        -12    1    1    2    0    0 -0.22466947627E+02 -0.34477835509E+02 -0.18320168481E+02  0.45045681815E+02  0.00000000000E+00 0.  1.
         11    1    3    3    0    0  0.68599685768E+01  0.61195018153E+01  0.18597106832E+01  0.93790188948E+01  0.51100000000E-03 0. -1.
        -11    1    3    3    0    0  0.13763098279E+02  0.24913829908E+02  0.16413322502E+02  0.32856033704E+02  0.51100000000E-03 0.  1.
        -12    1    3    3    0    0  0.18438807708E+01  0.34445037857E+01  0.47135295499E-01  0.39072655864E+01  0.00000000000E+00 0.  1.
</event>
<event>
 7    1  0.4047706E-008  0.4614232E+02  0.7816164E-02  0.1320468E+00
        -11   -1    0    0    0    0  0.00000000000E+00  0.00000000000E+00  0.45593999997E+02  0.45594000000E+02  0.51100000000E-03 0.  1.
         11   -1    0    0    0    0 -0.00000000000E+00 -0.00000000000E+00 -0.45593999997E+02  0.45594000000E+02  0.51100000000E-03 0. -1.
    9900012    2    1    2    0    0 -0.19756909967E+01  0.35177642049E+02 -0.28066766225E+02  0.46142320725E+02  0.10000027025E+02 0.  0.
        -12    1    1    2    0    0  0.19756909967E+01 -0.35177642049E+02  0.28066766225E+02  0.45045679275E+02  0.00000000000E+00 0.  1.
         11    1    3    3    0    0  0.12038990857E+00 -0.27478405787E-01 -0.31976886278E-01  0.12756008485E+00  0.51100000000E-03 0. -1.
        -11    1    3    3    0    0  0.32098462825E+01  0.20483913903E+02 -0.14227027217E+02  0.25145618816E+02  0.51100000000E-03 0.  1.
         12    1    3    3    0    0 -0.53059271878E+01  0.14721206552E+02 -0.13807762121E+02  0.20869141824E+02  0.00000000000E+00 0. -1.
</event>
<event>
 7    1  0.4047706E-008  0.4614232E+02  0.7816164E-02  0.1320468E+00
        -11   -1    0    0    0    0  0.00000000000E+00  0.00000000000E+00  0.45593999997E+02  0.45594000000E+02  0.51100000000E-03 0. -1.
         11   -1    0    0    0    0 -0.00000000000E+00 -0.00000000000E+00 -0.45593999997E+02  0.45594000000E+02  0.51100000000E-03 0.  1.
    9900012    2    1    2    0    0  0.23499075065E+00  0.32204828067E+02  0.31494561896E+02  0.46142316517E+02  0.99999886509E+01 0.  0.
        -12    1    1    2    0    0 -0.23499075065E+00 -0.32204828067E+02 -0.31494561896E+02  0.45045683483E+02  0.00000000000E+00 0.  1.
         11    1    3    3    0    0  0.20984470996E+01  0.17481647957E+02  0.17179914150E+02  0.24600019227E+02  0.51100000000E-03 0. -1.
        -11    1    3    3    0    0  0.17702016496E+01  0.68841124352E+01  0.42668100737E+01  0.82903731139E+01  0.51100000000E-03 0.  1.
        -12    1    3    3    0    0 -0.36336579986E+01  0.78390676746E+01  0.10047837673E+02  0.13251924175E+02  0.00000000000E+00 0.  1.
</event>
<event>
 7    1  0.4047706E-008  0.4614232E+02  0.7816164E-02  0.1320468E+00
        -11   -1    0    0    0    0  0.00000000000E+00  0.00000000000E+00  0.45593999997E+02  0.45594000000E+02  0.51100000000E-03 0.  1.
         11   -1    0    0    0    0 -0.00000000000E+00 -0.00000000000E+00 -0.45593999997E+02  0.45594000000E+02  0.51100000000E-03 0. -1.
    9900012    2    1    2    0    0  0.18268290604E+01  0.14363146194E+02 -0.42655319386E+02  0.46142317133E+02  0.99999942733E+01 0.  0.
        -12    1    1    2    0    0 -0.18268290604E+01 -0.14363146194E+02  0.42655319386E+02  0.45045682867E+02  0.00000000000E+00 0.  1.
         11    1    3    3    0    0 -0.15724826213E+01  0.63068256039E+01 -0.17956201700E+02  0.19096437640E+02  0.51100000000E-03 0. -1.
        -11    1    3    3    0    0  0.33679407448E+01  0.18027481564E+01 -0.45101033480E+01  0.59104956008E+01  0.51100000000E-03 0.  1.
        -12    1    3    3    0    0  0.31370936872E-01  0.62535724334E+01 -0.20189014338E+02  0.21135383892E+02  0.00000000000E+00 0.  1.
</event>
<event>
 7    1  0.4047706E-008  0.4614232E+02  0.7816164E-02  0.1320468E+00
        -11   -1    0    0    0    0  0.00000000000E+00  0.00000000000E+00  0.45593999997E+02  0.45594000000E+02  0.51100000000E-03 0.  1.
         11   -1    0    0    0    0 -0.00000000000E+00 -0.00000000000E+00 -0.45593999997E+02  0.45594000000E+02  0.51100000000E-03 0. -1.
    9900012    2    1    2    0    0  0.18874382959E+02 -0.23914905251E+00 -0.40900047768E+02  0.46142318389E+02  0.10000005727E+02 0.  0.
        -12    1    1    2    0    0 -0.18874382959E+02  0.23914905251E+00  0.40900047768E+02  0.45045681611E+02  0.00000000000E+00 0.  1.
         11    1    3    3    0    0  0.10491430306E+02 -0.69920190134E+00 -0.20282778234E+02  0.22846226960E+02  0.51100000000E-03 0. -1.
        -11    1    3    3    0    0  0.12296325031E+01 -0.26026002817E+01 -0.38117731366E+01  0.47765195514E+01  0.51100000000E-03 0.  1.
         12    1    3    3    0    0  0.71533201503E+01  0.30626531305E+01 -0.16805496397E+02  0.18519571878E+02  0.00000000000E+00 0. -1.
</event>
<event>
 7    1  0.4047706E-008  0.4614233E+02  0.7816164E-02  0.1320468E+00
        -11   -1    0    0    0    0  0.00000000000E+00  0.00000000000E+00  0.45593999997E+02  0.45594000000E+02  0.51100000000E-03 0. -1.
         11   -1    0    0    0    0 -0.00000000000E+00 -0.00000000000E+00 -0.45593999997E+02  0.45594000000E+02  0.51100000000E-03 0.  1.
    9900012    2    1    2    0    0 -0.13548965173E+02  0.47272509699E+01  0.42698845225E+02  0.46142326040E+02  0.10000075491E+02 0.  0.
        -12    1    1    2    0    0  0.13548965173E+02 -0.47272509699E+01 -0.42698845225E+02  0.45045673960E+02  0.00000000000E+00 0.  1.
         11    1    3    3    0    0 -0.61157835976E+01 -0.29519142935E-01  0.14268512396E+02  0.15523985528E+02  0.51100000000E-03 0. -1.
        -11    1    3    3    0    0 -0.79194375842E+01  0.59844018640E+01  0.26312947872E+02  0.28122976075E+02  0.51100000000E-03 0.  1.
        -12    1    3    3    0    0  0.48625600852E+00 -0.12276317512E+01  0.21173849566E+01  0.24953644377E+01  0.00000000000E+00 0.  1.
</event>
<event>
 7    1  0.4047706E-008  0.4614232E+02  0.7816164E-02  0.1320468E+00
        -11   -1    0    0    0    0  0.00000000000E+00  0.00000000000E+00  0.45593999997E+02  0.45594000000E+02  0.51100000000E-03 0.  1.
         11   -1    0    0    0    0 -0.00000000000E+00 -0.00000000000E+00 -0.45593999997E+02  0.45594000000E+02  0.51100000000E-03 0. -1.
    9900012    2    1    2    0    0  0.12513555182E+02 -0.12052363911E+02 -0.41560376575E+02  0.46142318296E+02  0.10000004879E+02 0.  0.
        -12    1    1    2    0    0 -0.12513555182E+02  0.12052363911E+02  0.41560376575E+02  0.45045681704E+02  0.00000000000E+00 0.  1.
         11    1    3    3    0    0  0.63071222843E+01 -0.27189099356E+01 -0.14833164072E+02  0.16346101045E+02  0.51100000000E-03 0. -1.
        -11    1    3    3    0    0  0.11190059246E+01  0.10941994168E+01 -0.29671292842E+01  0.33545943232E+01  0.51100000000E-03 0.  1.
        -12    1    3    3    0    0  0.50874269728E+01 -0.10427653392E+02 -0.23760083219E+02  0.26441622927E+02  0.00000000000E+00 0.  1.
</event>
<event>
 7    1  0.4047706E-008  0.4614232E+02  0.7816164E-02  0.1320468E+00
        -11   -1    0    0    0    0  0.00000000000E+00  0.00000000000E+00  0.45593999997E+02  0.45594000000E+02  0.51100000000E-03 0.  1.
         11   -1    0    0    0    0 -0.00000000000E+00 -0.00000000000E+00 -0.45593999997E+02  0.45594000000E+02  0.51100000000E-03 0. -1.
    9900012    2    1    2    0    0  0.31078003736E+02  0.30632572414E+02  0.11176611036E+02  0.46142318262E+02  0.10000004571E+02 0.  0.
        -12    1    1    2    0    0 -0.31078003736E+02 -0.30632572414E+02 -0.11176611036E+02  0.45045681738E+02  0.00000000000E+00 0.  1.
         11    1    3    3    0    0  0.16890231389E+02  0.19857704880E+02  0.46210308868E+01  0.26475692365E+02  0.51100000000E-03 0. -1.
        -11    1    3    3    0    0  0.44955088840E+01  0.64700763054E+01  0.35664520637E+01  0.86481829367E+01  0.51100000000E-03 0.  1.
         12    1    3    3    0    0  0.96922634636E+01  0.43047912286E+01  0.29891280855E+01  0.11018442961E+02  0.00000000000E+00 0. -1.
</event>
<event>
 7    1  0.4047706E-008  0.4614232E+02  0.7816164E-02  0.1320468E+00
        -11   -1    0    0    0    0  0.00000000000E+00  0.00000000000E+00  0.45593999997E+02  0.45594000000E+02  0.51100000000E-03 0. -1.
         11   -1    0    0    0    0 -0.00000000000E+00 -0.00000000000E+00 -0.45593999997E+02  0.45594000000E+02  0.51100000000E-03 0.  1.
    9900012    2    1    2    0    0  0.30426041924E+02 -0.33216759146E+02  0.12741990531E+00  0.46142319284E+02  0.10000013888E+02 0.  0.
        -12    1    1    2    0    0 -0.30426041924E+02  0.33216759146E+02 -0.12741990531E+00  0.45045680716E+02  0.00000000000E+00 0.  1.
         11    1    3    3    0    0  0.13079459652E+02 -0.10336357581E+02  0.26262597258E+01  0.16876308638E+02  0.51100000000E-03 0. -1.
        -11    1    3    3    0    0  0.18806434329E+01 -0.54990363131E+01  0.37161263960E+00  0.58235999442E+01  0.51100000000E-03 0.  1.
         12    1    3    3    0    0  0.15465938839E+02 -0.17381365252E+02 -0.28704524601E+01  0.23442410702E+02  0.00000000000E+00 0. -1.
</event>
<event>
 7    1  0.4047706E-008  0.4614232E+02  0.7816164E-02  0.1320468E+00
        -11   -1    0    0    0    0  0.00000000000E+00  0.00000000000E+00  0.45593999997E+02  0.45594000000E+02  0.51100000000E-03 0. -1.
         11   -1    0    0    0    0 -0.00000000000E+00 -0.00000000000E+00 -0.45593999997E+02  0.45594000000E+02  0.51100000000E-03 0.  1.
    9900012    2    1    2    0    0  0.26737515817E+02  0.23660551767E+02  0.27466289398E+02  0.46142317462E+02  0.99999972764E+01 0.  0.
        -12    1    1    2    0    0 -0.26737515817E+02 -0.23660551767E+02 -0.27466289398E+02  0.45045682538E+02  0.00000000000E+00 0.  1.
         11    1    3    3    0    0  0.38276603653E+01  0.55434368852E+01  0.73460789173E+01  0.99672238910E+01  0.51100000000E-03 0. -1.
        -11    1    3    3    0    0  0.17199162964E+01 -0.85971016807E-01  0.28584295900E+01  0.33370830173E+01  0.51100000000E-03 0.  1.
         12    1    3    3    0    0  0.21189939155E+02  0.18203085898E+02  0.17261780891E+02  0.32838010554E+02  0.00000000000E+00 0. -1.
</event>
<event>
 7    1  0.4047706E-008  0.4614232E+02  0.7816164E-02  0.1320468E+00
        -11   -1    0    0    0    0  0.00000000000E+00  0.00000000000E+00  0.45593999997E+02  0.45594000000E+02  0.51100000000E-03 0.  1.
         11   -1    0    0    0    0 -0.00000000000E+00 -0.00000000000E+00 -0.45593999997E+02  0.45594000000E+02  0.51100000000E-03 0. -1.
    9900012    2    1    2    0    0 -0.11452872033E+02  0.33584520964E+02 -0.27749330047E+02  0.46142316031E+02  0.99999842269E+01 0.  0.
        -12    1    1    2    0    0  0.11452872033E+02 -0.33584520964E+02  0.27749330047E+02  0.45045683969E+02  0.00000000000E+00 0.  1.
         11    1    3    3    0    0 -0.62778977907E+01  0.93187385984E+01 -0.66226312076E+01  0.13042627577E+02  0.51100000000E-03 0. -1.
        -11    1    3    3    0    0  0.26906818545E-01 -0.76354724669E-01 -0.12312426873E+01  0.12339014697E+01  0.51100000000E-03 0.  1.
         12    1    3    3    0    0 -0.52018810610E+01  0.24342137090E+02 -0.19895456152E+02  0.31865786985E+02  0.00000000000E+00 0. -1.
</event>
<event>
 7    1  0.4047706E-008  0.4614232E+02  0.7816164E-02  0.1320468E+00
        -11   -1    0    0    0    0  0.00000000000E+00  0.00000000000E+00  0.45593999997E+02  0.45594000000E+02  0.51100000000E-03 0.  1.
         11   -1    0    0    0    0 -0.00000000000E+00 -0.00000000000E+00 -0.45593999997E+02  0.45594000000E+02  0.51100000000E-03 0. -1.
    9900012    2    1    2    0    0  0.29733805666E+02 -0.23153099722E+02 -0.24676877602E+02  0.46142317473E+02  0.99999973741E+01 0.  0.
        -12    1    1    2    0    0 -0.29733805666E+02  0.23153099722E+02  0.24676877602E+02  0.45045682527E+02  0.00000000000E+00 0.  1.
         11    1    3    3    0    0  0.10033103118E+02 -0.82636167785E+01 -0.46180193339E+01  0.13794079283E+02  0.51100000000E-03 0. -1.
        -11    1    3    3    0    0  0.19144778267E+01 -0.42043935225E+01 -0.39973605429E+01  0.61090950076E+01  0.51100000000E-03 0.  1.
        -12    1    3    3    0    0  0.17786224721E+02 -0.10685089421E+02 -0.16061497725E+02  0.26239143182E+02  0.00000000000E+00 0.  1.
</event>
<event>
 7    1  0.4047706E-008  0.4614232E+02  0.7816164E-02  0.1320468E+00
        -11   -1    0    0    0    0  0.00000000000E+00  0.00000000000E+00  0.45593999997E+02  0.45594000000E+02  0.51100000000E-03 0.  1.
         11   -1    0    0    0    0 -0.00000000000E+00 -0.00000000000E+00 -0.45593999997E+02  0.45594000000E+02  0.51100000000E-03 0. -1.
    9900012    2    1    2    0    0  0.52382287846E+01 -0.10424119330E+01 -0.44727931774E+02  0.46142317141E+02  0.99999943478E+01 0.  0.
        -12    1    1    2    0    0 -0.52382287846E+01  0.10424119330E+01  0.44727931774E+02  0.45045682859E+02  0.00000000000E+00 0.  1.
         11    1    3    3    0    0 -0.12175189592E+01  0.82939868277E+00 -0.97669117968E+01  0.98773893767E+01  0.51100000000E-03 0. -1.
        -11    1    3    3    0    0  0.40441192648E+01 -0.25632250959E+01 -0.91022660436E+01  0.10284759157E+02  0.51100000000E-03 0.  1.
         12    1    3    3    0    0  0.24116284791E+01  0.69141448020E+00 -0.25858753934E+02  0.25980168608E+02  0.00000000000E+00 0. -1.
</event>
<event>
 7    1  0.4047706E-008  0.4614231E+02  0.7816164E-02  0.1320468E+00
        -11   -1    0    0    0    0  0.00000000000E+00  0.00000000000E+00  0.45593999997E+02  0.45594000000E+02  0.51100000000E-03 0. -1.
         11   -1    0    0    0    0 -0.00000000000E+00 -0.00000000000E+00 -0.45593999997E+02  0.45594000000E+02  0.51100000000E-03 0.  1.
    9900012    2    1    2    0    0  0.12772577853E+02  0.42463396306E+02  0.79268657300E+01  0.46142312402E+02  0.99999511320E+01 0.  0.
        -12    1    1    2    0    0 -0.12772577853E+02 -0.42463396306E+02 -0.79268657300E+01  0.45045687598E+02  0.00000000000E+00 0.  1.
         11    1    3    3    0    0  0.78509936417E+01  0.18068827989E+02  0.42605576668E+01  0.20156214872E+02  0.51100000000E-03 0. -1.
        -11    1    3    3    0    0  0.31142336877E+01  0.77195421404E+01 -0.14522326914E+01  0.84497788356E+01  0.51100000000E-03 0.  1.
         12    1    3    3    0    0  0.18073505234E+01  0.16675026176E+02  0.51185407546E+01  0.17536318694E+02  0.00000000000E+00 0. -1.
</event>
<event>
 7    1  0.4047706E-008  0.4614232E+02  0.7816164E-02  0.1320468E+00
        -11   -1    0    0    0    0  0.00000000000E+00  0.00000000000E+00  0.45593999997E+02  0.45594000000E+02  0.51100000000E-03 0.  1.
         11   -1    0    0    0    0 -0.00000000000E+00 -0.00000000000E+00 -0.45593999997E+02  0.45594000000E+02  0.51100000000E-03 0. -1.
    9900012    2    1    2    0    0  0.34828984237E+02 -0.26216783488E+02 -0.11346173870E+02  0.46142317178E+02  0.99999946798E+01 0.  0.
        -12    1    1    2    0    0 -0.34828984237E+02  0.26216783488E+02  0.11346173870E+02  0.45045682822E+02  0.00000000000E+00 0.  1.
         11    1    3    3    0    0  0.48315957634E+01 -0.54486220535E+01 -0.45443169565E+01  0.85838579185E+01  0.51100000000E-03 0.  1.
        -11    1    3    3    0    0  0.28886617875E+02 -0.18368072481E+02 -0.68630213838E+01  0.34913089833E+02  0.51100000000E-03 0. -1.
         12    1    3    3    0    0  0.11107705987E+01 -0.24000889536E+01  0.61164470440E-01  0.26453694261E+01  0.00000000000E+00 0. -1.
</event>
<event>
 7    1  0.4047706E-008  0.4614232E+02  0.7816164E-02  0.1320468E+00
        -11   -1    0    0    0    0  0.00000000000E+00  0.00000000000E+00  0.45593999997E+02  0.45594000000E+02  0.51100000000E-03 0.  1.
         11   -1    0    0    0    0 -0.00000000000E+00 -0.00000000000E+00 -0.45593999997E+02  0.45594000000E+02  0.51100000000E-03 0. -1.
    9900012    2    1    2    0    0  0.14676648444E+01  0.31334430488E+02 -0.32328205326E+02  0.46142318368E+02  0.10000005536E+02 0.  0.
        -12    1    1    2    0    0 -0.14676648444E+01 -0.31334430488E+02  0.32328205326E+02  0.45045681632E+02  0.00000000000E+00 0.  1.
         11    1    3    3    0    0  0.11091215251E+00  0.55054909750E+01 -0.48609736550E+01  0.73451887326E+01  0.51100000000E-03 0. -1.
        -11    1    3    3    0    0  0.49484708632E+01  0.19304631467E+02 -0.20703028333E+02  0.28736240923E+02  0.51100000000E-03 0.  1.
         12    1    3    3    0    0 -0.35917181712E+01  0.65243080458E+01 -0.67642033376E+01  0.10060888713E+02  0.00000000000E+00 0. -1.
</event>
<event>
 7    1  0.4047706E-008  0.4614232E+02  0.7816164E-02  0.1320468E+00
        -11   -1    0    0    0    0  0.00000000000E+00  0.00000000000E+00  0.45593999997E+02  0.45594000000E+02  0.51100000000E-03 0. -1.
         11   -1    0    0    0    0 -0.00000000000E+00 -0.00000000000E+00 -0.45593999997E+02  0.45594000000E+02  0.51100000000E-03 0.  1.
    9900012    2    1    2    0    0 -0.23676316373E+02  0.12688339336E+02  0.36160081372E+02  0.46142318776E+02  0.10000009253E+02 0.  0.
        -12    1    1    2    0    0  0.23676316373E+02 -0.12688339336E+02 -0.36160081372E+02  0.45045681224E+02  0.00000000000E+00 0.  1.
         11    1    3    3    0    0 -0.76933231215E+01  0.67117798651E+01  0.11461480884E+02  0.15349291643E+02  0.51100000000E-03 0. -1.
        -11    1    3    3    0    0 -0.34136923578E+01  0.45152568124E+01  0.63831894315E+01  0.85314680551E+01  0.51100000000E-03 0.  1.
        -12    1    3    3    0    0 -0.12569300894E+02  0.14613026585E+01  0.18315411056E+02  0.22261559078E+02  0.00000000000E+00 0.  1.
</event>
<event>
 7    1  0.4047706E-008  0.4614232E+02  0.7816164E-02  0.1320468E+00
        -11   -1    0    0    0    0  0.00000000000E+00  0.00000000000E+00  0.45593999997E+02  0.45594000000E+02  0.51100000000E-03 0. -1.
         11   -1    0    0    0    0 -0.00000000000E+00 -0.00000000000E+00 -0.45593999997E+02  0.45594000000E+02  0.51100000000E-03 0.  1.
    9900012    2    1    2    0    0 -0.41819180930E+02  0.14847650202E+02 -0.77341380766E+01  0.46142317611E+02  0.99999986273E+01 0.  0.
        -12    1    1    2    0    0  0.41819180930E+02 -0.14847650202E+02  0.77341380766E+01  0.45045682389E+02  0.00000000000E+00 0.  1.
         11    1    3    3    0    0 -0.16932059532E+02  0.22943647545E+01 -0.57291214253E+01  0.18021697539E+02  0.51100000000E-03 0. -1.
        -11    1    3    3    0    0 -0.12644586926E+02  0.46303939760E+01 -0.10634645493E+01  0.13507667600E+02  0.51100000000E-03 0.  1.
        -12    1    3    3    0    0 -0.12242534472E+02  0.79228914714E+01 -0.94155210204E+00  0.14612952471E+02  0.00000000000E+00 0.  1.
</event>
<event>
 7    1  0.4047706E-008  0.4614232E+02  0.7816164E-02  0.1320468E+00
        -11   -1    0    0    0    0  0.00000000000E+00  0.00000000000E+00  0.45593999997E+02  0.45594000000E+02  0.51100000000E-03 0. -1.
         11   -1    0    0    0    0 -0.00000000000E+00 -0.00000000000E+00 -0.45593999997E+02  0.45594000000E+02  0.51100000000E-03 0.  1.
    9900012    2    1    2    0    0  0.56955664273E+01 -0.35011460980E+02  0.27764575234E+02  0.46142317468E+02  0.99999973259E+01 0.  0.
        -12    1    1    2    0    0 -0.56955664273E+01  0.35011460980E+02 -0.27764575234E+02  0.45045682532E+02  0.00000000000E+00 0.  1.
         11    1    3    3    0    0  0.56188145646E+00 -0.13758914216E+02  0.86033169433E+01  0.16237010003E+02  0.51100000000E-03 0. -1.
        -11    1    3    3    0    0  0.44494525085E+01 -0.79152828881E+01  0.47131996794E+01  0.10230522093E+02  0.51100000000E-03 0.  1.
         12    1    3    3    0    0  0.68423246232E+00 -0.13337263876E+02  0.14448058611E+02  0.19674785371E+02  0.00000000000E+00 0. -1.
</event>
<event>
 7    1  0.4047706E-008  0.4614232E+02  0.7816164E-02  0.1320468E+00
        -11   -1    0    0    0    0  0.00000000000E+00  0.00000000000E+00  0.45593999997E+02  0.45594000000E+02  0.51100000000E-03 0.  1.
         11   -1    0    0    0    0 -0.00000000000E+00 -0.00000000000E+00 -0.45593999997E+02  0.45594000000E+02  0.51100000000E-03 0. -1.
    9900012    2    1    2    0    0 -0.25975000430E+02  0.20338151455E+02 -0.30672013918E+02  0.46142317746E+02  0.99999998653E+01 0.  0.
        -12    1    1    2    0    0  0.25975000430E+02 -0.20338151455E+02  0.30672013918E+02  0.45045682254E+02  0.00000000000E+00 0.  1.
         11    1    3    3    0    0 -0.18205432200E+02  0.12039903859E+02 -0.18068148584E+02  0.28334696752E+02  0.51100000000E-03 0. -1.
        -11    1    3    3    0    0 -0.23878819557E+01  0.48769917015E+00 -0.53091804584E+01  0.58418514288E+01  0.51100000000E-03 0.  1.
         12    1    3    3    0    0 -0.53816862743E+01  0.78105484257E+01 -0.72946848759E+01  0.11965769566E+02  0.00000000000E+00 0. -1.
</event>
<event>
 7    1  0.4047706E-008  0.4614232E+02  0.7816164E-02  0.1320468E+00
        -11   -1    0    0    0    0  0.00000000000E+00  0.00000000000E+00  0.45593999997E+02  0.45594000000E+02  0.51100000000E-03 0.  1.
         11   -1    0    0    0    0 -0.00000000000E+00 -0.00000000000E+00 -0.45593999997E+02  0.45594000000E+02  0.51100000000E-03 0. -1.
    9900012    2    1    2    0    0  0.17445981966E+02 -0.36550922560E+02 -0.19717535242E+02  0.46142318490E+02  0.10000006644E+02 0.  0.
        -12    1    1    2    0    0 -0.17445981966E+02  0.36550922560E+02  0.19717535242E+02  0.45045681510E+02  0.00000000000E+00 0.  1.
         11    1    3    3    0    0  0.10956889919E+02 -0.25147639941E+02 -0.12822012906E+02  0.30279716751E+02  0.51100000000E-03 0. -1.
        -11    1    3    3    0    0  0.47285606181E+01 -0.97781899182E+01 -0.77235707242E+01  0.13327634021E+02  0.51100000000E-03 0.  1.
        -12    1    3    3    0    0  0.17605314290E+01 -0.16250927001E+01  0.82804838846E+00  0.25349677178E+01  0.00000000000E+00 0.  1.
</event>
<event>
 7    1  0.4047706E-008  0.4614232E+02  0.7816164E-02  0.1320468E+00
        -11   -1    0    0    0    0  0.00000000000E+00  0.00000000000E+00  0.45593999997E+02  0.45594000000E+02  0.51100000000E-03 0.  1.
         11   -1    0    0    0    0 -0.00000000000E+00 -0.00000000000E+00 -0.45593999997E+02  0.45594000000E+02  0.51100000000E-03 0. -1.
    9900012    2    1    2    0    0  0.27393404191E+02  0.30917376881E+02  0.17967491197E+02  0.46142317340E+02  0.99999961643E+01 0.  0.
        -12    1    1    2    0    0 -0.27393404191E+02 -0.30917376881E+02 -0.17967491197E+02  0.45045682660E+02  0.00000000000E+00 0.  1.
         11    1    3    3    0    0  0.16273726908E+02  0.18661740758E+02  0.96990172174E+01  0.26592587140E+02  0.51100000000E-03 0. -1.
        -11    1    3    3    0    0  0.39630913595E+00  0.41885472318E+01  0.11599725742E+01  0.43642325188E+01  0.51100000000E-03 0.  1.
         12    1    3    3    0    0  0.10723368147E+02  0.80670888915E+01  0.71085014051E+01  0.15185497681E+02  0.00000000000E+00 0. -1.
</event>
<event>
 7    1  0.4047706E-008  0.4614231E+02  0.7816164E-02  0.1320468E+00
        -11   -1    0    0    0    0  0.00000000000E+00  0.00000000000E+00  0.45593999997E+02  0.45594000000E+02  0.51100000000E-03 0.  1.
         11   -1    0    0    0    0 -0.00000000000E+00 -0.00000000000E+00 -0.45593999997E+02  0.45594000000E+02  0.51100000000E-03 0. -1.
    9900012    2    1    2    0    0 -0.39487628914E+02  0.54252478933E+01 -0.20985893000E+02  0.46142313670E+02  0.99999626903E+01 0.  0.
        -12    1    1    2    0    0  0.39487628914E+02 -0.54252478933E+01  0.20985893000E+02  0.45045686330E+02  0.00000000000E+00 0.  1.
         11    1    3    3    0    0 -0.12882465771E+02  0.11727461610E+01 -0.41242701488E+01  0.13577292161E+02  0.51100000000E-03 0. -1.
        -11    1    3    3    0    0 -0.82212161726E+01  0.17426579130E+01 -0.16325375411E+01  0.85609830652E+01  0.51100000000E-03 0.  1.
        -12    1    3    3    0    0 -0.18383946970E+02  0.25098438193E+01 -0.15229085310E+02  0.24004038443E+02  0.00000000000E+00 0.  1.
</event>
<event>
 7    1  0.4047706E-008  0.4614232E+02  0.7816164E-02  0.1320468E+00
        -11   -1    0    0    0    0  0.00000000000E+00  0.00000000000E+00  0.45593999997E+02  0.45594000000E+02  0.51100000000E-03 0.  1.
         11   -1    0    0    0    0 -0.00000000000E+00 -0.00000000000E+00 -0.45593999997E+02  0.45594000000E+02  0.51100000000E-03 0. -1.
    9900012    2    1    2    0    0 -0.15735549007E+02 -0.35370187083E+02 -0.23031626034E+02  0.46142318358E+02  0.10000005440E+02 0.  0.
        -12    1    1    2    0    0  0.15735549007E+02  0.35370187083E+02  0.23031626034E+02  0.45045681642E+02  0.00000000000E+00 0.  1.
         11    1    3    3    0    0 -0.10323911155E+02 -0.12949546978E+02 -0.11063313158E+02  0.19916596265E+02  0.51100000000E-03 0. -1.
        -11    1    3    3    0    0 -0.58150854884E+01 -0.21957376071E+02 -0.11547509249E+02  0.25481101885E+02  0.51100000000E-03 0.  1.
        -12    1    3    3    0    0  0.40344763705E+00 -0.46326403435E+00 -0.42080362728E+00  0.74462020795E+00  0.00000000000E+00 0.  1.
</event>
<event>
 7    1  0.4047706E-008  0.4614232E+02  0.7816164E-02  0.1320468E+00
        -11   -1    0    0    0    0  0.00000000000E+00  0.00000000000E+00  0.45593999997E+02  0.45594000000E+02  0.51100000000E-03 0.  1.
         11   -1    0    0    0    0 -0.00000000000E+00 -0.00000000000E+00 -0.45593999997E+02  0.45594000000E+02  0.51100000000E-03 0. -1.
    9900012    2    1    2    0    0 -0.12596749284E+02  0.19047778233E+02 -0.38828047577E+02  0.46142320665E+02  0.10000026480E+02 0.  0.
        -12    1    1    2    0    0  0.12596749284E+02 -0.19047778233E+02  0.38828047577E+02  0.45045679335E+02  0.00000000000E+00 0.  1.
         11    1    3    3    0    0 -0.75389171445E+00  0.47406489399E+00 -0.52802645569E+01  0.53548374665E+01  0.51100000000E-03 0. -1.
        -11    1    3    3    0    0 -0.36326917448E+01  0.57218364424E+01 -0.50027428125E+01  0.84239715987E+01  0.51100000000E-03 0.  1.
         12    1    3    3    0    0 -0.82101658244E+01  0.12851876896E+02 -0.28545040208E+02  0.32363511600E+02  0.00000000000E+00 0. -1.
</event>
<event>
 7    1  0.4047706E-008  0.4614232E+02  0.7816164E-02  0.1320468E+00
        -11   -1    0    0    0    0  0.00000000000E+00  0.00000000000E+00  0.45593999997E+02  0.45594000000E+02  0.51100000000E-03 0.  1.
         11   -1    0    0    0    0 -0.00000000000E+00 -0.00000000000E+00 -0.45593999997E+02  0.45594000000E+02  0.51100000000E-03 0. -1.
    9900012    2    1    2    0    0  0.41529334564E+02 -0.15928689804E+02 -0.71207211133E+01  0.46142318105E+02  0.10000003132E+02 0.  0.
        -12    1    1    2    0    0 -0.41529334564E+02  0.15928689804E+02  0.71207211133E+01  0.45045681895E+02  0.00000000000E+00 0.  1.
         11    1    3    3    0    0  0.71595039591E+01 -0.29146432720E+01 -0.21303390584E+01  0.80182284271E+01  0.51100000000E-03 0. -1.
        -11    1    3    3    0    0  0.97000720052E+01 -0.64303367226E+01 -0.48035070352E+01  0.12590246517E+02  0.51100000000E-03 0.  1.
         12    1    3    3    0    0  0.24669758600E+02 -0.65837098097E+01 -0.18687501968E+00  0.25533843160E+02  0.00000000000E+00 0. -1.
</event>
<event>
 7    1  0.4047706E-008  0.4614232E+02  0.7816164E-02  0.1320468E+00
        -11   -1    0    0    0    0  0.00000000000E+00  0.00000000000E+00  0.45593999997E+02  0.45594000000E+02  0.51100000000E-03 0.  1.
         11   -1    0    0    0    0 -0.00000000000E+00 -0.00000000000E+00 -0.45593999997E+02  0.45594000000E+02  0.51100000000E-03 0. -1.
    9900012    2    1    2    0    0  0.20828905226E+02  0.26298167909E+02 -0.30061212220E+02  0.46142318648E+02  0.10000008092E+02 0.  0.
        -12    1    1    2    0    0 -0.20828905226E+02 -0.26298167909E+02  0.30061212220E+02  0.45045681352E+02  0.00000000000E+00 0.  1.
         11    1    3    3    0    0  0.11744029964E+02  0.16436186287E+02 -0.12010616096E+02  0.23501603323E+02  0.51100000000E-03 0. -1.
        -11    1    3    3    0    0  0.13400436698E+01  0.13355908638E+01 -0.12391272176E+01  0.22616269620E+01  0.51100000000E-03 0.  1.
        -12    1    3    3    0    0  0.77448315926E+01  0.85263907573E+01 -0.16811468907E+02  0.20379088364E+02  0.00000000000E+00 0.  1.
</event>
<event>
 7    1  0.4047706E-008  0.4614232E+02  0.7816164E-02  0.1320468E+00
        -11   -1    0    0    0    0  0.00000000000E+00  0.00000000000E+00  0.45593999997E+02  0.45594000000E+02  0.51100000000E-03 0.  1.
         11   -1    0    0    0    0 -0.00000000000E+00 -0.00000000000E+00 -0.45593999997E+02  0.45594000000E+02  0.51100000000E-03 0. -1.
    9900012    2    1    2    0    0  0.15321536977E+02  0.24809964336E+02 -0.34334088825E+02  0.46142317841E+02  0.10000000731E+02 0.  0.
        -12    1    1    2    0    0 -0.15321536977E+02 -0.24809964336E+02  0.34334088825E+02  0.45045682159E+02  0.00000000000E+00 0.  1.
         11    1    3    3    0    0  0.79856538595E+01  0.11648763441E+02 -0.18325323212E+02  0.23136158462E+02  0.51100000000E-03 0. -1.
        -11    1    3    3    0    0  0.51495315795E+01  0.13345585450E+02 -0.14284836999E+02  0.20215808044E+02  0.51100000000E-03 0.  1.
        -12    1    3    3    0    0  0.21863515379E+01 -0.18438455585E+00 -0.17239286134E+01  0.27903513355E+01  0.00000000000E+00 0.  1.
</event>
<event>
 7    1  0.4047706E-008  0.4614232E+02  0.7816164E-02  0.1320468E+00
        -11   -1    0    0    0    0  0.00000000000E+00  0.00000000000E+00  0.45593999997E+02  0.45594000000E+02  0.51100000000E-03 0.  1.
         11   -1    0    0    0    0 -0.00000000000E+00 -0.00000000000E+00 -0.45593999997E+02  0.45594000000E+02  0.51100000000E-03 0. -1.
    9900012    2    1    2    0    0  0.31529674720E+02 -0.96554405930E+01 -0.30688198195E+02  0.46142318415E+02  0.10000005963E+02 0.  0.
        -12    1    1    2    0    0 -0.31529674720E+02  0.96554405930E+01  0.30688198195E+02  0.45045681585E+02  0.00000000000E+00 0.  1.
         11    1    3    3    0    0  0.96170598584E+01 -0.30161804216E+01 -0.58192287695E+01  0.11638239059E+02  0.51100000000E-03 0. -1.
        -11    1    3    3    0    0  0.12970676921E+02 -0.23976741139E+01 -0.96233610398E+01  0.16327779363E+02  0.51100000000E-03 0.  1.
        -12    1    3    3    0    0  0.89419379408E+01 -0.42415860575E+01 -0.15245608385E+02  0.18176299994E+02  0.00000000000E+00 0.  1.
</event>
<event>
 7    1  0.4047706E-008  0.4614232E+02  0.7816164E-02  0.1320468E+00
        -11   -1    0    0    0    0  0.00000000000E+00  0.00000000000E+00  0.45593999997E+02  0.45594000000E+02  0.51100000000E-03 0.  1.
         11   -1    0    0    0    0 -0.00000000000E+00 -0.00000000000E+00 -0.45593999997E+02  0.45594000000E+02  0.51100000000E-03 0. -1.
    9900012    2    1    2    0    0 -0.15691076937E+02 -0.37918404097E+02 -0.18576823751E+02  0.46142316019E+02  0.99999841103E+01 0.  0.
        -12    1    1    2    0    0  0.15691076937E+02  0.37918404097E+02  0.18576823751E+02  0.45045683981E+02  0.00000000000E+00 0.  1.
         11    1    3    3    0    0 -0.11250483536E+02 -0.25974099214E+02 -0.12993691090E+02  0.31145837895E+02  0.51100000000E-03 0. -1.
        -11    1    3    3    0    0 -0.39340649957E+01 -0.73095556994E+01 -0.61060932180E+01  0.10304894301E+02  0.51100000000E-03 0.  1.
         12    1    3    3    0    0 -0.50652840522E+00 -0.46347491832E+01  0.52296055724E+00  0.46915838222E+01  0.00000000000E+00 0. -1.
</event>
<event>
 7    1  0.4047706E-008  0.4614232E+02  0.7816164E-02  0.1320468E+00
        -11   -1    0    0    0    0  0.00000000000E+00  0.00000000000E+00  0.45593999997E+02  0.45594000000E+02  0.51100000000E-03 0.  1.
         11   -1    0    0    0    0 -0.00000000000E+00 -0.00000000000E+00 -0.45593999997E+02  0.45594000000E+02  0.51100000000E-03 0. -1.
    9900012    2    1    2    0    0 -0.19111576516E+02 -0.20583949656E+02 -0.35215935903E+02  0.46142317832E+02  0.10000000651E+02 0.  0.
        -12    1    1    2    0    0  0.19111576516E+02  0.20583949656E+02  0.35215935903E+02  0.45045682168E+02  0.00000000000E+00 0.  1.
         11    1    3    3    0    0 -0.58552755978E+01 -0.44845506679E+01 -0.77747382781E+01  0.10716436095E+02  0.51100000000E-03 0. -1.
        -11    1    3    3    0    0 -0.12353988762E+02 -0.10311808211E+02 -0.23020960312E+02  0.28087702662E+02  0.51100000000E-03 0.  1.
        -12    1    3    3    0    0 -0.90231215647E+00 -0.57875907774E+01 -0.44202373133E+01  0.73381790752E+01  0.00000000000E+00 0.  1.
</event>
<event>
 7    1  0.4047706E-008  0.4614232E+02  0.7816164E-02  0.1320468E+00
        -11   -1    0    0    0    0  0.00000000000E+00  0.00000000000E+00  0.45593999997E+02  0.45594000000E+02  0.51100000000E-03 0.  1.
         11   -1    0    0    0    0 -0.00000000000E+00 -0.00000000000E+00 -0.45593999997E+02  0.45594000000E+02  0.51100000000E-03 0. -1.
    9900012    2    1    2    0    0  0.39199566668E+01 -0.19411623124E+02 -0.40459070312E+02  0.46142317153E+02  0.99999944582E+01 0.  0.
        -12    1    1    2    0    0 -0.39199566668E+01  0.19411623124E+02  0.40459070312E+02  0.45045682847E+02  0.00000000000E+00 0.  1.
         11    1    3    3    0    0 -0.13117294887E+01 -0.57964714882E+01 -0.18175418513E+02  0.19122383595E+02  0.51100000000E-03 0. -1.
        -11    1    3    3    0    0  0.10637287780E+01 -0.83902109175E+01 -0.14236337564E+02  0.16558999536E+02  0.51100000000E-03 0.  1.
        -12    1    3    3    0    0  0.41679573776E+01 -0.52249407187E+01 -0.80473142359E+01  0.10460934023E+02  0.00000000000E+00 0.  1.
</event>
<event>
 7    1  0.4047706E-008  0.4614232E+02  0.7816164E-02  0.1320468E+00
        -11   -1    0    0    0    0  0.00000000000E+00  0.00000000000E+00  0.45593999997E+02  0.45594000000E+02  0.51100000000E-03 0.  1.
         11   -1    0    0    0    0 -0.00000000000E+00 -0.00000000000E+00 -0.45593999997E+02  0.45594000000E+02  0.51100000000E-03 0. -1.
    9900012    2    1    2    0    0  0.10408571011E+02  0.10119042670E+01 -0.43814966113E+02  0.46142317008E+02  0.99999931292E+01 0.  0.
        -12    1    1    2    0    0 -0.10408571011E+02 -0.10119042670E+01  0.43814966113E+02  0.45045682992E+02  0.00000000000E+00 0.  1.
         11    1    3    3    0    0  0.30030448598E+01 -0.20555285792E+01 -0.66789375796E+01  0.76060294256E+01  0.51100000000E-03 0.  1.
        -11    1    3    3    0    0  0.83902780559E+01  0.23849047896E+01 -0.28141983651E+02  0.29462786371E+02  0.51100000000E-03 0. -1.
        -12    1    3    3    0    0 -0.98475190451E+00  0.68252805665E+00 -0.89940448829E+01  0.90735012105E+01  0.00000000000E+00 0.  1.
</event>
<event>
 7    1  0.4047706E-008  0.4614232E+02  0.7816164E-02  0.1320468E+00
        -11   -1    0    0    0    0  0.00000000000E+00  0.00000000000E+00  0.45593999997E+02  0.45594000000E+02  0.51100000000E-03 0.  1.
         11   -1    0    0    0    0 -0.00000000000E+00 -0.00000000000E+00 -0.45593999997E+02  0.45594000000E+02  0.51100000000E-03 0. -1.
    9900012    2    1    2    0    0 -0.39608726716E+01  0.10558435393E+02 -0.43611286243E+02  0.46142319208E+02  0.10000013195E+02 0.  0.
        -12    1    1    2    0    0  0.39608726716E+01 -0.10558435393E+02  0.43611286243E+02  0.45045680792E+02  0.00000000000E+00 0.  1.
         11    1    3    3    0    0 -0.17752154089E+01  0.47379230897E+01 -0.90411280289E+01  0.10360564717E+02  0.51100000000E-03 0. -1.
        -11    1    3    3    0    0 -0.10737347311E+01  0.72815232095E+01 -0.28854882517E+02  0.29778813473E+02  0.51100000000E-03 0.  1.
        -12    1    3    3    0    0 -0.11119225316E+01 -0.14610109058E+01 -0.57152756964E+01  0.60029410183E+01  0.00000000000E+00 0.  1.
</event>
<event>
 7    1  0.4047706E-008  0.4614232E+02  0.7816164E-02  0.1320468E+00
        -11   -1    0    0    0    0  0.00000000000E+00  0.00000000000E+00  0.45593999997E+02  0.45594000000E+02  0.51100000000E-03 0.  1.
         11   -1    0    0    0    0 -0.00000000000E+00 -0.00000000000E+00 -0.45593999997E+02  0.45594000000E+02  0.51100000000E-03 0. -1.
    9900012    2    1    2    0    0 -0.34181032076E+02  0.25293117958E+02 -0.14867033753E+02  0.46142318049E+02  0.10000002624E+02 0.  0.
        -12    1    1    2    0    0  0.34181032076E+02 -0.25293117958E+02  0.14867033753E+02  0.45045681951E+02  0.00000000000E+00 0.  1.
         11    1    3    3    0    0 -0.14912204647E+02  0.90933511538E+01 -0.67288895033E+01  0.18717393965E+02  0.51100000000E-03 0. -1.
        -11    1    3    3    0    0 -0.43258951231E+01  0.62913104153E+01  0.23042147812E+00  0.76385240510E+01  0.51100000000E-03 0.  1.
        -12    1    3    3    0    0 -0.14942932306E+02  0.99084563886E+01 -0.83685657278E+01  0.19786400032E+02  0.00000000000E+00 0.  1.
</event>
<event>
 7    1  0.4047706E-008  0.4614232E+02  0.7816164E-02  0.1320468E+00
        -11   -1    0    0    0    0  0.00000000000E+00  0.00000000000E+00  0.45593999997E+02  0.45594000000E+02  0.51100000000E-03 0.  1.
         11   -1    0    0    0    0 -0.00000000000E+00 -0.00000000000E+00 -0.45593999997E+02  0.45594000000E+02  0.51100000000E-03 0. -1.
    9900012    2    1    2    0    0  0.39250263311E+02  0.19341681897E+02  0.10697177932E+02  0.46142318250E+02  0.10000004459E+02 0.  0.
        -12    1    1    2    0    0 -0.39250263311E+02 -0.19341681897E+02 -0.10697177932E+02  0.45045681750E+02  0.00000000000E+00 0.  1.
         11    1    3    3    0    0  0.14686956761E+02  0.10687695305E+02  0.29625913974E+01  0.18404088618E+02  0.51100000000E-03 0. -1.
        -11    1    3    3    0    0  0.88532940813E+01  0.54328462766E+01  0.13396227510E+01  0.10473357825E+02  0.51100000000E-03 0.  1.
         12    1    3    3    0    0  0.15710012469E+02  0.32211403159E+01  0.63949637840E+01  0.17264871807E+02  0.00000000000E+00 0. -1.
</event>
<event>
 7    1  0.4047706E-008  0.4614232E+02  0.7816164E-02  0.1320468E+00
        -11   -1    0    0    0    0  0.00000000000E+00  0.00000000000E+00  0.45593999997E+02  0.45594000000E+02  0.51100000000E-03 0. -1.
         11   -1    0    0    0    0 -0.00000000000E+00 -0.00000000000E+00 -0.45593999997E+02  0.45594000000E+02  0.51100000000E-03 0.  1.
    9900012    2    1    2    0    0 -0.43943224790E+02  0.59533972668E+01  0.79160311150E+01  0.46142317714E+02  0.99999995724E+01 0.  0.
        -12    1    1    2    0    0  0.43943224790E+02 -0.59533972668E+01 -0.79160311150E+01  0.45045682286E+02  0.00000000000E+00 0.  1.
         11    1    3    3    0    0 -0.25353264615E+01 -0.17251661021E+00 -0.28050431927E+00  0.25566237856E+01  0.51100000000E-03 0. -1.
        -11    1    3    3    0    0 -0.99520540900E+01  0.35080110670E+01 -0.12791564531E+01  0.10629476175E+02  0.51100000000E-03 0.  1.
         12    1    3    3    0    0 -0.31455844239E+02  0.26179028100E+01  0.94756918874E+01  0.32956217754E+02  0.00000000000E+00 0. -1.
</event>
<event>
 7    1  0.4047706E-008  0.4614232E+02  0.7816164E-02  0.1320468E+00
        -11   -1    0    0    0    0  0.00000000000E+00  0.00000000000E+00  0.45593999997E+02  0.45594000000E+02  0.51100000000E-03 0.  1.
         11   -1    0    0    0    0 -0.00000000000E+00 -0.00000000000E+00 -0.45593999997E+02  0.45594000000E+02  0.51100000000E-03 0. -1.
    9900012    2    1    2    0    0  0.18315631708E+02  0.15103432517E+01 -0.41126268523E+02  0.46142318029E+02  0.10000002444E+02 0.  0.
        -12    1    1    2    0    0 -0.18315631708E+02 -0.15103432517E+01  0.41126268523E+02  0.45045681971E+02  0.00000000000E+00 0.  1.
         11    1    3    3    0    0  0.19510395702E+01  0.34745695418E+01 -0.10771856160E+02  0.11485298180E+02  0.51100000000E-03 0. -1.
        -11    1    3    3    0    0  0.11063922796E+02 -0.15838513795E+00 -0.21503795666E+02  0.24183645337E+02  0.51100000000E-03 0.  1.
         12    1    3    3    0    0  0.53006693417E+01 -0.18058411521E+01 -0.88506166976E+01  0.10473374512E+02  0.00000000000E+00 0. -1.
</event>
<event>
 7    1  0.4047706E-008  0.4614232E+02  0.7816164E-02  0.1320468E+00
        -11   -1    0    0    0    0  0.00000000000E+00  0.00000000000E+00  0.45593999997E+02  0.45594000000E+02  0.51100000000E-03 0.  1.
         11   -1    0    0    0    0 -0.00000000000E+00 -0.00000000000E+00 -0.45593999997E+02  0.45594000000E+02  0.51100000000E-03 0. -1.
    9900012    2    1    2    0    0  0.13537312605E+02  0.42081706272E+02 -0.86593730597E+01  0.46142316776E+02  0.99999910153E+01 0.  0.
        -12    1    1    2    0    0 -0.13537312605E+02 -0.42081706272E+02  0.86593730597E+01  0.45045683224E+02  0.00000000000E+00 0.  1.
         11    1    3    3    0    0  0.25898349990E+00  0.57250598550E+01 -0.34933928978E+00  0.57415521418E+01  0.51100000000E-03 0. -1.
        -11    1    3    3    0    0  0.12448640471E+01  0.13228963032E+02 -0.46321750904E+01  0.14071680630E+02  0.51100000000E-03 0.  1.
         12    1    3    3    0    0  0.12033465058E+02  0.23127683385E+02 -0.36778586795E+01  0.26329084004E+02  0.00000000000E+00 0. -1.
</event>
<event>
 7    1  0.4047706E-008  0.4614231E+02  0.7816164E-02  0.1320468E+00
        -11   -1    0    0    0    0  0.00000000000E+00  0.00000000000E+00  0.45593999997E+02  0.45594000000E+02  0.51100000000E-03 0.  1.
         11   -1    0    0    0    0 -0.00000000000E+00 -0.00000000000E+00 -0.45593999997E+02  0.45594000000E+02  0.51100000000E-03 0. -1.
    9900012    2    1    2    0    0 -0.34296895369E+02 -0.16427559636E+01 -0.29157127603E+02  0.46142314644E+02  0.99999715786E+01 0.  0.
        -12    1    1    2    0    0  0.34296895369E+02  0.16427559636E+01  0.29157127603E+02  0.45045685356E+02  0.00000000000E+00 0.  1.
         11    1    3    3    0    0 -0.17274140015E+02 -0.21987978203E+01 -0.13257576837E+02  0.21885930846E+02  0.51100000000E-03 0. -1.
        -11    1    3    3    0    0 -0.13988110426E+02 -0.11364590829E+01 -0.94155714298E+01  0.16900052016E+02  0.51100000000E-03 0.  1.
        -12    1    3    3    0    0 -0.30346449281E+01  0.16925009396E+01 -0.64839793362E+01  0.73563317831E+01  0.00000000000E+00 0.  1.
</event>
<event>
 7    1  0.4047706E-008  0.4614232E+02  0.7816164E-02  0.1320468E+00
        -11   -1    0    0    0    0  0.00000000000E+00  0.00000000000E+00  0.45593999997E+02  0.45594000000E+02  0.51100000000E-03 0.  1.
         11   -1    0    0    0    0 -0.00000000000E+00 -0.00000000000E+00 -0.45593999997E+02  0.45594000000E+02  0.51100000000E-03 0. -1.
    9900012    2    1    2    0    0  0.56424693033E+01  0.26537946752E+02 -0.35958492892E+02  0.46142319977E+02  0.10000020209E+02 0.  0.
        -12    1    1    2    0    0 -0.56424693033E+01 -0.26537946752E+02  0.35958492892E+02  0.45045680023E+02  0.00000000000E+00 0.  1.
         11    1    3    3    0    0  0.18308538267E+01  0.11426944958E+02 -0.16431408854E+02  0.20097718626E+02  0.51100000000E-03 0. -1.
        -11    1    3    3    0    0 -0.12264335260E+01  0.26608748481E+01 -0.87061212647E+00  0.30565274229E+01  0.51100000000E-03 0.  1.
        -12    1    3    3    0    0  0.50380490026E+01  0.12450126946E+02 -0.18656471912E+02  0.22988073928E+02  0.00000000000E+00 0.  1.
</event>
<event>
 7    1  0.4047706E-008  0.4614232E+02  0.7816164E-02  0.1320468E+00
        -11   -1    0    0    0    0  0.00000000000E+00  0.00000000000E+00  0.45593999997E+02  0.45594000000E+02  0.51100000000E-03 0.  1.
         11   -1    0    0    0    0 -0.00000000000E+00 -0.00000000000E+00 -0.45593999997E+02  0.45594000000E+02  0.51100000000E-03 0. -1.
    9900012    2    1    2    0    0  0.43380216451E+02  0.37796864384E-01  0.12135441692E+02  0.46142317043E+02  0.99999934561E+01 0.  0.
        -12    1    1    2    0    0 -0.43380216451E+02 -0.37796864384E-01 -0.12135441692E+02  0.45045682957E+02  0.00000000000E+00 0.  1.
         11    1    3    3    0    0  0.20998282435E+02 -0.24382196164E+01  0.10206153544E+02  0.23474206068E+02  0.51100000000E-03 0. -1.
        -11    1    3    3    0    0  0.12512013068E+01  0.48970766452E+00 -0.10056409257E+00  0.13473795696E+01  0.51100000000E-03 0.  1.
         12    1    3    3    0    0  0.21130732709E+02  0.19863088163E+01  0.20298522412E+01  0.21320731405E+02  0.00000000000E+00 0. -1.
</event>
<event>
 7    1  0.4047706E-008  0.4614232E+02  0.7816164E-02  0.1320468E+00
        -11   -1    0    0    0    0  0.00000000000E+00  0.00000000000E+00  0.45593999997E+02  0.45594000000E+02  0.51100000000E-03 0.  1.
         11   -1    0    0    0    0 -0.00000000000E+00 -0.00000000000E+00 -0.45593999997E+02  0.45594000000E+02  0.51100000000E-03 0. -1.
    9900012    2    1    2    0    0 -0.19397402780E+02 -0.26707310320E+02 -0.30652470812E+02  0.46142316233E+02  0.99999860628E+01 0.  0.
        -12    1    1    2    0    0  0.19397402780E+02  0.26707310320E+02  0.30652470812E+02  0.45045683767E+02  0.00000000000E+00 0.  1.
         11    1    3    3    0    0 -0.39699664468E+01 -0.21378648196E+01 -0.29810461812E+01  0.54053432982E+01  0.51100000000E-03 0. -1.
        -11    1    3    3    0    0 -0.10138183744E+00 -0.32110329147E+01 -0.53974899653E+01  0.62812346591E+01  0.51100000000E-03 0.  1.
         12    1    3    3    0    0 -0.15326054496E+02 -0.21358412586E+02 -0.22273934666E+02  0.34455738275E+02  0.00000000000E+00 0. -1.
</event>
<event>
 7    1  0.4047706E-008  0.4614232E+02  0.7816164E-02  0.1320468E+00
        -11   -1    0    0    0    0  0.00000000000E+00  0.00000000000E+00  0.45593999997E+02  0.45594000000E+02  0.51100000000E-03 0.  1.
         11   -1    0    0    0    0 -0.00000000000E+00 -0.00000000000E+00 -0.45593999997E+02  0.45594000000E+02  0.51100000000E-03 0. -1.
    9900012    2    1    2    0    0  0.25322978282E+01 -0.42379409581E+02 -0.15056122077E+02  0.46142315404E+02  0.99999785067E+01 0.  0.
        -12    1    1    2    0    0 -0.25322978282E+01  0.42379409581E+02  0.15056122077E+02  0.45045684596E+02  0.00000000000E+00 0.  1.
         11    1    3    3    0    0  0.77679923371E+00 -0.16783308293E+01 -0.19310151468E+01  0.26737672263E+01  0.51100000000E-03 0.  1.
        -11    1    3    3    0    0  0.19949565833E+01 -0.24272502052E+02 -0.40196031087E+01  0.24683829059E+02  0.51100000000E-03 0. -1.
        -12    1    3    3    0    0 -0.23945798888E+00 -0.16428576700E+02 -0.91055038219E+01  0.18784719119E+02  0.00000000000E+00 0.  1.
</event>
<event>
 7    1  0.4047706E-008  0.4614232E+02  0.7816164E-02  0.1320468E+00
        -11   -1    0    0    0    0  0.00000000000E+00  0.00000000000E+00  0.45593999997E+02  0.45594000000E+02  0.51100000000E-03 0.  1.
         11   -1    0    0    0    0 -0.00000000000E+00 -0.00000000000E+00 -0.45593999997E+02  0.45594000000E+02  0.51100000000E-03 0. -1.
    9900012    2    1    2    0    0  0.33277935951E+01  0.12189344054E+02 -0.43237239922E+02  0.46142320576E+02  0.10000025669E+02 0.  0.
        -12    1    1    2    0    0 -0.33277935951E+01 -0.12189344054E+02  0.43237239922E+02  0.45045679424E+02  0.00000000000E+00 0.  1.
         11    1    3    3    0    0  0.54305840024E+01  0.10785856001E+02 -0.34154880078E+02  0.36226810040E+02  0.51100000000E-03 0. -1.
        -11    1    3    3    0    0 -0.14667917644E+00 -0.32674024436E+00 -0.53402068533E+01  0.53522036084E+01  0.51100000000E-03 0.  1.
        -12    1    3    3    0    0 -0.19561112309E+01  0.17302282969E+01 -0.37421529912E+01  0.45633069278E+01  0.00000000000E+00 0.  1.
</event>
<event>
 7    1  0.4047706E-008  0.4614232E+02  0.7816164E-02  0.1320468E+00
        -11   -1    0    0    0    0  0.00000000000E+00  0.00000000000E+00  0.45593999997E+02  0.45594000000E+02  0.51100000000E-03 0.  1.
         11   -1    0    0    0    0 -0.00000000000E+00 -0.00000000000E+00 -0.45593999997E+02  0.45594000000E+02  0.51100000000E-03 0. -1.
    9900012    2    1    2    0    0 -0.23292684736E+02 -0.29696812351E+02 -0.24589909582E+02  0.46142317862E+02  0.10000000920E+02 0.  0.
        -12    1    1    2    0    0  0.23292684736E+02  0.29696812351E+02  0.24589909582E+02  0.45045682138E+02  0.00000000000E+00 0.  1.
         11    1    3    3    0    0 -0.86287402840E+01 -0.71778063565E+01 -0.63352740658E+01  0.12888435154E+02  0.51100000000E-03 0. -1.
        -11    1    3    3    0    0 -0.18823100691E+01 -0.49171585938E+01 -0.70079967953E+01  0.87654754108E+01  0.51100000000E-03 0.  1.
        -12    1    3    3    0    0 -0.12781634383E+02 -0.17601847401E+02 -0.11246638721E+02  0.24488407297E+02  0.00000000000E+00 0.  1.
</event>
<event>
 7    1  0.4047706E-008  0.4614232E+02  0.7816164E-02  0.1320468E+00
        -11   -1    0    0    0    0  0.00000000000E+00  0.00000000000E+00  0.45593999997E+02  0.45594000000E+02  0.51100000000E-03 0. -1.
         11   -1    0    0    0    0 -0.00000000000E+00 -0.00000000000E+00 -0.45593999997E+02  0.45594000000E+02  0.51100000000E-03 0.  1.
    9900012    2    1    2    0    0 -0.28124546818E+02  0.35182246825E+02  0.57685672315E+00  0.46142318863E+02  0.10000010046E+02 0.  0.
        -12    1    1    2    0    0  0.28124546818E+02 -0.35182246825E+02 -0.57685672315E+00  0.45045681137E+02  0.00000000000E+00 0.  1.
         11    1    3    3    0    0 -0.10286294753E+02  0.15554451080E+02  0.33461896395E+01  0.18945864813E+02  0.51100000000E-03 0. -1.
        -11    1    3    3    0    0 -0.12030691242E+02  0.13264723027E+02  0.67005935034E+00  0.17920362399E+02  0.51100000000E-03 0.  1.
        -12    1    3    3    0    0 -0.58075608241E+01  0.63630727191E+01 -0.34393922667E+01  0.92760916510E+01  0.00000000000E+00 0.  1.
</event>
<event>
 7    1  0.4047706E-008  0.4614232E+02  0.7816164E-02  0.1320468E+00
        -11   -1    0    0    0    0  0.00000000000E+00  0.00000000000E+00  0.45593999997E+02  0.45594000000E+02  0.51100000000E-03 0.  1.
         11   -1    0    0    0    0 -0.00000000000E+00 -0.00000000000E+00 -0.45593999997E+02  0.45594000000E+02  0.51100000000E-03 0. -1.
    9900012    2    1    2    0    0 -0.74734811974E+01 -0.26499504591E+02 -0.35651604327E+02  0.46142317012E+02  0.99999931654E+01 0.  0.
        -12    1    1    2    0    0  0.74734811974E+01  0.26499504591E+02  0.35651604327E+02  0.45045682988E+02  0.00000000000E+00 0.  1.
         11    1    3    3    0    0 -0.47009273840E+01 -0.55372635835E+01 -0.99273996063E+01  0.12300945877E+02  0.51100000000E-03 0. -1.
        -11    1    3    3    0    0  0.64642777836E+00 -0.39796505683E+01 -0.20989124331E+01  0.45454286026E+01  0.51100000000E-03 0.  1.
         12    1    3    3    0    0 -0.34189815918E+01 -0.16982590439E+02 -0.23625292288E+02  0.29295942532E+02  0.00000000000E+00 0. -1.
</event>
<event>
 7    1  0.4047706E-008  0.4614232E+02  0.7816164E-02  0.1320468E+00
        -11   -1    0    0    0    0  0.00000000000E+00  0.00000000000E+00  0.45593999997E+02  0.45594000000E+02  0.51100000000E-03 0.  1.
         11   -1    0    0    0    0 -0.00000000000E+00 -0.00000000000E+00 -0.45593999997E+02  0.45594000000E+02  0.51100000000E-03 0. -1.
    9900012    2    1    2    0    0 -0.38228163354E+02  0.22936087129E+02  0.64542209461E+01  0.46142317252E+02  0.99999953546E+01 0.  0.
        -12    1    1    2    0    0  0.38228163354E+02 -0.22936087129E+02 -0.64542209461E+01  0.45045682748E+02  0.00000000000E+00 0.  1.
         11    1    3    3    0    0 -0.14953460799E+02  0.68040829071E+01 -0.67953709781E+00  0.16442728028E+02  0.51100000000E-03 0. -1.
        -11    1    3    3    0    0 -0.12371603014E+01  0.74187405801E+00 -0.83108169857E+00  0.16648242490E+01  0.51100000000E-03 0.  1.
        -12    1    3    3    0    0 -0.22037542254E+02  0.15390130164E+02  0.79648397425E+01  0.28034764974E+02  0.00000000000E+00 0.  1.
</event>
<event>
 7    1  0.4047706E-008  0.4614232E+02  0.7816164E-02  0.1320468E+00
        -11   -1    0    0    0    0  0.00000000000E+00  0.00000000000E+00  0.45593999997E+02  0.45594000000E+02  0.51100000000E-03 0.  1.
         11   -1    0    0    0    0 -0.00000000000E+00 -0.00000000000E+00 -0.45593999997E+02  0.45594000000E+02  0.51100000000E-03 0. -1.
    9900012    2    1    2    0    0 -0.40264833818E+02 -0.49889701742E+01 -0.19569537200E+02  0.46142318165E+02  0.10000003679E+02 0.  0.
        -12    1    1    2    0    0  0.40264833818E+02  0.49889701742E+01  0.19569537200E+02  0.45045681835E+02  0.00000000000E+00 0.  1.
         11    1    3    3    0    0 -0.19477427308E+02 -0.51307581822E+01 -0.13224951174E+02  0.24095522154E+02  0.51100000000E-03 0. -1.
        -11    1    3    3    0    0 -0.46811982585E+01 -0.10841227154E+00  0.13465930192E+00  0.46843893673E+01  0.51100000000E-03 0.  1.
         12    1    3    3    0    0 -0.16106208252E+02  0.25020027956E+00 -0.64792453281E+01  0.17362406644E+02  0.00000000000E+00 0. -1.
</event>
<event>
 7    1  0.4047706E-008  0.4614232E+02  0.7816164E-02  0.1320468E+00
        -11   -1    0    0    0    0  0.00000000000E+00  0.00000000000E+00  0.45593999997E+02  0.45594000000E+02  0.51100000000E-03 0.  1.
         11   -1    0    0    0    0 -0.00000000000E+00 -0.00000000000E+00 -0.45593999997E+02  0.45594000000E+02  0.51100000000E-03 0. -1.
    9900012    2    1    2    0    0  0.64029914851E+01  0.44378403793E+02 -0.43211626764E+01  0.46142317964E+02  0.10000001853E+02 0.  0.
        -12    1    1    2    0    0 -0.64029914851E+01 -0.44378403793E+02  0.43211626764E+01  0.45045682036E+02  0.00000000000E+00 0.  1.
         11    1    3    3    0    0  0.22760802515E+01  0.22187268431E+02 -0.48796154535E+01  0.22831252024E+02  0.51100000000E-03 0. -1.
        -11    1    3    3    0    0  0.27700907234E+01  0.21397956243E+02  0.12083945699E+01  0.21610325117E+02  0.51100000000E-03 0.  1.
        -12    1    3    3    0    0  0.13568205102E+01  0.79317911915E+00 -0.64994179291E+00  0.17007408228E+01  0.00000000000E+00 0.  1.
</event>
<event>
 7    1  0.4047706E-008  0.4614232E+02  0.7816164E-02  0.1320468E+00
        -11   -1    0    0    0    0  0.00000000000E+00  0.00000000000E+00  0.45593999997E+02  0.45594000000E+02  0.51100000000E-03 0.  1.
         11   -1    0    0    0    0 -0.00000000000E+00 -0.00000000000E+00 -0.45593999997E+02  0.45594000000E+02  0.51100000000E-03 0. -1.
    9900012    2    1    2    0    0 -0.44287887747E+02 -0.66559704555E+01  0.48367969455E+01  0.46142317094E+02  0.99999939166E+01 0.  0.
        -12    1    1    2    0    0  0.44287887747E+02  0.66559704555E+01 -0.48367969455E+01  0.45045682906E+02  0.00000000000E+00 0.  1.
         11    1    3    3    0    0 -0.64369516682E+01  0.46749432629E+00 -0.83902648188E+00  0.65082150719E+01  0.51100000000E-03 0. -1.
        -11    1    3    3    0    0 -0.34995762639E+02 -0.73558516961E+01  0.70629734708E+01  0.36451303836E+02  0.51100000000E-03 0.  1.
        -12    1    3    3    0    0 -0.28551734399E+01  0.23238691433E+00 -0.13871500434E+01  0.31827981860E+01  0.00000000000E+00 0.  1.
</event>
<event>
 7    1  0.4047706E-008  0.4614232E+02  0.7816164E-02  0.1320468E+00
        -11   -1    0    0    0    0  0.00000000000E+00  0.00000000000E+00  0.45593999997E+02  0.45594000000E+02  0.51100000000E-03 0. -1.
         11   -1    0    0    0    0 -0.00000000000E+00 -0.00000000000E+00 -0.45593999997E+02  0.45594000000E+02  0.51100000000E-03 0.  1.
    9900012    2    1    2    0    0  0.15627250992E+02 -0.31046332087E+02  0.28653580144E+02  0.46142319134E+02  0.10000012522E+02 0.  0.
        -12    1    1    2    0    0 -0.15627250992E+02  0.31046332087E+02 -0.28653580144E+02  0.45045680866E+02  0.00000000000E+00 0.  1.
         11    1    3    3    0    0  0.46018814746E+01 -0.78974142459E+01  0.68407606770E+01  0.11416762754E+02  0.51100000000E-03 0. -1.
        -11    1    3    3    0    0  0.71619103874E+01 -0.18609175147E+02  0.12083804476E+02  0.23315503231E+02  0.51100000000E-03 0.  1.
        -12    1    3    3    0    0  0.38634591303E+01 -0.45397426936E+01  0.97290149908E+01  0.11410053149E+02  0.00000000000E+00 0.  1.
</event>
<event>
 7    1  0.4047706E-008  0.4614232E+02  0.7816164E-02  0.1320468E+00
        -11   -1    0    0    0    0  0.00000000000E+00  0.00000000000E+00  0.45593999997E+02  0.45594000000E+02  0.51100000000E-03 0.  1.
         11   -1    0    0    0    0 -0.00000000000E+00 -0.00000000000E+00 -0.45593999997E+02  0.45594000000E+02  0.51100000000E-03 0. -1.
    9900012    2    1    2    0    0 -0.17894186530E+02  0.26038147405E+02 -0.32108042927E+02  0.46142318159E+02  0.10000003630E+02 0.  0.
        -12    1    1    2    0    0  0.17894186530E+02 -0.26038147405E+02  0.32108042927E+02  0.45045681841E+02  0.00000000000E+00 0.  1.
         11    1    3    3    0    0 -0.26096269211E+01  0.97125095555E+01 -0.13167388173E+02  0.16568738820E+02  0.51100000000E-03 0. -1.
        -11    1    3    3    0    0 -0.30352333662E+00 -0.23227980331E+00 -0.35178051039E+00  0.51945174127E+00  0.51100000000E-03 0.  1.
         12    1    3    3    0    0 -0.14981036272E+02  0.16557917653E+02 -0.18588874244E+02  0.29054127598E+02  0.00000000000E+00 0. -1.
</event>
<event>
 7    1  0.4047706E-008  0.4614232E+02  0.7816164E-02  0.1320468E+00
        -11   -1    0    0    0    0  0.00000000000E+00  0.00000000000E+00  0.45593999997E+02  0.45594000000E+02  0.51100000000E-03 0. -1.
         11   -1    0    0    0    0 -0.00000000000E+00 -0.00000000000E+00 -0.45593999997E+02  0.45594000000E+02  0.51100000000E-03 0.  1.
    9900012    2    1    2    0    0 -0.16680432618E+02  0.37046790001E+02  0.19452815067E+02  0.46142317680E+02  0.99999992569E+01 0.  0.
        -12    1    1    2    0    0  0.16680432618E+02 -0.37046790001E+02 -0.19452815067E+02  0.45045682320E+02  0.00000000000E+00 0.  1.
         11    1    3    3    0    0 -0.89069695670E+01  0.18839572063E+02  0.70048018564E+01  0.21984786369E+02  0.51100000000E-03 0. -1.
        -11    1    3    3    0    0 -0.59455594017E+01  0.11395067478E+02  0.47133485655E+01  0.13689882921E+02  0.51100000000E-03 0.  1.
         12    1    3    3    0    0 -0.18279036489E+01  0.68121504604E+01  0.77346646454E+01  0.10467648390E+02  0.00000000000E+00 0. -1.
</event>
<event>
 7    1  0.4047706E-008  0.4614232E+02  0.7816164E-02  0.1320468E+00
        -11   -1    0    0    0    0  0.00000000000E+00  0.00000000000E+00  0.45593999997E+02  0.45594000000E+02  0.51100000000E-03 0.  1.
         11   -1    0    0    0    0 -0.00000000000E+00 -0.00000000000E+00 -0.45593999997E+02  0.45594000000E+02  0.51100000000E-03 0. -1.
    9900012    2    1    2    0    0  0.23180000693E+01 -0.34593431463E+02 -0.28758218074E+02  0.46142315062E+02  0.99999753907E+01 0.  0.
        -12    1    1    2    0    0 -0.23180000693E+01  0.34593431463E+02  0.28758218074E+02  0.45045684938E+02  0.00000000000E+00 0.  1.
         11    1    3    3    0    0  0.17648376761E+01 -0.69505368990E+01 -0.87226466632E+01  0.11291996293E+02  0.51100000000E-03 0. -1.
        -11    1    3    3    0    0  0.25616982028E+01 -0.25222755149E+02 -0.17429437382E+02  0.30765808339E+02  0.51100000000E-03 0.  1.
         12    1    3    3    0    0 -0.20085358096E+01 -0.24201394150E+01 -0.26061340284E+01  0.40845104309E+01  0.00000000000E+00 0. -1.
</event>
<event>
 7    1  0.4047706E-008  0.4614232E+02  0.7816164E-02  0.1320468E+00
        -11   -1    0    0    0    0  0.00000000000E+00  0.00000000000E+00  0.45593999997E+02  0.45594000000E+02  0.51100000000E-03 0.  1.
         11   -1    0    0    0    0 -0.00000000000E+00 -0.00000000000E+00 -0.45593999997E+02  0.45594000000E+02  0.51100000000E-03 0. -1.
    9900012    2    1    2    0    0 -0.85239777418E+01  0.23676722253E+02 -0.37361318624E+02  0.46142317604E+02  0.99999985713E+01 0.  0.
        -12    1    1    2    0    0  0.85239777418E+01 -0.23676722253E+02  0.37361318624E+02  0.45045682396E+02  0.00000000000E+00 0.  1.
         11    1    3    3    0    0 -0.37491670904E+01  0.40920644980E+01 -0.72345688057E+01  0.91181265506E+01  0.51100000000E-03 0. -1.
        -11    1    3    3    0    0 -0.36285819130E-01  0.28253136797E+00 -0.49012878244E+01  0.49095583542E+01  0.51100000000E-03 0.  1.
         12    1    3    3    0    0 -0.47385248322E+01  0.19302126387E+02 -0.25225461994E+02  0.32114632700E+02  0.00000000000E+00 0. -1.
</event>
<event>
 7    1  0.4047706E-008  0.4614232E+02  0.7816164E-02  0.1320468E+00
        -11   -1    0    0    0    0  0.00000000000E+00  0.00000000000E+00  0.45593999997E+02  0.45594000000E+02  0.51100000000E-03 0.  1.
         11   -1    0    0    0    0 -0.00000000000E+00 -0.00000000000E+00 -0.45593999997E+02  0.45594000000E+02  0.51100000000E-03 0. -1.
    9900012    2    1    2    0    0  0.26902098226E+02  0.33085287625E+02 -0.14517379718E+02  0.46142318075E+02  0.10000002862E+02 0.  0.
        -12    1    1    2    0    0 -0.26902098226E+02 -0.33085287625E+02  0.14517379718E+02  0.45045681925E+02  0.00000000000E+00 0.  1.
         11    1    3    3    0    0  0.16793955932E+02  0.13813342259E+02 -0.76984757586E+01  0.23067551007E+02  0.51100000000E-03 0.  1.
        -11    1    3    3    0    0  0.16848666464E+01  0.49402825178E+01 -0.33207879654E+00  0.52302431645E+01  0.51100000000E-03 0. -1.
         12    1    3    3    0    0  0.84232756482E+01  0.14331662848E+02 -0.64868251629E+01  0.17844523903E+02  0.00000000000E+00 0. -1.
</event>
<event>
 7    1  0.4047706E-008  0.4614232E+02  0.7816164E-02  0.1320468E+00
        -11   -1    0    0    0    0  0.00000000000E+00  0.00000000000E+00  0.45593999997E+02  0.45594000000E+02  0.51100000000E-03 0.  1.
         11   -1    0    0    0    0 -0.00000000000E+00 -0.00000000000E+00 -0.45593999997E+02  0.45594000000E+02  0.51100000000E-03 0. -1.
    9900012    2    1    2    0    0 -0.26471711792E+02 -0.22280151575E+02 -0.28843662242E+02  0.46142317289E+02  0.99999956917E+01 0.  0.
        -12    1    1    2    0    0  0.26471711792E+02  0.22280151575E+02  0.28843662242E+02  0.45045682711E+02  0.00000000000E+00 0.  1.
         11    1    3    3    0    0 -0.20301746364E+02 -0.16765589675E+02 -0.20603028819E+02  0.33432479707E+02  0.51100000000E-03 0. -1.
        -11    1    3    3    0    0 -0.54308998546E+01 -0.42807075829E+01 -0.34893289491E+01  0.77456147217E+01  0.51100000000E-03 0.  1.
        -12    1    3    3    0    0 -0.73906557328E+00 -0.12338543165E+01 -0.47513044741E+01  0.49642228598E+01  0.00000000000E+00 0.  1.
</event>
<event>
 7    1  0.4047706E-008  0.4614232E+02  0.7816164E-02  0.1320468E+00
        -11   -1    0    0    0    0  0.00000000000E+00  0.00000000000E+00  0.45593999997E+02  0.45594000000E+02  0.51100000000E-03 0.  1.
         11   -1    0    0    0    0 -0.00000000000E+00 -0.00000000000E+00 -0.45593999997E+02  0.45594000000E+02  0.51100000000E-03 0. -1.
    9900012    2    1    2    0    0  0.15343993022E+02  0.41115960550E+02 -0.10156428442E+02  0.46142319048E+02  0.10000011731E+02 0.  0.
        -12    1    1    2    0    0 -0.15343993022E+02 -0.41115960550E+02  0.10156428442E+02  0.45045680952E+02  0.00000000000E+00 0.  1.
         11    1    3    3    0    0  0.14269492904E+01  0.40728671402E+01  0.64364079051E+00  0.43633364238E+01  0.51100000000E-03 0.  1.
        -11    1    3    3    0    0  0.27640307350E+01  0.29349558793E+01 -0.30779210703E+01  0.50722214358E+01  0.51100000000E-03 0. -1.
         12    1    3    3    0    0  0.11153012996E+02  0.34108137530E+02 -0.77221481621E+01  0.36706761188E+02  0.00000000000E+00 0. -1.
</event>
<event>
 7    1  0.4047706E-008  0.4614232E+02  0.7816164E-02  0.1320468E+00
        -11   -1    0    0    0    0  0.00000000000E+00  0.00000000000E+00  0.45593999997E+02  0.45594000000E+02  0.51100000000E-03 0. -1.
         11   -1    0    0    0    0 -0.00000000000E+00 -0.00000000000E+00 -0.45593999997E+02  0.45594000000E+02  0.51100000000E-03 0.  1.
    9900012    2    1    2    0    0  0.27107834763E+01 -0.11843288430E+02  0.43376279516E+02  0.46142318159E+02  0.10000003626E+02 0.  0.
        -12    1    1    2    0    0 -0.27107834763E+01  0.11843288430E+02 -0.43376279516E+02  0.45045681841E+02  0.00000000000E+00 0.  1.
         11    1    3    3    0    0  0.24900271598E+01 -0.65905400408E+01  0.26623030933E+02  0.27539448607E+02  0.51100000000E-03 0. -1.
        -11    1    3    3    0    0  0.28909366063E+01 -0.42575237164E+01  0.12062018655E+02  0.13113974110E+02  0.51100000000E-03 0.  1.
        -12    1    3    3    0    0 -0.26701802899E+01 -0.99522467266E+00  0.46912299280E+01  0.54888954414E+01  0.00000000000E+00 0.  1.
</event>
<event>
 7    1  0.4047706E-008  0.4614232E+02  0.7816164E-02  0.1320468E+00
        -11   -1    0    0    0    0  0.00000000000E+00  0.00000000000E+00  0.45593999997E+02  0.45594000000E+02  0.51100000000E-03 0.  1.
         11   -1    0    0    0    0 -0.00000000000E+00 -0.00000000000E+00 -0.45593999997E+02  0.45594000000E+02  0.51100000000E-03 0. -1.
    9900012    2    1    2    0    0 -0.42060337146E+02  0.87592837270E+01 -0.13539440050E+02  0.46142318196E+02  0.10000003970E+02 0.  0.
        -12    1    1    2    0    0  0.42060337146E+02 -0.87592837270E+01  0.13539440050E+02  0.45045681804E+02  0.00000000000E+00 0.  1.
         11    1    3    3    0    0 -0.20226169085E+02  0.31835843146E+01 -0.27048102373E+01  0.20653065719E+02  0.51100000000E-03 0. -1.
        -11    1    3    3    0    0 -0.28709944991E+01  0.24104922802E+01 -0.26673917189E+01  0.46008761437E+01  0.51100000000E-03 0.  1.
         12    1    3    3    0    0 -0.18963173563E+02  0.31652071321E+01 -0.81672380940E+01  0.20888376333E+02  0.00000000000E+00 0. -1.
</event>
<event>
 7    1  0.4047706E-008  0.4614232E+02  0.7816164E-02  0.1320468E+00
        -11   -1    0    0    0    0  0.00000000000E+00  0.00000000000E+00  0.45593999997E+02  0.45594000000E+02  0.51100000000E-03 0.  1.
         11   -1    0    0    0    0 -0.00000000000E+00 -0.00000000000E+00 -0.45593999997E+02  0.45594000000E+02  0.51100000000E-03 0. -1.
    9900012    2    1    2    0    0  0.20502881805E+02  0.30324338686E+01 -0.39994370377E+02  0.46142317862E+02  0.10000000917E+02 0.  0.
        -12    1    1    2    0    0 -0.20502881805E+02 -0.30324338686E+01  0.39994370377E+02  0.45045682138E+02  0.00000000000E+00 0.  1.
         11    1    3    3    0    0  0.58457821305E+01  0.52616624862E-01 -0.75177556879E+01  0.95232656200E+01  0.51100000000E-03 0. -1.
        -11    1    3    3    0    0  0.53539434737E+01 -0.21310796518E+01 -0.73295767631E+01  0.93235672889E+01  0.51100000000E-03 0.  1.
        -12    1    3    3    0    0  0.93031562009E+01  0.51108968956E+01 -0.25147037926E+02  0.27295484953E+02  0.00000000000E+00 0.  1.
</event>
<event>
 7    1  0.4047706E-008  0.4614232E+02  0.7816164E-02  0.1320468E+00
        -11   -1    0    0    0    0  0.00000000000E+00  0.00000000000E+00  0.45593999997E+02  0.45594000000E+02  0.51100000000E-03 0.  1.
         11   -1    0    0    0    0 -0.00000000000E+00 -0.00000000000E+00 -0.45593999997E+02  0.45594000000E+02  0.51100000000E-03 0. -1.
    9900012    2    1    2    0    0 -0.16974568502E+02 -0.29590530311E+02 -0.29417307121E+02  0.46142318540E+02  0.10000007106E+02 0.  0.
        -12    1    1    2    0    0  0.16974568502E+02  0.29590530311E+02  0.29417307121E+02  0.45045681460E+02  0.00000000000E+00 0.  1.
         11    1    3    3    0    0 -0.44655495890E+01 -0.12684199230E+02 -0.66787613087E+01  0.15014522840E+02  0.51100000000E-03 0. -1.
        -11    1    3    3    0    0 -0.71323137961E+01 -0.72915436917E+01 -0.99560995552E+01  0.14253435660E+02  0.51100000000E-03 0.  1.
         12    1    3    3    0    0 -0.53767051166E+01 -0.96147873893E+01 -0.12782446257E+02  0.16874360040E+02  0.00000000000E+00 0. -1.
</event>
<event>
 7    1  0.4047706E-008  0.4614232E+02  0.7816164E-02  0.1320468E+00
        -11   -1    0    0    0    0  0.00000000000E+00  0.00000000000E+00  0.45593999997E+02  0.45594000000E+02  0.51100000000E-03 0.  1.
         11   -1    0    0    0    0 -0.00000000000E+00 -0.00000000000E+00 -0.45593999997E+02  0.45594000000E+02  0.51100000000E-03 0. -1.
    9900012    2    1    2    0    0  0.35138034144E+02  0.96065163821E+01 -0.26498054318E+02  0.46142317819E+02  0.10000000525E+02 0.  0.
        -12    1    1    2    0    0 -0.35138034144E+02 -0.96065163821E+01  0.26498054318E+02  0.45045682181E+02  0.00000000000E+00 0.  1.
         11    1    3    3    0    0  0.40751489342E+01  0.41253568729E+00 -0.64934616128E+01  0.76773738028E+01  0.51100000000E-03 0. -1.
        -11    1    3    3    0    0  0.43841989834E+00  0.85041788835E+00 -0.13291855244E+01  0.16377292241E+01  0.51100000000E-03 0.  1.
         12    1    3    3    0    0  0.30624465312E+02  0.83435628065E+01 -0.18675407181E+02  0.36827214792E+02  0.00000000000E+00 0. -1.
</event>
<event>
 7    1  0.4294130E-008  0.4614232E+02  0.7816164E-02  0.1320468E+00
        -11   -1    0    0    0    0  0.00000000000E+00  0.00000000000E+00  0.45593999997E+02  0.45594000000E+02  0.51100000000E-03 0. -1.
         11   -1    0    0    0    0 -0.00000000000E+00 -0.00000000000E+00 -0.45593999997E+02  0.45594000000E+02  0.51100000000E-03 0.  1.
    9900012    2    1    2    0    0 -0.14281433779E+02 -0.19572277149E+02  0.37974729358E+02  0.46142318149E+02  0.10000003537E+02 0.  0.
        -12    1    1    2    0    0  0.14281433779E+02  0.19572277149E+02 -0.37974729358E+02  0.45045681851E+02  0.00000000000E+00 0.  1.
         11    1    3    3    0    0 -0.55938195058E+01 -0.69606284605E+01  0.16369001918E+02  0.18646323747E+02  0.51100000000E-03 0. -1.
        -11    1    3    3    0    0 -0.40681002378E+01 -0.37729759539E+01  0.13662737402E+02  0.14746361608E+02  0.51100000000E-03 0.  1.
        -12    1    3    3    0    0 -0.46195140356E+01 -0.88386727341E+01  0.79429900377E+01  0.12749632793E+02  0.00000000000E+00 0.  1.
</event>
<event>
 7    1  0.4047706E-008  0.4614232E+02  0.7816164E-02  0.1320468E+00
        -11   -1    0    0    0    0  0.00000000000E+00  0.00000000000E+00  0.45593999997E+02  0.45594000000E+02  0.51100000000E-03 0.  1.
         11   -1    0    0    0    0 -0.00000000000E+00 -0.00000000000E+00 -0.45593999997E+02  0.45594000000E+02  0.51100000000E-03 0. -1.
    9900012    2    1    2    0    0  0.69206957237E+01  0.36892441043E+02 -0.24903118476E+02  0.46142317130E+02  0.99999942409E+01 0.  0.
        -12    1    1    2    0    0 -0.69206957237E+01 -0.36892441043E+02  0.24903118476E+02  0.45045682870E+02  0.00000000000E+00 0.  1.
         11    1    3    3    0    0  0.70092634203E+01  0.13731670181E+02 -0.83539065911E+01  0.17535002003E+02  0.51100000000E-03 0. -1.
        -11    1    3    3    0    0  0.60215316412E+00  0.13854837687E+02 -0.11381662345E+02  0.17940494802E+02  0.51100000000E-03 0.  1.
         12    1    3    3    0    0 -0.69072086076E+00  0.93059331759E+01 -0.51675495399E+01  0.10666820324E+02  0.00000000000E+00 0. -1.
</event>
<event>
 7    1  0.4047706E-008  0.4614232E+02  0.7816164E-02  0.1320468E+00
        -11   -1    0    0    0    0  0.00000000000E+00  0.00000000000E+00  0.45593999997E+02  0.45594000000E+02  0.51100000000E-03 0.  1.
         11   -1    0    0    0    0 -0.00000000000E+00 -0.00000000000E+00 -0.45593999997E+02  0.45594000000E+02  0.51100000000E-03 0. -1.
    9900012    2    1    2    0    0  0.15414965959E+02  0.26313672702E+02 -0.33152415667E+02  0.46142320839E+02  0.10000028063E+02 0.  0.
        -12    1    1    2    0    0 -0.15414965959E+02 -0.26313672702E+02  0.33152415667E+02  0.45045679161E+02  0.00000000000E+00 0.  1.
         11    1    3    3    0    0  0.12500688080E+02  0.13824131937E+02 -0.18960110697E+02  0.26586831781E+02  0.51100000000E-03 0. -1.
        -11    1    3    3    0    0 -0.61105653580E+00  0.16451302416E+00 -0.61018286422E+00  0.87907793396E+00  0.51100000000E-03 0.  1.
        -12    1    3    3    0    0  0.35253344150E+01  0.12325027741E+02 -0.13582122106E+02  0.18676411123E+02  0.00000000000E+00 0.  1.
</event>
<event>
 7    1  0.4047706E-008  0.4614232E+02  0.7816164E-02  0.1320468E+00
        -11   -1    0    0    0    0  0.00000000000E+00  0.00000000000E+00  0.45593999997E+02  0.45594000000E+02  0.51100000000E-03 0.  1.
         11   -1    0    0    0    0 -0.00000000000E+00 -0.00000000000E+00 -0.45593999997E+02  0.45594000000E+02  0.51100000000E-03 0. -1.
    9900012    2    1    2    0    0 -0.15292176155E+02 -0.11760025377E+01 -0.42354218649E+02  0.46142317955E+02  0.10000001767E+02 0.  0.
        -12    1    1    2    0    0  0.15292176155E+02  0.11760025377E+01  0.42354218649E+02  0.45045682045E+02  0.00000000000E+00 0.  1.
         11    1    3    3    0    0 -0.27188579366E+01 -0.74802926427E+00 -0.10140479959E+02  0.10525258682E+02  0.51100000000E-03 0.  1.
        -11    1    3    3    0    0 -0.61888228203E+01  0.36313029337E+01 -0.11392881148E+02  0.13464235218E+02  0.51100000000E-03 0. -1.
         12    1    3    3    0    0 -0.63844953982E+01 -0.40592762071E+01 -0.20820857542E+02  0.22152824055E+02  0.00000000000E+00 0. -1.
</event>
<event>
 7    1  0.4047706E-008  0.4614232E+02  0.7816164E-02  0.1320468E+00
        -11   -1    0    0    0    0  0.00000000000E+00  0.00000000000E+00  0.45593999997E+02  0.45594000000E+02  0.51100000000E-03 0.  1.
         11   -1    0    0    0    0 -0.00000000000E+00 -0.00000000000E+00 -0.45593999997E+02  0.45594000000E+02  0.51100000000E-03 0. -1.
    9900012    2    1    2    0    0 -0.48646645407E+01 -0.11766289593E+02 -0.43208830235E+02  0.46142317164E+02  0.99999945585E+01 0.  0.
        -12    1    1    2    0    0  0.48646645407E+01  0.11766289593E+02  0.43208830235E+02  0.45045682836E+02  0.00000000000E+00 0.  1.
         11    1    3    3    0    0 -0.25784247074E+01 -0.73331812659E+01 -0.15209460308E+02  0.17080734895E+02  0.51100000000E-03 0. -1.
        -11    1    3    3    0    0 -0.38075092331E+01 -0.16499159558E+01 -0.10751604345E+02  0.11524597410E+02  0.51100000000E-03 0.  1.
         12    1    3    3    0    0  0.15212693997E+01 -0.27831923716E+01 -0.17247765582E+02  0.17536984859E+02  0.00000000000E+00 0. -1.
</event>
<event>
 7    1  0.4047706E-008  0.4614232E+02  0.7816164E-02  0.1320468E+00
        -11   -1    0    0    0    0  0.00000000000E+00  0.00000000000E+00  0.45593999997E+02  0.45594000000E+02  0.51100000000E-03 0. -1.
         11   -1    0    0    0    0 -0.00000000000E+00 -0.00000000000E+00 -0.45593999997E+02  0.45594000000E+02  0.51100000000E-03 0.  1.
    9900012    2    1    2    0    0 -0.18794061161E+02 -0.40935832881E+02  0.39280048105E+00  0.46142318289E+02  0.10000004818E+02 0.  0.
        -12    1    1    2    0    0  0.18794061161E+02  0.40935832881E+02 -0.39280048105E+00  0.45045681711E+02  0.00000000000E+00 0.  1.
         11    1    3    3    0    0 -0.14189012301E+01 -0.70257936276E+01 -0.70317139063E+00  0.72020488101E+01  0.51100000000E-03 0.  1.
        -11    1    3    3    0    0 -0.67141063790E+01 -0.21269936832E+02  0.18981749122E+01  0.22385095613E+02  0.51100000000E-03 0. -1.
         12    1    3    3    0    0 -0.10661053552E+02 -0.12640102421E+02 -0.80220304057E+00  0.16555173867E+02  0.00000000000E+00 0. -1.
</event>
<event>
 7    1  0.5264256E-008  0.4614232E+02  0.7816164E-02  0.1320468E+00
        -11   -1    0    0    0    0  0.00000000000E+00  0.00000000000E+00  0.45593999997E+02  0.45594000000E+02  0.51100000000E-03 0. -1.
         11   -1    0    0    0    0 -0.00000000000E+00 -0.00000000000E+00 -0.45593999997E+02  0.45594000000E+02  0.51100000000E-03 0.  1.
    9900012    2    1    2    0    0 -0.41784683546E+02 -0.36894879368E+00  0.16823113268E+02  0.46142322712E+02  0.10000045148E+02 0.  0.
        -12    1    1    2    0    0  0.41784683546E+02  0.36894879368E+00 -0.16823113268E+02  0.45045677288E+02  0.00000000000E+00 0.  1.
         11    1    3    3    0    0 -0.19340853235E+02 -0.15360735143E+00  0.60214585386E+01  0.20257101527E+02  0.51100000000E-03 0. -1.
        -11    1    3    3    0    0 -0.21515134824E+02 -0.79944605839E+00  0.81593969849E+01  0.23024245914E+02  0.51100000000E-03 0.  1.
        -12    1    3    3    0    0 -0.92869548683E+00  0.58410461615E+00  0.26422577447E+01  0.28609752707E+01  0.00000000000E+00 0.  1.
</event>
<event>
 7    1  0.4047706E-008  0.4614232E+02  0.7816164E-02  0.1320468E+00
        -11   -1    0    0    0    0  0.00000000000E+00  0.00000000000E+00  0.45593999997E+02  0.45594000000E+02  0.51100000000E-03 0. -1.
         11   -1    0    0    0    0 -0.00000000000E+00 -0.00000000000E+00 -0.45593999997E+02  0.45594000000E+02  0.51100000000E-03 0.  1.
    9900012    2    1    2    0    0  0.30906224922E+02 -0.19246474832E+02  0.26523427441E+02  0.46142315016E+02  0.99999749718E+01 0.  0.
        -12    1    1    2    0    0 -0.30906224922E+02  0.19246474832E+02 -0.26523427441E+02  0.45045684984E+02  0.00000000000E+00 0.  1.
         11    1    3    3    0    0  0.16602457069E+02 -0.11640836495E+02  0.19334775476E+02  0.28017569452E+02  0.51100000000E-03 0. -1.
        -11    1    3    3    0    0  0.31457202012E+01 -0.24697210231E-01  0.12332588784E+01  0.33789189483E+01  0.51100000000E-03 0.  1.
        -12    1    3    3    0    0  0.11158047652E+02 -0.75809411275E+01  0.59553930869E+01  0.14745826616E+02  0.00000000000E+00 0.  1.
</event>
<event>
 7    1  0.4047706E-008  0.4614232E+02  0.7816164E-02  0.1320468E+00
        -11   -1    0    0    0    0  0.00000000000E+00  0.00000000000E+00  0.45593999997E+02  0.45594000000E+02  0.51100000000E-03 0.  1.
         11   -1    0    0    0    0 -0.00000000000E+00 -0.00000000000E+00 -0.45593999997E+02  0.45594000000E+02  0.51100000000E-03 0. -1.
    9900012    2    1    2    0    0  0.21521759151E+02  0.11765157600E+02 -0.37782383931E+02  0.46142316679E+02  0.99999901348E+01 0.  0.
        -12    1    1    2    0    0 -0.21521759151E+02 -0.11765157600E+02  0.37782383931E+02  0.45045683321E+02  0.00000000000E+00 0.  1.
         11    1    3    3    0    0 -0.50207725265E-01  0.11758999760E+01 -0.50858406245E+01  0.52202525502E+01  0.51100000000E-03 0. -1.
        -11    1    3    3    0    0  0.37866108023E+01  0.25690721381E+00 -0.32129390651E+01  0.49726653197E+01  0.51100000000E-03 0.  1.
        -12    1    3    3    0    0  0.17785356074E+02  0.10332350410E+02 -0.29483604242E+02  0.35949398809E+02  0.00000000000E+00 0.  1.
</event>
<event>
 7    1  0.4047706E-008  0.4614232E+02  0.7816164E-02  0.1320468E+00
        -11   -1    0    0    0    0  0.00000000000E+00  0.00000000000E+00  0.45593999997E+02  0.45594000000E+02  0.51100000000E-03 0.  1.
         11   -1    0    0    0    0 -0.00000000000E+00 -0.00000000000E+00 -0.45593999997E+02  0.45594000000E+02  0.51100000000E-03 0. -1.
    9900012    2    1    2    0    0 -0.39165346388E+02  0.15588366296E+02 -0.15880543688E+02  0.46142321081E+02  0.10000030270E+02 0.  0.
        -12    1    1    2    0    0  0.39165346388E+02 -0.15588366296E+02  0.15880543688E+02  0.45045678919E+02  0.00000000000E+00 0.  1.
         11    1    3    3    0    0 -0.13477755665E+02  0.43334995240E+01 -0.91112518356E+01  0.16835795976E+02  0.51100000000E-03 0. -1.
        -11    1    3    3    0    0 -0.38319933110E+01  0.12410888575E+00  0.10231342363E+00  0.38353675246E+01  0.51100000000E-03 0.  1.
         12    1    3    3    0    0 -0.21855597412E+02  0.11130757887E+02 -0.68716052758E+01  0.25471157580E+02  0.00000000000E+00 0. -1.
</event>
<event>
 7    1  0.4047706E-008  0.4614232E+02  0.7816164E-02  0.1320468E+00
        -11   -1    0    0    0    0  0.00000000000E+00  0.00000000000E+00  0.45593999997E+02  0.45594000000E+02  0.51100000000E-03 0. -1.
         11   -1    0    0    0    0 -0.00000000000E+00 -0.00000000000E+00 -0.45593999997E+02  0.45594000000E+02  0.51100000000E-03 0.  1.
    9900012    2    1    2    0    0 -0.14665711619E+02  0.23769232249E+02  0.35341958215E+02  0.46142317527E+02  0.99999978610E+01 0.  0.
        -12    1    1    2    0    0  0.14665711619E+02 -0.23769232249E+02 -0.35341958215E+02  0.45045682473E+02  0.00000000000E+00 0.  1.
         11    1    3    3    0    0 -0.18540346539E+01  0.13227365735E+00  0.10244134812E+01  0.21223487130E+01  0.51100000000E-03 0. -1.
        -11    1    3    3    0    0 -0.61229190945E+00  0.41028762368E+01  0.28837581827E+01  0.50521833215E+01  0.51100000000E-03 0.  1.
         12    1    3    3    0    0 -0.12199385056E+02  0.19534082355E+02  0.31433786551E+02  0.38967785492E+02  0.00000000000E+00 0. -1.
</event>
<event>
 7    1  0.4047706E-008  0.4614232E+02  0.7816164E-02  0.1320468E+00
        -11   -1    0    0    0    0  0.00000000000E+00  0.00000000000E+00  0.45593999997E+02  0.45594000000E+02  0.51100000000E-03 0.  1.
         11   -1    0    0    0    0 -0.00000000000E+00 -0.00000000000E+00 -0.45593999997E+02  0.45594000000E+02  0.51100000000E-03 0. -1.
    9900012    2    1    2    0    0  0.45582141402E+01  0.41393911645E+02  0.17172077828E+02  0.46142317695E+02  0.99999993964E+01 0.  0.
        -12    1    1    2    0    0 -0.45582141402E+01 -0.41393911645E+02 -0.17172077828E+02  0.45045682305E+02  0.00000000000E+00 0.  1.
         11    1    3    3    0    0  0.51082918342E+00  0.11186587447E+02  0.76867485205E+00  0.11224595603E+02  0.51100000000E-03 0. -1.
        -11    1    3    3    0    0  0.22264461964E+01  0.66671531096E+01  0.22048189815E+01  0.73667645717E+01  0.51100000000E-03 0.  1.
        -12    1    3    3    0    0  0.18209387604E+01  0.23540171088E+02  0.14198583994E+02  0.27550957520E+02  0.00000000000E+00 0.  1.
</event>
<event>
 7    1  0.4047706E-008  0.4614232E+02  0.7816164E-02  0.1320468E+00
        -11   -1    0    0    0    0  0.00000000000E+00  0.00000000000E+00  0.45593999997E+02  0.45594000000E+02  0.51100000000E-03 0.  1.
         11   -1    0    0    0    0 -0.00000000000E+00 -0.00000000000E+00 -0.45593999997E+02  0.45594000000E+02  0.51100000000E-03 0. -1.
    9900012    2    1    2    0    0 -0.35944522751E+02 -0.25632446701E+02  0.89488847363E+01  0.46142316770E+02  0.99999909582E+01 0.  0.
        -12    1    1    2    0    0  0.35944522751E+02  0.25632446701E+02 -0.89488847363E+01  0.45045683230E+02  0.00000000000E+00 0.  1.
         11    1    3    3    0    0 -0.15241398660E+02 -0.96104370946E+01  0.30016289031E+01  0.18266650229E+02  0.51100000000E-03 0. -1.
        -11    1    3    3    0    0 -0.51500155963E+01 -0.55060486138E+00  0.21679555718E+01  0.56147892194E+01  0.51100000000E-03 0.  1.
        -12    1    3    3    0    0 -0.15553108494E+02 -0.15471404745E+02  0.37793002614E+01  0.22260877321E+02  0.00000000000E+00 0.  1.
</event>
<event>
 7    1  0.4047706E-008  0.4614232E+02  0.7816164E-02  0.1320468E+00
        -11   -1    0    0    0    0  0.00000000000E+00  0.00000000000E+00  0.45593999997E+02  0.45594000000E+02  0.51100000000E-03 0. -1.
         11   -1    0    0    0    0 -0.00000000000E+00 -0.00000000000E+00 -0.45593999997E+02  0.45594000000E+02  0.51100000000E-03 0.  1.
    9900012    2    1    2    0    0  0.36611310420E+02  0.22817720702E+02  0.12964456945E+02  0.46142316827E+02  0.99999914795E+01 0.  0.
        -12    1    1    2    0    0 -0.36611310420E+02 -0.22817720702E+02 -0.12964456945E+02  0.45045683173E+02  0.00000000000E+00 0.  1.
         11    1    3    3    0    0  0.12779925272E+02  0.11600994089E+02  0.50605859456E+01  0.17986636266E+02  0.51100000000E-03 0. -1.
        -11    1    3    3    0    0  0.49955395862E+01 -0.19070881090E+00  0.12874578582E+01  0.51622992557E+01  0.51100000000E-03 0.  1.
        -12    1    3    3    0    0  0.18835845561E+02  0.11407435424E+02  0.66164131409E+01  0.22993381305E+02  0.00000000000E+00 0.  1.
</event>
<event>
 7    1  0.4047706E-008  0.4614232E+02  0.7816164E-02  0.1320468E+00
        -11   -1    0    0    0    0  0.00000000000E+00  0.00000000000E+00  0.45593999997E+02  0.45594000000E+02  0.51100000000E-03 0.  1.
         11   -1    0    0    0    0 -0.00000000000E+00 -0.00000000000E+00 -0.45593999997E+02  0.45594000000E+02  0.51100000000E-03 0. -1.
    9900012    2    1    2    0    0 -0.26093694128E+02  0.17361274176E+02 -0.32354579539E+02  0.46142317284E+02  0.99999956459E+01 0.  0.
        -12    1    1    2    0    0  0.26093694128E+02 -0.17361274176E+02  0.32354579539E+02  0.45045682716E+02  0.00000000000E+00 0.  1.
         11    1    3    3    0    0 -0.59103868146E+01  0.42433553693E+01 -0.84956515635E+01  0.11185474189E+02  0.51100000000E-03 0. -1.
        -11    1    3    3    0    0 -0.13378489961E+02  0.10748799000E+02 -0.11524710896E+02  0.20672194733E+02  0.51100000000E-03 0.  1.
        -12    1    3    3    0    0 -0.68048173521E+01  0.23691198069E+01 -0.12334217079E+02  0.14284648361E+02  0.00000000000E+00 0.  1.
</event>
<event>
 7    1  0.4047706E-008  0.4614232E+02  0.7816164E-02  0.1320468E+00
        -11   -1    0    0    0    0  0.00000000000E+00  0.00000000000E+00  0.45593999997E+02  0.45594000000E+02  0.51100000000E-03 0.  1.
         11   -1    0    0    0    0 -0.00000000000E+00 -0.00000000000E+00 -0.45593999997E+02  0.45594000000E+02  0.51100000000E-03 0. -1.
    9900012    2    1    2    0    0 -0.35079632926E+02 -0.45896583883E+01 -0.27883111250E+02  0.46142317596E+02  0.99999984902E+01 0.  0.
        -12    1    1    2    0    0  0.35079632926E+02  0.45896583883E+01  0.27883111250E+02  0.45045682404E+02  0.00000000000E+00 0.  1.
         11    1    3    3    0    0 -0.87294932074E+01  0.52445452351E+00 -0.90337592778E+01  0.12573301522E+02  0.51100000000E-03 0. -1.
        -11    1    3    3    0    0 -0.52382351256E+01  0.18265175775E+01 -0.34825850834E+01  0.65500895274E+01  0.51100000000E-03 0.  1.
        -12    1    3    3    0    0 -0.21111904593E+02 -0.69406304894E+01 -0.15366766888E+02  0.27018926547E+02  0.00000000000E+00 0.  1.
</event>
<event>
 7    1  0.4047706E-008  0.4614232E+02  0.7816164E-02  0.1320468E+00
        -11   -1    0    0    0    0  0.00000000000E+00  0.00000000000E+00  0.45593999997E+02  0.45594000000E+02  0.51100000000E-03 0.  1.
         11   -1    0    0    0    0 -0.00000000000E+00 -0.00000000000E+00 -0.45593999997E+02  0.45594000000E+02  0.51100000000E-03 0. -1.
    9900012    2    1    2    0    0  0.27842105269E+02 -0.29396109131E+02 -0.19743338979E+02  0.46142317722E+02  0.99999996436E+01 0.  0.
        -12    1    1    2    0    0 -0.27842105269E+02  0.29396109131E+02  0.19743338979E+02  0.45045682278E+02  0.00000000000E+00 0.  1.
         11    1    3    3    0    0  0.96196247226E+01 -0.54682038398E+01 -0.61364145416E+01  0.12652826432E+02  0.51100000000E-03 0. -1.
        -11    1    3    3    0    0  0.11984527307E+02 -0.12041500556E+02 -0.94308785534E+01  0.19431111676E+02  0.51100000000E-03 0.  1.
        -12    1    3    3    0    0  0.62379532394E+01 -0.11886404735E+02 -0.41760458840E+01  0.14058379614E+02  0.00000000000E+00 0.  1.
</event>
<event>
 7    1  0.4047706E-008  0.4614232E+02  0.7816164E-02  0.1320468E+00
        -11   -1    0    0    0    0  0.00000000000E+00  0.00000000000E+00  0.45593999997E+02  0.45594000000E+02  0.51100000000E-03 0.  1.
         11   -1    0    0    0    0 -0.00000000000E+00 -0.00000000000E+00 -0.45593999997E+02  0.45594000000E+02  0.51100000000E-03 0. -1.
    9900012    2    1    2    0    0 -0.42605666249E+02  0.14603119041E+02 -0.78717403993E+00  0.46142317352E+02  0.99999962674E+01 0.  0.
        -12    1    1    2    0    0  0.42605666249E+02 -0.14603119041E+02  0.78717403993E+00  0.45045682648E+02  0.00000000000E+00 0.  1.
         11    1    3    3    0    0 -0.31056888703E+02  0.10585511801E+02  0.37068152265E+01  0.33020052625E+02  0.51100000000E-03 0. -1.
        -11    1    3    3    0    0 -0.15792983570E+01  0.34419761519E+00 -0.11500645205E+01  0.19837600564E+01  0.51100000000E-03 0.  1.
         12    1    3    3    0    0 -0.99694791894E+01  0.36734096248E+01 -0.33439247458E+01  0.11138504670E+02  0.00000000000E+00 0. -1.
</event>
<event>
 7    1  0.4047706E-008  0.4614232E+02  0.7816164E-02  0.1320468E+00
        -11   -1    0    0    0    0  0.00000000000E+00  0.00000000000E+00  0.45593999997E+02  0.45594000000E+02  0.51100000000E-03 0.  1.
         11   -1    0    0    0    0 -0.00000000000E+00 -0.00000000000E+00 -0.45593999997E+02  0.45594000000E+02  0.51100000000E-03 0. -1.
    9900012    2    1    2    0    0 -0.84392926872E+01 -0.96177830920E+01 -0.43190162162E+02  0.46142317407E+02  0.99999967723E+01 0.  0.
        -12    1    1    2    0    0  0.84392926872E+01  0.96177830920E+01  0.43190162162E+02  0.45045682593E+02  0.00000000000E+00 0.  1.
         11    1    3    3    0    0 -0.11322619488E+01 -0.78975362217E+00 -0.17734484704E+01  0.22474090955E+01  0.51100000000E-03 0. -1.
        -11    1    3    3    0    0 -0.61771813098E+01 -0.40912987556E+01 -0.12188338012E+02  0.14263655850E+02  0.51100000000E-03 0.  1.
         12    1    3    3    0    0 -0.11298494285E+01 -0.47367307142E+01 -0.29228375679E+02  0.29631252462E+02  0.00000000000E+00 0. -1.
</event>
<event>
 7    1  0.4047706E-008  0.4614232E+02  0.7816164E-02  0.1320468E+00
        -11   -1    0    0    0    0  0.00000000000E+00  0.00000000000E+00  0.45593999997E+02  0.45594000000E+02  0.51100000000E-03 0.  1.
         11   -1    0    0    0    0 -0.00000000000E+00 -0.00000000000E+00 -0.45593999997E+02  0.45594000000E+02  0.51100000000E-03 0. -1.
    9900012    2    1    2    0    0 -0.24025845752E+02 -0.34384018554E+02 -0.16419851062E+02  0.46142317577E+02  0.99999983239E+01 0.  0.
        -12    1    1    2    0    0  0.24025845752E+02  0.34384018554E+02  0.16419851062E+02  0.45045682423E+02  0.00000000000E+00 0.  1.
         11    1    3    3    0    0 -0.38284631388E+01 -0.50980665366E+01 -0.24506351164E+01  0.68303019810E+01  0.51100000000E-03 0. -1.
        -11    1    3    3    0    0  0.98448513947E+00 -0.17031041202E+01 -0.66728149771E+00  0.20772673137E+01  0.51100000000E-03 0.  1.
        -12    1    3    3    0    0 -0.21181867753E+02 -0.27582847898E+02 -0.13301934448E+02  0.37234748283E+02  0.00000000000E+00 0.  1.
</event>
<event>
 7    1  0.4047706E-008  0.4614232E+02  0.7816164E-02  0.1320468E+00
        -11   -1    0    0    0    0  0.00000000000E+00  0.00000000000E+00  0.45593999997E+02  0.45594000000E+02  0.51100000000E-03 0. -1.
         11   -1    0    0    0    0 -0.00000000000E+00 -0.00000000000E+00 -0.45593999997E+02  0.45594000000E+02  0.51100000000E-03 0.  1.
    9900012    2    1    2    0    0  0.12998389249E+02 -0.43031895130E+02  0.29002486966E+01  0.46142316921E+02  0.99999923421E+01 0.  0.
        -12    1    1    2    0    0 -0.12998389249E+02  0.43031895130E+02 -0.29002486966E+01  0.45045683079E+02  0.00000000000E+00 0.  1.
         11    1    3    3    0    0  0.64394003621E+01 -0.14895918194E+02  0.40859713484E+01  0.16734677110E+02  0.51100000000E-03 0. -1.
        -11    1    3    3    0    0  0.38344660830E+01 -0.11213220710E+02 -0.28432110325E+01  0.12187013501E+02  0.51100000000E-03 0.  1.
         12    1    3    3    0    0  0.27245228044E+01 -0.16922756226E+02  0.16574883806E+01  0.17220626310E+02  0.00000000000E+00 0. -1.
</event>
<event>
 7    1  0.4047706E-008  0.4614232E+02  0.7816164E-02  0.1320468E+00
        -11   -1    0    0    0    0  0.00000000000E+00  0.00000000000E+00  0.45593999997E+02  0.45594000000E+02  0.51100000000E-03 0. -1.
         11   -1    0    0    0    0 -0.00000000000E+00 -0.00000000000E+00 -0.45593999997E+02  0.45594000000E+02  0.51100000000E-03 0.  1.
    9900012    2    1    2    0    0  0.26395658621E+02  0.23059437574E+02  0.28295674323E+02  0.46142316071E+02  0.99999845871E+01 0.  0.
        -12    1    1    2    0    0 -0.26395658621E+02 -0.23059437574E+02 -0.28295674323E+02  0.45045683929E+02  0.00000000000E+00 0.  1.
         11    1    3    3    0    0  0.96954369886E+00  0.16637164569E+01  0.10444093021E+01  0.21906068758E+01  0.51100000000E-03 0. -1.
        -11    1    3    3    0    0  0.27208025255E+01  0.72191599256E+01  0.59480131580E+01  0.97415551738E+01  0.51100000000E-03 0.  1.
         12    1    3    3    0    0  0.22705312396E+02  0.14176561192E+02  0.21303251863E+02  0.34210154021E+02  0.00000000000E+00 0. -1.
</event>
<event>
 7    1  0.4047706E-008  0.4614233E+02  0.7816164E-02  0.1320468E+00
        -11   -1    0    0    0    0  0.00000000000E+00  0.00000000000E+00  0.45593999997E+02  0.45594000000E+02  0.51100000000E-03 0.  1.
         11   -1    0    0    0    0 -0.00000000000E+00 -0.00000000000E+00 -0.45593999997E+02  0.45594000000E+02  0.51100000000E-03 0. -1.
    9900012    2    1    2    0    0  0.33437022365E+02 -0.29797160928E+02 -0.48174199983E+01  0.46142325409E+02  0.10000069735E+02 0.  0.
        -12    1    1    2    0    0 -0.33437022365E+02  0.29797160928E+02  0.48174199983E+01  0.45045674591E+02  0.00000000000E+00 0.  1.
         11    1    3    3    0    0  0.19107552329E+02 -0.11395302310E+02 -0.14899607922E+01  0.22297341863E+02  0.51100000000E-03 0. -1.
        -11    1    3    3    0    0  0.78805513324E+01 -0.81356695560E+01 -0.21711002522E+00  0.11328695664E+02  0.51100000000E-03 0.  1.
         12    1    3    3    0    0  0.64489187029E+01 -0.10266189062E+02 -0.31103491810E+01  0.12516287881E+02  0.00000000000E+00 0. -1.
</event>
<event>
 7    1  0.4047706E-008  0.4614232E+02  0.7816164E-02  0.1320468E+00
        -11   -1    0    0    0    0  0.00000000000E+00  0.00000000000E+00  0.45593999997E+02  0.45594000000E+02  0.51100000000E-03 0. -1.
         11   -1    0    0    0    0 -0.00000000000E+00 -0.00000000000E+00 -0.45593999997E+02  0.45594000000E+02  0.51100000000E-03 0.  1.
    9900012    2    1    2    0    0  0.99997861409E+00  0.33954837678E+02  0.29583483273E+02  0.46142318281E+02  0.10000004739E+02 0.  0.
        -12    1    1    2    0    0 -0.99997861409E+00 -0.33954837678E+02 -0.29583483273E+02  0.45045681719E+02  0.00000000000E+00 0.  1.
         11    1    3    3    0    0  0.44943096571E+00  0.32603720818E+01  0.59567748330E+01  0.68055257679E+01  0.51100000000E-03 0. -1.
        -11    1    3    3    0    0 -0.26513786791E+00  0.68536893781E+01  0.20165599918E+01  0.71491167736E+01  0.51100000000E-03 0.  1.
        -12    1    3    3    0    0  0.81568551630E+00  0.23840776218E+02  0.21610148448E+02  0.32187675739E+02  0.00000000000E+00 0.  1.
</event>
<event>
 7    1  0.4047706E-008  0.4614232E+02  0.7816164E-02  0.1320468E+00
        -11   -1    0    0    0    0  0.00000000000E+00  0.00000000000E+00  0.45593999997E+02  0.45594000000E+02  0.51100000000E-03 0.  1.
         11   -1    0    0    0    0 -0.00000000000E+00 -0.00000000000E+00 -0.45593999997E+02  0.45594000000E+02  0.51100000000E-03 0. -1.
    9900012    2    1    2    0    0 -0.18066037117E+02 -0.22682945528E+02 -0.34470506940E+02  0.46142316926E+02  0.99999923845E+01 0.  0.
        -12    1    1    2    0    0  0.18066037117E+02  0.22682945528E+02  0.34470506940E+02  0.45045683074E+02  0.00000000000E+00 0.  1.
         11    1    3    3    0    0 -0.17518701347E+01 -0.57727960095E+01 -0.43537679760E+01  0.74397257063E+01  0.51100000000E-03 0. -1.
        -11    1    3    3    0    0 -0.31432740135E+01 -0.70851177657E+01 -0.78776226066E+01  0.11051515890E+02  0.51100000000E-03 0.  1.
         12    1    3    3    0    0 -0.13170892968E+02 -0.98250317530E+01 -0.22239116357E+02  0.27651075329E+02  0.00000000000E+00 0. -1.
</event>
<event>
 7    1  0.4047706E-008  0.4614232E+02  0.7816164E-02  0.1320468E+00
        -11   -1    0    0    0    0  0.00000000000E+00  0.00000000000E+00  0.45593999997E+02  0.45594000000E+02  0.51100000000E-03 0.  1.
         11   -1    0    0    0    0 -0.00000000000E+00 -0.00000000000E+00 -0.45593999997E+02  0.45594000000E+02  0.51100000000E-03 0. -1.
    9900012    2    1    2    0    0  0.56282555645E+01  0.28233187023E+02 -0.34645683281E+02  0.46142317852E+02  0.10000000829E+02 0.  0.
        -12    1    1    2    0    0 -0.56282555645E+01 -0.28233187023E+02  0.34645683281E+02  0.45045682148E+02  0.00000000000E+00 0.  1.
         11    1    3    3    0    0  0.66296647743E+01  0.14716952238E+02 -0.20156148149E+02  0.25822692475E+02  0.51100000000E-03 0. -1.
        -11    1    3    3    0    0  0.11655701074E+01  0.22836955408E+01 -0.42665872772E+01  0.49777089362E+01  0.51100000000E-03 0.  1.
        -12    1    3    3    0    0 -0.21669793172E+01  0.11232539244E+02 -0.10222947854E+02  0.15341916440E+02  0.00000000000E+00 0.  1.
</event>
<event>
 7    1  0.4047706E-008  0.4614233E+02  0.7816164E-02  0.1320468E+00
        -11   -1    0    0    0    0  0.00000000000E+00  0.00000000000E+00  0.45593999997E+02  0.45594000000E+02  0.51100000000E-03 0.  1.
         11   -1    0    0    0    0 -0.00000000000E+00 -0.00000000000E+00 -0.45593999997E+02  0.45594000000E+02  0.51100000000E-03 0. -1.
    9900012    2    1    2    0    0 -0.52905025944E+01  0.10832853884E+02 -0.43402445246E+02  0.46142329905E+02  0.10000110741E+02 0.  0.
        -12    1    1    2    0    0  0.52905025944E+01 -0.10832853884E+02  0.43402445246E+02  0.45045670095E+02  0.00000000000E+00 0.  1.
         11    1    3    3    0    0 -0.11510994621E+01  0.75280423085E+01 -0.17685328270E+02  0.19255318414E+02  0.51100000000E-03 0. -1.
        -11    1    3    3    0    0 -0.11466834668E+01  0.19861308113E+01 -0.21126460997E+02  0.21250575359E+02  0.51100000000E-03 0.  1.
        -12    1    3    3    0    0 -0.29927196655E+01  0.13186807641E+01 -0.45906559793E+01  0.56364361324E+01  0.00000000000E+00 0.  1.
</event>
<event>
 7    1  0.4047706E-008  0.4614232E+02  0.7816164E-02  0.1320468E+00
        -11   -1    0    0    0    0  0.00000000000E+00  0.00000000000E+00  0.45593999997E+02  0.45594000000E+02  0.51100000000E-03 0.  1.
         11   -1    0    0    0    0 -0.00000000000E+00 -0.00000000000E+00 -0.45593999997E+02  0.45594000000E+02  0.51100000000E-03 0. -1.
    9900012    2    1    2    0    0 -0.94717119466E+01  0.31024524549E+02 -0.31255056242E+02  0.46142323277E+02  0.10000050298E+02 0.  0.
        -12    1    1    2    0    0  0.94717119466E+01 -0.31024524549E+02  0.31255056242E+02  0.45045676723E+02  0.00000000000E+00 0.  1.
         11    1    3    3    0    0 -0.56077173261E+01  0.23117296569E+02 -0.20407634972E+02  0.31342103626E+02  0.51100000000E-03 0. -1.
        -11    1    3    3    0    0  0.68295007798E-01  0.47458381059E+01 -0.69897830067E+01  0.84489472881E+01  0.51100000000E-03 0.  1.
        -12    1    3    3    0    0 -0.39322896283E+01  0.31613898747E+01 -0.38576382632E+01  0.63512723631E+01  0.00000000000E+00 0.  1.
</event>
<event>
 7    1  0.4047706E-008  0.4614232E+02  0.7816164E-02  0.1320468E+00
        -11   -1    0    0    0    0  0.00000000000E+00  0.00000000000E+00  0.45593999997E+02  0.45594000000E+02  0.51100000000E-03 0. -1.
         11   -1    0    0    0    0 -0.00000000000E+00 -0.00000000000E+00 -0.45593999997E+02  0.45594000000E+02  0.51100000000E-03 0.  1.
    9900012    2    1    2    0    0 -0.90145865582E+01  0.42543953918E+02  0.11741493738E+02  0.46142318065E+02  0.10000002775E+02 0.  0.
        -12    1    1    2    0    0  0.90145865582E+01 -0.42543953918E+02 -0.11741493738E+02  0.45045681935E+02  0.00000000000E+00 0.  1.
         11    1    3    3    0    0 -0.50334280598E+01  0.25458976910E+02  0.81147169074E+01  0.27190872257E+02  0.51100000000E-03 0. -1.
        -11    1    3    3    0    0 -0.24513186306E+01  0.15932580063E+02  0.16586093435E+01  0.16205155220E+02  0.51100000000E-03 0.  1.
         12    1    3    3    0    0 -0.15298398679E+01  0.11523969444E+01  0.19681674870E+01  0.27462905884E+01  0.00000000000E+00 0. -1.
</event>
<event>
 7    1  0.4047706E-008  0.4614232E+02  0.7816164E-02  0.1320468E+00
        -11   -1    0    0    0    0  0.00000000000E+00  0.00000000000E+00  0.45593999997E+02  0.45594000000E+02  0.51100000000E-03 0.  1.
         11   -1    0    0    0    0 -0.00000000000E+00 -0.00000000000E+00 -0.45593999997E+02  0.45594000000E+02  0.51100000000E-03 0. -1.
    9900012    2    1    2    0    0  0.19479086211E+01  0.16577508576E+02 -0.41839042885E+02  0.46142315988E+02  0.99999838336E+01 0.  0.
        -12    1    1    2    0    0 -0.19479086211E+01 -0.16577508576E+02  0.41839042885E+02  0.45045684012E+02  0.00000000000E+00 0.  1.
         11    1    3    3    0    0  0.26482829738E+01  0.10880068818E+02 -0.23507394528E+02  0.26038181540E+02  0.51100000000E-03 0. -1.
        -11    1    3    3    0    0 -0.22614360547E+01  0.46411084318E+01 -0.74719276804E+01  0.90820528532E+01  0.51100000000E-03 0.  1.
         12    1    3    3    0    0  0.15610617020E+01  0.10563313266E+01 -0.10859720677E+02  0.11022081595E+02  0.00000000000E+00 0. -1.
</event>
<event>
 7    1  0.4047706E-008  0.4614232E+02  0.7816164E-02  0.1320468E+00
        -11   -1    0    0    0    0  0.00000000000E+00  0.00000000000E+00  0.45593999997E+02  0.45594000000E+02  0.51100000000E-03 0. -1.
         11   -1    0    0    0    0 -0.00000000000E+00 -0.00000000000E+00 -0.45593999997E+02  0.45594000000E+02  0.51100000000E-03 0.  1.
    9900012    2    1    2    0    0  0.20762561180E+02  0.27124707191E+02  0.29364595201E+02  0.46142321647E+02  0.10000035434E+02 0.  0.
        -12    1    1    2    0    0 -0.20762561180E+02 -0.27124707191E+02 -0.29364595201E+02  0.45045678353E+02  0.00000000000E+00 0.  1.
         11    1    3    3    0    0  0.10417703643E+02  0.10602097812E+02  0.16102284247E+02  0.21913844606E+02  0.51100000000E-03 0. -1.
        -11    1    3    3    0    0  0.63457639604E+01  0.11876663374E+02  0.11851248958E+02  0.17938114596E+02  0.51100000000E-03 0.  1.
        -12    1    3    3    0    0  0.39990935767E+01  0.46459460059E+01  0.14110619956E+01  0.62903624443E+01  0.00000000000E+00 0.  1.
</event>
<event>
 7    1  0.4047706E-008  0.4614232E+02  0.7816164E-02  0.1320468E+00
        -11   -1    0    0    0    0  0.00000000000E+00  0.00000000000E+00  0.45593999997E+02  0.45594000000E+02  0.51100000000E-03 0.  1.
         11   -1    0    0    0    0 -0.00000000000E+00 -0.00000000000E+00 -0.45593999997E+02  0.45594000000E+02  0.51100000000E-03 0. -1.
    9900012    2    1    2    0    0  0.11590573718E+01 -0.17164071967E+02 -0.41631295295E+02  0.46142317317E+02  0.99999959485E+01 0.  0.
        -12    1    1    2    0    0 -0.11590573718E+01  0.17164071967E+02  0.41631295295E+02  0.45045682683E+02  0.00000000000E+00 0.  1.
         11    1    3    3    0    0  0.84355095824E+00 -0.58258853432E+01 -0.10684179641E+02  0.12198533236E+02  0.51100000000E-03 0. -1.
        -11    1    3    3    0    0  0.19687678173E+01 -0.11805139762E+02 -0.28842557725E+02  0.31227079721E+02  0.51100000000E-03 0.  1.
        -12    1    3    3    0    0 -0.16532614038E+01  0.46695313805E+00 -0.21045579279E+01  0.27167043590E+01  0.00000000000E+00 0.  1.
</event>
<event>
 7    1  0.4047706E-008  0.4614232E+02  0.7816164E-02  0.1320468E+00
        -11   -1    0    0    0    0  0.00000000000E+00  0.00000000000E+00  0.45593999997E+02  0.45594000000E+02  0.51100000000E-03 0.  1.
         11   -1    0    0    0    0 -0.00000000000E+00 -0.00000000000E+00 -0.45593999997E+02  0.45594000000E+02  0.51100000000E-03 0. -1.
    9900012    2    1    2    0    0  0.91664055293E+01 -0.29420500305E+02 -0.32856120298E+02  0.46142317969E+02  0.10000001899E+02 0.  0.
        -12    1    1    2    0    0 -0.91664055293E+01  0.29420500305E+02  0.32856120298E+02  0.45045682031E+02  0.00000000000E+00 0.  1.
         11    1    3    3    0    0 -0.60518891556E+00 -0.30266961102E+01 -0.38676734229E+01  0.49483371888E+01  0.51100000000E-03 0. -1.
        -11    1    3    3    0    0  0.30090368701E+01 -0.18912038912E+02 -0.18049143680E+02  0.26315225755E+02  0.51100000000E-03 0.  1.
         12    1    3    3    0    0  0.67625575748E+01 -0.74817652834E+01 -0.10939303196E+02  0.14878755026E+02  0.00000000000E+00 0. -1.
</event>
<event>
 7    1  0.4047706E-008  0.4614232E+02  0.7816164E-02  0.1320468E+00
        -11   -1    0    0    0    0  0.00000000000E+00  0.00000000000E+00  0.45593999997E+02  0.45594000000E+02  0.51100000000E-03 0. -1.
         11   -1    0    0    0    0 -0.00000000000E+00 -0.00000000000E+00 -0.45593999997E+02  0.45594000000E+02  0.51100000000E-03 0.  1.
    9900012    2    1    2    0    0  0.41423774157E+02  0.14217075577E+02 -0.10538460620E+02  0.46142318125E+02  0.10000003319E+02 0.  0.
        -12    1    1    2    0    0 -0.41423774157E+02 -0.14217075577E+02  0.10538460620E+02  0.45045681875E+02  0.00000000000E+00 0.  1.
         11    1    3    3    0    0  0.29729401918E+01  0.22335521899E+00 -0.29614187916E+01  0.42021735397E+01  0.51100000000E-03 0. -1.
        -11    1    3    3    0    0  0.31845264088E+02  0.11644415623E+02 -0.42267017886E+01  0.34169844429E+02  0.51100000000E-03 0.  1.
        -12    1    3    3    0    0  0.66055698769E+01  0.23493047348E+01 -0.33503400397E+01  0.77703001562E+01  0.00000000000E+00 0.  1.
</event>
<event>
 7    1  0.4047706E-008  0.4614232E+02  0.7816164E-02  0.1320468E+00
        -11   -1    0    0    0    0  0.00000000000E+00  0.00000000000E+00  0.45593999997E+02  0.45594000000E+02  0.51100000000E-03 0. -1.
         11   -1    0    0    0    0 -0.00000000000E+00 -0.00000000000E+00 -0.45593999997E+02  0.45594000000E+02  0.51100000000E-03 0.  1.
    9900012    2    1    2    0    0 -0.38720994309E+02  0.23008897448E+02 -0.62344730098E+00  0.46142318203E+02  0.10000004028E+02 0.  0.
        -12    1    1    2    0    0  0.38720994309E+02 -0.23008897448E+02  0.62344730098E+00  0.45045681797E+02  0.00000000000E+00 0.  1.
         11    1    3    3    0    0 -0.32311414124E+01  0.49625901101E+01  0.14527480239E+01  0.60973807909E+01  0.51100000000E-03 0. -1.
        -11    1    3    3    0    0 -0.20766616372E+01  0.43915748612E+00  0.52662660512E+00  0.21869427737E+01  0.51100000000E-03 0.  1.
         12    1    3    3    0    0 -0.33413191259E+02  0.17607149852E+02 -0.26028219300E+01  0.37857994638E+02  0.00000000000E+00 0. -1.
</event>
<event>
 7    1  0.4047706E-008  0.4614232E+02  0.7816164E-02  0.1320468E+00
        -11   -1    0    0    0    0  0.00000000000E+00  0.00000000000E+00  0.45593999997E+02  0.45594000000E+02  0.51100000000E-03 0.  1.
         11   -1    0    0    0    0 -0.00000000000E+00 -0.00000000000E+00 -0.45593999997E+02  0.45594000000E+02  0.51100000000E-03 0. -1.
    9900012    2    1    2    0    0 -0.23332802820E+02 -0.30274330369E+02 -0.23836083596E+02  0.46142315990E+02  0.99999838481E+01 0.  0.
        -12    1    1    2    0    0  0.23332802820E+02  0.30274330369E+02  0.23836083596E+02  0.45045684010E+02  0.00000000000E+00 0.  1.
         11    1    3    3    0    0 -0.57954476897E+00 -0.10997122647E+01  0.31343058687E+00  0.12819821365E+01  0.51100000000E-03 0. -1.
        -11    1    3    3    0    0 -0.33968398652E+01 -0.56885932603E+01 -0.80626634715E+01  0.10435763358E+02  0.51100000000E-03 0.  1.
         12    1    3    3    0    0 -0.19356418186E+02 -0.23486024844E+02 -0.16086850712E+02  0.34424570495E+02  0.00000000000E+00 0. -1.
</event>
<event>
 7    1  0.4047706E-008  0.4614232E+02  0.7816164E-02  0.1320468E+00
        -11   -1    0    0    0    0  0.00000000000E+00  0.00000000000E+00  0.45593999997E+02  0.45594000000E+02  0.51100000000E-03 0.  1.
         11   -1    0    0    0    0 -0.00000000000E+00 -0.00000000000E+00 -0.45593999997E+02  0.45594000000E+02  0.51100000000E-03 0. -1.
    9900012    2    1    2    0    0  0.13400639131E+02  0.42980670480E+02 -0.14826740107E+01  0.46142317785E+02  0.10000000215E+02 0.  0.
        -12    1    1    2    0    0 -0.13400639131E+02 -0.42980670480E+02  0.14826740107E+01  0.45045682215E+02  0.00000000000E+00 0.  1.
         11    1    3    3    0    0  0.13441662006E+02  0.37929999794E+02 -0.28639662683E+01  0.40343096868E+02  0.51100000000E-03 0. -1.
        -11    1    3    3    0    0  0.64500791370E+00  0.26725926767E+01  0.18039806185E+01  0.32883328842E+01  0.51100000000E-03 0.  1.
         12    1    3    3    0    0 -0.68603078873E+00  0.23780780093E+01 -0.42268836093E+00  0.25108880326E+01  0.00000000000E+00 0. -1.
</event>
<event>
 7    1  0.4047706E-008  0.4614232E+02  0.7816164E-02  0.1320468E+00
        -11   -1    0    0    0    0  0.00000000000E+00  0.00000000000E+00  0.45593999997E+02  0.45594000000E+02  0.51100000000E-03 0. -1.
         11   -1    0    0    0    0 -0.00000000000E+00 -0.00000000000E+00 -0.45593999997E+02  0.45594000000E+02  0.51100000000E-03 0.  1.
    9900012    2    1    2    0    0  0.34741210379E+02  0.21645067511E+02 -0.18805660268E+02  0.46142317584E+02  0.99999983887E+01 0.  0.
        -12    1    1    2    0    0 -0.34741210379E+02 -0.21645067511E+02  0.18805660268E+02  0.45045682416E+02  0.00000000000E+00 0.  1.
         11    1    3    3    0    0  0.10813463544E+02  0.66521966519E+01 -0.57185658471E+01  0.13924248982E+02  0.51100000000E-03 0. -1.
        -11    1    3    3    0    0  0.62017589367E+01  0.57845198884E+01 -0.78773655126E+01  0.11574773083E+02  0.51100000000E-03 0.  1.
        -12    1    3    3    0    0  0.17725987898E+02  0.92083509707E+01 -0.52097289080E+01  0.20643295519E+02  0.00000000000E+00 0.  1.
</event>
<event>
 7    1  0.4047706E-008  0.4614232E+02  0.7816164E-02  0.1320468E+00
        -11   -1    0    0    0    0  0.00000000000E+00  0.00000000000E+00  0.45593999997E+02  0.45594000000E+02  0.51100000000E-03 0. -1.
         11   -1    0    0    0    0 -0.00000000000E+00 -0.00000000000E+00 -0.45593999997E+02  0.45594000000E+02  0.51100000000E-03 0.  1.
    9900012    2    1    2    0    0 -0.32150952671E+02  0.22352209687E+02  0.22266751776E+02  0.46142320183E+02  0.10000022082E+02 0.  0.
        -12    1    1    2    0    0  0.32150952671E+02 -0.22352209687E+02 -0.22266751776E+02  0.45045679817E+02  0.00000000000E+00 0.  1.
         11    1    3    3    0    0 -0.26776772580E+02  0.16614418396E+02  0.19086052011E+02  0.36841713181E+02  0.51100000000E-03 0. -1.
        -11    1    3    3    0    0 -0.58741722764E+01  0.48494660587E+01  0.32439498204E+01  0.82792772441E+01  0.51100000000E-03 0.  1.
        -12    1    3    3    0    0  0.49999218599E+00  0.88832523263E+00 -0.63250055147E-01  0.10213297579E+01  0.00000000000E+00 0.  1.
</event>
<event>
 7    1  0.4047706E-008  0.4614232E+02  0.7816164E-02  0.1320468E+00
        -11   -1    0    0    0    0  0.00000000000E+00  0.00000000000E+00  0.45593999997E+02  0.45594000000E+02  0.51100000000E-03 0.  1.
         11   -1    0    0    0    0 -0.00000000000E+00 -0.00000000000E+00 -0.45593999997E+02  0.45594000000E+02  0.51100000000E-03 0. -1.
    9900012    2    1    2    0    0  0.33281163737E+01 -0.11038178854E+02 -0.43545329773E+02  0.46142317676E+02  0.99999992260E+01 0.  0.
        -12    1    1    2    0    0 -0.33281163737E+01  0.11038178854E+02  0.43545329773E+02  0.45045682324E+02  0.00000000000E+00 0.  1.
         11    1    3    3    0    0  0.15271679057E+01 -0.61114538751E+01 -0.37328857309E+02  0.37856646689E+02  0.51100000000E-03 0. -1.
        -11    1    3    3    0    0  0.10425025221E+01 -0.93741776519E+00 -0.13342618434E+01  0.19354117141E+01  0.51100000000E-03 0.  1.
         12    1    3    3    0    0  0.75844594593E+00 -0.39893072135E+01 -0.48822106208E+01  0.63502592736E+01  0.00000000000E+00 0. -1.
</event>
<event>
 7    1  0.4047706E-008  0.4614232E+02  0.7816164E-02  0.1320468E+00
        -11   -1    0    0    0    0  0.00000000000E+00  0.00000000000E+00  0.45593999997E+02  0.45594000000E+02  0.51100000000E-03 0.  1.
         11   -1    0    0    0    0 -0.00000000000E+00 -0.00000000000E+00 -0.45593999997E+02  0.45594000000E+02  0.51100000000E-03 0. -1.
    9900012    2    1    2    0    0  0.26377699780E+02  0.35858237310E+02 -0.68932756119E+01  0.46142317884E+02  0.10000001123E+02 0.  0.
        -12    1    1    2    0    0 -0.26377699780E+02 -0.35858237310E+02  0.68932756119E+01  0.45045682116E+02  0.00000000000E+00 0.  1.
         11    1    3    3    0    0  0.24412579058E+02  0.31614475739E+02 -0.63632198155E+01  0.40446750910E+02  0.51100000000E-03 0. -1.
        -11    1    3    3    0    0  0.48867633779E+00  0.13724969688E+01  0.13272592314E+01  0.19708297291E+01  0.51100000000E-03 0.  1.
         12    1    3    3    0    0  0.14764443843E+01  0.28712646020E+01 -0.18573150278E+01  0.37247372454E+01  0.00000000000E+00 0. -1.
</event>
<event>
 7    1  0.4047706E-008  0.4614232E+02  0.7816164E-02  0.1320468E+00
        -11   -1    0    0    0    0  0.00000000000E+00  0.00000000000E+00  0.45593999997E+02  0.45594000000E+02  0.51100000000E-03 0. -1.
         11   -1    0    0    0    0 -0.00000000000E+00 -0.00000000000E+00 -0.45593999997E+02  0.45594000000E+02  0.51100000000E-03 0.  1.
    9900012    2    1    2    0    0  0.24391276442E+02 -0.37645353348E+02  0.41238880549E+01  0.46142318211E+02  0.10000004102E+02 0.  0.
        -12    1    1    2    0    0 -0.24391276442E+02  0.37645353348E+02 -0.41238880549E+01  0.45045681789E+02  0.00000000000E+00 0.  1.
         11    1    3    3    0    0  0.22212495389E+02 -0.32358805213E+02  0.42958090324E+01  0.39483429458E+02  0.51100000000E-03 0. -1.
        -11    1    3    3    0    0  0.15726405585E+01 -0.53566880296E+01 -0.95738392840E+00  0.56642642258E+01  0.51100000000E-03 0.  1.
        -12    1    3    3    0    0  0.60614049381E+00  0.70139894733E-01  0.78546295088E+00  0.99462452728E+00  0.00000000000E+00 0.  1.
</event>
<event>
 7    1  0.4047706E-008  0.4614232E+02  0.7816164E-02  0.1320468E+00
        -11   -1    0    0    0    0  0.00000000000E+00  0.00000000000E+00  0.45593999997E+02  0.45594000000E+02  0.51100000000E-03 0.  1.
         11   -1    0    0    0    0 -0.00000000000E+00 -0.00000000000E+00 -0.45593999997E+02  0.45594000000E+02  0.51100000000E-03 0. -1.
    9900012    2    1    2    0    0 -0.36133275898E+02 -0.23017331608E+02 -0.13917693000E+02  0.46142319187E+02  0.10000012999E+02 0.  0.
        -12    1    1    2    0    0  0.36133275898E+02  0.23017331608E+02  0.13917693000E+02  0.45045680813E+02  0.00000000000E+00 0.  1.
         11    1    3    3    0    0 -0.24997798406E+01 -0.22398854531E+01  0.82200610736E+00  0.34556736530E+01  0.51100000000E-03 0. -1.
        -11    1    3    3    0    0 -0.35768901843E+01 -0.23809182086E+00 -0.20770850189E+01  0.41430801999E+01  0.51100000000E-03 0.  1.
         12    1    3    3    0    0 -0.30056605874E+02 -0.20539354334E+02 -0.12662614089E+02  0.38543565334E+02  0.00000000000E+00 0. -1.
</event>
<event>
 7    1  0.4047706E-008  0.4614232E+02  0.7816164E-02  0.1320468E+00
        -11   -1    0    0    0    0  0.00000000000E+00  0.00000000000E+00  0.45593999997E+02  0.45594000000E+02  0.51100000000E-03 0. -1.
         11   -1    0    0    0    0 -0.00000000000E+00 -0.00000000000E+00 -0.45593999997E+02  0.45594000000E+02  0.51100000000E-03 0.  1.
    9900012    2    1    2    0    0  0.36456274031E+02 -0.13352115647E+00  0.26458187691E+02  0.46142318298E+02  0.10000004896E+02 0.  0.
        -12    1    1    2    0    0 -0.36456274031E+02  0.13352115647E+00 -0.26458187691E+02  0.45045681702E+02  0.00000000000E+00 0.  1.
         11    1    3    3    0    0  0.14583772133E+02 -0.26719276892E+00  0.72847016342E+01  0.16304130758E+02  0.51100000000E-03 0. -1.
        -11    1    3    3    0    0  0.81969925690E+01 -0.17550063715E+01  0.38856585295E+01  0.92395387877E+01  0.51100000000E-03 0.  1.
         12    1    3    3    0    0  0.13675509329E+02  0.18886779840E+01  0.15287827527E+02  0.20598648752E+02  0.00000000000E+00 0. -1.
</event>
<event>
 7    1  0.4047706E-008  0.4614232E+02  0.7816164E-02  0.1320468E+00
        -11   -1    0    0    0    0  0.00000000000E+00  0.00000000000E+00  0.45593999997E+02  0.45594000000E+02  0.51100000000E-03 0.  1.
         11   -1    0    0    0    0 -0.00000000000E+00 -0.00000000000E+00 -0.45593999997E+02  0.45594000000E+02  0.51100000000E-03 0. -1.
    9900012    2    1    2    0    0 -0.22546939680E+02  0.37298011166E+02 -0.11384515595E+02  0.46142319617E+02  0.10000016920E+02 0.  0.
        -12    1    1    2    0    0  0.22546939680E+02 -0.37298011166E+02  0.11384515595E+02  0.45045680383E+02  0.00000000000E+00 0.  1.
         11    1    3    3    0    0 -0.61666117406E+01  0.80603071196E+01 -0.21235881058E+01  0.10368475198E+02  0.51100000000E-03 0. -1.
        -11    1    3    3    0    0 -0.12661607322E+02  0.16059831499E+02 -0.28277236419E+01  0.20645350785E+02  0.51100000000E-03 0.  1.
        -12    1    3    3    0    0 -0.37187206166E+01  0.13177872547E+02 -0.64332038471E+01  0.15128493634E+02  0.00000000000E+00 0.  1.
</event>
<event>
 7    1  0.4047706E-008  0.4614232E+02  0.7816164E-02  0.1320468E+00
        -11   -1    0    0    0    0  0.00000000000E+00  0.00000000000E+00  0.45593999997E+02  0.45594000000E+02  0.51100000000E-03 0.  1.
         11   -1    0    0    0    0 -0.00000000000E+00 -0.00000000000E+00 -0.45593999997E+02  0.45594000000E+02  0.51100000000E-03 0. -1.
    9900012    2    1    2    0    0  0.34050622777E+02  0.19596622015E+02 -0.22037262841E+02  0.46142318083E+02  0.10000002932E+02 0.  0.
        -12    1    1    2    0    0 -0.34050622777E+02 -0.19596622015E+02  0.22037262841E+02  0.45045681917E+02  0.00000000000E+00 0.  1.
         11    1    3    3    0    0  0.96429422878E+01  0.65241851061E+01 -0.82368369616E+01  0.14261725374E+02  0.51100000000E-03 0. -1.
        -11    1    3    3    0    0  0.43904591354E+01  0.51295577639E+01 -0.58196323560E+01  0.89138440245E+01  0.51100000000E-03 0.  1.
        -12    1    3    3    0    0  0.20017221354E+02  0.79428791449E+01 -0.79807935230E+01  0.22966748684E+02  0.00000000000E+00 0.  1.
</event>
<event>
 7    1  0.4047706E-008  0.4614231E+02  0.7816164E-02  0.1320468E+00
        -11   -1    0    0    0    0  0.00000000000E+00  0.00000000000E+00  0.45593999997E+02  0.45594000000E+02  0.51100000000E-03 0.  1.
         11   -1    0    0    0    0 -0.00000000000E+00 -0.00000000000E+00 -0.45593999997E+02  0.45594000000E+02  0.51100000000E-03 0. -1.
    9900012    2    1    2    0    0 -0.38426875513E+02  0.35710543243E+01 -0.23232242143E+02  0.46142309133E+02  0.99999213237E+01 0.  0.
        -12    1    1    2    0    0  0.38426875513E+02 -0.35710543243E+01  0.23232242143E+02  0.45045690867E+02  0.00000000000E+00 0.  1.
         11    1    3    3    0    0 -0.34157847546E+01  0.12863071960E+01 -0.37892095834E+01  0.52612053011E+01  0.51100000000E-03 0. -1.
        -11    1    3    3    0    0 -0.23286138885E+02 -0.13958915707E+01 -0.15363446725E+02  0.27932566530E+02  0.51100000000E-03 0.  1.
        -12    1    3    3    0    0 -0.11724951874E+02  0.36806386990E+01 -0.40795858341E+01  0.12948537302E+02  0.00000000000E+00 0.  1.
</event>
<event>
 7    1  0.4047706E-008  0.4614232E+02  0.7816164E-02  0.1320468E+00
        -11   -1    0    0    0    0  0.00000000000E+00  0.00000000000E+00  0.45593999997E+02  0.45594000000E+02  0.51100000000E-03 0. -1.
         11   -1    0    0    0    0 -0.00000000000E+00 -0.00000000000E+00 -0.45593999997E+02  0.45594000000E+02  0.51100000000E-03 0.  1.
    9900012    2    1    2    0    0 -0.13712834828E+02  0.42897481325E+02  0.93687418364E+00  0.46142317895E+02  0.10000001221E+02 0.  0.
        -12    1    1    2    0    0  0.13712834828E+02 -0.42897481325E+02 -0.93687418364E+00  0.45045682105E+02  0.00000000000E+00 0.  1.
         11    1    3    3    0    0 -0.11130488107E+02  0.30264642576E+02  0.43384009219E+01  0.32537026271E+02  0.51100000000E-03 0. -1.
        -11    1    3    3    0    0  0.49550120653E+00  0.93319996506E+00 -0.78580323397E-01  0.10595087299E+01  0.51100000000E-03 0.  1.
         12    1    3    3    0    0 -0.30778479283E+01  0.11699638784E+02 -0.33229464149E+01  0.12545782894E+02  0.00000000000E+00 0. -1.
</event>
<event>
 7    1  0.4047706E-008  0.4614232E+02  0.7816164E-02  0.1320468E+00
        -11   -1    0    0    0    0  0.00000000000E+00  0.00000000000E+00  0.45593999997E+02  0.45594000000E+02  0.51100000000E-03 0. -1.
         11   -1    0    0    0    0 -0.00000000000E+00 -0.00000000000E+00 -0.45593999997E+02  0.45594000000E+02  0.51100000000E-03 0.  1.
    9900012    2    1    2    0    0 -0.57183995224E+01  0.28180186334E+02  0.34674058557E+02  0.46142319500E+02  0.10000015857E+02 0.  0.
        -12    1    1    2    0    0  0.57183995224E+01 -0.28180186334E+02 -0.34674058557E+02  0.45045680500E+02  0.00000000000E+00 0.  1.
         11    1    3    3    0    0 -0.24768595192E+01  0.16463527540E+02  0.19479283863E+02  0.25624696529E+02  0.51100000000E-03 0. -1.
        -11    1    3    3    0    0 -0.14883571738E+00  0.97876961386E+01  0.88295103202E+01  0.13182617363E+02  0.51100000000E-03 0.  1.
         12    1    3    3    0    0 -0.30927042858E+01  0.19289626550E+01  0.63652643739E+01  0.73350056083E+01  0.00000000000E+00 0. -1.
</event>
<event>
 7    1  0.4047706E-008  0.4614232E+02  0.7816164E-02  0.1320468E+00
        -11   -1    0    0    0    0  0.00000000000E+00  0.00000000000E+00  0.45593999997E+02  0.45594000000E+02  0.51100000000E-03 0.  1.
         11   -1    0    0    0    0 -0.00000000000E+00 -0.00000000000E+00 -0.45593999997E+02  0.45594000000E+02  0.51100000000E-03 0. -1.
    9900012    2    1    2    0    0 -0.15748944168E+02 -0.10844868173E+02 -0.40785696903E+02  0.46142317855E+02  0.10000000852E+02 0.  0.
        -12    1    1    2    0    0  0.15748944168E+02  0.10844868173E+02  0.40785696903E+02  0.45045682145E+02  0.00000000000E+00 0.  1.
         11    1    3    3    0    0  0.10763090525E+00  0.61881130288E+00 -0.44167763178E+01  0.44612134160E+01  0.51100000000E-03 0. -1.
        -11    1    3    3    0    0 -0.11959766763E+02 -0.62899058890E+01 -0.20631349030E+02  0.24662755324E+02  0.51100000000E-03 0.  1.
         12    1    3    3    0    0 -0.38968083103E+01 -0.51737735865E+01 -0.15737571555E+02  0.17018349114E+02  0.00000000000E+00 0. -1.
</event>
<event>
 7    1  0.4047706E-008  0.4614232E+02  0.7816164E-02  0.1320468E+00
        -11   -1    0    0    0    0  0.00000000000E+00  0.00000000000E+00  0.45593999997E+02  0.45594000000E+02  0.51100000000E-03 0. -1.
         11   -1    0    0    0    0 -0.00000000000E+00 -0.00000000000E+00 -0.45593999997E+02  0.45594000000E+02  0.51100000000E-03 0.  1.
    9900012    2    1    2    0    0 -0.23554009213E+01 -0.10806228579E+02  0.43666817802E+02  0.46142318003E+02  0.10000002208E+02 0.  0.
        -12    1    1    2    0    0  0.23554009213E+01  0.10806228579E+02 -0.43666817802E+02  0.45045681997E+02  0.00000000000E+00 0.  1.
         11    1    3    3    0    0  0.16374778619E+01 -0.56157701134E+01  0.28350249323E+02  0.28947449709E+02  0.51100000000E-03 0. -1.
        -11    1    3    3    0    0 -0.41397135270E+01 -0.38609059883E+01  0.82658645895E+01  0.10018400112E+02  0.51100000000E-03 0.  1.
        -12    1    3    3    0    0  0.14683474372E+00 -0.13295524777E+01  0.70507038891E+01  0.71764681818E+01  0.00000000000E+00 0.  1.
</event>
<event>
 7    1  0.4047706E-008  0.4614232E+02  0.7816164E-02  0.1320468E+00
        -11   -1    0    0    0    0  0.00000000000E+00  0.00000000000E+00  0.45593999997E+02  0.45594000000E+02  0.51100000000E-03 0.  1.
         11   -1    0    0    0    0 -0.00000000000E+00 -0.00000000000E+00 -0.45593999997E+02  0.45594000000E+02  0.51100000000E-03 0. -1.
    9900012    2    1    2    0    0 -0.11667661321E+02  0.70453686742E+01 -0.42934157173E+02  0.46142318824E+02  0.10000009690E+02 0.  0.
        -12    1    1    2    0    0  0.11667661321E+02 -0.70453686742E+01  0.42934157173E+02  0.45045681176E+02  0.00000000000E+00 0.  1.
         11    1    3    3    0    0 -0.15961578442E+01  0.26244381915E+01 -0.70710185421E+01  0.77093903241E+01  0.51100000000E-03 0. -1.
        -11    1    3    3    0    0 -0.21625482471E+01  0.35020670771E+01 -0.22533571168E+02  0.22906394709E+02  0.51100000000E-03 0.  1.
        -12    1    3    3    0    0 -0.79089552301E+01  0.91886340562E+00 -0.13329567463E+02  0.15526533790E+02  0.00000000000E+00 0.  1.
</event>
<event>
 7    1  0.4047706E-008  0.4614232E+02  0.7816164E-02  0.1320468E+00
        -11   -1    0    0    0    0  0.00000000000E+00  0.00000000000E+00  0.45593999997E+02  0.45594000000E+02  0.51100000000E-03 0.  1.
         11   -1    0    0    0    0 -0.00000000000E+00 -0.00000000000E+00 -0.45593999997E+02  0.45594000000E+02  0.51100000000E-03 0. -1.
    9900012    2    1    2    0    0 -0.11307372994E+02 -0.12500849324E+02 -0.41773024976E+02  0.46142317260E+02  0.99999954293E+01 0.  0.
        -12    1    1    2    0    0  0.11307372994E+02  0.12500849324E+02  0.41773024976E+02  0.45045682740E+02  0.00000000000E+00 0.  1.
         11    1    3    3    0    0 -0.63547650291E+01 -0.95038161789E+01 -0.26936033262E+02  0.29261842879E+02  0.51100000000E-03 0. -1.
        -11    1    3    3    0    0 -0.41084597635E+01 -0.45032882867E+01 -0.13006414190E+02  0.14364047388E+02  0.51100000000E-03 0.  1.
        -12    1    3    3    0    0 -0.84414820182E+00  0.15062551414E+01 -0.18305775247E+01  0.25164269931E+01  0.00000000000E+00 0.  1.
</event>
<event>
 7    1  0.4047706E-008  0.4614232E+02  0.7816164E-02  0.1320468E+00
        -11   -1    0    0    0    0  0.00000000000E+00  0.00000000000E+00  0.45593999997E+02  0.45594000000E+02  0.51100000000E-03 0. -1.
         11   -1    0    0    0    0 -0.00000000000E+00 -0.00000000000E+00 -0.45593999997E+02  0.45594000000E+02  0.51100000000E-03 0.  1.
    9900012    2    1    2    0    0  0.30979174646E+02 -0.18980355297E+02 -0.26629870624E+02  0.46142321424E+02  0.10000033397E+02 0.  0.
        -12    1    1    2    0    0 -0.30979174646E+02  0.18980355297E+02  0.26629870624E+02  0.45045678576E+02  0.00000000000E+00 0.  1.
         11    1    3    3    0    0  0.82572676848E+01 -0.27902545418E+01 -0.60457326888E+01  0.10607491411E+02  0.51100000000E-03 0. -1.
        -11    1    3    3    0    0  0.52102076374E+01 -0.48312078231E+01 -0.96135381106E+01  0.11954369407E+02  0.51100000000E-03 0.  1.
         12    1    3    3    0    0  0.17511699324E+02 -0.11358892932E+02 -0.10970599825E+02  0.23580460606E+02  0.00000000000E+00 0. -1.
</event>
<event>
 7    1  0.4047706E-008  0.4614232E+02  0.7816164E-02  0.1320468E+00
        -11   -1    0    0    0    0  0.00000000000E+00  0.00000000000E+00  0.45593999997E+02  0.45594000000E+02  0.51100000000E-03 0.  1.
         11   -1    0    0    0    0 -0.00000000000E+00 -0.00000000000E+00 -0.45593999997E+02  0.45594000000E+02  0.51100000000E-03 0. -1.
    9900012    2    1    2    0    0 -0.11744014693E+02  0.19264762206E+02 -0.38987953406E+02  0.46142318135E+02  0.10000003406E+02 0.  0.
        -12    1    1    2    0    0  0.11744014693E+02 -0.19264762206E+02  0.38987953406E+02  0.45045681865E+02  0.00000000000E+00 0.  1.
         11    1    3    3    0    0 -0.13552500155E+01  0.41991937594E+01 -0.10602649189E+02  0.11484167402E+02  0.51100000000E-03 0. -1.
        -11    1    3    3    0    0 -0.10145022121E+02  0.91953192884E+01 -0.22523563368E+02  0.26358798867E+02  0.51100000000E-03 0.  1.
        -12    1    3    3    0    0 -0.24374255644E+00  0.58702491584E+01 -0.58617408489E+01  0.82993518660E+01  0.00000000000E+00 0.  1.
</event>
<event>
 7    1  0.4047706E-008  0.4614232E+02  0.7816164E-02  0.1320468E+00
        -11   -1    0    0    0    0  0.00000000000E+00  0.00000000000E+00  0.45593999997E+02  0.45594000000E+02  0.51100000000E-03 0.  1.
         11   -1    0    0    0    0 -0.00000000000E+00 -0.00000000000E+00 -0.45593999997E+02  0.45594000000E+02  0.51100000000E-03 0. -1.
    9900012    2    1    2    0    0 -0.68997485502E+01 -0.55843370982E+01 -0.44162449234E+02  0.46142320150E+02  0.10000021779E+02 0.  0.
        -12    1    1    2    0    0  0.68997485502E+01  0.55843370982E+01  0.44162449234E+02  0.45045679850E+02  0.00000000000E+00 0.  1.
         11    1    3    3    0    0 -0.41199115403E+01  0.53258375691E+00 -0.64373611620E+01  0.76613925333E+01  0.51100000000E-03 0.  1.
        -11    1    3    3    0    0 -0.30246846450E+01 -0.25120063293E+01 -0.21726797926E+02  0.22079688434E+02  0.51100000000E-03 0. -1.
        -12    1    3    3    0    0  0.24484763509E+00 -0.36049145259E+01 -0.15998290146E+02  0.16401239182E+02  0.00000000000E+00 0.  1.
</event>
<event>
 7    1  0.4047706E-008  0.4614232E+02  0.7816164E-02  0.1320468E+00
        -11   -1    0    0    0    0  0.00000000000E+00  0.00000000000E+00  0.45593999997E+02  0.45594000000E+02  0.51100000000E-03 0.  1.
         11   -1    0    0    0    0 -0.00000000000E+00 -0.00000000000E+00 -0.45593999997E+02  0.45594000000E+02  0.51100000000E-03 0. -1.
    9900012    2    1    2    0    0 -0.29307385574E+02 -0.16575270418E+02 -0.29924087624E+02  0.46142318090E+02  0.10000002997E+02 0.  0.
        -12    1    1    2    0    0  0.29307385574E+02  0.16575270418E+02  0.29924087624E+02  0.45045681910E+02  0.00000000000E+00 0.  1.
         11    1    3    3    0    0 -0.19709133806E+01  0.76588232814E-01 -0.58475481187E-01  0.19732675830E+01  0.51100000000E-03 0. -1.
        -11    1    3    3    0    0 -0.22227652018E+01 -0.32300425793E+01 -0.50832691989E+01  0.64197730657E+01  0.51100000000E-03 0.  1.
         12    1    3    3    0    0 -0.25113706992E+02 -0.13421816072E+02 -0.24782342944E+02  0.37749277441E+02  0.00000000000E+00 0. -1.
</event>
<event>
 7    1  0.4047706E-008  0.4614232E+02  0.7816164E-02  0.1320468E+00
        -11   -1    0    0    0    0  0.00000000000E+00  0.00000000000E+00  0.45593999997E+02  0.45594000000E+02  0.51100000000E-03 0.  1.
         11   -1    0    0    0    0 -0.00000000000E+00 -0.00000000000E+00 -0.45593999997E+02  0.45594000000E+02  0.51100000000E-03 0. -1.
    9900012    2    1    2    0    0  0.25159068797E+02 -0.10127055458E+02 -0.35966338561E+02  0.46142317583E+02  0.99999983716E+01 0.  0.
        -12    1    1    2    0    0 -0.25159068797E+02  0.10127055458E+02  0.35966338561E+02  0.45045682417E+02  0.00000000000E+00 0.  1.
         11    1    3    3    0    0  0.71869798806E+01 -0.32874970754E+01 -0.10704572565E+02  0.13305945697E+02  0.51100000000E-03 0. -1.
        -11    1    3    3    0    0  0.10925637630E+02 -0.62288954781E+01 -0.21283169106E+02  0.24721286050E+02  0.51100000000E-03 0.  1.
        -12    1    3    3    0    0  0.70464512860E+01 -0.61066290400E+00 -0.39785968900E+01  0.81150858357E+01  0.00000000000E+00 0.  1.
</event>
<event>
 7    1  0.4047706E-008  0.4614232E+02  0.7816164E-02  0.1320468E+00
        -11   -1    0    0    0    0  0.00000000000E+00  0.00000000000E+00  0.45593999997E+02  0.45594000000E+02  0.51100000000E-03 0.  1.
         11   -1    0    0    0    0 -0.00000000000E+00 -0.00000000000E+00 -0.45593999997E+02  0.45594000000E+02  0.51100000000E-03 0. -1.
    9900012    2    1    2    0    0 -0.30539484709E+01  0.34829286193E+01 -0.44806877270E+02  0.46142316037E+02  0.99999842748E+01 0.  0.
        -12    1    1    2    0    0  0.30539484709E+01 -0.34829286193E+01  0.44806877270E+02  0.45045683963E+02  0.00000000000E+00 0.  1.
         11    1    3    3    0    0 -0.13340346205E+01  0.46618363739E+00 -0.10188037421E+02  0.10285576421E+02  0.51100000000E-03 0. -1.
        -11    1    3    3    0    0  0.21751399976E+01  0.71845089916E+00 -0.26200794330E+02  0.26300741995E+02  0.51100000000E-03 0.  1.
         12    1    3    3    0    0 -0.38950538480E+01  0.22982940827E+01 -0.84180455189E+01  0.95559976208E+01  0.00000000000E+00 0. -1.
</event>
<event>
 7    1  0.4047706E-008  0.4614232E+02  0.7816164E-02  0.1320468E+00
        -11   -1    0    0    0    0  0.00000000000E+00  0.00000000000E+00  0.45593999997E+02  0.45594000000E+02  0.51100000000E-03 0.  1.
         11   -1    0    0    0    0 -0.00000000000E+00 -0.00000000000E+00 -0.45593999997E+02  0.45594000000E+02  0.51100000000E-03 0. -1.
    9900012    2    1    2    0    0 -0.94793753954E+01  0.22060282483E+02 -0.38112976085E+02  0.46142316886E+02  0.99999920238E+01 0.  0.
        -12    1    1    2    0    0  0.94793753954E+01 -0.22060282483E+02  0.38112976085E+02  0.45045683114E+02  0.00000000000E+00 0.  1.
         11    1    3    3    0    0 -0.81215917485E+01  0.14823802582E+02 -0.22281021787E+02  0.27966932397E+02  0.51100000000E-03 0. -1.
        -11    1    3    3    0    0 -0.31655169511E+01  0.46100134937E+01 -0.11591467117E+02  0.12869919664E+02  0.51100000000E-03 0.  1.
        -12    1    3    3    0    0  0.18077333042E+01  0.26264664073E+01 -0.42404871808E+01  0.53054648259E+01  0.00000000000E+00 0.  1.
</event>
<event>
 7    1  0.4047706E-008  0.4614232E+02  0.7816164E-02  0.1320468E+00
        -11   -1    0    0    0    0  0.00000000000E+00  0.00000000000E+00  0.45593999997E+02  0.45594000000E+02  0.51100000000E-03 0. -1.
         11   -1    0    0    0    0 -0.00000000000E+00 -0.00000000000E+00 -0.45593999997E+02  0.45594000000E+02  0.51100000000E-03 0.  1.
    9900012    2    1    2    0    0  0.30101521310E+02  0.30419527897E+02  0.14059314515E+02  0.46142316663E+02  0.99999899888E+01 0.  0.
        -12    1    1    2    0    0 -0.30101521310E+02 -0.30419527897E+02 -0.14059314515E+02  0.45045683337E+02  0.00000000000E+00 0.  1.
         11    1    3    3    0    0  0.65017155901E+01  0.10852333828E+02  0.42128265257E+01  0.13333917756E+02  0.51100000000E-03 0. -1.
        -11    1    3    3    0    0  0.87914238494E+01  0.89691341762E+01  0.11017534769E+01  0.12607472473E+02  0.51100000000E-03 0.  1.
         12    1    3    3    0    0  0.14808381870E+02  0.10598059893E+02  0.87447345124E+01  0.20200926434E+02  0.00000000000E+00 0. -1.
</event>
<event>
 7    1  0.4047706E-008  0.4614232E+02  0.7816164E-02  0.1320468E+00
        -11   -1    0    0    0    0  0.00000000000E+00  0.00000000000E+00  0.45593999997E+02  0.45594000000E+02  0.51100000000E-03 0. -1.
         11   -1    0    0    0    0 -0.00000000000E+00 -0.00000000000E+00 -0.45593999997E+02  0.45594000000E+02  0.51100000000E-03 0.  1.
    9900012    2    1    2    0    0  0.41277730174E+02  0.85370502485E+01 -0.15886518092E+02  0.46142315496E+02  0.99999793488E+01 0.  0.
        -12    1    1    2    0    0 -0.41277730174E+02 -0.85370502485E+01  0.15886518092E+02  0.45045684504E+02  0.00000000000E+00 0.  1.
         11    1    3    3    0    0  0.17387615016E+02  0.62950313344E+01 -0.87882723513E+01  0.20474137506E+02  0.51100000000E-03 0. -1.
        -11    1    3    3    0    0  0.19270697252E+02  0.35605465843E+01 -0.41492155317E+01  0.20031306855E+02  0.51100000000E-03 0.  1.
        -12    1    3    3    0    0  0.46194179065E+01 -0.13185276702E+01 -0.29490302092E+01  0.56368711345E+01  0.00000000000E+00 0.  1.
</event>
<event>
 7    1  0.4047706E-008  0.4614232E+02  0.7816164E-02  0.1320468E+00
        -11   -1    0    0    0    0  0.00000000000E+00  0.00000000000E+00  0.45593999997E+02  0.45594000000E+02  0.51100000000E-03 0. -1.
         11   -1    0    0    0    0 -0.00000000000E+00 -0.00000000000E+00 -0.45593999997E+02  0.45594000000E+02  0.51100000000E-03 0.  1.
    9900012    2    1    2    0    0 -0.95302065778E+01  0.13807456209E+02  0.41804818231E+02  0.46142317502E+02  0.99999976344E+01 0.  0.
        -12    1    1    2    0    0  0.95302065778E+01 -0.13807456209E+02 -0.41804818231E+02  0.45045682498E+02  0.00000000000E+00 0.  1.
         11    1    3    3    0    0  0.50668772291E+00  0.19629622375E+01  0.71689909991E+01  0.74501265359E+01  0.51100000000E-03 0. -1.
        -11    1    3    3    0    0 -0.51135466033E+01  0.82069590843E+01  0.12967840094E+02  0.16176137154E+02  0.51100000000E-03 0.  1.
        -12    1    3    3    0    0 -0.49233476973E+01  0.36375348869E+01  0.21667987139E+02  0.22516053812E+02  0.00000000000E+00 0.  1.
</event>
<event>
 7    1  0.4047706E-008  0.4614232E+02  0.7816164E-02  0.1320468E+00
        -11   -1    0    0    0    0  0.00000000000E+00  0.00000000000E+00  0.45593999997E+02  0.45594000000E+02  0.51100000000E-03 0.  1.
         11   -1    0    0    0    0 -0.00000000000E+00 -0.00000000000E+00 -0.45593999997E+02  0.45594000000E+02  0.51100000000E-03 0. -1.
    9900012    2    1    2    0    0  0.13311182260E+02  0.22522083154E+02 -0.36669902132E+02  0.46142317353E+02  0.99999962778E+01 0.  0.
        -12    1    1    2    0    0 -0.13311182260E+02 -0.22522083154E+02  0.36669902132E+02  0.45045682647E+02  0.00000000000E+00 0.  1.
         11    1    3    3    0    0  0.85372270695E+01  0.15554006825E+02 -0.25723209475E+02  0.31248918067E+02  0.51100000000E-03 0. -1.
        -11    1    3    3    0    0  0.44362757831E+01  0.75125294907E+01 -0.78667463694E+01  0.11747524883E+02  0.51100000000E-03 0.  1.
         12    1    3    3    0    0  0.33767940770E+00 -0.54445316228E+00 -0.30799462875E+01  0.31458744034E+01  0.00000000000E+00 0. -1.
</event>
<event>
 7    1  0.4047706E-008  0.4614232E+02  0.7816164E-02  0.1320468E+00
        -11   -1    0    0    0    0  0.00000000000E+00  0.00000000000E+00  0.45593999997E+02  0.45594000000E+02  0.51100000000E-03 0.  1.
         11   -1    0    0    0    0 -0.00000000000E+00 -0.00000000000E+00 -0.45593999997E+02  0.45594000000E+02  0.51100000000E-03 0. -1.
    9900012    2    1    2    0    0 -0.29016653881E+02  0.34368841847E+02 -0.24351449206E+01  0.46142318486E+02  0.10000006606E+02 0.  0.
        -12    1    1    2    0    0  0.29016653881E+02 -0.34368841847E+02  0.24351449206E+01  0.45045681514E+02  0.00000000000E+00 0.  1.
         11    1    3    3    0    0 -0.74405763033E+00 -0.84794062824E-01 -0.34269459582E+00  0.82356034233E+00  0.51100000000E-03 0. -1.
        -11    1    3    3    0    0 -0.44377092022E+01  0.57996488956E+01 -0.33317618386E+01  0.80268192633E+01  0.51100000000E-03 0.  1.
         12    1    3    3    0    0 -0.23834887048E+02  0.28653987014E+02  0.12393115138E+01  0.37291938880E+02  0.00000000000E+00 0. -1.
</event>
<event>
 7    1  0.4047706E-008  0.4614232E+02  0.7816164E-02  0.1320468E+00
        -11   -1    0    0    0    0  0.00000000000E+00  0.00000000000E+00  0.45593999997E+02  0.45594000000E+02  0.51100000000E-03 0. -1.
         11   -1    0    0    0    0 -0.00000000000E+00 -0.00000000000E+00 -0.45593999997E+02  0.45594000000E+02  0.51100000000E-03 0.  1.
    9900012    2    1    2    0    0  0.14829483200E+02 -0.28303305215E+02  0.31750946549E+02  0.46142320242E+02  0.10000022622E+02 0.  0.
        -12    1    1    2    0    0 -0.14829483200E+02  0.28303305215E+02 -0.31750946549E+02  0.45045679758E+02  0.00000000000E+00 0.  1.
         11    1    3    3    0    0  0.11571384650E+02 -0.16927977856E+02  0.17349517916E+02  0.26859991608E+02  0.51100000000E-03 0. -1.
        -11    1    3    3    0    0 -0.11102542855E+01 -0.10277793931E+01  0.24653613139E+01  0.28925770048E+01  0.51100000000E-03 0.  1.
        -12    1    3    3    0    0  0.43683528352E+01 -0.10347547967E+02  0.11936067319E+02  0.16389751629E+02  0.00000000000E+00 0.  1.
</event>
<event>
 7    1  0.4047706E-008  0.4614232E+02  0.7816164E-02  0.1320468E+00
        -11   -1    0    0    0    0  0.00000000000E+00  0.00000000000E+00  0.45593999997E+02  0.45594000000E+02  0.51100000000E-03 0.  1.
         11   -1    0    0    0    0 -0.00000000000E+00 -0.00000000000E+00 -0.45593999997E+02  0.45594000000E+02  0.51100000000E-03 0. -1.
    9900012    2    1    2    0    0  0.36701808437E+02 -0.25698778884E+02 -0.46543999389E+01  0.46142318548E+02  0.10000007175E+02 0.  0.
        -12    1    1    2    0    0 -0.36701808437E+02  0.25698778884E+02  0.46543999389E+01  0.45045681452E+02  0.00000000000E+00 0.  1.
         11    1    3    3    0    0  0.77691263218E+00 -0.14040450785E+01 -0.11412524443E+00  0.16087139749E+01  0.51100000000E-03 0. -1.
        -11    1    3    3    0    0  0.88593359518E+01 -0.87057104318E+01 -0.47521970241E+01  0.13298894858E+02  0.51100000000E-03 0.  1.
         12    1    3    3    0    0  0.27065559853E+02 -0.15589023374E+02  0.21192232959E+00  0.31234709715E+02  0.00000000000E+00 0. -1.
</event>
<event>
 7    1  0.4047706E-008  0.4614232E+02  0.7816164E-02  0.1320468E+00
        -11   -1    0    0    0    0  0.00000000000E+00  0.00000000000E+00  0.45593999997E+02  0.45594000000E+02  0.51100000000E-03 0.  1.
         11   -1    0    0    0    0 -0.00000000000E+00 -0.00000000000E+00 -0.45593999997E+02  0.45594000000E+02  0.51100000000E-03 0. -1.
    9900012    2    1    2    0    0  0.40284124072E+02  0.14496691595E+02 -0.14005312490E+02  0.46142317661E+02  0.99999990832E+01 0.  0.
        -12    1    1    2    0    0 -0.40284124072E+02 -0.14496691595E+02  0.14005312490E+02  0.45045682339E+02  0.00000000000E+00 0.  1.
         11    1    3    3    0    0  0.79711881964E+01  0.39858282099E+01 -0.48292887625E+01  0.10136503243E+02  0.51100000000E-03 0. -1.
        -11    1    3    3    0    0  0.10717569285E+02  0.64424220771E+01 -0.94815903182E+00  0.12540737594E+02  0.51100000000E-03 0.  1.
         12    1    3    3    0    0  0.21595366591E+02  0.40684413083E+01 -0.82278646962E+01  0.23465076823E+02  0.00000000000E+00 0. -1.
</event>
<event>
 7    1  0.4047706E-008  0.4614232E+02  0.7816164E-02  0.1320468E+00
        -11   -1    0    0    0    0  0.00000000000E+00  0.00000000000E+00  0.45593999997E+02  0.45594000000E+02  0.51100000000E-03 0.  1.
         11   -1    0    0    0    0 -0.00000000000E+00 -0.00000000000E+00 -0.45593999997E+02  0.45594000000E+02  0.51100000000E-03 0. -1.
    9900012    2    1    2    0    0  0.41831343310E+02  0.16502067937E+02 -0.26332360371E+01  0.46142318062E+02  0.10000002739E+02 0.  0.
        -12    1    1    2    0    0 -0.41831343310E+02 -0.16502067937E+02  0.26332360371E+01  0.45045681938E+02  0.00000000000E+00 0.  1.
         11    1    3    3    0    0  0.81536738359E-01 -0.68810364678E-01  0.17763914174E+00  0.20721735398E+00  0.51100000000E-03 0. -1.
        -11    1    3    3    0    0  0.29891468009E+01  0.41957653380E+01 -0.26540242074E-01  0.51517133086E+01  0.51100000000E-03 0.  1.
         12    1    3    3    0    0  0.38760659770E+02  0.12375112964E+02 -0.27843349368E+01  0.40783387399E+02  0.00000000000E+00 0. -1.
</event>
<event>
 7    1  0.4047706E-008  0.4614233E+02  0.7816164E-02  0.1320468E+00
        -11   -1    0    0    0    0  0.00000000000E+00  0.00000000000E+00  0.45593999997E+02  0.45594000000E+02  0.51100000000E-03 0. -1.
         11   -1    0    0    0    0 -0.00000000000E+00 -0.00000000000E+00 -0.45593999997E+02  0.45594000000E+02  0.51100000000E-03 0.  1.
    9900012    2    1    2    0    0  0.34066076664E+02 -0.53194502328E+01  0.28988241014E+02  0.46142331539E+02  0.10000125634E+02 0.  0.
        -12    1    1    2    0    0 -0.34066076664E+02  0.53194502328E+01 -0.28988241014E+02  0.45045668461E+02  0.00000000000E+00 0.  1.
         11    1    3    3    0    0  0.17484126058E+02 -0.48807180811E+01  0.19577310840E+02  0.26698074331E+02  0.51100000000E-03 0. -1.
        -11    1    3    3    0    0  0.42942282698E+01 -0.13560063338E+01  0.12807365754E+01  0.46818197368E+01  0.51100000000E-03 0.  1.
        -12    1    3    3    0    0  0.12287722336E+02  0.91727418210E+00  0.81301935992E+01  0.14762437471E+02  0.00000000000E+00 0.  1.
</event>
<event>
 7    1  0.4047706E-008  0.4614232E+02  0.7816164E-02  0.1320468E+00
        -11   -1    0    0    0    0  0.00000000000E+00  0.00000000000E+00  0.45593999997E+02  0.45594000000E+02  0.51100000000E-03 0.  1.
         11   -1    0    0    0    0 -0.00000000000E+00 -0.00000000000E+00 -0.45593999997E+02  0.45594000000E+02  0.51100000000E-03 0. -1.
    9900012    2    1    2    0    0 -0.24569432488E+02  0.31725791446E+02 -0.20467794089E+02  0.46142318181E+02  0.10000003826E+02 0.  0.
        -12    1    1    2    0    0  0.24569432488E+02 -0.31725791446E+02  0.20467794089E+02  0.45045681819E+02  0.00000000000E+00 0.  1.
         11    1    3    3    0    0 -0.33087189063E+01  0.75548450749E+00 -0.32183393431E+01  0.46771878336E+01  0.51100000000E-03 0. -1.
        -11    1    3    3    0    0 -0.46923479161E+00  0.66271654071E+00  0.10749936180E+00  0.81910370338E+00  0.51100000000E-03 0.  1.
         12    1    3    3    0    0 -0.20791478791E+02  0.30307590398E+02 -0.17356954108E+02  0.40646026644E+02  0.00000000000E+00 0. -1.
</event>
<event>
 7    1  0.4047706E-008  0.4614232E+02  0.7816164E-02  0.1320468E+00
        -11   -1    0    0    0    0  0.00000000000E+00  0.00000000000E+00  0.45593999997E+02  0.45594000000E+02  0.51100000000E-03 0. -1.
         11   -1    0    0    0    0 -0.00000000000E+00 -0.00000000000E+00 -0.45593999997E+02  0.45594000000E+02  0.51100000000E-03 0.  1.
    9900012    2    1    2    0    0 -0.50211042688E+01  0.66378597984E+01  0.44270089929E+02  0.46142317265E+02  0.99999954741E+01 0.  0.
        -12    1    1    2    0    0  0.50211042688E+01 -0.66378597984E+01 -0.44270089929E+02  0.45045682735E+02  0.00000000000E+00 0.  1.
         11    1    3    3    0    0 -0.23735091995E+01  0.88340680714E+01  0.31805207966E+02  0.33094494386E+02  0.51100000000E-03 0. -1.
        -11    1    3    3    0    0 -0.26137466561E+01 -0.12499104562E+01  0.89243815948E+01  0.93828852088E+01  0.51100000000E-03 0.  1.
         12    1    3    3    0    0 -0.33848413261E-01 -0.94629781678E+00  0.35405003677E+01  0.36649376703E+01  0.00000000000E+00 0. -1.
</event>
<event>
 7    1  0.4047706E-008  0.4614232E+02  0.7816164E-02  0.1320468E+00
        -11   -1    0    0    0    0  0.00000000000E+00  0.00000000000E+00  0.45593999997E+02  0.45594000000E+02  0.51100000000E-03 0. -1.
         11   -1    0    0    0    0 -0.00000000000E+00 -0.00000000000E+00 -0.45593999997E+02  0.45594000000E+02  0.51100000000E-03 0.  1.
    9900012    2    1    2    0    0 -0.36222835249E+02  0.61528431397E+01  0.26060739469E+02  0.46142318588E+02  0.10000007544E+02 0.  0.
        -12    1    1    2    0    0  0.36222835249E+02 -0.61528431397E+01 -0.26060739469E+02  0.45045681412E+02  0.00000000000E+00 0.  1.
         11    1    3    3    0    0 -0.84306071294E+01  0.30865448050E+01  0.67905474475E+01  0.11256706015E+02  0.51100000000E-03 0. -1.
        -11    1    3    3    0    0  0.94658145078E-01  0.10047195320E+01  0.17356189603E+00  0.10239851050E+01  0.51100000000E-03 0.  1.
         12    1    3    3    0    0 -0.27886886264E+02  0.20615788027E+01  0.19096630126E+02  0.33861627469E+02  0.00000000000E+00 0. -1.
</event>
<event>
 7    1  0.4047706E-008  0.4614232E+02  0.7816164E-02  0.1320468E+00
        -11   -1    0    0    0    0  0.00000000000E+00  0.00000000000E+00  0.45593999997E+02  0.45594000000E+02  0.51100000000E-03 0. -1.
         11   -1    0    0    0    0 -0.00000000000E+00 -0.00000000000E+00 -0.45593999997E+02  0.45594000000E+02  0.51100000000E-03 0.  1.
    9900012    2    1    2    0    0  0.26434700022E+02  0.34294819572E+02  0.12417145746E+02  0.46142317374E+02  0.99999964703E+01 0.  0.
        -12    1    1    2    0    0 -0.26434700022E+02 -0.34294819572E+02 -0.12417145746E+02  0.45045682626E+02  0.00000000000E+00 0.  1.
         11    1    3    3    0    0  0.10353214876E+02  0.13953800792E+02  0.77884075821E+01  0.19040927176E+02  0.51100000000E-03 0. -1.
        -11    1    3    3    0    0  0.12838972128E+02  0.19461978512E+02  0.36281814579E+01  0.23596006312E+02  0.51100000000E-03 0.  1.
        -12    1    3    3    0    0  0.32425130175E+01  0.87904026794E+00  0.10005567065E+01  0.35053838854E+01  0.00000000000E+00 0.  1.
</event>
<event>
 7    1  0.4047706E-008  0.4614232E+02  0.7816164E-02  0.1320468E+00
        -11   -1    0    0    0    0  0.00000000000E+00  0.00000000000E+00  0.45593999997E+02  0.45594000000E+02  0.51100000000E-03 0.  1.
         11   -1    0    0    0    0 -0.00000000000E+00 -0.00000000000E+00 -0.45593999997E+02  0.45594000000E+02  0.51100000000E-03 0. -1.
    9900012    2    1    2    0    0 -0.11769488227E+02  0.43076640422E+02 -0.59157104759E+01  0.46142318369E+02  0.10000005542E+02 0.  0.
        -12    1    1    2    0    0  0.11769488227E+02 -0.43076640422E+02  0.59157104759E+01  0.45045681631E+02  0.00000000000E+00 0.  1.
         11    1    3    3    0    0 -0.87080365234E+00  0.15507909122E+02 -0.21876092442E+01  0.15685636066E+02  0.51100000000E-03 0. -1.
        -11    1    3    3    0    0 -0.67868212034E+01  0.23430358474E+02 -0.29528240173E+01  0.24571565075E+02  0.51100000000E-03 0.  1.
        -12    1    3    3    0    0 -0.41118633708E+01  0.41383728259E+01 -0.77527721442E+00  0.58851172278E+01  0.00000000000E+00 0.  1.
</event>
<event>
 7    1  0.4047706E-008  0.4614232E+02  0.7816164E-02  0.1320468E+00
        -11   -1    0    0    0    0  0.00000000000E+00  0.00000000000E+00  0.45593999997E+02  0.45594000000E+02  0.51100000000E-03 0. -1.
         11   -1    0    0    0    0 -0.00000000000E+00 -0.00000000000E+00 -0.45593999997E+02  0.45594000000E+02  0.51100000000E-03 0.  1.
    9900012    2    1    2    0    0 -0.86982128203E+01  0.94029460264E+00  0.44187899263E+02  0.46142317615E+02  0.99999986694E+01 0.  0.
        -12    1    1    2    0    0  0.86982128203E+01 -0.94029460264E+00 -0.44187899263E+02  0.45045682385E+02  0.00000000000E+00 0.  1.
         11    1    3    3    0    0 -0.44787890848E+01  0.38747788519E+00  0.21132524034E+02  0.21605398934E+02  0.51100000000E-03 0. -1.
        -11    1    3    3    0    0 -0.97357731757E+00 -0.26330108633E+01  0.15224186725E+02  0.15480841731E+02  0.51100000000E-03 0.  1.
         12    1    3    3    0    0 -0.32458464179E+01  0.31858275807E+01  0.78311885041E+01  0.90560769503E+01  0.00000000000E+00 0. -1.
</event>
<event>
 7    1  0.4047706E-008  0.4614232E+02  0.7816164E-02  0.1320468E+00
        -11   -1    0    0    0    0  0.00000000000E+00  0.00000000000E+00  0.45593999997E+02  0.45594000000E+02  0.51100000000E-03 0.  1.
         11   -1    0    0    0    0 -0.00000000000E+00 -0.00000000000E+00 -0.45593999997E+02  0.45594000000E+02  0.51100000000E-03 0. -1.
    9900012    2    1    2    0    0 -0.43459950087E+02 -0.99231157093E+01 -0.64713388481E+01  0.46142315263E+02  0.99999772210E+01 0.  0.
        -12    1    1    2    0    0  0.43459950087E+02  0.99231157093E+01  0.64713388481E+01  0.45045684737E+02  0.00000000000E+00 0.  1.
         11    1    3    3    0    0 -0.14150839134E+01  0.26712544349E+00  0.32785291541E+00  0.14769246020E+01  0.51100000000E-03 0.  1.
        -11    1    3    3    0    0 -0.24074216512E+02 -0.10218436581E+02 -0.47076676072E+01  0.26573416818E+02  0.51100000000E-03 0. -1.
         12    1    3    3    0    0 -0.17970649662E+02  0.28195428570E-01 -0.20915241563E+01  0.18091973843E+02  0.00000000000E+00 0. -1.
</event>
<event>
 7    1  0.4047706E-008  0.4614232E+02  0.7816164E-02  0.1320468E+00
        -11   -1    0    0    0    0  0.00000000000E+00  0.00000000000E+00  0.45593999997E+02  0.45594000000E+02  0.51100000000E-03 0.  1.
         11   -1    0    0    0    0 -0.00000000000E+00 -0.00000000000E+00 -0.45593999997E+02  0.45594000000E+02  0.51100000000E-03 0. -1.
    9900012    2    1    2    0    0 -0.12526824622E+02 -0.19910211890E+02 -0.38415825922E+02  0.46142317034E+02  0.99999933673E+01 0.  0.
        -12    1    1    2    0    0  0.12526824622E+02  0.19910211890E+02  0.38415825922E+02  0.45045682966E+02  0.00000000000E+00 0.  1.
         11    1    3    3    0    0 -0.78258714713E+01 -0.10672574758E+02 -0.24243096934E+02  0.27620207557E+02  0.51100000000E-03 0. -1.
        -11    1    3    3    0    0 -0.52538666034E+01 -0.44358454031E+01 -0.65522104071E+01  0.94979629504E+01  0.51100000000E-03 0.  1.
        -12    1    3    3    0    0  0.55291345250E+00 -0.48017917296E+01 -0.76205185806E+01  0.90241465268E+01  0.00000000000E+00 0.  1.
</event>
<event>
 7    1  0.4047706E-008  0.4614232E+02  0.7816164E-02  0.1320468E+00
        -11   -1    0    0    0    0  0.00000000000E+00  0.00000000000E+00  0.45593999997E+02  0.45594000000E+02  0.51100000000E-03 0. -1.
         11   -1    0    0    0    0 -0.00000000000E+00 -0.00000000000E+00 -0.45593999997E+02  0.45594000000E+02  0.51100000000E-03 0.  1.
    9900012    2    1    2    0    0 -0.22055918356E+02 -0.49183217554E+01  0.38967422989E+02  0.46142317878E+02  0.10000001067E+02 0.  0.
        -12    1    1    2    0    0  0.22055918356E+02  0.49183217554E+01 -0.38967422989E+02  0.45045682122E+02  0.00000000000E+00 0.  1.
         11    1    3    3    0    0 -0.55751454635E+00  0.13321486525E+01  0.12212485785E+01  0.18912669968E+01  0.51100000000E-03 0.  1.
        -11    1    3    3    0    0 -0.14619880571E+01 -0.19009532119E+01  0.24260180386E+01  0.34112455170E+01  0.51100000000E-03 0. -1.
         12    1    3    3    0    0 -0.20036415752E+02 -0.43495171960E+01  0.35320156372E+02  0.40839805364E+02  0.00000000000E+00 0. -1.
</event>
<event>
 7    1  0.4047706E-008  0.4614232E+02  0.7816164E-02  0.1320468E+00
        -11   -1    0    0    0    0  0.00000000000E+00  0.00000000000E+00  0.45593999997E+02  0.45594000000E+02  0.51100000000E-03 0.  1.
         11   -1    0    0    0    0 -0.00000000000E+00 -0.00000000000E+00 -0.45593999997E+02  0.45594000000E+02  0.51100000000E-03 0. -1.
    9900012    2    1    2    0    0 -0.26443468668E+02 -0.25496295937E+02 -0.26072885341E+02  0.46142317723E+02  0.99999996553E+01 0.  0.
        -12    1    1    2    0    0  0.26443468668E+02  0.25496295937E+02  0.26072885341E+02  0.45045682277E+02  0.00000000000E+00 0.  1.
         11    1    3    3    0    0 -0.18526441585E+02 -0.12420043714E+02 -0.17216885317E+02  0.28176367117E+02  0.51100000000E-03 0. -1.
        -11    1    3    3    0    0 -0.77823853620E+01 -0.10593966451E+02 -0.74946933092E+01  0.15131691087E+02  0.51100000000E-03 0.  1.
        -12    1    3    3    0    0 -0.13464172186E+00 -0.24822857725E+01 -0.13613067152E+01  0.28342595192E+01  0.00000000000E+00 0.  1.
</event>
<event>
 7    1  0.4047706E-008  0.4614232E+02  0.7816164E-02  0.1320468E+00
        -11   -1    0    0    0    0  0.00000000000E+00  0.00000000000E+00  0.45593999997E+02  0.45594000000E+02  0.51100000000E-03 0.  1.
         11   -1    0    0    0    0 -0.00000000000E+00 -0.00000000000E+00 -0.45593999997E+02  0.45594000000E+02  0.51100000000E-03 0. -1.
    9900012    2    1    2    0    0  0.95387419938E+00  0.45023045733E+02  0.10625133297E+01  0.46142318102E+02  0.10000003112E+02 0.  0.
        -12    1    1    2    0    0 -0.95387419938E+00 -0.45023045733E+02 -0.10625133297E+01  0.45045681898E+02  0.00000000000E+00 0.  1.
         11    1    3    3    0    0 -0.14094567700E+01  0.81193995496E+01  0.14965950694E+01  0.83756202454E+01  0.51100000000E-03 0. -1.
        -11    1    3    3    0    0 -0.87586191035E+00  0.63309603116E+01  0.25440595760E+01  0.68789848045E+01  0.51100000000E-03 0.  1.
        -12    1    3    3    0    0  0.32391928798E+01  0.30572685872E+02 -0.29781413157E+01  0.30887713052E+02  0.00000000000E+00 0.  1.
</event>
<event>
 7    1  0.4047706E-008  0.4614232E+02  0.7816164E-02  0.1320468E+00
        -11   -1    0    0    0    0  0.00000000000E+00  0.00000000000E+00  0.45593999997E+02  0.45594000000E+02  0.51100000000E-03 0.  1.
         11   -1    0    0    0    0 -0.00000000000E+00 -0.00000000000E+00 -0.45593999997E+02  0.45594000000E+02  0.51100000000E-03 0. -1.
    9900012    2    1    2    0    0  0.26794881380E+02  0.93763595593E+01 -0.34974728900E+02  0.46142318205E+02  0.10000004045E+02 0.  0.
        -12    1    1    2    0    0 -0.26794881380E+02 -0.93763595593E+01  0.34974728900E+02  0.45045681795E+02  0.00000000000E+00 0.  1.
         11    1    3    3    0    0  0.78762386705E+01  0.12338421766E+01 -0.12670074724E+02  0.14969579015E+02  0.51100000000E-03 0.  1.
        -11    1    3    3    0    0  0.17502946059E+02  0.71212453188E+01 -0.22538283107E+02  0.29411553194E+02  0.51100000000E-03 0. -1.
        -12    1    3    3    0    0  0.14156966505E+01  0.10212720639E+01  0.23362893006E+00  0.17611859958E+01  0.00000000000E+00 0.  1.
</event>
<event>
 7    1  0.4047706E-008  0.4614232E+02  0.7816164E-02  0.1320468E+00
        -11   -1    0    0    0    0  0.00000000000E+00  0.00000000000E+00  0.45593999997E+02  0.45594000000E+02  0.51100000000E-03 0. -1.
         11   -1    0    0    0    0 -0.00000000000E+00 -0.00000000000E+00 -0.45593999997E+02  0.45594000000E+02  0.51100000000E-03 0.  1.
    9900012    2    1    2    0    0  0.29911632515E+02  0.32026013940E+02  0.10427954136E+02  0.46142317010E+02  0.99999931487E+01 0.  0.
        -12    1    1    2    0    0 -0.29911632515E+02 -0.32026013940E+02 -0.10427954136E+02  0.45045682990E+02  0.00000000000E+00 0.  1.
         11    1    3    3    0    0  0.21048213451E+02  0.18496044543E+02  0.79692358137E+01  0.29131420716E+02  0.51100000000E-03 0. -1.
        -11    1    3    3    0    0  0.44970213942E+00  0.18705680158E+00  0.10701131414E+01  0.11757400468E+01  0.51100000000E-03 0.  1.
         12    1    3    3    0    0  0.84137169246E+01  0.13342912596E+02  0.13886051809E+01  0.15835156247E+02  0.00000000000E+00 0. -1.
</event>
<event>
 7    1  0.4047706E-008  0.4614232E+02  0.7816164E-02  0.1320468E+00
        -11   -1    0    0    0    0  0.00000000000E+00  0.00000000000E+00  0.45593999997E+02  0.45594000000E+02  0.51100000000E-03 0. -1.
         11   -1    0    0    0    0 -0.00000000000E+00 -0.00000000000E+00 -0.45593999997E+02  0.45594000000E+02  0.51100000000E-03 0.  1.
    9900012    2    1    2    0    0  0.15604925754E+02 -0.41814796129E+02 -0.60928325646E+01  0.46142317723E+02  0.99999996561E+01 0.  0.
        -12    1    1    2    0    0 -0.15604925754E+02  0.41814796129E+02  0.60928325646E+01  0.45045682277E+02  0.00000000000E+00 0.  1.
         11    1    3    3    0    0  0.58135579520E+01 -0.19267991172E+02 -0.11480348760E+01  0.20158643908E+02  0.51100000000E-03 0. -1.
        -11    1    3    3    0    0 -0.94679393055E+00 -0.16983627465E+01 -0.10540750022E+01  0.22117705887E+01  0.51100000000E-03 0.  1.
        -12    1    3    3    0    0  0.10738161733E+02 -0.20848442210E+02 -0.38907226864E+01  0.23771903226E+02  0.00000000000E+00 0.  1.
</event>
<event>
 7    1  0.4047706E-008  0.4614232E+02  0.7816164E-02  0.1320468E+00
        -11   -1    0    0    0    0  0.00000000000E+00  0.00000000000E+00  0.45593999997E+02  0.45594000000E+02  0.51100000000E-03 0.  1.
         11   -1    0    0    0    0 -0.00000000000E+00 -0.00000000000E+00 -0.45593999997E+02  0.45594000000E+02  0.51100000000E-03 0. -1.
    9900012    2    1    2    0    0 -0.52366308858E+01 -0.25671216651E+02 -0.36642593627E+02  0.46142319462E+02  0.10000015512E+02 0.  0.
        -12    1    1    2    0    0  0.52366308858E+01  0.25671216651E+02  0.36642593627E+02  0.45045680538E+02  0.00000000000E+00 0.  1.
         11    1    3    3    0    0 -0.32526058031E+01 -0.11215205021E+02 -0.22321175740E+02  0.25191172162E+02  0.51100000000E-03 0. -1.
        -11    1    3    3    0    0 -0.23579672237E+01 -0.60293552878E+01 -0.85763448968E+01  0.10745549156E+02  0.51100000000E-03 0.  1.
        -12    1    3    3    0    0  0.37394214108E+00 -0.84266563418E+01 -0.57450729901E+01  0.10205598145E+02  0.00000000000E+00 0.  1.
</event>
<event>
 7    1  0.4047706E-008  0.4614232E+02  0.7816164E-02  0.1320468E+00
        -11   -1    0    0    0    0  0.00000000000E+00  0.00000000000E+00  0.45593999997E+02  0.45594000000E+02  0.51100000000E-03 0.  1.
         11   -1    0    0    0    0 -0.00000000000E+00 -0.00000000000E+00 -0.45593999997E+02  0.45594000000E+02  0.51100000000E-03 0. -1.
    9900012    2    1    2    0    0 -0.16199671900E+02 -0.30525608515E+02 -0.28894142128E+02  0.46142316586E+02  0.99999892866E+01 0.  0.
        -12    1    1    2    0    0  0.16199671900E+02  0.30525608515E+02  0.28894142128E+02  0.45045683414E+02  0.00000000000E+00 0.  1.
         11    1    3    3    0    0 -0.58868528910E+01 -0.51269049698E+01 -0.89067441138E+01  0.11843575579E+02  0.51100000000E-03 0. -1.
        -11    1    3    3    0    0 -0.14926336445E+01 -0.96610183856E+01 -0.80796844142E+01  0.12682449761E+02  0.51100000000E-03 0.  1.
         12    1    3    3    0    0 -0.88201853648E+01 -0.15737685160E+02 -0.11907713600E+02  0.21616291246E+02  0.00000000000E+00 0. -1.
</event>
<event>
 7    1  0.4047706E-008  0.4614232E+02  0.7816164E-02  0.1320468E+00
        -11   -1    0    0    0    0  0.00000000000E+00  0.00000000000E+00  0.45593999997E+02  0.45594000000E+02  0.51100000000E-03 0. -1.
         11   -1    0    0    0    0 -0.00000000000E+00 -0.00000000000E+00 -0.45593999997E+02  0.45594000000E+02  0.51100000000E-03 0.  1.
    9900012    2    1    2    0    0  0.20932443721E+02  0.33647925501E+02  0.21418760999E+02  0.46142318594E+02  0.10000007591E+02 0.  0.
        -12    1    1    2    0    0 -0.20932443721E+02 -0.33647925501E+02 -0.21418760999E+02  0.45045681406E+02  0.00000000000E+00 0.  1.
         11    1    3    3    0    0  0.62125877460E+01  0.16527333545E+02  0.11833907677E+02  0.21255361012E+02  0.51100000000E-03 0. -1.
        -11    1    3    3    0    0  0.30670966538E+01  0.58063829739E+01  0.41116672035E+01  0.77477075691E+01  0.51100000000E-03 0.  1.
        -12    1    3    3    0    0  0.11652759321E+02  0.11314208982E+02  0.54731861185E+01  0.17139250012E+02  0.00000000000E+00 0.  1.
</event>
<event>
 7    1  0.4047706E-008  0.4614232E+02  0.7816164E-02  0.1320468E+00
        -11   -1    0    0    0    0  0.00000000000E+00  0.00000000000E+00  0.45593999997E+02  0.45594000000E+02  0.51100000000E-03 0.  1.
         11   -1    0    0    0    0 -0.00000000000E+00 -0.00000000000E+00 -0.45593999997E+02  0.45594000000E+02  0.51100000000E-03 0. -1.
    9900012    2    1    2    0    0  0.27517370035E+02  0.13660106036E+02 -0.32944033737E+02  0.46142317527E+02  0.99999978648E+01 0.  0.
        -12    1    1    2    0    0 -0.27517370035E+02 -0.13660106036E+02  0.32944033737E+02  0.45045682473E+02  0.00000000000E+00 0.  1.
         11    1    3    3    0    0  0.10164648172E+02  0.23430707461E+01 -0.74328412993E+01  0.12808480903E+02  0.51100000000E-03 0.  1.
        -11    1    3    3    0    0  0.68260725764E+00  0.15377318421E+01 -0.56048533830E+00  0.17733347011E+01  0.51100000000E-03 0. -1.
         12    1    3    3    0    0  0.16670114605E+02  0.97793034473E+01 -0.24950707100E+02  0.31560501923E+02  0.00000000000E+00 0. -1.
</event>
<event>
 7    1  0.4047706E-008  0.4614232E+02  0.7816164E-02  0.1320468E+00
        -11   -1    0    0    0    0  0.00000000000E+00  0.00000000000E+00  0.45593999997E+02  0.45594000000E+02  0.51100000000E-03 0. -1.
         11   -1    0    0    0    0 -0.00000000000E+00 -0.00000000000E+00 -0.45593999997E+02  0.45594000000E+02  0.51100000000E-03 0.  1.
    9900012    2    1    2    0    0  0.26877377147E+02 -0.33457223430E+01  0.35993418130E+02  0.46142318642E+02  0.10000008031E+02 0.  0.
        -12    1    1    2    0    0 -0.26877377147E+02  0.33457223430E+01 -0.35993418130E+02  0.45045681358E+02  0.00000000000E+00 0.  1.
         11    1    3    3    0    0  0.18466003425E+02 -0.15079549570E+01  0.27337758963E+02  0.33024540511E+02  0.51100000000E-03 0. -1.
        -11    1    3    3    0    0  0.64414766095E+01 -0.44768113602E-01  0.35402071352E+01  0.73503531830E+01  0.51100000000E-03 0.  1.
         12    1    3    3    0    0  0.19698971134E+01 -0.17929992724E+01  0.51154520324E+01  0.57674249474E+01  0.00000000000E+00 0. -1.
</event>
<event>
 7    1  0.4047706E-008  0.4614232E+02  0.7816164E-02  0.1320468E+00
        -11   -1    0    0    0    0  0.00000000000E+00  0.00000000000E+00  0.45593999997E+02  0.45594000000E+02  0.51100000000E-03 0.  1.
         11   -1    0    0    0    0 -0.00000000000E+00 -0.00000000000E+00 -0.45593999997E+02  0.45594000000E+02  0.51100000000E-03 0. -1.
    9900012    2    1    2    0    0 -0.35434273530E+01 -0.36253410607E+02 -0.26499958869E+02  0.46142317875E+02  0.10000001035E+02 0.  0.
        -12    1    1    2    0    0  0.35434273530E+01  0.36253410607E+02  0.26499958869E+02  0.45045682125E+02  0.00000000000E+00 0.  1.
         11    1    3    3    0    0 -0.17089549581E+01 -0.28966674898E+02 -0.18990434004E+02  0.34678889337E+02  0.51100000000E-03 0.  1.
        -11    1    3    3    0    0 -0.13322851119E+01 -0.66654730289E+01 -0.80218216360E+01  0.10514425183E+02  0.51100000000E-03 0. -1.
        -12    1    3    3    0    0 -0.50218728298E+00 -0.62126268042E+00  0.51229677092E+00  0.94900335445E+00  0.00000000000E+00 0.  1.
</event>
<event>
 7    1  0.4047706E-008  0.4614232E+02  0.7816164E-02  0.1320468E+00
        -11   -1    0    0    0    0  0.00000000000E+00  0.00000000000E+00  0.45593999997E+02  0.45594000000E+02  0.51100000000E-03 0.  1.
         11   -1    0    0    0    0 -0.00000000000E+00 -0.00000000000E+00 -0.45593999997E+02  0.45594000000E+02  0.51100000000E-03 0. -1.
    9900012    2    1    2    0    0  0.34143708119E+02 -0.28362216465E+02 -0.76749881498E+01  0.46142316855E+02  0.99999917384E+01 0.  0.
        -12    1    1    2    0    0 -0.34143708119E+02  0.28362216465E+02  0.76749881498E+01  0.45045683145E+02  0.00000000000E+00 0.  1.
         11    1    3    3    0    0  0.21035579669E+02 -0.15446552014E+02 -0.75363002352E+01  0.27164082952E+02  0.51100000000E-03 0. -1.
        -11    1    3    3    0    0  0.11987066750E+02 -0.10930029136E+02 -0.15510041332E+01  0.16296040018E+02  0.51100000000E-03 0.  1.
        -12    1    3    3    0    0  0.11210617006E+01 -0.19856353144E+01  0.14123162186E+01  0.26821938856E+01  0.00000000000E+00 0.  1.
</event>
<event>
 7    1  0.4047706E-008  0.4614232E+02  0.7816164E-02  0.1320468E+00
        -11   -1    0    0    0    0  0.00000000000E+00  0.00000000000E+00  0.45593999997E+02  0.45594000000E+02  0.51100000000E-03 0. -1.
         11   -1    0    0    0    0 -0.00000000000E+00 -0.00000000000E+00 -0.45593999997E+02  0.45594000000E+02  0.51100000000E-03 0.  1.
    9900012    2    1    2    0    0 -0.26431162083E+02  0.33210171506E+02  0.15086139762E+02  0.46142318371E+02  0.10000005559E+02 0.  0.
        -12    1    1    2    0    0  0.26431162083E+02 -0.33210171506E+02 -0.15086139762E+02  0.45045681629E+02  0.00000000000E+00 0.  1.
         11    1    3    3    0    0 -0.90587154016E+01  0.11315018595E+02  0.99905221321E+01  0.17603991117E+02  0.51100000000E-03 0. -1.
        -11    1    3    3    0    0 -0.49937571921E+01  0.46495858634E+01  0.69338973351E+00  0.68583561572E+01  0.51100000000E-03 0.  1.
        -12    1    3    3    0    0 -0.12378689489E+02  0.17245567048E+02  0.44022278962E+01  0.21679971096E+02  0.00000000000E+00 0.  1.
</event>
<event>
 7    1  0.4047706E-008  0.4614232E+02  0.7816164E-02  0.1320468E+00
        -11   -1    0    0    0    0  0.00000000000E+00  0.00000000000E+00  0.45593999997E+02  0.45594000000E+02  0.51100000000E-03 0. -1.
         11   -1    0    0    0    0 -0.00000000000E+00 -0.00000000000E+00 -0.45593999997E+02  0.45594000000E+02  0.51100000000E-03 0.  1.
    9900012    2    1    2    0    0  0.28222827480E+02 -0.33808310302E+02  0.94648653586E+01  0.46142317492E+02  0.99999975420E+01 0.  0.
        -12    1    1    2    0    0 -0.28222827480E+02  0.33808310302E+02 -0.94648653586E+01  0.45045682508E+02  0.00000000000E+00 0.  1.
         11    1    3    3    0    0  0.14384753965E+02 -0.18754164546E+02  0.37772867564E+01  0.23935491011E+02  0.51100000000E-03 0. -1.
        -11    1    3    3    0    0  0.41856994379E+01 -0.63936942999E+01  0.51736423861E+01  0.92285417259E+01  0.51100000000E-03 0.  1.
        -12    1    3    3    0    0  0.96523740763E+01 -0.86604514559E+01  0.51393621606E+00  0.12978284754E+02  0.00000000000E+00 0.  1.
</event>
<event>
 7    1  0.4047706E-008  0.4614232E+02  0.7816164E-02  0.1320468E+00
        -11   -1    0    0    0    0  0.00000000000E+00  0.00000000000E+00  0.45593999997E+02  0.45594000000E+02  0.51100000000E-03 0. -1.
         11   -1    0    0    0    0 -0.00000000000E+00 -0.00000000000E+00 -0.45593999997E+02  0.45594000000E+02  0.51100000000E-03 0.  1.
    9900012    2    1    2    0    0  0.30245334692E+02  0.19443544119E+02  0.27134513314E+02  0.46142317728E+02  0.99999996989E+01 0.  0.
        -12    1    1    2    0    0 -0.30245334692E+02 -0.19443544119E+02 -0.27134513314E+02  0.45045682272E+02  0.00000000000E+00 0.  1.
         11    1    3    3    0    0  0.18707161859E+02  0.89809537005E+01  0.14214098315E+02  0.25152654439E+02  0.51100000000E-03 0. -1.
        -11    1    3    3    0    0  0.47615901652E+01  0.10012546132E+01  0.44717488409E+01  0.66084634870E+01  0.51100000000E-03 0.  1.
        -12    1    3    3    0    0  0.67765826682E+01  0.94613358056E+01  0.84486661584E+01  0.14381199802E+02  0.00000000000E+00 0.  1.
</event>
<event>
 7    1  0.4047706E-008  0.4614232E+02  0.7816164E-02  0.1320468E+00
        -11   -1    0    0    0    0  0.00000000000E+00  0.00000000000E+00  0.45593999997E+02  0.45594000000E+02  0.51100000000E-03 0.  1.
         11   -1    0    0    0    0 -0.00000000000E+00 -0.00000000000E+00 -0.45593999997E+02  0.45594000000E+02  0.51100000000E-03 0. -1.
    9900012    2    1    2    0    0  0.37356892039E+02  0.19054767627E+02 -0.16446640852E+02  0.46142317106E+02  0.99999940227E+01 0.  0.
        -12    1    1    2    0    0 -0.37356892039E+02 -0.19054767627E+02  0.16446640852E+02  0.45045682894E+02  0.00000000000E+00 0.  1.
         11    1    3    3    0    0  0.24525751334E+02  0.98701125172E+01 -0.73404466679E+01  0.27437451724E+02  0.51100000000E-03 0. -1.
        -11    1    3    3    0    0  0.13906089255E+01  0.10782980383E+01  0.34817437511E+00  0.17938075426E+01  0.51100000000E-03 0.  1.
         12    1    3    3    0    0  0.11440531779E+02  0.81063570716E+01 -0.94543685593E+01  0.16911057839E+02  0.00000000000E+00 0. -1.
</event>
<event>
 7    1  0.4047706E-008  0.4614232E+02  0.7816164E-02  0.1320468E+00
        -11   -1    0    0    0    0  0.00000000000E+00  0.00000000000E+00  0.45593999997E+02  0.45594000000E+02  0.51100000000E-03 0.  1.
         11   -1    0    0    0    0 -0.00000000000E+00 -0.00000000000E+00 -0.45593999997E+02  0.45594000000E+02  0.51100000000E-03 0. -1.
    9900012    2    1    2    0    0  0.43143808548E+02  0.11521925131E+02 -0.59135804567E+01  0.46142318647E+02  0.10000008076E+02 0.  0.
        -12    1    1    2    0    0 -0.43143808548E+02 -0.11521925131E+02  0.59135804567E+01  0.45045681353E+02  0.00000000000E+00 0.  1.
         11    1    3    3    0    0  0.15268517273E+01  0.59479408790E-01  0.37065017008E+00  0.15723217886E+01  0.51100000000E-03 0. -1.
        -11    1    3    3    0    0  0.40821067237E+02  0.12415258368E+02 -0.53192570147E+01  0.42997589074E+02  0.51100000000E-03 0.  1.
        -12    1    3    3    0    0  0.79588958375E+00 -0.95281264601E+00 -0.96497361204E+00  0.15724077842E+01  0.00000000000E+00 0.  1.
</event>
<event>
 7    1  0.4047706E-008  0.4614232E+02  0.7816164E-02  0.1320468E+00
        -11   -1    0    0    0    0  0.00000000000E+00  0.00000000000E+00  0.45593999997E+02  0.45594000000E+02  0.51100000000E-03 0.  1.
         11   -1    0    0    0    0 -0.00000000000E+00 -0.00000000000E+00 -0.45593999997E+02  0.45594000000E+02  0.51100000000E-03 0. -1.
    9900012    2    1    2    0    0  0.47891492186E+01 -0.69885576492E+01 -0.44241808663E+02  0.46142317388E+02  0.99999965942E+01 0.  0.
        -12    1    1    2    0    0 -0.47891492186E+01  0.69885576492E+01  0.44241808663E+02  0.45045682612E+02  0.00000000000E+00 0.  1.
         11    1    3    3    0    0  0.36377182348E+01 -0.50883069029E+01 -0.35452110053E+02  0.35999666229E+02  0.51100000000E-03 0. -1.
        -11    1    3    3    0    0  0.71500213524E+00 -0.33103240900E+01 -0.46870859708E+01  0.57825814990E+01  0.51100000000E-03 0.  1.
        -12    1    3    3    0    0  0.43642884856E+00  0.14100733437E+01 -0.41026126389E+01  0.43600696599E+01  0.00000000000E+00 0.  1.
</event>
<event>
 7    1  0.4047706E-008  0.4614232E+02  0.7816164E-02  0.1320468E+00
        -11   -1    0    0    0    0  0.00000000000E+00  0.00000000000E+00  0.45593999997E+02  0.45594000000E+02  0.51100000000E-03 0. -1.
         11   -1    0    0    0    0 -0.00000000000E+00 -0.00000000000E+00 -0.45593999997E+02  0.45594000000E+02  0.51100000000E-03 0.  1.
    9900012    2    1    2    0    0 -0.33816786407E+02  0.12743826347E+02  0.26891138393E+02  0.46142317888E+02  0.10000001159E+02 0.  0.
        -12    1    1    2    0    0  0.33816786407E+02 -0.12743826347E+02 -0.26891138393E+02  0.45045682112E+02  0.00000000000E+00 0.  1.
         11    1    3    3    0    0 -0.94749845577E+01  0.39033391603E+01  0.95656289500E+01  0.14018296845E+02  0.51100000000E-03 0. -1.
        -11    1    3    3    0    0 -0.48561717481E+01 -0.13394059637E+01  0.26583084698E+01  0.56958771550E+01  0.51100000000E-03 0.  1.
        -12    1    3    3    0    0 -0.19485630101E+02  0.10179893150E+02  0.14667200973E+02  0.26428143888E+02  0.00000000000E+00 0.  1.
</event>
<event>
 7    1  0.4047706E-008  0.4614232E+02  0.7816164E-02  0.1320468E+00
        -11   -1    0    0    0    0  0.00000000000E+00  0.00000000000E+00  0.45593999997E+02  0.45594000000E+02  0.51100000000E-03 0.  1.
         11   -1    0    0    0    0 -0.00000000000E+00 -0.00000000000E+00 -0.45593999997E+02  0.45594000000E+02  0.51100000000E-03 0. -1.
    9900012    2    1    2    0    0  0.12178132690E+02 -0.25529178949E+02 -0.35058057883E+02  0.46142319673E+02  0.10000017430E+02 0.  0.
        -12    1    1    2    0    0 -0.12178132690E+02  0.25529178949E+02  0.35058057883E+02  0.45045680327E+02  0.00000000000E+00 0.  1.
         11    1    3    3    0    0  0.64983419022E+01 -0.16690365810E+02 -0.26008436443E+02  0.31579036160E+02  0.51100000000E-03 0. -1.
        -11    1    3    3    0    0  0.14899848890E+00 -0.30320924216E+01 -0.42319948960E+01  0.52082210076E+01  0.51100000000E-03 0.  1.
        -12    1    3    3    0    0  0.55307922991E+01 -0.58067207177E+01 -0.48176265437E+01  0.93550625046E+01  0.00000000000E+00 0.  1.
</event>
<event>
 7    1  0.4047706E-008  0.4614232E+02  0.7816164E-02  0.1320468E+00
        -11   -1    0    0    0    0  0.00000000000E+00  0.00000000000E+00  0.45593999997E+02  0.45594000000E+02  0.51100000000E-03 0. -1.
         11   -1    0    0    0    0 -0.00000000000E+00 -0.00000000000E+00 -0.45593999997E+02  0.45594000000E+02  0.51100000000E-03 0.  1.
    9900012    2    1    2    0    0  0.23877261393E+02 -0.23822291102E+02  0.29857802328E+02  0.46142317356E+02  0.99999963068E+01 0.  0.
        -12    1    1    2    0    0 -0.23877261393E+02  0.23822291102E+02 -0.29857802328E+02  0.45045682644E+02  0.00000000000E+00 0.  1.
         11    1    3    3    0    0  0.80577321351E+00  0.61868312256E+00  0.21409700618E+01  0.23697663059E+01  0.51100000000E-03 0. -1.
        -11    1    3    3    0    0  0.30168854221E+01 -0.45567284831E+01  0.29531723801E+01  0.62118112887E+01  0.51100000000E-03 0.  1.
         12    1    3    3    0    0  0.20054602758E+02 -0.19884245741E+02  0.24763659886E+02  0.37560739761E+02  0.00000000000E+00 0. -1.
</event>
<event>
 7    1  0.4047706E-008  0.4614232E+02  0.7816164E-02  0.1320468E+00
        -11   -1    0    0    0    0  0.00000000000E+00  0.00000000000E+00  0.45593999997E+02  0.45594000000E+02  0.51100000000E-03 0.  1.
         11   -1    0    0    0    0 -0.00000000000E+00 -0.00000000000E+00 -0.45593999997E+02  0.45594000000E+02  0.51100000000E-03 0. -1.
    9900012    2    1    2    0    0  0.34805796370E+02 -0.15777839701E+02 -0.23848057528E+02  0.46142317250E+02  0.99999953378E+01 0.  0.
        -12    1    1    2    0    0 -0.34805796370E+02  0.15777839701E+02  0.23848057528E+02  0.45045682750E+02  0.00000000000E+00 0.  1.
         11    1    3    3    0    0  0.72885133596E+01 -0.26563367454E+01 -0.69175970371E+01  0.10393829945E+02  0.51100000000E-03 0. -1.
        -11    1    3    3    0    0  0.27755137942E+02 -0.11832754090E+02 -0.16313087060E+02  0.34299833254E+02  0.51100000000E-03 0.  1.
        -12    1    3    3    0    0 -0.23785493173E+00 -0.12887488655E+01 -0.61737343048E+00  0.14486540510E+01  0.00000000000E+00 0.  1.
</event>
<event>
 7    1  0.4047706E-008  0.4614232E+02  0.7816164E-02  0.1320468E+00
        -11   -1    0    0    0    0  0.00000000000E+00  0.00000000000E+00  0.45593999997E+02  0.45594000000E+02  0.51100000000E-03 0. -1.
         11   -1    0    0    0    0 -0.00000000000E+00 -0.00000000000E+00 -0.45593999997E+02  0.45594000000E+02  0.51100000000E-03 0.  1.
    9900012    2    1    2    0    0 -0.43990929772E+02 -0.19406507874E+01 -0.94945008325E+01  0.46142316813E+02  0.99999913565E+01 0.  0.
        -12    1    1    2    0    0  0.43990929772E+02  0.19406507874E+01  0.94945008325E+01  0.45045683187E+02  0.00000000000E+00 0.  1.
         11    1    3    3    0    0 -0.12455611146E+02  0.10055748215E+01 -0.53103958654E+01  0.13577692523E+02  0.51100000000E-03 0.  1.
        -11    1    3    3    0    0 -0.68040088709E+01  0.14511833609E+01 -0.24867646712E+01  0.73881302542E+01  0.51100000000E-03 0. -1.
        -12    1    3    3    0    0 -0.24731309755E+02 -0.43974089698E+01 -0.16973402959E+01  0.25176494036E+02  0.00000000000E+00 0.  1.
</event>
<event>
 7    1  0.4320230E-008  0.4614232E+02  0.7816164E-02  0.1320468E+00
        -11   -1    0    0    0    0  0.00000000000E+00  0.00000000000E+00  0.45593999997E+02  0.45594000000E+02  0.51100000000E-03 0. -1.
         11   -1    0    0    0    0 -0.00000000000E+00 -0.00000000000E+00 -0.45593999997E+02  0.45594000000E+02  0.51100000000E-03 0.  1.
    9900012    2    1    2    0    0 -0.43653583717E+02  0.10804587226E+02 -0.25959615145E+01  0.46142317714E+02  0.99999995708E+01 0.  0.
        -12    1    1    2    0    0  0.43653583717E+02 -0.10804587226E+02  0.25959615145E+01  0.45045682286E+02  0.00000000000E+00 0.  1.
         11    1    3    3    0    0 -0.21155378427E+02  0.25341933854E+01 -0.12647510479E+01  0.21344127248E+02  0.51100000000E-03 0. -1.
        -11    1    3    3    0    0 -0.18380893944E+02  0.39783683478E+01 -0.73605579282E+00  0.18820904742E+02  0.51100000000E-03 0.  1.
        -12    1    3    3    0    0 -0.41173113450E+01  0.42920254928E+01 -0.59515467377E+00  0.59772857241E+01  0.00000000000E+00 0.  1.
</event>
<event>
 7    1  0.4047706E-008  0.4614232E+02  0.7816164E-02  0.1320468E+00
        -11   -1    0    0    0    0  0.00000000000E+00  0.00000000000E+00  0.45593999997E+02  0.45594000000E+02  0.51100000000E-03 0. -1.
         11   -1    0    0    0    0 -0.00000000000E+00 -0.00000000000E+00 -0.45593999997E+02  0.45594000000E+02  0.51100000000E-03 0.  1.
    9900012    2    1    2    0    0  0.43385767082E+02  0.11217317178E+02  0.45782753320E+01  0.46142316578E+02  0.99999892082E+01 0.  0.
        -12    1    1    2    0    0 -0.43385767082E+02 -0.11217317178E+02 -0.45782753320E+01  0.45045683422E+02  0.00000000000E+00 0.  1.
         11    1    3    3    0    0  0.13795247032E+02  0.24579129397E+01  0.99633282850E+00  0.14047877279E+02  0.51100000000E-03 0. -1.
        -11    1    3    3    0    0  0.13277236851E+02  0.32835875698E+01  0.55786533898E+01  0.14771199668E+02  0.51100000000E-03 0.  1.
         12    1    3    3    0    0  0.16313283200E+02  0.54758166689E+01 -0.19967108864E+01  0.17323239631E+02  0.00000000000E+00 0. -1.
</event>
<event>
 7    1  0.4047706E-008  0.4614232E+02  0.7816164E-02  0.1320468E+00
        -11   -1    0    0    0    0  0.00000000000E+00  0.00000000000E+00  0.45593999997E+02  0.45594000000E+02  0.51100000000E-03 0. -1.
         11   -1    0    0    0    0 -0.00000000000E+00 -0.00000000000E+00 -0.45593999997E+02  0.45594000000E+02  0.51100000000E-03 0.  1.
    9900012    2    1    2    0    0 -0.19435415809E+02  0.99301785008E+01  0.39405195986E+02  0.46142319814E+02  0.10000018720E+02 0.  0.
        -12    1    1    2    0    0  0.19435415809E+02 -0.99301785008E+01 -0.39405195986E+02  0.45045680186E+02  0.00000000000E+00 0.  1.
         11    1    3    3    0    0 -0.13746466252E+01  0.33180720452E+01  0.25486594443E+01  0.44039664696E+01  0.51100000000E-03 0. -1.
        -11    1    3    3    0    0 -0.86343136534E+01  0.17346997205E+01  0.14031196481E+02  0.16566080718E+02  0.51100000000E-03 0.  1.
         12    1    3    3    0    0 -0.94264555306E+01  0.48774067351E+01  0.22825340060E+02  0.25172272627E+02  0.00000000000E+00 0. -1.
</event>
<event>
 7    1  0.4047706E-008  0.4614232E+02  0.7816164E-02  0.1320468E+00
        -11   -1    0    0    0    0  0.00000000000E+00  0.00000000000E+00  0.45593999997E+02  0.45594000000E+02  0.51100000000E-03 0. -1.
         11   -1    0    0    0    0 -0.00000000000E+00 -0.00000000000E+00 -0.45593999997E+02  0.45594000000E+02  0.51100000000E-03 0.  1.
    9900012    2    1    2    0    0  0.31572927211E+02  0.27189190639E+01  0.32013609590E+02  0.46142318158E+02  0.10000003622E+02 0.  0.
        -12    1    1    2    0    0 -0.31572927211E+02 -0.27189190639E+01 -0.32013609590E+02  0.45045681842E+02  0.00000000000E+00 0.  1.
         11    1    3    3    0    0  0.14318249599E+02  0.30963990815E+01  0.10319046550E+02  0.17918780115E+02  0.51100000000E-03 0. -1.
        -11    1    3    3    0    0  0.15998676025E+02  0.39959737679E+00  0.21392156678E+02  0.26715944307E+02  0.51100000000E-03 0.  1.
        -12    1    3    3    0    0  0.12560015880E+01 -0.77707739434E+00  0.30240636219E+00  0.15075937363E+01  0.00000000000E+00 0.  1.
</event>
<event>
 7    1  0.4047706E-008  0.4614232E+02  0.7816164E-02  0.1320468E+00
        -11   -1    0    0    0    0  0.00000000000E+00  0.00000000000E+00  0.45593999997E+02  0.45594000000E+02  0.51100000000E-03 0. -1.
         11   -1    0    0    0    0 -0.00000000000E+00 -0.00000000000E+00 -0.45593999997E+02  0.45594000000E+02  0.51100000000E-03 0.  1.
    9900012    2    1    2    0    0 -0.35657744790E+02 -0.13226282341E+02  0.24139266662E+02  0.46142317598E+02  0.99999985128E+01 0.  0.
        -12    1    1    2    0    0  0.35657744790E+02  0.13226282341E+02 -0.24139266662E+02  0.45045682402E+02  0.00000000000E+00 0.  1.
         11    1    3    3    0    0 -0.14791720905E+02 -0.66577137683E+01  0.10725793194E+02  0.19446408405E+02  0.51100000000E-03 0. -1.
        -11    1    3    3    0    0 -0.19829920677E+02 -0.73965053047E+01  0.10789941365E+02  0.23756196659E+02  0.51100000000E-03 0.  1.
        -12    1    3    3    0    0 -0.10361032086E+01  0.82793673167E+00  0.26235321029E+01  0.29397125344E+01  0.00000000000E+00 0.  1.
</event>
<event>
 7    1  0.4047706E-008  0.4614232E+02  0.7816164E-02  0.1320468E+00
        -11   -1    0    0    0    0  0.00000000000E+00  0.00000000000E+00  0.45593999997E+02  0.45594000000E+02  0.51100000000E-03 0. -1.
         11   -1    0    0    0    0 -0.00000000000E+00 -0.00000000000E+00 -0.45593999997E+02  0.45594000000E+02  0.51100000000E-03 0.  1.
    9900012    2    1    2    0    0  0.17060696510E+02 -0.37135210948E+02 -0.18947881522E+02  0.46142317945E+02  0.10000001680E+02 0.  0.
        -12    1    1    2    0    0 -0.17060696510E+02  0.37135210948E+02  0.18947881522E+02  0.45045682055E+02  0.00000000000E+00 0.  1.
         11    1    3    3    0    0  0.11024781576E+02 -0.18552843456E+02 -0.11354485068E+02  0.24386023466E+02  0.51100000000E-03 0. -1.
        -11    1    3    3    0    0  0.65841656065E+01 -0.11254740002E+02 -0.47608337759E+01  0.13881136400E+02  0.51100000000E-03 0.  1.
        -12    1    3    3    0    0 -0.54825067246E+00 -0.73276274910E+01 -0.28325626786E+01  0.78751580793E+01  0.00000000000E+00 0.  1.
</event>
<event>
 7    1  0.4047706E-008  0.4614232E+02  0.7816164E-02  0.1320468E+00
        -11   -1    0    0    0    0  0.00000000000E+00  0.00000000000E+00  0.45593999997E+02  0.45594000000E+02  0.51100000000E-03 0.  1.
         11   -1    0    0    0    0 -0.00000000000E+00 -0.00000000000E+00 -0.45593999997E+02  0.45594000000E+02  0.51100000000E-03 0. -1.
    9900012    2    1    2    0    0 -0.25259024467E+01 -0.42699240043E+02 -0.14124737972E+02  0.46142317564E+02  0.99999981992E+01 0.  0.
        -12    1    1    2    0    0  0.25259024467E+01  0.42699240043E+02  0.14124737972E+02  0.45045682436E+02  0.00000000000E+00 0.  1.
         11    1    3    3    0    0  0.14136527533E+01 -0.31384755259E+02 -0.11261086488E+02  0.33373842241E+02  0.51100000000E-03 0. -1.
        -11    1    3    3    0    0 -0.30087168640E+00 -0.44207043690E+01  0.91778903578E-01  0.44318816002E+01  0.51100000000E-03 0.  1.
        -12    1    3    3    0    0 -0.36386835137E+01 -0.68937804141E+01 -0.29554303876E+01  0.83365937221E+01  0.00000000000E+00 0.  1.
</event>
<event>
 7    1  0.4047706E-008  0.4614232E+02  0.7816164E-02  0.1320468E+00
        -11   -1    0    0    0    0  0.00000000000E+00  0.00000000000E+00  0.45593999997E+02  0.45594000000E+02  0.51100000000E-03 0.  1.
         11   -1    0    0    0    0 -0.00000000000E+00 -0.00000000000E+00 -0.45593999997E+02  0.45594000000E+02  0.51100000000E-03 0. -1.
    9900012    2    1    2    0    0 -0.17949486164E+02  0.79602540585E+01 -0.40540887893E+02  0.46142319970E+02  0.10000020140E+02 0.  0.
        -12    1    1    2    0    0  0.17949486164E+02 -0.79602540585E+01  0.40540887893E+02  0.45045680030E+02  0.00000000000E+00 0.  1.
         11    1    3    3    0    0 -0.23723827805E+01  0.11711479279E+01 -0.40330500889E+01  0.48234096661E+01  0.51100000000E-03 0. -1.
        -11    1    3    3    0    0 -0.10762302070E+02  0.13433230585E+00 -0.24614789865E+02  0.26865090199E+02  0.51100000000E-03 0.  1.
        -12    1    3    3    0    0 -0.48148013134E+01  0.66547738248E+01 -0.11893047939E+02  0.14453820105E+02  0.00000000000E+00 0.  1.
</event>
<event>
 7    1  0.4047706E-008  0.4614232E+02  0.7816164E-02  0.1320468E+00
        -11   -1    0    0    0    0  0.00000000000E+00  0.00000000000E+00  0.45593999997E+02  0.45594000000E+02  0.51100000000E-03 0. -1.
         11   -1    0    0    0    0 -0.00000000000E+00 -0.00000000000E+00 -0.45593999997E+02  0.45594000000E+02  0.51100000000E-03 0.  1.
    9900012    2    1    2    0    0 -0.39111937561E+02 -0.20725774504E+02  0.83553633494E+01  0.46142317796E+02  0.10000000315E+02 0.  0.
        -12    1    1    2    0    0  0.39111937561E+02  0.20725774504E+02 -0.83553633494E+01  0.45045682204E+02  0.00000000000E+00 0.  1.
         11    1    3    3    0    0 -0.26630288169E+02 -0.14442552476E+02  0.82683627778E+01  0.31402633541E+02  0.51100000000E-03 0.  1.
        -11    1    3    3    0    0 -0.81791245990E+01 -0.63215731389E+01  0.84076616765E+00  0.10371463453E+02  0.51100000000E-03 0. -1.
        -12    1    3    3    0    0 -0.43025247925E+01  0.38351110723E-01 -0.75376559606E+00  0.43682208016E+01  0.00000000000E+00 0.  1.
</event>
<event>
 7    1  0.4047706E-008  0.4614231E+02  0.7816164E-02  0.1320468E+00
        -11   -1    0    0    0    0  0.00000000000E+00  0.00000000000E+00  0.45593999997E+02  0.45594000000E+02  0.51100000000E-03 0. -1.
         11   -1    0    0    0    0 -0.00000000000E+00 -0.00000000000E+00 -0.45593999997E+02  0.45594000000E+02  0.51100000000E-03 0.  1.
    9900012    2    1    2    0    0 -0.38177893399E+02  0.18555862276E+02  0.15074562856E+02  0.46142311921E+02  0.99999467454E+01 0.  0.
        -12    1    1    2    0    0  0.38177893399E+02 -0.18555862276E+02 -0.15074562856E+02  0.45045688079E+02  0.00000000000E+00 0.  1.
         11    1    3    3    0    0 -0.33115198231E+01  0.26257232073E+01  0.76604899366E+00  0.42950456600E+01  0.51100000000E-03 0. -1.
        -11    1    3    3    0    0 -0.56314607905E+01  0.84222762178E+00 -0.60493037528E+00  0.57261364830E+01  0.51100000000E-03 0.  1.
         12    1    3    3    0    0 -0.29234912786E+02  0.15087911447E+02  0.14913444237E+02  0.36121129778E+02  0.00000000000E+00 0. -1.
</event>
<event>
 7    1  0.4047706E-008  0.4614232E+02  0.7816164E-02  0.1320468E+00
        -11   -1    0    0    0    0  0.00000000000E+00  0.00000000000E+00  0.45593999997E+02  0.45594000000E+02  0.51100000000E-03 0.  1.
         11   -1    0    0    0    0 -0.00000000000E+00 -0.00000000000E+00 -0.45593999997E+02  0.45594000000E+02  0.51100000000E-03 0. -1.
    9900012    2    1    2    0    0 -0.26460110063E+02  0.61219359973E+01 -0.35937416574E+02  0.46142318354E+02  0.10000005410E+02 0.  0.
        -12    1    1    2    0    0  0.26460110063E+02 -0.61219359973E+01  0.35937416574E+02  0.45045681646E+02  0.00000000000E+00 0.  1.
         11    1    3    3    0    0 -0.18336324203E+02  0.80035869720E+01 -0.26117553391E+02  0.32899920746E+02  0.51100000000E-03 0. -1.
        -11    1    3    3    0    0 -0.24700112798E+01  0.14231076846E+00 -0.12337438315E+01  0.27646576967E+01  0.51100000000E-03 0.  1.
        -12    1    3    3    0    0 -0.56537745803E+01 -0.20239617432E+01 -0.85861193508E+01  0.10477739911E+02  0.00000000000E+00 0.  1.
</event>
<event>
 7    1  0.4248780E-008  0.4614232E+02  0.7816164E-02  0.1320468E+00
        -11   -1    0    0    0    0  0.00000000000E+00  0.00000000000E+00  0.45593999997E+02  0.45594000000E+02  0.51100000000E-03 0. -1.
         11   -1    0    0    0    0 -0.00000000000E+00 -0.00000000000E+00 -0.45593999997E+02  0.45594000000E+02  0.51100000000E-03 0.  1.
    9900012    2    1    2    0    0 -0.17023341115E+02  0.40084553815E+02  0.11512942737E+02  0.46142318212E+02  0.10000004111E+02 0.  0.
        -12    1    1    2    0    0  0.17023341115E+02 -0.40084553815E+02 -0.11512942737E+02  0.45045681788E+02  0.00000000000E+00 0.  1.
         11    1    3    3    0    0 -0.47681520602E+01  0.13745811634E+02  0.70994618406E+01  0.16189038583E+02  0.51100000000E-03 0. -1.
        -11    1    3    3    0    0 -0.28404360280E+00 -0.13926515890E+00 -0.38821312757E+00  0.50078463067E+00  0.51100000000E-03 0.  1.
         12    1    3    3    0    0 -0.11971145452E+02  0.26478007340E+02  0.48016940236E+01  0.29452494998E+02  0.00000000000E+00 0. -1.
</event>
<event>
 7    1  0.4047706E-008  0.4614232E+02  0.7816164E-02  0.1320468E+00
        -11   -1    0    0    0    0  0.00000000000E+00  0.00000000000E+00  0.45593999997E+02  0.45594000000E+02  0.51100000000E-03 0. -1.
         11   -1    0    0    0    0 -0.00000000000E+00 -0.00000000000E+00 -0.45593999997E+02  0.45594000000E+02  0.51100000000E-03 0.  1.
    9900012    2    1    2    0    0 -0.76346269629E+01 -0.43422973612E+02  0.92342549356E+01  0.46142316185E+02  0.99999856282E+01 0.  0.
        -12    1    1    2    0    0  0.76346269629E+01  0.43422973612E+02 -0.92342549356E+01  0.45045683815E+02  0.00000000000E+00 0.  1.
         11    1    3    3    0    0 -0.20139261171E+01 -0.17784872384E+02  0.77689811240E+01  0.19511910519E+02  0.51100000000E-03 0. -1.
        -11    1    3    3    0    0 -0.27047862555E+01 -0.49015798488E+01 -0.36380862321E+00  0.56101435523E+01  0.51100000000E-03 0.  1.
         12    1    3    3    0    0 -0.29159145902E+01 -0.20736521378E+02  0.18290824348E+01  0.21020262114E+02  0.00000000000E+00 0. -1.
</event>
<event>
 7    1  0.4047706E-008  0.4614232E+02  0.7816164E-02  0.1320468E+00
        -11   -1    0    0    0    0  0.00000000000E+00  0.00000000000E+00  0.45593999997E+02  0.45594000000E+02  0.51100000000E-03 0.  1.
         11   -1    0    0    0    0 -0.00000000000E+00 -0.00000000000E+00 -0.45593999997E+02  0.45594000000E+02  0.51100000000E-03 0. -1.
    9900012    2    1    2    0    0 -0.44951965157E+02 -0.18856649747E+01 -0.22087565662E+01  0.46142317527E+02  0.99999978650E+01 0.  0.
        -12    1    1    2    0    0  0.44951965157E+02  0.18856649747E+01  0.22087565662E+01  0.45045682473E+02  0.00000000000E+00 0.  1.
         11    1    3    3    0    0 -0.11230078832E+02  0.22122973491E+01  0.13306202441E+01  0.11522997901E+02  0.51100000000E-03 0. -1.
        -11    1    3    3    0    0 -0.97914813785E+00 -0.89211773887E+00  0.61194129159E+00  0.14591358886E+01  0.51100000000E-03 0.  1.
         12    1    3    3    0    0 -0.32742738187E+02 -0.32058445849E+01 -0.41513181018E+01  0.33160183737E+02  0.00000000000E+00 0. -1.
</event>
<event>
 7    1  0.4047706E-008  0.4614232E+02  0.7816164E-02  0.1320468E+00
        -11   -1    0    0    0    0  0.00000000000E+00  0.00000000000E+00  0.45593999997E+02  0.45594000000E+02  0.51100000000E-03 0. -1.
         11   -1    0    0    0    0 -0.00000000000E+00 -0.00000000000E+00 -0.45593999997E+02  0.45594000000E+02  0.51100000000E-03 0.  1.
    9900012    2    1    2    0    0 -0.11199586069E+02  0.34731705971E+02  0.26408169012E+02  0.46142317429E+02  0.99999969699E+01 0.  0.
        -12    1    1    2    0    0  0.11199586069E+02 -0.34731705971E+02 -0.26408169012E+02  0.45045682571E+02  0.00000000000E+00 0.  1.
         11    1    3    3    0    0 -0.96200748144E+00  0.42112926508E+01  0.33921495455E+00  0.43330718009E+01  0.51100000000E-03 0.  1.
        -11    1    3    3    0    0 -0.99285472423E+01  0.24576653014E+02  0.23092566904E+02  0.35154723298E+02  0.51100000000E-03 0. -1.
         12    1    3    3    0    0 -0.30903134521E+00  0.59437603063E+01  0.29763871528E+01  0.66545223295E+01  0.00000000000E+00 0. -1.
</event>
<event>
 7    1  0.4047706E-008  0.4614232E+02  0.7816164E-02  0.1320468E+00
        -11   -1    0    0    0    0  0.00000000000E+00  0.00000000000E+00  0.45593999997E+02  0.45594000000E+02  0.51100000000E-03 0.  1.
         11   -1    0    0    0    0 -0.00000000000E+00 -0.00000000000E+00 -0.45593999997E+02  0.45594000000E+02  0.51100000000E-03 0. -1.
    9900012    2    1    2    0    0  0.30253531716E+02  0.22075688969E+02 -0.25030007241E+02  0.46142317774E+02  0.10000000116E+02 0.  0.
        -12    1    1    2    0    0 -0.30253531716E+02 -0.22075688969E+02  0.25030007241E+02  0.45045682226E+02  0.00000000000E+00 0.  1.
         11    1    3    3    0    0  0.12075113500E+02  0.71932657701E+01 -0.74655130079E+01  0.15914940252E+02  0.51100000000E-03 0. -1.
        -11    1    3    3    0    0  0.10594752600E+02  0.12562120570E+02 -0.98270589681E+01  0.19147499683E+02  0.51100000000E-03 0.  1.
         12    1    3    3    0    0  0.75836656155E+01  0.23203026286E+01 -0.77374352652E+01  0.11079877840E+02  0.00000000000E+00 0. -1.
</event>
<event>
 7    1  0.4047706E-008  0.4614232E+02  0.7816164E-02  0.1320468E+00
        -11   -1    0    0    0    0  0.00000000000E+00  0.00000000000E+00  0.45593999997E+02  0.45594000000E+02  0.51100000000E-03 0.  1.
         11   -1    0    0    0    0 -0.00000000000E+00 -0.00000000000E+00 -0.45593999997E+02  0.45594000000E+02  0.51100000000E-03 0. -1.
    9900012    2    1    2    0    0  0.33012431456E+02  0.82695839654E+00 -0.30636725188E+02  0.46142318508E+02  0.10000006813E+02 0.  0.
        -12    1    1    2    0    0 -0.33012431456E+02 -0.82695839654E+00  0.30636725188E+02  0.45045681492E+02  0.00000000000E+00 0.  1.
         11    1    3    3    0    0  0.63253559709E+01 -0.13207106653E+01 -0.45832292150E+01  0.79221458657E+01  0.51100000000E-03 0. -1.
        -11    1    3    3    0    0  0.19989598115E+02  0.17292894212E+01 -0.23827601431E+02  0.31150105376E+02  0.51100000000E-03 0.  1.
        -12    1    3    3    0    0  0.66974773698E+01  0.41837964063E+00 -0.22258945418E+01  0.70700672666E+01  0.00000000000E+00 0.  1.
</event>
<event>
 7    1  0.4047706E-008  0.4614232E+02  0.7816164E-02  0.1320468E+00
        -11   -1    0    0    0    0  0.00000000000E+00  0.00000000000E+00  0.45593999997E+02  0.45594000000E+02  0.51100000000E-03 0.  1.
         11   -1    0    0    0    0 -0.00000000000E+00 -0.00000000000E+00 -0.45593999997E+02  0.45594000000E+02  0.51100000000E-03 0. -1.
    9900012    2    1    2    0    0  0.22473070703E+02 -0.24400052473E+02 -0.30474776017E+02  0.46142318290E+02  0.10000004819E+02 0.  0.
        -12    1    1    2    0    0 -0.22473070703E+02  0.24400052473E+02  0.30474776017E+02  0.45045681710E+02  0.00000000000E+00 0.  1.
         11    1    3    3    0    0  0.37237739486E+01 -0.50391744726E+01 -0.67362719597E+01  0.91998441271E+01  0.51100000000E-03 0. -1.
        -11    1    3    3    0    0  0.65924816696E+00 -0.53033686206E+01 -0.36402465272E+01  0.64661984127E+01  0.51100000000E-03 0.  1.
        -12    1    3    3    0    0  0.18090048587E+02 -0.14057509380E+02 -0.20098257530E+02  0.30476275750E+02  0.00000000000E+00 0.  1.
</event>
<event>
 7    1  0.4047706E-008  0.4614232E+02  0.7816164E-02  0.1320468E+00
        -11   -1    0    0    0    0  0.00000000000E+00  0.00000000000E+00  0.45593999997E+02  0.45594000000E+02  0.51100000000E-03 0. -1.
         11   -1    0    0    0    0 -0.00000000000E+00 -0.00000000000E+00 -0.45593999997E+02  0.45594000000E+02  0.51100000000E-03 0.  1.
    9900012    2    1    2    0    0  0.25967133333E+02 -0.68110933992E+01  0.36172233465E+02  0.46142317847E+02  0.10000000783E+02 0.  0.
        -12    1    1    2    0    0 -0.25967133333E+02  0.68110933992E+01 -0.36172233465E+02  0.45045682153E+02  0.00000000000E+00 0.  1.
         11    1    3    3    0    0  0.17085884472E+01 -0.31167294717E-01  0.58100170389E+01  0.60561162585E+01  0.51100000000E-03 0.  1.
        -11    1    3    3    0    0  0.42057884528E+01 -0.83382357846E+00  0.17192973970E+01  0.46195131854E+01  0.51100000000E-03 0. -1.
         12    1    3    3    0    0  0.20052756433E+02 -0.59461025260E+01  0.28642919029E+02  0.35466688403E+02  0.00000000000E+00 0. -1.
</event>
<event>
 7    1  0.4047706E-008  0.4614232E+02  0.7816164E-02  0.1320468E+00
        -11   -1    0    0    0    0  0.00000000000E+00  0.00000000000E+00  0.45593999997E+02  0.45594000000E+02  0.51100000000E-03 0.  1.
         11   -1    0    0    0    0 -0.00000000000E+00 -0.00000000000E+00 -0.45593999997E+02  0.45594000000E+02  0.51100000000E-03 0. -1.
    9900012    2    1    2    0    0  0.23900643013E+02 -0.36495711694E+02 -0.11222111543E+02  0.46142317676E+02  0.99999992247E+01 0.  0.
        -12    1    1    2    0    0 -0.23900643013E+02  0.36495711694E+02  0.11222111543E+02  0.45045682324E+02  0.00000000000E+00 0.  1.
         11    1    3    3    0    0  0.15836927852E+02 -0.31087045410E+02 -0.80597330098E+01  0.35807429013E+02  0.51100000000E-03 0. -1.
        -11    1    3    3    0    0  0.11346052524E+00  0.11191830744E+00 -0.35014363049E-01  0.16317250096E+00  0.51100000000E-03 0.  1.
        -12    1    3    3    0    0  0.79502546363E+01 -0.55205845919E+01 -0.31273641706E+01  0.10171716162E+02  0.00000000000E+00 0.  1.
</event>
<event>
 7    1  0.4047706E-008  0.4614232E+02  0.7816164E-02  0.1320468E+00
        -11   -1    0    0    0    0  0.00000000000E+00  0.00000000000E+00  0.45593999997E+02  0.45594000000E+02  0.51100000000E-03 0.  1.
         11   -1    0    0    0    0 -0.00000000000E+00 -0.00000000000E+00 -0.45593999997E+02  0.45594000000E+02  0.51100000000E-03 0. -1.
    9900012    2    1    2    0    0  0.43140450973E+02  0.10445544446E+02  0.76749946963E+01  0.46142318159E+02  0.10000003625E+02 0.  0.
        -12    1    1    2    0    0 -0.43140450973E+02 -0.10445544446E+02 -0.76749946963E+01  0.45045681841E+02  0.00000000000E+00 0.  1.
         11    1    3    3    0    0  0.27682687133E+02  0.81820928262E+01  0.23237161328E+01  0.28959928640E+02  0.51100000000E-03 0. -1.
        -11    1    3    3    0    0  0.15747581175E+02  0.21273704222E+01  0.48997754966E+01  0.16628885048E+02  0.51100000000E-03 0.  1.
         12    1    3    3    0    0 -0.28981733399E+00  0.13608119718E+00  0.45150306703E+00  0.55350447048E+00  0.00000000000E+00 0. -1.
</event>
<event>
 7    1  0.4047706E-008  0.4614232E+02  0.7816164E-02  0.1320468E+00
        -11   -1    0    0    0    0  0.00000000000E+00  0.00000000000E+00  0.45593999997E+02  0.45594000000E+02  0.51100000000E-03 0.  1.
         11   -1    0    0    0    0 -0.00000000000E+00 -0.00000000000E+00 -0.45593999997E+02  0.45594000000E+02  0.51100000000E-03 0. -1.
    9900012    2    1    2    0    0 -0.38894880944E+02 -0.17654575244E+01  0.22653584988E+02  0.46142317446E+02  0.99999971269E+01 0.  0.
        -12    1    1    2    0    0  0.38894880944E+02  0.17654575244E+01 -0.22653584988E+02  0.45045682554E+02  0.00000000000E+00 0.  1.
         11    1    3    3    0    0 -0.14910715355E+02  0.22172383972E+01  0.48106985973E+01  0.15823665813E+02  0.51100000000E-03 0. -1.
        -11    1    3    3    0    0 -0.11640854930E+02 -0.34893116720E+01  0.84979704482E+01  0.14829035756E+02  0.51100000000E-03 0.  1.
         12    1    3    3    0    0 -0.12343310659E+02 -0.49338424959E+00  0.93449159426E+01  0.15489615877E+02  0.00000000000E+00 0. -1.
</event>
<event>
 7    1  0.4047706E-008  0.4614232E+02  0.7816164E-02  0.1320468E+00
        -11   -1    0    0    0    0  0.00000000000E+00  0.00000000000E+00  0.45593999997E+02  0.45594000000E+02  0.51100000000E-03 0. -1.
         11   -1    0    0    0    0 -0.00000000000E+00 -0.00000000000E+00 -0.45593999997E+02  0.45594000000E+02  0.51100000000E-03 0.  1.
    9900012    2    1    2    0    0  0.22490384250E+02 -0.27232672520E+02 -0.27958501097E+02  0.46142316301E+02  0.99999866865E+01 0.  0.
        -12    1    1    2    0    0 -0.22490384250E+02  0.27232672520E+02  0.27958501097E+02  0.45045683699E+02  0.00000000000E+00 0.  1.
         11    1    3    3    0    0  0.11526845727E+02 -0.13383212792E+02 -0.91152322019E+01  0.19876267643E+02  0.51100000000E-03 0. -1.
        -11    1    3    3    0    0  0.11262732594E+02 -0.12213270269E+02 -0.16742614766E+02  0.23586611999E+02  0.51100000000E-03 0.  1.
         12    1    3    3    0    0 -0.29919407095E+00 -0.16361894589E+01 -0.21006541294E+01  0.26794366588E+01  0.00000000000E+00 0. -1.
</event>
<event>
 7    1  0.4047706E-008  0.4614232E+02  0.7816164E-02  0.1320468E+00
        -11   -1    0    0    0    0  0.00000000000E+00  0.00000000000E+00  0.45593999997E+02  0.45594000000E+02  0.51100000000E-03 0.  1.
         11   -1    0    0    0    0 -0.00000000000E+00 -0.00000000000E+00 -0.45593999997E+02  0.45594000000E+02  0.51100000000E-03 0. -1.
    9900012    2    1    2    0    0  0.23093592432E+02  0.15825284259E+02 -0.35289656074E+02  0.46142318086E+02  0.10000002962E+02 0.  0.
        -12    1    1    2    0    0 -0.23093592432E+02 -0.15825284259E+02  0.35289656074E+02  0.45045681914E+02  0.00000000000E+00 0.  1.
         11    1    3    3    0    0  0.55368551434E+01  0.43697264936E+01 -0.82095504828E+01  0.10823492685E+02  0.51100000000E-03 0. -1.
        -11    1    3    3    0    0 -0.13917838183E+00  0.50263531483E+00  0.53016871304E+00  0.74370155781E+00  0.51100000000E-03 0.  1.
         12    1    3    3    0    0  0.17695915670E+02  0.10952922450E+02 -0.27610274305E+02  0.34575123843E+02  0.00000000000E+00 0. -1.
</event>
<event>
 7    1  0.4047706E-008  0.4614232E+02  0.7816164E-02  0.1320468E+00
        -11   -1    0    0    0    0  0.00000000000E+00  0.00000000000E+00  0.45593999997E+02  0.45594000000E+02  0.51100000000E-03 0.  1.
         11   -1    0    0    0    0 -0.00000000000E+00 -0.00000000000E+00 -0.45593999997E+02  0.45594000000E+02  0.51100000000E-03 0. -1.
    9900012    2    1    2    0    0  0.14452686090E+02 -0.77869849724E+01 -0.41947540978E+02  0.46142318028E+02  0.10000002435E+02 0.  0.
        -12    1    1    2    0    0 -0.14452686090E+02  0.77869849724E+01  0.41947540978E+02  0.45045681972E+02  0.00000000000E+00 0.  1.
         11    1    3    3    0    0  0.38151863283E+01 -0.34893443644E+01 -0.21397191678E+02  0.22012973056E+02  0.51100000000E-03 0. -1.
        -11    1    3    3    0    0  0.24221511722E+01  0.44637333164E+00 -0.81641304204E+01  0.85275489582E+01  0.51100000000E-03 0.  1.
        -12    1    3    3    0    0  0.82153485898E+01 -0.47440139397E+01 -0.12386218880E+02  0.15601796014E+02  0.00000000000E+00 0.  1.
</event>
<event>
 7    1  0.4047706E-008  0.4614231E+02  0.7816164E-02  0.1320468E+00
        -11   -1    0    0    0    0  0.00000000000E+00  0.00000000000E+00  0.45593999997E+02  0.45594000000E+02  0.51100000000E-03 0. -1.
         11   -1    0    0    0    0 -0.00000000000E+00 -0.00000000000E+00 -0.45593999997E+02  0.45594000000E+02  0.51100000000E-03 0.  1.
    9900012    2    1    2    0    0 -0.49583011189E+01 -0.41867157193E+02  0.15864120874E+02  0.46142312831E+02  0.99999550425E+01 0.  0.
        -12    1    1    2    0    0  0.49583011189E+01  0.41867157193E+02 -0.15864120874E+02  0.45045687169E+02  0.00000000000E+00 0.  1.
         11    1    3    3    0    0  0.42429626287E-01 -0.21465536717E+01 -0.35276162055E+00  0.21757605476E+01  0.51100000000E-03 0.  1.
        -11    1    3    3    0    0 -0.21413337265E+00 -0.91999275195E+01  0.74861285348E+01  0.11862825977E+02  0.51100000000E-03 0. -1.
         12    1    3    3    0    0 -0.47865973725E+01 -0.30520676002E+02  0.87307539600E+01  0.32103726306E+02  0.00000000000E+00 0. -1.
</event>
<event>
 7    1  0.4047706E-008  0.4614232E+02  0.7816164E-02  0.1320468E+00
        -11   -1    0    0    0    0  0.00000000000E+00  0.00000000000E+00  0.45593999997E+02  0.45594000000E+02  0.51100000000E-03 0.  1.
         11   -1    0    0    0    0 -0.00000000000E+00 -0.00000000000E+00 -0.45593999997E+02  0.45594000000E+02  0.51100000000E-03 0. -1.
    9900012    2    1    2    0    0 -0.12361505263E+02  0.29048199561E+01 -0.43218845607E+02  0.46142318664E+02  0.10000008237E+02 0.  0.
        -12    1    1    2    0    0  0.12361505263E+02 -0.29048199561E+01  0.43218845607E+02  0.45045681336E+02  0.00000000000E+00 0.  1.
         11    1    3    3    0    0 -0.50491805367E+01  0.36020962746E+00 -0.22991905654E+02  0.23542550859E+02  0.51100000000E-03 0. -1.
        -11    1    3    3    0    0 -0.92547984425E+00 -0.17244111179E+01 -0.73433146351E+01  0.75996300394E+01  0.51100000000E-03 0.  1.
        -12    1    3    3    0    0 -0.63868448823E+01  0.42690214466E+01 -0.12883625318E+02  0.15000137766E+02  0.00000000000E+00 0.  1.
</event>
<event>
 7    1  0.4047706E-008  0.4614232E+02  0.7816164E-02  0.1320468E+00
        -11   -1    0    0    0    0  0.00000000000E+00  0.00000000000E+00  0.45593999997E+02  0.45594000000E+02  0.51100000000E-03 0.  1.
         11   -1    0    0    0    0 -0.00000000000E+00 -0.00000000000E+00 -0.45593999997E+02  0.45594000000E+02  0.51100000000E-03 0. -1.
    9900012    2    1    2    0    0 -0.17445254568E+02 -0.20883796118E+02 -0.35897682027E+02  0.46142318496E+02  0.10000006702E+02 0.  0.
        -12    1    1    2    0    0  0.17445254568E+02  0.20883796118E+02  0.35897682027E+02  0.45045681504E+02  0.00000000000E+00 0.  1.
         11    1    3    3    0    0 -0.33556916197E+01 -0.84528542465E+01 -0.96143956699E+01  0.13234349834E+02  0.51100000000E-03 0. -1.
        -11    1    3    3    0    0 -0.57081341982E-01  0.56661122284E+00 -0.29967655073E+00  0.64351600884E+00  0.51100000000E-03 0.  1.
         12    1    3    3    0    0 -0.14032481606E+02 -0.12997553094E+02 -0.25983609807E+02  0.32264452654E+02  0.00000000000E+00 0. -1.
</event>
<event>
 7    1  0.4047706E-008  0.4614232E+02  0.7816164E-02  0.1320468E+00
        -11   -1    0    0    0    0  0.00000000000E+00  0.00000000000E+00  0.45593999997E+02  0.45594000000E+02  0.51100000000E-03 0.  1.
         11   -1    0    0    0    0 -0.00000000000E+00 -0.00000000000E+00 -0.45593999997E+02  0.45594000000E+02  0.51100000000E-03 0. -1.
    9900012    2    1    2    0    0  0.10954947839E+02  0.31127865614E+02 -0.30662005817E+02  0.46142317626E+02  0.99999987669E+01 0.  0.
        -12    1    1    2    0    0 -0.10954947839E+02 -0.31127865614E+02  0.30662005817E+02  0.45045682374E+02  0.00000000000E+00 0.  1.
         11    1    3    3    0    0  0.11543144437E+01  0.91649889986E+01 -0.93722279678E+01  0.13159335945E+02  0.51100000000E-03 0. -1.
        -11    1    3    3    0    0  0.46840828349E+01  0.18187071198E+02 -0.16806150876E+02  0.25202319304E+02  0.51100000000E-03 0.  1.
         12    1    3    3    0    0  0.51165505603E+01  0.37758054169E+01 -0.44836269735E+01  0.77806623766E+01  0.00000000000E+00 0. -1.
</event>
<event>
 7    1  0.4047706E-008  0.4614232E+02  0.7816164E-02  0.1320468E+00
        -11   -1    0    0    0    0  0.00000000000E+00  0.00000000000E+00  0.45593999997E+02  0.45594000000E+02  0.51100000000E-03 0.  1.
         11   -1    0    0    0    0 -0.00000000000E+00 -0.00000000000E+00 -0.45593999997E+02  0.45594000000E+02  0.51100000000E-03 0. -1.
    9900012    2    1    2    0    0  0.48296997708E+01 -0.97836965626E+01 -0.43704310619E+02  0.46142317799E+02  0.10000000342E+02 0.  0.
        -12    1    1    2    0    0 -0.48296997708E+01  0.97836965626E+01  0.43704310619E+02  0.45045682201E+02  0.00000000000E+00 0.  1.
         11    1    3    3    0    0  0.28155993467E+01 -0.25048663846E+01 -0.56290691009E+01  0.67740958429E+01  0.51100000000E-03 0. -1.
        -11    1    3    3    0    0 -0.63241379086E+00 -0.44515579800E+01 -0.92596522605E+01  0.10293564781E+02  0.51100000000E-03 0.  1.
         12    1    3    3    0    0  0.26465142150E+01 -0.28272721980E+01 -0.28815589258E+02  0.29074657175E+02  0.00000000000E+00 0. -1.
</event>
<event>
 7    1  0.4047706E-008  0.4614232E+02  0.7816164E-02  0.1320468E+00
        -11   -1    0    0    0    0  0.00000000000E+00  0.00000000000E+00  0.45593999997E+02  0.45594000000E+02  0.51100000000E-03 0. -1.
         11   -1    0    0    0    0 -0.00000000000E+00 -0.00000000000E+00 -0.45593999997E+02  0.45594000000E+02  0.51100000000E-03 0.  1.
    9900012    2    1    2    0    0  0.22975509568E+02  0.35107156745E+02 -0.16392896798E+02  0.46142316965E+02  0.99999927426E+01 0.  0.
        -12    1    1    2    0    0 -0.22975509568E+02 -0.35107156745E+02  0.16392896798E+02  0.45045683035E+02  0.00000000000E+00 0.  1.
         11    1    3    3    0    0  0.19846502532E+02  0.28432449425E+02 -0.16378273863E+02  0.38347564435E+02  0.51100000000E-03 0. -1.
        -11    1    3    3    0    0 -0.24487013580E+00  0.18640555348E+01 -0.33720415564E+00  0.19100710259E+01  0.51100000000E-03 0.  1.
         12    1    3    3    0    0  0.33738771720E+01  0.48106517848E+01  0.32258122083E+00  0.58846815045E+01  0.00000000000E+00 0. -1.
</event>
<event>
 7    1  0.4047706E-008  0.4614232E+02  0.7816164E-02  0.1320468E+00
        -11   -1    0    0    0    0  0.00000000000E+00  0.00000000000E+00  0.45593999997E+02  0.45594000000E+02  0.51100000000E-03 0. -1.
         11   -1    0    0    0    0 -0.00000000000E+00 -0.00000000000E+00 -0.45593999997E+02  0.45594000000E+02  0.51100000000E-03 0.  1.
    9900012    2    1    2    0    0  0.44267141622E+02  0.79170953753E+01 -0.26178720617E+01  0.46142317846E+02  0.10000000773E+02 0.  0.
        -12    1    1    2    0    0 -0.44267141622E+02 -0.79170953753E+01  0.26178720617E+01  0.45045682154E+02  0.00000000000E+00 0.  1.
         11    1    3    3    0    0  0.21141485274E+02  0.14645462634E+01  0.59363192806E-01  0.21192234889E+02  0.51100000000E-03 0. -1.
        -11    1    3    3    0    0  0.16099521729E+02  0.50757958325E+01 -0.46763746036E+01  0.17516471761E+02  0.51100000000E-03 0.  1.
         12    1    3    3    0    0  0.70261346190E+01  0.13767532793E+01  0.19991393491E+01  0.74336111960E+01  0.00000000000E+00 0. -1.
</event>
<event>
 7    1  0.4047706E-008  0.4614232E+02  0.7816164E-02  0.1320468E+00
        -11   -1    0    0    0    0  0.00000000000E+00  0.00000000000E+00  0.45593999997E+02  0.45594000000E+02  0.51100000000E-03 0.  1.
         11   -1    0    0    0    0 -0.00000000000E+00 -0.00000000000E+00 -0.45593999997E+02  0.45594000000E+02  0.51100000000E-03 0. -1.
    9900012    2    1    2    0    0 -0.56852600816E+01 -0.15351128632E+02 -0.41965869423E+02  0.46142317311E+02  0.99999958933E+01 0.  0.
        -12    1    1    2    0    0  0.56852600816E+01  0.15351128632E+02  0.41965869423E+02  0.45045682689E+02  0.00000000000E+00 0.  1.
         11    1    3    3    0    0 -0.20938018117E+01 -0.86706167981E+01 -0.18500624618E+02  0.20538663861E+02  0.51100000000E-03 0. -1.
        -11    1    3    3    0    0 -0.24763475000E+01  0.85253839989E-02 -0.23041571459E+01  0.33825301236E+01  0.51100000000E-03 0.  1.
        -12    1    3    3    0    0 -0.11151107698E+01 -0.66890372182E+01 -0.21161087659E+02  0.22221123326E+02  0.00000000000E+00 0.  1.
</event>
<event>
 7    1  0.4047706E-008  0.4614232E+02  0.7816164E-02  0.1320468E+00
        -11   -1    0    0    0    0  0.00000000000E+00  0.00000000000E+00  0.45593999997E+02  0.45594000000E+02  0.51100000000E-03 0.  1.
         11   -1    0    0    0    0 -0.00000000000E+00 -0.00000000000E+00 -0.45593999997E+02  0.45594000000E+02  0.51100000000E-03 0. -1.
    9900012    2    1    2    0    0 -0.10421448697E+02 -0.35447110780E+02 -0.25768376355E+02  0.46142317903E+02  0.10000001293E+02 0.  0.
        -12    1    1    2    0    0  0.10421448697E+02  0.35447110780E+02  0.25768376355E+02  0.45045682097E+02  0.00000000000E+00 0.  1.
         11    1    3    3    0    0 -0.56973107378E+01 -0.14752930857E+02 -0.14432207403E+02  0.21410206195E+02  0.51100000000E-03 0. -1.
        -11    1    3    3    0    0 -0.27095876393E+01 -0.28393373143E+01 -0.29127745900E+01  0.48875308318E+01  0.51100000000E-03 0.  1.
        -12    1    3    3    0    0 -0.20145503202E+01 -0.17854842609E+02 -0.84233943621E+01  0.19844580876E+02  0.00000000000E+00 0.  1.
</event>
<event>
 7    1  0.4047706E-008  0.4614232E+02  0.7816164E-02  0.1320468E+00
        -11   -1    0    0    0    0  0.00000000000E+00  0.00000000000E+00  0.45593999997E+02  0.45594000000E+02  0.51100000000E-03 0.  1.
         11   -1    0    0    0    0 -0.00000000000E+00 -0.00000000000E+00 -0.45593999997E+02  0.45594000000E+02  0.51100000000E-03 0. -1.
    9900012    2    1    2    0    0 -0.23382468899E+02  0.13150791990E+02 -0.36186051520E+02  0.46142317561E+02  0.99999981726E+01 0.  0.
        -12    1    1    2    0    0  0.23382468899E+02 -0.13150791990E+02  0.36186051520E+02  0.45045682439E+02  0.00000000000E+00 0.  1.
         11    1    3    3    0    0 -0.22882004310E+02  0.12719166394E+02 -0.31335911308E+02  0.40832617511E+02  0.51100000000E-03 0. -1.
        -11    1    3    3    0    0 -0.10920370616E+01 -0.29135045681E+00 -0.18543896159E+01  0.21716793367E+01  0.51100000000E-03 0.  1.
         12    1    3    3    0    0  0.59157247217E+00  0.72297605244E+00 -0.29957505963E+01  0.31380207133E+01  0.00000000000E+00 0. -1.
</event>
<event>
 7    1  0.4047706E-008  0.4614232E+02  0.7816164E-02  0.1320468E+00
        -11   -1    0    0    0    0  0.00000000000E+00  0.00000000000E+00  0.45593999997E+02  0.45594000000E+02  0.51100000000E-03 0.  1.
         11   -1    0    0    0    0 -0.00000000000E+00 -0.00000000000E+00 -0.45593999997E+02  0.45594000000E+02  0.51100000000E-03 0. -1.
    9900012    2    1    2    0    0  0.30483968329E+02  0.64849860702E+01 -0.32523619581E+02  0.46142320961E+02  0.10000029181E+02 0.  0.
        -12    1    1    2    0    0 -0.30483968329E+02 -0.64849860702E+01  0.32523619581E+02  0.45045679039E+02  0.00000000000E+00 0.  1.
         11    1    3    3    0    0  0.18042762179E+01 -0.66183238513E+00 -0.33279283803E+01  0.38429861230E+01  0.51100000000E-03 0.  1.
        -11    1    3    3    0    0  0.26810783133E+02  0.42982855159E+01 -0.25159281159E+02  0.37017330796E+02  0.51100000000E-03 0. -1.
        -12    1    3    3    0    0  0.18689089785E+01  0.28485329394E+01 -0.40364100419E+01  0.52820040424E+01  0.00000000000E+00 0.  1.
</event>
<event>
 7    1  0.4047706E-008  0.4614232E+02  0.7816164E-02  0.1320468E+00
        -11   -1    0    0    0    0  0.00000000000E+00  0.00000000000E+00  0.45593999997E+02  0.45594000000E+02  0.51100000000E-03 0.  1.
         11   -1    0    0    0    0 -0.00000000000E+00 -0.00000000000E+00 -0.45593999997E+02  0.45594000000E+02  0.51100000000E-03 0. -1.
    9900012    2    1    2    0    0  0.77917801827E+01  0.19999252168E+02 -0.39603428795E+02  0.46142317654E+02  0.99999990247E+01 0.  0.
        -12    1    1    2    0    0 -0.77917801827E+01 -0.19999252168E+02  0.39603428795E+02  0.45045682346E+02  0.00000000000E+00 0.  1.
         11    1    3    3    0    0  0.29140946794E+01  0.68877739240E+01 -0.17921781414E+02  0.19419671128E+02  0.51100000000E-03 0. -1.
        -11    1    3    3    0    0  0.43037863976E+00 -0.73120809637E+00 -0.25868609847E+01  0.27224512978E+01  0.51100000000E-03 0.  1.
         12    1    3    3    0    0  0.44473068635E+01  0.13842686341E+02 -0.19094786396E+02  0.24000195228E+02  0.00000000000E+00 0. -1.
</event>
<event>
 7    1  0.4047706E-008  0.4614232E+02  0.7816164E-02  0.1320468E+00
        -11   -1    0    0    0    0  0.00000000000E+00  0.00000000000E+00  0.45593999997E+02  0.45594000000E+02  0.51100000000E-03 0. -1.
         11   -1    0    0    0    0 -0.00000000000E+00 -0.00000000000E+00 -0.45593999997E+02  0.45594000000E+02  0.51100000000E-03 0.  1.
    9900012    2    1    2    0    0 -0.23333758637E+01  0.41035127741E+02  0.18433319499E+02  0.46142316307E+02  0.99999867420E+01 0.  0.
        -12    1    1    2    0    0  0.23333758637E+01 -0.41035127741E+02 -0.18433319499E+02  0.45045683693E+02  0.00000000000E+00 0.  1.
         11    1    3    3    0    0 -0.18413703048E+01  0.15253480813E+02  0.50138081111E+01  0.16161608631E+02  0.51100000000E-03 0. -1.
        -11    1    3    3    0    0 -0.15448219474E+00  0.21081688347E+02  0.13887783109E+02  0.25245434602E+02  0.51100000000E-03 0.  1.
         12    1    3    3    0    0 -0.33752336423E+00  0.46999585801E+01 -0.46827172114E+00  0.47352730735E+01  0.00000000000E+00 0. -1.
</event>
<event>
 7    1  0.4047706E-008  0.4614232E+02  0.7816164E-02  0.1320468E+00
        -11   -1    0    0    0    0  0.00000000000E+00  0.00000000000E+00  0.45593999997E+02  0.45594000000E+02  0.51100000000E-03 0.  1.
         11   -1    0    0    0    0 -0.00000000000E+00 -0.00000000000E+00 -0.45593999997E+02  0.45594000000E+02  0.51100000000E-03 0. -1.
    9900012    2    1    2    0    0 -0.19854386593E+02 -0.16845444209E+02 -0.36757962805E+02  0.46142317775E+02  0.10000000122E+02 0.  0.
        -12    1    1    2    0    0  0.19854386593E+02  0.16845444209E+02  0.36757962805E+02  0.45045682225E+02  0.00000000000E+00 0.  1.
         11    1    3    3    0    0 -0.13005098462E+02 -0.96886300499E+01 -0.24074700664E+02  0.29027458562E+02  0.51100000000E-03 0. -1.
        -11    1    3    3    0    0 -0.19052330529E+01 -0.52498630424E+01 -0.37463693870E+01  0.67250471221E+01  0.51100000000E-03 0.  1.
        -12    1    3    3    0    0 -0.49440550785E+01 -0.19069511171E+01 -0.89368927535E+01  0.10389812090E+02  0.00000000000E+00 0.  1.
</event>
<event>
 7    1  0.4047706E-008  0.4614232E+02  0.7816164E-02  0.1320468E+00
        -11   -1    0    0    0    0  0.00000000000E+00  0.00000000000E+00  0.45593999997E+02  0.45594000000E+02  0.51100000000E-03 0.  1.
         11   -1    0    0    0    0 -0.00000000000E+00 -0.00000000000E+00 -0.45593999997E+02  0.45594000000E+02  0.51100000000E-03 0. -1.
    9900012    2    1    2    0    0 -0.31531002038E+02  0.23986877250E+01 -0.32080451862E+02  0.46142321139E+02  0.10000030806E+02 0.  0.
        -12    1    1    2    0    0  0.31531002038E+02 -0.23986877250E+01  0.32080451862E+02  0.45045678861E+02  0.00000000000E+00 0.  1.
         11    1    3    3    0    0 -0.56657030296E+01 -0.10685648802E+01 -0.65968116580E+01  0.87612753658E+01  0.51100000000E-03 0. -1.
        -11    1    3    3    0    0 -0.24138084671E+02  0.29583073188E+01 -0.19617960672E+02  0.31245209152E+02  0.51100000000E-03 0.  1.
         12    1    3    3    0    0 -0.17272143376E+01  0.50894528643E+00 -0.58656795318E+01  0.61358366212E+01  0.00000000000E+00 0. -1.
</event>
<event>
 7    1  0.4047706E-008  0.4614232E+02  0.7816164E-02  0.1320468E+00
        -11   -1    0    0    0    0  0.00000000000E+00  0.00000000000E+00  0.45593999997E+02  0.45594000000E+02  0.51100000000E-03 0.  1.
         11   -1    0    0    0    0 -0.00000000000E+00 -0.00000000000E+00 -0.45593999997E+02  0.45594000000E+02  0.51100000000E-03 0. -1.
    9900012    2    1    2    0    0 -0.37161909150E+02  0.17035498979E+02 -0.18918185489E+02  0.46142318083E+02  0.10000002934E+02 0.  0.
        -12    1    1    2    0    0  0.37161909150E+02 -0.17035498979E+02  0.18918185489E+02  0.45045681917E+02  0.00000000000E+00 0.  1.
         11    1    3    3    0    0 -0.28300428196E+02  0.90509180426E+01 -0.12286330090E+02  0.32152562274E+02  0.51100000000E-03 0. -1.
        -11    1    3    3    0    0 -0.15020957998E+01  0.24228183585E+01 -0.28160843692E+01  0.40070777414E+01  0.51100000000E-03 0.  1.
        -12    1    3    3    0    0 -0.73593851548E+01  0.55617625782E+01 -0.38157710304E+01  0.99826780670E+01  0.00000000000E+00 0.  1.
</event>
<event>
 7    1  0.4047706E-008  0.4614232E+02  0.7816164E-02  0.1320468E+00
        -11   -1    0    0    0    0  0.00000000000E+00  0.00000000000E+00  0.45593999997E+02  0.45594000000E+02  0.51100000000E-03 0. -1.
         11   -1    0    0    0    0 -0.00000000000E+00 -0.00000000000E+00 -0.45593999997E+02  0.45594000000E+02  0.51100000000E-03 0.  1.
    9900012    2    1    2    0    0 -0.42705388869E+02 -0.14305682949E+02  0.84299565156E+00  0.46142318245E+02  0.10000004411E+02 0.  0.
        -12    1    1    2    0    0  0.42705388869E+02  0.14305682949E+02 -0.84299565156E+00  0.45045681755E+02  0.00000000000E+00 0.  1.
         11    1    3    3    0    0 -0.14969621689E+00 -0.71039431686E-02  0.53736338923E+00  0.55787014310E+00  0.51100000000E-03 0. -1.
        -11    1    3    3    0    0 -0.29466282781E+02 -0.60700311921E+01 -0.67312332667E+00  0.30092527227E+02  0.51100000000E-03 0.  1.
         12    1    3    3    0    0 -0.13089409871E+02 -0.82285478136E+01  0.97875558900E+00  0.15491920875E+02  0.00000000000E+00 0. -1.
</event>
<event>
 7    1  0.4047706E-008  0.4614232E+02  0.7816164E-02  0.1320468E+00
        -11   -1    0    0    0    0  0.00000000000E+00  0.00000000000E+00  0.45593999997E+02  0.45594000000E+02  0.51100000000E-03 0. -1.
         11   -1    0    0    0    0 -0.00000000000E+00 -0.00000000000E+00 -0.45593999997E+02  0.45594000000E+02  0.51100000000E-03 0.  1.
    9900012    2    1    2    0    0  0.11060917412E+02  0.36729096363E+02  0.23616584556E+02  0.46142317857E+02  0.10000000878E+02 0.  0.
        -12    1    1    2    0    0 -0.11060917412E+02 -0.36729096363E+02 -0.23616584556E+02  0.45045682143E+02  0.00000000000E+00 0.  1.
         11    1    3    3    0    0  0.14199307048E+01  0.20239382694E+02  0.13131940338E+02  0.24168092029E+02  0.51100000000E-03 0. -1.
        -11    1    3    3    0    0  0.59044773783E+01  0.11600562463E+02  0.83322430237E+01  0.15455166665E+02  0.51100000000E-03 0.  1.
        -12    1    3    3    0    0  0.37365093285E+01  0.48891512052E+01  0.21524011946E+01  0.65190591631E+01  0.00000000000E+00 0.  1.
</event>
<event>
 7    1  0.4207477E-008  0.4614232E+02  0.7816164E-02  0.1320468E+00
        -11   -1    0    0    0    0  0.00000000000E+00  0.00000000000E+00  0.45593999997E+02  0.45594000000E+02  0.51100000000E-03 0.  1.
         11   -1    0    0    0    0 -0.00000000000E+00 -0.00000000000E+00 -0.45593999997E+02  0.45594000000E+02  0.51100000000E-03 0. -1.
    9900012    2    1    2    0    0  0.14134374302E+02  0.30384528066E+02 -0.30101717160E+02  0.46142318091E+02  0.10000003005E+02 0.  0.
        -12    1    1    2    0    0 -0.14134374302E+02 -0.30384528066E+02  0.30101717160E+02  0.45045681909E+02  0.00000000000E+00 0.  1.
         11    1    3    3    0    0  0.11975048588E+02  0.24161629559E+02 -0.24390397964E+02  0.36360385651E+02  0.51100000000E-03 0. -1.
        -11    1    3    3    0    0  0.26209467921E+01  0.46861893809E+01 -0.61045542228E+01  0.81299025529E+01  0.51100000000E-03 0.  1.
        -12    1    3    3    0    0 -0.46162107810E+00  0.15367091264E+01  0.39323502680E+00  0.16520298863E+01  0.00000000000E+00 0.  1.
</event>
<event>
 7    1  0.4047706E-008  0.4614232E+02  0.7816164E-02  0.1320468E+00
        -11   -1    0    0    0    0  0.00000000000E+00  0.00000000000E+00  0.45593999997E+02  0.45594000000E+02  0.51100000000E-03 0. -1.
         11   -1    0    0    0    0 -0.00000000000E+00 -0.00000000000E+00 -0.45593999997E+02  0.45594000000E+02  0.51100000000E-03 0.  1.
    9900012    2    1    2    0    0 -0.14935909617E+02  0.39797024256E+02  0.14907343254E+02  0.46142318535E+02  0.10000007060E+02 0.  0.
        -12    1    1    2    0    0  0.14935909617E+02 -0.39797024256E+02 -0.14907343254E+02  0.45045681465E+02  0.00000000000E+00 0.  1.
         11    1    3    3    0    0 -0.29393666954E+01  0.45334044813E+01  0.19161280468E+01  0.57326416000E+01  0.51100000000E-03 0. -1.
        -11    1    3    3    0    0 -0.20905209768E+01  0.19002044178E+02  0.50015195566E+01  0.19760140664E+02  0.51100000000E-03 0.  1.
        -12    1    3    3    0    0 -0.99060219450E+01  0.16261575596E+02  0.79896956506E+01  0.20649536272E+02  0.00000000000E+00 0.  1.
</event>
<event>
 7    1  0.4047706E-008  0.4614232E+02  0.7816164E-02  0.1320468E+00
        -11   -1    0    0    0    0  0.00000000000E+00  0.00000000000E+00  0.45593999997E+02  0.45594000000E+02  0.51100000000E-03 0. -1.
         11   -1    0    0    0    0 -0.00000000000E+00 -0.00000000000E+00 -0.45593999997E+02  0.45594000000E+02  0.51100000000E-03 0.  1.
    9900012    2    1    2    0    0 -0.13537334955E+02  0.17695035119E+02  0.39150221910E+02  0.46142316731E+02  0.99999906071E+01 0.  0.
        -12    1    1    2    0    0  0.13537334955E+02 -0.17695035119E+02 -0.39150221910E+02  0.45045683269E+02  0.00000000000E+00 0.  1.
         11    1    3    3    0    0 -0.20842741970E+00  0.38081224886E+01  0.13104868103E+02  0.13648545971E+02  0.51100000000E-03 0. -1.
        -11    1    3    3    0    0 -0.23099061992E+01  0.22176433959E+01  0.28475139413E+01  0.42850839884E+01  0.51100000000E-03 0.  1.
         12    1    3    3    0    0 -0.11019001336E+02  0.11669269235E+02  0.23197839866E+02  0.28208686772E+02  0.00000000000E+00 0. -1.
</event>
<event>
 7    1  0.4047706E-008  0.4614230E+02  0.7816164E-02  0.1320468E+00
        -11   -1    0    0    0    0  0.00000000000E+00  0.00000000000E+00  0.45593999997E+02  0.45594000000E+02  0.51100000000E-03 0.  1.
         11   -1    0    0    0    0 -0.00000000000E+00 -0.00000000000E+00 -0.45593999997E+02  0.45594000000E+02  0.51100000000E-03 0. -1.
    9900012    2    1    2    0    0  0.37946216280E+01  0.33741962303E+02 -0.29600603395E+02  0.46142302151E+02  0.99998576513E+01 0.  0.
        -12    1    1    2    0    0 -0.37946216280E+01 -0.33741962303E+02  0.29600603395E+02  0.45045697849E+02  0.00000000000E+00 0.  1.
         11    1    3    3    0    0  0.42158498839E+00  0.22278071263E+00  0.38603049510E+00  0.61350220262E+00  0.51100000000E-03 0. -1.
        -11    1    3    3    0    0  0.44142634330E+00  0.61466512629E+01 -0.90222219035E+01  0.10925962992E+02  0.51100000000E-03 0.  1.
         12    1    3    3    0    0  0.29316102963E+01  0.27372530327E+02 -0.20964411987E+02  0.34602836956E+02  0.00000000000E+00 0. -1.
</event>
<event>
 7    1  0.4047706E-008  0.4614232E+02  0.7816164E-02  0.1320468E+00
        -11   -1    0    0    0    0  0.00000000000E+00  0.00000000000E+00  0.45593999997E+02  0.45594000000E+02  0.51100000000E-03 0.  1.
         11   -1    0    0    0    0 -0.00000000000E+00 -0.00000000000E+00 -0.45593999997E+02  0.45594000000E+02  0.51100000000E-03 0. -1.
    9900012    2    1    2    0    0  0.25122234499E+02 -0.29663527815E+02 -0.22760972931E+02  0.46142318326E+02  0.10000005152E+02 0.  0.
        -12    1    1    2    0    0 -0.25122234499E+02  0.29663527815E+02  0.22760972931E+02  0.45045681674E+02  0.00000000000E+00 0.  1.
         11    1    3    3    0    0  0.10926432398E+02 -0.12308144994E+02 -0.95440821333E+01  0.19025426728E+02  0.51100000000E-03 0. -1.
        -11    1    3    3    0    0  0.94021712511E+01 -0.11734016624E+02 -0.12750336156E+02  0.19714437418E+02  0.51100000000E-03 0.  1.
        -12    1    3    3    0    0  0.47936308504E+01 -0.56213661976E+01 -0.46655464152E+00  0.74024541803E+01  0.00000000000E+00 0.  1.
</event>
<event>
 7    1  0.4047706E-008  0.4614232E+02  0.7816164E-02  0.1320468E+00
        -11   -1    0    0    0    0  0.00000000000E+00  0.00000000000E+00  0.45593999997E+02  0.45594000000E+02  0.51100000000E-03 0.  1.
         11   -1    0    0    0    0 -0.00000000000E+00 -0.00000000000E+00 -0.45593999997E+02  0.45594000000E+02  0.51100000000E-03 0. -1.
    9900012    2    1    2    0    0 -0.22724851315E+02  0.21809507051E+02 -0.32203106837E+02  0.46142317021E+02  0.99999932554E+01 0.  0.
        -12    1    1    2    0    0  0.22724851315E+02 -0.21809507051E+02  0.32203106837E+02  0.45045682979E+02  0.00000000000E+00 0.  1.
         11    1    3    3    0    0 -0.68167839707E+01  0.26634107854E+01 -0.57563681121E+01  0.93111800980E+01  0.51100000000E-03 0. -1.
        -11    1    3    3    0    0  0.20398356004E+00  0.76895034638E+00 -0.24650299530E+01  0.25902252524E+01  0.51100000000E-03 0.  1.
         12    1    3    3    0    0 -0.16112050904E+02  0.18377145919E+02 -0.23981708772E+02  0.34240911671E+02  0.00000000000E+00 0. -1.
</event>
<event>
 7    1  0.4047706E-008  0.4614232E+02  0.7816164E-02  0.1320468E+00
        -11   -1    0    0    0    0  0.00000000000E+00  0.00000000000E+00  0.45593999997E+02  0.45594000000E+02  0.51100000000E-03 0.  1.
         11   -1    0    0    0    0 -0.00000000000E+00 -0.00000000000E+00 -0.45593999997E+02  0.45594000000E+02  0.51100000000E-03 0. -1.
    9900012    2    1    2    0    0  0.11271962808E+02  0.32857401858E+02 -0.28678345074E+02  0.46142317870E+02  0.10000000989E+02 0.  0.
        -12    1    1    2    0    0 -0.11271962808E+02 -0.32857401858E+02  0.28678345074E+02  0.45045682130E+02  0.00000000000E+00 0.  1.
         11    1    3    3    0    0  0.48258970390E+00  0.81606521663E+01 -0.64724551385E+01  0.10426975227E+02  0.51100000000E-03 0. -1.
        -11    1    3    3    0    0  0.10833260426E+01  0.11102427854E+02 -0.73304800360E+01  0.13348162323E+02  0.51100000000E-03 0.  1.
         12    1    3    3    0    0  0.97060470613E+01  0.13594321837E+02 -0.14875409900E+02  0.22367180320E+02  0.00000000000E+00 0. -1.
</event>
<event>
 7    1  0.4047706E-008  0.4614232E+02  0.7816164E-02  0.1320468E+00
        -11   -1    0    0    0    0  0.00000000000E+00  0.00000000000E+00  0.45593999997E+02  0.45594000000E+02  0.51100000000E-03 0.  1.
         11   -1    0    0    0    0 -0.00000000000E+00 -0.00000000000E+00 -0.45593999997E+02  0.45594000000E+02  0.51100000000E-03 0. -1.
    9900012    2    1    2    0    0  0.31336206169E+02  0.32340916029E+02  0.11047834393E+01  0.46142320817E+02  0.10000027862E+02 0.  0.
        -12    1    1    2    0    0 -0.31336206169E+02 -0.32340916029E+02 -0.11047834393E+01  0.45045679183E+02  0.00000000000E+00 0.  1.
         11    1    3    3    0    0  0.55277343556E+01  0.81165980434E+01  0.31838809348E+01  0.10323376820E+02  0.51100000000E-03 0. -1.
        -11    1    3    3    0    0  0.71936245667E+01  0.73535968451E+01  0.16590274199E+01  0.10419980480E+02  0.51100000000E-03 0.  1.
        -12    1    3    3    0    0  0.18614847247E+02  0.16870721140E+02 -0.37381249153E+01  0.25398963516E+02  0.00000000000E+00 0.  1.
</event>
<event>
 7    1  0.4047706E-008  0.4614232E+02  0.7816164E-02  0.1320468E+00
        -11   -1    0    0    0    0  0.00000000000E+00  0.00000000000E+00  0.45593999997E+02  0.45594000000E+02  0.51100000000E-03 0.  1.
         11   -1    0    0    0    0 -0.00000000000E+00 -0.00000000000E+00 -0.45593999997E+02  0.45594000000E+02  0.51100000000E-03 0. -1.
    9900012    2    1    2    0    0 -0.30255965883E+02 -0.76009913071E+01 -0.32494838766E+02  0.46142322218E+02  0.10000040646E+02 0.  0.
        -12    1    1    2    0    0  0.30255965883E+02  0.76009913071E+01  0.32494838766E+02  0.45045677782E+02  0.00000000000E+00 0.  1.
         11    1    3    3    0    0 -0.23676694655E+02 -0.34241964387E+01 -0.20262138380E+02  0.31350681700E+02  0.51100000000E-03 0. -1.
        -11    1    3    3    0    0 -0.57781258168E+01 -0.26946687406E+01 -0.10962586938E+02  0.12681730568E+02  0.51100000000E-03 0.  1.
         12    1    3    3    0    0 -0.80114541178E+00 -0.14821261278E+01 -0.12701134473E+01  0.21099099503E+01  0.00000000000E+00 0. -1.
</event>
<event>
 7    1  0.4047706E-008  0.4614233E+02  0.7816164E-02  0.1320468E+00
        -11   -1    0    0    0    0  0.00000000000E+00  0.00000000000E+00  0.45593999997E+02  0.45594000000E+02  0.51100000000E-03 0.  1.
         11   -1    0    0    0    0 -0.00000000000E+00 -0.00000000000E+00 -0.45593999997E+02  0.45594000000E+02  0.51100000000E-03 0. -1.
    9900012    2    1    2    0    0 -0.39695499807E+02 -0.12465933666E+02 -0.17262109875E+02  0.46142327129E+02  0.10000085422E+02 0.  0.
        -12    1    1    2    0    0  0.39695499807E+02  0.12465933666E+02  0.17262109875E+02  0.45045672871E+02  0.00000000000E+00 0.  1.
         11    1    3    3    0    0 -0.13722472139E+02 -0.52364457200E+01 -0.42688174937E+01  0.15295404814E+02  0.51100000000E-03 0. -1.
        -11    1    3    3    0    0 -0.17617881883E+02 -0.36580834967E+01 -0.12170970410E+02  0.21723348220E+02  0.51100000000E-03 0.  1.
        -12    1    3    3    0    0 -0.83551457850E+01 -0.35714044492E+01 -0.82232197136E+00  0.91235740942E+01  0.00000000000E+00 0.  1.
</event>
<event>
 7    1  0.4047706E-008  0.4614232E+02  0.7816164E-02  0.1320468E+00
        -11   -1    0    0    0    0  0.00000000000E+00  0.00000000000E+00  0.45593999997E+02  0.45594000000E+02  0.51100000000E-03 0.  1.
         11   -1    0    0    0    0 -0.00000000000E+00 -0.00000000000E+00 -0.45593999997E+02  0.45594000000E+02  0.51100000000E-03 0. -1.
    9900012    2    1    2    0    0  0.14094632964E+02  0.27686219882E+02 -0.32617911304E+02  0.46142316659E+02  0.99999899544E+01 0.  0.
        -12    1    1    2    0    0 -0.14094632964E+02 -0.27686219882E+02  0.32617911304E+02  0.45045683341E+02  0.00000000000E+00 0.  1.
         11    1    3    3    0    0  0.12645604201E+01  0.38866518864E+01 -0.18427401069E+01  0.44833990794E+01  0.51100000000E-03 0. -1.
        -11    1    3    3    0    0  0.10705347043E+02  0.15554887360E+02 -0.16695391504E+02  0.25205060481E+02  0.51100000000E-03 0.  1.
         12    1    3    3    0    0  0.21247255014E+01  0.82446806355E+01 -0.14079779693E+02  0.16453857100E+02  0.00000000000E+00 0. -1.
</event>
<event>
 7    1  0.4047706E-008  0.4614232E+02  0.7816164E-02  0.1320468E+00
        -11   -1    0    0    0    0  0.00000000000E+00  0.00000000000E+00  0.45593999997E+02  0.45594000000E+02  0.51100000000E-03 0.  1.
         11   -1    0    0    0    0 -0.00000000000E+00 -0.00000000000E+00 -0.45593999997E+02  0.45594000000E+02  0.51100000000E-03 0. -1.
    9900012    2    1    2    0    0 -0.42235724007E+01  0.44118248912E+02 -0.80532624629E+01  0.46142317774E+02  0.10000000121E+02 0.  0.
        -12    1    1    2    0    0  0.42235724007E+01 -0.44118248912E+02  0.80532624629E+01  0.45045682226E+02  0.00000000000E+00 0.  1.
         11    1    3    3    0    0 -0.31183395249E+01  0.78627670617E+01  0.10297167292E+01  0.85210013533E+01  0.51100000000E-03 0.  1.
        -11    1    3    3    0    0 -0.10982751356E+01  0.16792277297E+02 -0.21729375664E+01  0.16967865010E+02  0.51100000000E-03 0. -1.
        -12    1    3    3    0    0 -0.69577401600E-02  0.19463204554E+02 -0.69100416257E+01  0.20653451411E+02  0.00000000000E+00 0.  1.
</event>
<event>
 7    1  0.4047706E-008  0.4614232E+02  0.7816164E-02  0.1320468E+00
        -11   -1    0    0    0    0  0.00000000000E+00  0.00000000000E+00  0.45593999997E+02  0.45594000000E+02  0.51100000000E-03 0. -1.
         11   -1    0    0    0    0 -0.00000000000E+00 -0.00000000000E+00 -0.45593999997E+02  0.45594000000E+02  0.51100000000E-03 0.  1.
    9900012    2    1    2    0    0 -0.25853340591E+02 -0.35171105775E+02 -0.11122571367E+02  0.46142317688E+02  0.99999993299E+01 0.  0.
        -12    1    1    2    0    0  0.25853340591E+02  0.35171105775E+02  0.11122571367E+02  0.45045682312E+02  0.00000000000E+00 0.  1.
         11    1    3    3    0    0 -0.19529375965E+02 -0.20772780136E+02 -0.62653441920E+01  0.29191770386E+02  0.51100000000E-03 0. -1.
        -11    1    3    3    0    0 -0.26650897409E+00 -0.29430547275E+01 -0.22945571037E+01  0.37413354200E+01  0.51100000000E-03 0.  1.
         12    1    3    3    0    0 -0.60574556518E+01 -0.11455270912E+02 -0.25626700713E+01  0.13209211881E+02  0.00000000000E+00 0. -1.
</event>
<event>
 7    1  0.4047706E-008  0.4614232E+02  0.7816164E-02  0.1320468E+00
        -11   -1    0    0    0    0  0.00000000000E+00  0.00000000000E+00  0.45593999997E+02  0.45594000000E+02  0.51100000000E-03 0.  1.
         11   -1    0    0    0    0 -0.00000000000E+00 -0.00000000000E+00 -0.45593999997E+02  0.45594000000E+02  0.51100000000E-03 0. -1.
    9900012    2    1    2    0    0 -0.13386882533E+02  0.33533194509E+02 -0.26933803791E+02  0.46142317137E+02  0.99999943059E+01 0.  0.
        -12    1    1    2    0    0  0.13386882533E+02 -0.33533194509E+02  0.26933803791E+02  0.45045682863E+02  0.00000000000E+00 0.  1.
         11    1    3    3    0    0 -0.42738446954E+01  0.13045522610E+02 -0.66098702647E+01  0.15236200111E+02  0.51100000000E-03 0. -1.
        -11    1    3    3    0    0 -0.55734084631E+01  0.14680012415E+02 -0.10251953282E+02  0.18752818262E+02  0.51100000000E-03 0.  1.
        -12    1    3    3    0    0 -0.35396293747E+01  0.58076594842E+01 -0.10071980244E+02  0.12153298764E+02  0.00000000000E+00 0.  1.
</event>
<event>
 7    1  0.4047706E-008  0.4614232E+02  0.7816164E-02  0.1320468E+00
        -11   -1    0    0    0    0  0.00000000000E+00  0.00000000000E+00  0.45593999997E+02  0.45594000000E+02  0.51100000000E-03 0.  1.
         11   -1    0    0    0    0 -0.00000000000E+00 -0.00000000000E+00 -0.45593999997E+02  0.45594000000E+02  0.51100000000E-03 0. -1.
    9900012    2    1    2    0    0 -0.94257212782E+01 -0.25210241741E+02 -0.36120810741E+02  0.46142317866E+02  0.10000000960E+02 0.  0.
        -12    1    1    2    0    0  0.94257212782E+01  0.25210241741E+02  0.36120810741E+02  0.45045682134E+02  0.00000000000E+00 0.  1.
         11    1    3    3    0    0 -0.31637065809E+00 -0.27933021647E+01 -0.75205182296E+00  0.29100188285E+01  0.51100000000E-03 0. -1.
        -11    1    3    3    0    0 -0.21436535984E+01 -0.76318094709E+01 -0.74336731926E+01  0.10867348524E+02  0.51100000000E-03 0.  1.
         12    1    3    3    0    0 -0.69656970217E+01 -0.14785130106E+02 -0.27935085726E+02  0.32364950514E+02  0.00000000000E+00 0. -1.
</event>
<event>
 7    1  0.4047706E-008  0.4614232E+02  0.7816164E-02  0.1320468E+00
        -11   -1    0    0    0    0  0.00000000000E+00  0.00000000000E+00  0.45593999997E+02  0.45594000000E+02  0.51100000000E-03 0. -1.
         11   -1    0    0    0    0 -0.00000000000E+00 -0.00000000000E+00 -0.45593999997E+02  0.45594000000E+02  0.51100000000E-03 0.  1.
    9900012    2    1    2    0    0 -0.22082303065E+01  0.42690795633E+02  0.14203281366E+02  0.46142317472E+02  0.99999973596E+01 0.  0.
        -12    1    1    2    0    0  0.22082303065E+01 -0.42690795633E+02 -0.14203281366E+02  0.45045682528E+02  0.00000000000E+00 0.  1.
         11    1    3    3    0    0 -0.46584253400E+01  0.14313597365E+02  0.41633609734E+01  0.15617732583E+02  0.51100000000E-03 0. -1.
        -11    1    3    3    0    0 -0.76109785672E+00  0.97670419369E+01  0.48929221819E+01  0.10950573770E+02  0.51100000000E-03 0.  1.
        -12    1    3    3    0    0  0.32112928902E+01  0.18610156331E+02  0.51469982104E+01  0.19574011119E+02  0.00000000000E+00 0.  1.
</event>
<event>
 7    1  0.4047706E-008  0.4614232E+02  0.7816164E-02  0.1320468E+00
        -11   -1    0    0    0    0  0.00000000000E+00  0.00000000000E+00  0.45593999997E+02  0.45594000000E+02  0.51100000000E-03 0.  1.
         11   -1    0    0    0    0 -0.00000000000E+00 -0.00000000000E+00 -0.45593999997E+02  0.45594000000E+02  0.51100000000E-03 0. -1.
    9900012    2    1    2    0    0 -0.84932907314E+01  0.31802967296E+02 -0.30749778016E+02  0.46142316918E+02  0.99999923123E+01 0.  0.
        -12    1    1    2    0    0  0.84932907314E+01 -0.31802967296E+02  0.30749778016E+02  0.45045683082E+02  0.00000000000E+00 0.  1.
         11    1    3    3    0    0 -0.29242507198E+01  0.74910344303E+01 -0.11300606015E+02  0.13869770571E+02  0.51100000000E-03 0.  1.
        -11    1    3    3    0    0 -0.56762469114E+01  0.13700375222E+02 -0.88284184671E+01  0.17258650965E+02  0.51100000000E-03 0. -1.
         12    1    3    3    0    0  0.10720689971E+00  0.10611557643E+02 -0.10620753534E+02  0.15013895383E+02  0.00000000000E+00 0. -1.
</event>
<event>
 7    1  0.4047706E-008  0.4614232E+02  0.7816164E-02  0.1320468E+00
        -11   -1    0    0    0    0  0.00000000000E+00  0.00000000000E+00  0.45593999997E+02  0.45594000000E+02  0.51100000000E-03 0. -1.
         11   -1    0    0    0    0 -0.00000000000E+00 -0.00000000000E+00 -0.45593999997E+02  0.45594000000E+02  0.51100000000E-03 0.  1.
    9900012    2    1    2    0    0 -0.63861634065E+00 -0.28663084516E+02  0.34743823267E+02  0.46142317632E+02  0.99999988240E+01 0.  0.
        -12    1    1    2    0    0  0.63861634065E+00  0.28663084516E+02 -0.34743823267E+02  0.45045682368E+02  0.00000000000E+00 0.  1.
         11    1    3    3    0    0 -0.75104282810E+00 -0.77359044928E+01  0.85462938165E+01  0.11551944508E+02  0.51100000000E-03 0. -1.
        -11    1    3    3    0    0 -0.34044431519E+01 -0.37972864277E+01  0.59564434458E+01  0.78414817588E+01  0.51100000000E-03 0.  1.
        -12    1    3    3    0    0  0.35168696394E+01 -0.17129893596E+02  0.20241086004E+02  0.26748891366E+02  0.00000000000E+00 0.  1.
</event>
<event>
 7    1  0.4047706E-008  0.4614232E+02  0.7816164E-02  0.1320468E+00
        -11   -1    0    0    0    0  0.00000000000E+00  0.00000000000E+00  0.45593999997E+02  0.45594000000E+02  0.51100000000E-03 0.  1.
         11   -1    0    0    0    0 -0.00000000000E+00 -0.00000000000E+00 -0.45593999997E+02  0.45594000000E+02  0.51100000000E-03 0. -1.
    9900012    2    1    2    0    0 -0.34064208594E+02  0.79680623736E+01 -0.28376986339E+02  0.46142315647E+02  0.99999807216E+01 0.  0.
        -12    1    1    2    0    0  0.34064208594E+02 -0.79680623736E+01  0.28376986339E+02  0.45045684353E+02  0.00000000000E+00 0.  1.
         11    1    3    3    0    0 -0.62871984707E+01 -0.28232020985E+00 -0.47977064785E+01  0.79136942717E+01  0.51100000000E-03 0. -1.
        -11    1    3    3    0    0 -0.19288171090E+02  0.34709131101E+01 -0.11545885358E+02  0.22746170024E+02  0.51100000000E-03 0.  1.
         12    1    3    3    0    0 -0.84888390341E+01  0.47794694733E+01 -0.12033394502E+02  0.15482451351E+02  0.00000000000E+00 0. -1.
</event>
<event>
 7    1  0.4047706E-008  0.4614232E+02  0.7816164E-02  0.1320468E+00
        -11   -1    0    0    0    0  0.00000000000E+00  0.00000000000E+00  0.45593999997E+02  0.45594000000E+02  0.51100000000E-03 0. -1.
         11   -1    0    0    0    0 -0.00000000000E+00 -0.00000000000E+00 -0.45593999997E+02  0.45594000000E+02  0.51100000000E-03 0.  1.
    9900012    2    1    2    0    0  0.30217342023E+02  0.27430964393E+02  0.19067461345E+02  0.46142315982E+02  0.99999837792E+01 0.  0.
        -12    1    1    2    0    0 -0.30217342023E+02 -0.27430964393E+02 -0.19067461345E+02  0.45045684018E+02  0.00000000000E+00 0.  1.
         11    1    3    3    0    0  0.11381731214E+02  0.13347399903E+02  0.10836753371E+02  0.20618732101E+02  0.51100000000E-03 0. -1.
        -11    1    3    3    0    0  0.38892180603E-02  0.13394528127E+01 -0.49075054092E-02  0.13394675465E+01  0.51100000000E-03 0.  1.
        -12    1    3    3    0    0  0.18831721591E+02  0.12744111678E+02  0.82356154795E+01  0.24184116334E+02  0.00000000000E+00 0.  1.
</event>
<event>
 7    1  0.4047706E-008  0.4614232E+02  0.7816164E-02  0.1320468E+00
        -11   -1    0    0    0    0  0.00000000000E+00  0.00000000000E+00  0.45593999997E+02  0.45594000000E+02  0.51100000000E-03 0. -1.
         11   -1    0    0    0    0 -0.00000000000E+00 -0.00000000000E+00 -0.45593999997E+02  0.45594000000E+02  0.51100000000E-03 0.  1.
    9900012    2    1    2    0    0  0.11390173640E+01  0.27867703207E+02  0.35372409468E+02  0.46142316587E+02  0.99999892932E+01 0.  0.
        -12    1    1    2    0    0 -0.11390173640E+01 -0.27867703207E+02 -0.35372409468E+02  0.45045683413E+02  0.00000000000E+00 0.  1.
         11    1    3    3    0    0  0.38396131006E+00  0.41802986654E+00 -0.21022368152E+00  0.60528465563E+00  0.51100000000E-03 0. -1.
        -11    1    3    3    0    0 -0.93660952912E+00  0.21523720872E+01  0.76998248425E+00  0.24703878843E+01  0.51100000000E-03 0.  1.
         12    1    3    3    0    0  0.16916655831E+01  0.25297301253E+02  0.34812650665E+02  0.43066644047E+02  0.00000000000E+00 0. -1.
</event>
<event>
 7    1  0.4047706E-008  0.4614232E+02  0.7816164E-02  0.1320468E+00
        -11   -1    0    0    0    0  0.00000000000E+00  0.00000000000E+00  0.45593999997E+02  0.45594000000E+02  0.51100000000E-03 0.  1.
         11   -1    0    0    0    0 -0.00000000000E+00 -0.00000000000E+00 -0.45593999997E+02  0.45594000000E+02  0.51100000000E-03 0. -1.
    9900012    2    1    2    0    0  0.10523583340E+02  0.41319654792E+02 -0.14527688456E+02  0.46142318628E+02  0.10000007904E+02 0.  0.
        -12    1    1    2    0    0 -0.10523583340E+02 -0.41319654792E+02  0.14527688456E+02  0.45045681372E+02  0.00000000000E+00 0.  1.
         11    1    3    3    0    0  0.34669412271E+01  0.35369616966E+01 -0.21523261242E+01  0.54002118034E+01  0.51100000000E-03 0. -1.
        -11    1    3    3    0    0  0.20987772971E+01  0.10149006924E+02 -0.59170634589E+01  0.11933936816E+02  0.51100000000E-03 0.  1.
         12    1    3    3    0    0  0.49578648156E+01  0.27633686170E+02 -0.64582988729E+01  0.28808170008E+02  0.00000000000E+00 0. -1.
</event>
<event>
 7    1  0.4047706E-008  0.4614232E+02  0.7816164E-02  0.1320468E+00
        -11   -1    0    0    0    0  0.00000000000E+00  0.00000000000E+00  0.45593999997E+02  0.45594000000E+02  0.51100000000E-03 0.  1.
         11   -1    0    0    0    0 -0.00000000000E+00 -0.00000000000E+00 -0.45593999997E+02  0.45594000000E+02  0.51100000000E-03 0. -1.
    9900012    2    1    2    0    0  0.17415352642E+02 -0.35858740801E+02 -0.20975451752E+02  0.46142319012E+02  0.10000011407E+02 0.  0.
        -12    1    1    2    0    0 -0.17415352642E+02  0.35858740801E+02  0.20975451752E+02  0.45045680988E+02  0.00000000000E+00 0.  1.
         11    1    3    3    0    0  0.28971541857E+01 -0.36719299607E+01 -0.16908610699E+01  0.49734880547E+01  0.51100000000E-03 0. -1.
        -11    1    3    3    0    0  0.16426634393E+01 -0.64915207571E+01 -0.25839695977E+00  0.67011158895E+01  0.51100000000E-03 0.  1.
         12    1    3    3    0    0  0.12875535017E+02 -0.25695290083E+02 -0.19026193723E+02  0.34467715068E+02  0.00000000000E+00 0. -1.
</event>
<event>
 7    1  0.4047706E-008  0.4614231E+02  0.7816164E-02  0.1320468E+00
        -11   -1    0    0    0    0  0.00000000000E+00  0.00000000000E+00  0.45593999997E+02  0.45594000000E+02  0.51100000000E-03 0.  1.
         11   -1    0    0    0    0 -0.00000000000E+00 -0.00000000000E+00 -0.45593999997E+02  0.45594000000E+02  0.51100000000E-03 0. -1.
    9900012    2    1    2    0    0 -0.35504833587E+02  0.27721024146E+02 -0.25580972113E+00  0.46142314009E+02  0.99999657893E+01 0.  0.
        -12    1    1    2    0    0  0.35504833587E+02 -0.27721024146E+02  0.25580972113E+00  0.45045685991E+02  0.00000000000E+00 0.  1.
         11    1    3    3    0    0 -0.92592719277E+00  0.28233404551E+01 -0.60411136715E-01  0.29719088577E+01  0.51100000000E-03 0.  1.
        -11    1    3    3    0    0 -0.26162382660E+02  0.21271109490E+02  0.18907442534E+01  0.33771367746E+02  0.51100000000E-03 0. -1.
         12    1    3    3    0    0 -0.84165237348E+01  0.36265742012E+01 -0.20861428378E+01  0.93990374058E+01  0.00000000000E+00 0. -1.
</event>
<event>
 7    1  0.4047706E-008  0.4614232E+02  0.7816164E-02  0.1320468E+00
        -11   -1    0    0    0    0  0.00000000000E+00  0.00000000000E+00  0.45593999997E+02  0.45594000000E+02  0.51100000000E-03 0. -1.
         11   -1    0    0    0    0 -0.00000000000E+00 -0.00000000000E+00 -0.45593999997E+02  0.45594000000E+02  0.51100000000E-03 0.  1.
    9900012    2    1    2    0    0 -0.35081095654E+02  0.13636538283E+02 -0.24748235953E+02  0.46142316173E+02  0.99999855194E+01 0.  0.
        -12    1    1    2    0    0  0.35081095654E+02 -0.13636538283E+02  0.24748235953E+02  0.45045683827E+02  0.00000000000E+00 0.  1.
         11    1    3    3    0    0 -0.23287229578E+02  0.11060697065E+02 -0.13129981726E+02  0.28931479419E+02  0.51100000000E-03 0. -1.
        -11    1    3    3    0    0 -0.14948617855E+01 -0.70559764954E+00 -0.28407364681E+01  0.32866797445E+01  0.51100000000E-03 0.  1.
         12    1    3    3    0    0 -0.10299004290E+02  0.32814388679E+01 -0.87775177587E+01  0.13924157009E+02  0.00000000000E+00 0. -1.
</event>
<event>
 7    1  0.4047706E-008  0.4614232E+02  0.7816164E-02  0.1320468E+00
        -11   -1    0    0    0    0  0.00000000000E+00  0.00000000000E+00  0.45593999997E+02  0.45594000000E+02  0.51100000000E-03 0. -1.
         11   -1    0    0    0    0 -0.00000000000E+00 -0.00000000000E+00 -0.45593999997E+02  0.45594000000E+02  0.51100000000E-03 0.  1.
    9900012    2    1    2    0    0 -0.12200811833E+02  0.30285121339E+02  0.31033290586E+02  0.46142317538E+02  0.99999979624E+01 0.  0.
        -12    1    1    2    0    0  0.12200811833E+02 -0.30285121339E+02 -0.31033290586E+02  0.45045682462E+02  0.00000000000E+00 0.  1.
         11    1    3    3    0    0 -0.18478447267E+01  0.42585273433E+01  0.39694790786E+01  0.61078924094E+01  0.51100000000E-03 0. -1.
        -11    1    3    3    0    0 -0.88392577990E+01  0.19381072058E+02  0.14587199441E+02  0.25817529323E+02  0.51100000000E-03 0.  1.
         12    1    3    3    0    0 -0.15137093073E+01  0.66455219384E+01  0.12476612066E+02  0.14216895805E+02  0.00000000000E+00 0. -1.
</event>
<event>
 7    1  0.4047706E-008  0.4614232E+02  0.7816164E-02  0.1320468E+00
        -11   -1    0    0    0    0  0.00000000000E+00  0.00000000000E+00  0.45593999997E+02  0.45594000000E+02  0.51100000000E-03 0.  1.
         11   -1    0    0    0    0 -0.00000000000E+00 -0.00000000000E+00 -0.45593999997E+02  0.45594000000E+02  0.51100000000E-03 0. -1.
    9900012    2    1    2    0    0  0.27258959581E+02 -0.29646594686E+02 -0.20177761266E+02  0.46142317591E+02  0.99999984499E+01 0.  0.
        -12    1    1    2    0    0 -0.27258959581E+02  0.29646594686E+02  0.20177761266E+02  0.45045682409E+02  0.00000000000E+00 0.  1.
         11    1    3    3    0    0  0.87745506259E+01 -0.83370003765E+01 -0.43093610764E+01  0.12847914504E+02  0.51100000000E-03 0. -1.
        -11    1    3    3    0    0  0.87483876261E+00 -0.46078650167E+00  0.83822665463E+00  0.12962604855E+01  0.51100000000E-03 0.  1.
        -12    1    3    3    0    0  0.17609570193E+02 -0.20848807808E+02 -0.16706626845E+02  0.31998142601E+02  0.00000000000E+00 0.  1.
</event>
<event>
 7    1  0.4047706E-008  0.4614232E+02  0.7816164E-02  0.1320468E+00
        -11   -1    0    0    0    0  0.00000000000E+00  0.00000000000E+00  0.45593999997E+02  0.45594000000E+02  0.51100000000E-03 0.  1.
         11   -1    0    0    0    0 -0.00000000000E+00 -0.00000000000E+00 -0.45593999997E+02  0.45594000000E+02  0.51100000000E-03 0. -1.
    9900012    2    1    2    0    0  0.41541511401E+02 -0.88913994561E+01 -0.14978629475E+02  0.46142317691E+02  0.99999993566E+01 0.  0.
        -12    1    1    2    0    0 -0.41541511401E+02  0.88913994561E+01  0.14978629475E+02  0.45045682309E+02  0.00000000000E+00 0.  1.
         11    1    3    3    0    0 -0.12634600536E+00 -0.86578940043E-01 -0.34268640061E+00  0.37535777095E+00  0.51100000000E-03 0. -1.
        -11    1    3    3    0    0  0.36348305788E+01 -0.68036070712E+00  0.10306948563E+01  0.38389082011E+01  0.51100000000E-03 0.  1.
         12    1    3    3    0    0  0.38033026828E+02 -0.81244598089E+01 -0.15666637930E+02  0.41928051719E+02  0.00000000000E+00 0. -1.
</event>
<event>
 7    1  0.4047706E-008  0.4614231E+02  0.7816164E-02  0.1320468E+00
        -11   -1    0    0    0    0  0.00000000000E+00  0.00000000000E+00  0.45593999997E+02  0.45594000000E+02  0.51100000000E-03 0.  1.
         11   -1    0    0    0    0 -0.00000000000E+00 -0.00000000000E+00 -0.45593999997E+02  0.45594000000E+02  0.51100000000E-03 0. -1.
    9900012    2    1    2    0    0  0.98894262967E+01 -0.10133819990E+02 -0.42762355078E+02  0.46142311284E+02  0.99999409400E+01 0.  0.
        -12    1    1    2    0    0 -0.98894262967E+01  0.10133819990E+02  0.42762355078E+02  0.45045688716E+02  0.00000000000E+00 0.  1.
         11    1    3    3    0    0  0.52691167525E+01 -0.29264187862E+01 -0.20108291231E+02  0.20992162698E+02  0.51100000000E-03 0. -1.
        -11    1    3    3    0    0  0.59190111944E+00  0.88242446308E+00 -0.40751319731E+00  0.11380189521E+01  0.51100000000E-03 0.  1.
        -12    1    3    3    0    0  0.40284084248E+01 -0.80898256672E+01 -0.22246550650E+02  0.24012129634E+02  0.00000000000E+00 0.  1.
</event>
<event>
 7    1  0.4047706E-008  0.4614232E+02  0.7816164E-02  0.1320468E+00
        -11   -1    0    0    0    0  0.00000000000E+00  0.00000000000E+00  0.45593999997E+02  0.45594000000E+02  0.51100000000E-03 0. -1.
         11   -1    0    0    0    0 -0.00000000000E+00 -0.00000000000E+00 -0.45593999997E+02  0.45594000000E+02  0.51100000000E-03 0.  1.
    9900012    2    1    2    0    0 -0.89334753915E+00  0.38607671775E+02  0.23189718896E+02  0.46142318163E+02  0.10000003663E+02 0.  0.
        -12    1    1    2    0    0  0.89334753915E+00 -0.38607671775E+02 -0.23189718896E+02  0.45045681837E+02  0.00000000000E+00 0.  1.
         11    1    3    3    0    0 -0.16267911374E+01  0.20794499146E+01  0.24002025090E+01  0.35681274777E+01  0.51100000000E-03 0. -1.
        -11    1    3    3    0    0  0.25211195586E+01  0.10677741057E+02  0.85886423127E+01  0.13933232753E+02  0.51100000000E-03 0.  1.
         12    1    3    3    0    0 -0.17876759603E+01  0.25850480803E+02  0.12200874074E+02  0.28640957932E+02  0.00000000000E+00 0. -1.
</event>
<event>
 7    1  0.4047706E-008  0.4614232E+02  0.7816164E-02  0.1320468E+00
        -11   -1    0    0    0    0  0.00000000000E+00  0.00000000000E+00  0.45593999997E+02  0.45594000000E+02  0.51100000000E-03 0. -1.
         11   -1    0    0    0    0 -0.00000000000E+00 -0.00000000000E+00 -0.45593999997E+02  0.45594000000E+02  0.51100000000E-03 0.  1.
    9900012    2    1    2    0    0  0.42631493427E+02  0.10987274430E+02  0.95367187683E+01  0.46142318342E+02  0.10000005296E+02 0.  0.
        -12    1    1    2    0    0 -0.42631493427E+02 -0.10987274430E+02 -0.95367187683E+01  0.45045681658E+02  0.00000000000E+00 0.  1.
         11    1    3    3    0    0  0.33313929794E+02  0.84540546947E+01  0.80349763466E+01  0.35296597630E+02  0.51100000000E-03 0. -1.
        -11    1    3    3    0    0  0.31632412953E+01 -0.94695661507E+00  0.18163624202E+01  0.37685534394E+01  0.51100000000E-03 0.  1.
        -12    1    3    3    0    0  0.61543223376E+01  0.34801763505E+01 -0.31461999842E+00  0.70771672730E+01  0.00000000000E+00 0.  1.
</event>
<event>
 7    1  0.4047706E-008  0.4614232E+02  0.7816164E-02  0.1320468E+00
        -11   -1    0    0    0    0  0.00000000000E+00  0.00000000000E+00  0.45593999997E+02  0.45594000000E+02  0.51100000000E-03 0.  1.
         11   -1    0    0    0    0 -0.00000000000E+00 -0.00000000000E+00 -0.45593999997E+02  0.45594000000E+02  0.51100000000E-03 0. -1.
    9900012    2    1    2    0    0 -0.41879790647E+02 -0.13422304284E+02  0.97487652329E+01  0.46142317182E+02  0.99999947189E+01 0.  0.
        -12    1    1    2    0    0  0.41879790647E+02  0.13422304284E+02 -0.97487652329E+01  0.45045682818E+02  0.00000000000E+00 0.  1.
         11    1    3    3    0    0 -0.94626879048E+01 -0.61437861690E+01  0.37527161719E+01  0.11889972658E+02  0.51100000000E-03 0.  1.
        -11    1    3    3    0    0 -0.26780308462E+02 -0.81342615949E+01  0.55514067600E+01  0.28533651191E+02  0.51100000000E-03 0. -1.
        -12    1    3    3    0    0 -0.56367942801E+01  0.85574347933E+00  0.44464230110E+00  0.57186933328E+01  0.00000000000E+00 0.  1.
</event>
<event>
 7    1  0.4047706E-008  0.4614232E+02  0.7816164E-02  0.1320468E+00
        -11   -1    0    0    0    0  0.00000000000E+00  0.00000000000E+00  0.45593999997E+02  0.45594000000E+02  0.51100000000E-03 0. -1.
         11   -1    0    0    0    0 -0.00000000000E+00 -0.00000000000E+00 -0.45593999997E+02  0.45594000000E+02  0.51100000000E-03 0.  1.
    9900012    2    1    2    0    0 -0.16399088676E+02 -0.29103073544E+02  0.30219110210E+02  0.46142316289E+02  0.99999865761E+01 0.  0.
        -12    1    1    2    0    0  0.16399088676E+02  0.29103073544E+02 -0.30219110210E+02  0.45045683711E+02  0.00000000000E+00 0.  1.
         11    1    3    3    0    0 -0.13456180645E+00  0.14180583355E+00  0.26961383285E+00  0.33302800809E+00  0.51100000000E-03 0. -1.
        -11    1    3    3    0    0  0.63098667747E+00 -0.53960373017E+01  0.44776689290E+01  0.70402330961E+01  0.51100000000E-03 0.  1.
         12    1    3    3    0    0 -0.16895513547E+02 -0.23848842076E+02  0.25471827448E+02  0.38769055185E+02  0.00000000000E+00 0. -1.
</event>
<event>
 7    1  0.4047706E-008  0.4614232E+02  0.7816164E-02  0.1320468E+00
        -11   -1    0    0    0    0  0.00000000000E+00  0.00000000000E+00  0.45593999997E+02  0.45594000000E+02  0.51100000000E-03 0. -1.
         11   -1    0    0    0    0 -0.00000000000E+00 -0.00000000000E+00 -0.45593999997E+02  0.45594000000E+02  0.51100000000E-03 0.  1.
    9900012    2    1    2    0    0 -0.27610350272E+02  0.24353693828E+02  0.25955343236E+02  0.46142315548E+02  0.99999798211E+01 0.  0.
        -12    1    1    2    0    0  0.27610350272E+02 -0.24353693828E+02 -0.25955343236E+02  0.45045684452E+02  0.00000000000E+00 0.  1.
         11    1    3    3    0    0 -0.89596828605E+01  0.66805597985E+01  0.89997245271E+01  0.14349245207E+02  0.51100000000E-03 0. -1.
        -11    1    3    3    0    0 -0.83584560587E+01  0.10899685411E+02  0.49787475386E+01  0.14610094355E+02  0.51100000000E-03 0.  1.
        -12    1    3    3    0    0 -0.10292211353E+02  0.67734486191E+01  0.11976871171E+02  0.17182975987E+02  0.00000000000E+00 0.  1.
</event>
<event>
 7    1  0.4047706E-008  0.4614232E+02  0.7816164E-02  0.1320468E+00
        -11   -1    0    0    0    0  0.00000000000E+00  0.00000000000E+00  0.45593999997E+02  0.45594000000E+02  0.51100000000E-03 0. -1.
         11   -1    0    0    0    0 -0.00000000000E+00 -0.00000000000E+00 -0.45593999997E+02  0.45594000000E+02  0.51100000000E-03 0.  1.
    9900012    2    1    2    0    0  0.42291139632E+02 -0.12131844025E+02  0.96639198248E+01  0.46142317885E+02  0.10000001133E+02 0.  0.
        -12    1    1    2    0    0 -0.42291139632E+02  0.12131844025E+02 -0.96639198248E+01  0.45045682115E+02  0.00000000000E+00 0.  1.
         11    1    3    3    0    0  0.22843858048E+00 -0.10741760967E+01  0.11866566795E+00  0.11045905457E+01  0.51100000000E-03 0. -1.
        -11    1    3    3    0    0  0.93059613222E+01 -0.52825929389E+01  0.32678189037E+01  0.11188625695E+02  0.51100000000E-03 0.  1.
         12    1    3    3    0    0  0.32756739729E+02 -0.57750749895E+01  0.62774352531E+01  0.33849101645E+02  0.00000000000E+00 0. -1.
</event>
<event>
 7    1  0.4047706E-008  0.4614232E+02  0.7816164E-02  0.1320468E+00
        -11   -1    0    0    0    0  0.00000000000E+00  0.00000000000E+00  0.45593999997E+02  0.45594000000E+02  0.51100000000E-03 0. -1.
         11   -1    0    0    0    0 -0.00000000000E+00 -0.00000000000E+00 -0.45593999997E+02  0.45594000000E+02  0.51100000000E-03 0.  1.
    9900012    2    1    2    0    0  0.23116151930E+02  0.18069863419E+02  0.34179482590E+02  0.46142317919E+02  0.10000001439E+02 0.  0.
        -12    1    1    2    0    0 -0.23116151930E+02 -0.18069863419E+02 -0.34179482590E+02  0.45045682081E+02  0.00000000000E+00 0.  1.
         11    1    3    3    0    0  0.12741612453E+02  0.53652070452E+01  0.12565957135E+02  0.18682543016E+02  0.51100000000E-03 0. -1.
        -11    1    3    3    0    0  0.91340376771E+01  0.11447206550E+02  0.16560915149E+02  0.22107308586E+02  0.51100000000E-03 0.  1.
        -12    1    3    3    0    0  0.12405017991E+01  0.12574498243E+01  0.50526103057E+01  0.53524663171E+01  0.00000000000E+00 0.  1.
</event>
<event>
 7    1  0.4047706E-008  0.4614232E+02  0.7816164E-02  0.1320468E+00
        -11   -1    0    0    0    0  0.00000000000E+00  0.00000000000E+00  0.45593999997E+02  0.45594000000E+02  0.51100000000E-03 0.  1.
         11   -1    0    0    0    0 -0.00000000000E+00 -0.00000000000E+00 -0.45593999997E+02  0.45594000000E+02  0.51100000000E-03 0. -1.
    9900012    2    1    2    0    0 -0.19580509590E+02 -0.22814594863E+02 -0.33544168890E+02  0.46142319173E+02  0.10000012878E+02 0.  0.
        -12    1    1    2    0    0  0.19580509590E+02  0.22814594863E+02  0.33544168890E+02  0.45045680827E+02  0.00000000000E+00 0.  1.
         11    1    3    3    0    0 -0.14605171131E+02 -0.16624703270E+02 -0.20883152343E+02  0.30426926145E+02  0.51100000000E-03 0. -1.
        -11    1    3    3    0    0 -0.30070686806E+01 -0.19880916205E+01 -0.20803958433E+01  0.41620929191E+01  0.51100000000E-03 0.  1.
        -12    1    3    3    0    0 -0.19682697783E+01 -0.42017999732E+01 -0.10580620704E+02  0.11553300110E+02  0.00000000000E+00 0.  1.
</event>
<event>
 7    1  0.4047706E-008  0.4614232E+02  0.7816164E-02  0.1320468E+00
        -11   -1    0    0    0    0  0.00000000000E+00  0.00000000000E+00  0.45593999997E+02  0.45594000000E+02  0.51100000000E-03 0. -1.
         11   -1    0    0    0    0 -0.00000000000E+00 -0.00000000000E+00 -0.45593999997E+02  0.45594000000E+02  0.51100000000E-03 0.  1.
    9900012    2    1    2    0    0  0.25516608165E+02  0.21185142485E+00  0.37121035622E+02  0.46142318088E+02  0.10000002978E+02 0.  0.
        -12    1    1    2    0    0 -0.25516608165E+02 -0.21185142485E+00 -0.37121035622E+02  0.45045681912E+02  0.00000000000E+00 0.  1.
         11    1    3    3    0    0  0.14438317377E+01 -0.22142202355E+00  0.45577482080E+00  0.15301662484E+01  0.51100000000E-03 0. -1.
        -11    1    3    3    0    0  0.51953168633E+00  0.15654353769E+01  0.12711005301E+01  0.20823539351E+01  0.51100000000E-03 0.  1.
         12    1    3    3    0    0  0.23553244741E+02 -0.11321619285E+01  0.35394160271E+02  0.42529797904E+02  0.00000000000E+00 0. -1.
</event>
<event>
 7    1  0.4047706E-008  0.4614232E+02  0.7816164E-02  0.1320468E+00
        -11   -1    0    0    0    0  0.00000000000E+00  0.00000000000E+00  0.45593999997E+02  0.45594000000E+02  0.51100000000E-03 0. -1.
         11   -1    0    0    0    0 -0.00000000000E+00 -0.00000000000E+00 -0.45593999997E+02  0.45594000000E+02  0.51100000000E-03 0.  1.
    9900012    2    1    2    0    0  0.73896392652E+01  0.42368608505E+02  0.13394317842E+02  0.46142317570E+02  0.99999982616E+01 0.  0.
        -12    1    1    2    0    0 -0.73896392652E+01 -0.42368608505E+02 -0.13394317842E+02  0.45045682430E+02  0.00000000000E+00 0.  1.
         11    1    3    3    0    0  0.17138393581E+00  0.25167058630E+01 -0.77421345449E+00  0.26386715576E+01  0.51100000000E-03 0.  1.
        -11    1    3    3    0    0  0.60289544501E+01  0.33005548110E+02  0.14491008671E+02  0.36547282120E+02  0.51100000000E-03 0. -1.
         12    1    3    3    0    0  0.11893008792E+01  0.68463545319E+01 -0.32247737407E+00  0.69563638932E+01  0.00000000000E+00 0. -1.
</event>
<event>
 7    1  0.4047706E-008  0.4614232E+02  0.7816164E-02  0.1320468E+00
        -11   -1    0    0    0    0  0.00000000000E+00  0.00000000000E+00  0.45593999997E+02  0.45594000000E+02  0.51100000000E-03 0.  1.
         11   -1    0    0    0    0 -0.00000000000E+00 -0.00000000000E+00 -0.45593999997E+02  0.45594000000E+02  0.51100000000E-03 0. -1.
    9900012    2    1    2    0    0 -0.23012216952E+02  0.73665807015E+01 -0.38016902455E+02  0.46142317493E+02  0.99999975545E+01 0.  0.
        -12    1    1    2    0    0  0.23012216952E+02 -0.73665807015E+01  0.38016902455E+02  0.45045682507E+02  0.00000000000E+00 0.  1.
         11    1    3    3    0    0 -0.87135718283E+01  0.10983719918E+01 -0.13503540551E+02  0.16108332089E+02  0.51100000000E-03 0. -1.
        -11    1    3    3    0    0 -0.87533722714E+01 -0.29361898539E+00 -0.12689781941E+02  0.15418764679E+02  0.51100000000E-03 0.  1.
        -12    1    3    3    0    0 -0.55452728524E+01  0.65618276951E+01 -0.11823579963E+02  0.14615220725E+02  0.00000000000E+00 0.  1.
</event>
<event>
 7    1  0.4047706E-008  0.4614232E+02  0.7816164E-02  0.1320468E+00
        -11   -1    0    0    0    0  0.00000000000E+00  0.00000000000E+00  0.45593999997E+02  0.45594000000E+02  0.51100000000E-03 0.  1.
         11   -1    0    0    0    0 -0.00000000000E+00 -0.00000000000E+00 -0.45593999997E+02  0.45594000000E+02  0.51100000000E-03 0. -1.
    9900012    2    1    2    0    0  0.30039548562E+02  0.28594849610E+01 -0.33444913639E+02  0.46142318960E+02  0.10000010930E+02 0.  0.
        -12    1    1    2    0    0 -0.30039548562E+02 -0.28594849610E+01  0.33444913639E+02  0.45045681040E+02  0.00000000000E+00 0.  1.
         11    1    3    3    0    0  0.34815701835E+01  0.21785887008E+00 -0.62576108612E+01  0.71642506503E+01  0.51100000000E-03 0. -1.
        -11    1    3    3    0    0  0.14512278151E+02 -0.25099308009E+01 -0.16045432807E+02  0.21779850413E+02  0.51100000000E-03 0.  1.
         12    1    3    3    0    0  0.12045700228E+02  0.51515568919E+01 -0.11141869971E+02  0.17198217897E+02  0.00000000000E+00 0. -1.
</event>
<event>
 7    1  0.4047706E-008  0.4614232E+02  0.7816164E-02  0.1320468E+00
        -11   -1    0    0    0    0  0.00000000000E+00  0.00000000000E+00  0.45593999997E+02  0.45594000000E+02  0.51100000000E-03 0.  1.
         11   -1    0    0    0    0 -0.00000000000E+00 -0.00000000000E+00 -0.45593999997E+02  0.45594000000E+02  0.51100000000E-03 0. -1.
    9900012    2    1    2    0    0 -0.37839398729E+02 -0.10460090268E+02 -0.22088004390E+02  0.46142317382E+02  0.99999965394E+01 0.  0.
        -12    1    1    2    0    0  0.37839398729E+02  0.10460090268E+02  0.22088004390E+02  0.45045682618E+02  0.00000000000E+00 0.  1.
         11    1    3    3    0    0 -0.17973962524E+01 -0.72692725167E+00  0.46464763297E+00  0.19937287181E+01  0.51100000000E-03 0. -1.
        -11    1    3    3    0    0 -0.10795580590E+02 -0.42320117305E+01 -0.37291907767E+01  0.12180367304E+02  0.51100000000E-03 0.  1.
         12    1    3    3    0    0 -0.25246421887E+02 -0.55011512859E+01 -0.18823461246E+02  0.31968221359E+02  0.00000000000E+00 0. -1.
</event>
<event>
 7    1  0.4047706E-008  0.4614232E+02  0.7816164E-02  0.1320468E+00
        -11   -1    0    0    0    0  0.00000000000E+00  0.00000000000E+00  0.45593999997E+02  0.45594000000E+02  0.51100000000E-03 0.  1.
         11   -1    0    0    0    0 -0.00000000000E+00 -0.00000000000E+00 -0.45593999997E+02  0.45594000000E+02  0.51100000000E-03 0. -1.
    9900012    2    1    2    0    0  0.24955587638E+02 -0.12660574963E+02 -0.35299321345E+02  0.46142316520E+02  0.99999886827E+01 0.  0.
        -12    1    1    2    0    0 -0.24955587638E+02  0.12660574963E+02  0.35299321345E+02  0.45045683480E+02  0.00000000000E+00 0.  1.
         11    1    3    3    0    0  0.52729071051E+01 -0.32665135341E+01 -0.45512057645E+01  0.76933175015E+01  0.51100000000E-03 0. -1.
        -11    1    3    3    0    0  0.64474297418E+01 -0.68146454682E+01 -0.15264829563E+02  0.17917136070E+02  0.51100000000E-03 0.  1.
        -12    1    3    3    0    0  0.13235250791E+02 -0.25794159611E+01 -0.15483286018E+02  0.20531862948E+02  0.00000000000E+00 0.  1.
</event>
<event>
 7    1  0.4047706E-008  0.4614232E+02  0.7816164E-02  0.1320468E+00
        -11   -1    0    0    0    0  0.00000000000E+00  0.00000000000E+00  0.45593999997E+02  0.45594000000E+02  0.51100000000E-03 0.  1.
         11   -1    0    0    0    0 -0.00000000000E+00 -0.00000000000E+00 -0.45593999997E+02  0.45594000000E+02  0.51100000000E-03 0. -1.
    9900012    2    1    2    0    0  0.31384891257E+01  0.72196107403E+01 -0.44352455753E+02  0.46142320689E+02  0.10000026700E+02 0.  0.
        -12    1    1    2    0    0 -0.31384891257E+01 -0.72196107403E+01  0.44352455753E+02  0.45045679311E+02  0.00000000000E+00 0.  1.
         11    1    3    3    0    0  0.26622707457E+01 -0.69360294255E+00 -0.12915797887E+02  0.13205552086E+02  0.51100000000E-03 0. -1.
        -11    1    3    3    0    0 -0.12295053756E+01  0.74954558363E+00 -0.13918856350E+01  0.20027101469E+01  0.51100000000E-03 0.  1.
         12    1    3    3    0    0  0.17057237556E+01  0.71636680992E+01 -0.30044772231E+02  0.30934058457E+02  0.00000000000E+00 0. -1.
</event>
<event>
 7    1  0.4047706E-008  0.4614232E+02  0.7816164E-02  0.1320468E+00
        -11   -1    0    0    0    0  0.00000000000E+00  0.00000000000E+00  0.45593999997E+02  0.45594000000E+02  0.51100000000E-03 0.  1.
         11   -1    0    0    0    0 -0.00000000000E+00 -0.00000000000E+00 -0.45593999997E+02  0.45594000000E+02  0.51100000000E-03 0. -1.
    9900012    2    1    2    0    0 -0.96083745869E+01 -0.36087014862E+02 -0.25189679991E+02  0.46142317833E+02  0.10000000655E+02 0.  0.
        -12    1    1    2    0    0  0.96083745869E+01  0.36087014862E+02  0.25189679991E+02  0.45045682167E+02  0.00000000000E+00 0.  1.
         11    1    3    3    0    0 -0.54685507547E+01 -0.15444385662E+02 -0.97876252359E+01  0.19084855353E+02  0.51100000000E-03 0. -1.
        -11    1    3    3    0    0 -0.58144608014E+01 -0.13016856447E+02 -0.82622848537E+01  0.16477616862E+02  0.51100000000E-03 0.  1.
        -12    1    3    3    0    0  0.16746369691E+01 -0.76257727522E+01 -0.71397699016E+01  0.10579845618E+02  0.00000000000E+00 0.  1.
</event>
<event>
 7    1  0.4047706E-008  0.4614232E+02  0.7816164E-02  0.1320468E+00
        -11   -1    0    0    0    0  0.00000000000E+00  0.00000000000E+00  0.45593999997E+02  0.45594000000E+02  0.51100000000E-03 0.  1.
         11   -1    0    0    0    0 -0.00000000000E+00 -0.00000000000E+00 -0.45593999997E+02  0.45594000000E+02  0.51100000000E-03 0. -1.
    9900012    2    1    2    0    0  0.41827890872E+02 -0.16660211679E+02  0.14065899124E+01  0.46142316487E+02  0.99999883792E+01 0.  0.
        -12    1    1    2    0    0 -0.41827890872E+02  0.16660211679E+02 -0.14065899124E+01  0.45045683513E+02  0.00000000000E+00 0.  1.
         11    1    3    3    0    0  0.22725839103E+01 -0.10196863306E+00  0.11305196808E+01  0.25402972742E+01  0.51100000000E-03 0. -1.
        -11    1    3    3    0    0  0.59033083528E+01 -0.56856826504E+01 -0.68029156527E+00  0.82242831654E+01  0.51100000000E-03 0.  1.
         12    1    3    3    0    0  0.33651998609E+02 -0.10872560395E+02  0.95636179686E+00  0.35377736047E+02  0.00000000000E+00 0. -1.
</event>
<event>
 7    1  0.4047706E-008  0.4614232E+02  0.7816164E-02  0.1320468E+00
        -11   -1    0    0    0    0  0.00000000000E+00  0.00000000000E+00  0.45593999997E+02  0.45594000000E+02  0.51100000000E-03 0. -1.
         11   -1    0    0    0    0 -0.00000000000E+00 -0.00000000000E+00 -0.45593999997E+02  0.45594000000E+02  0.51100000000E-03 0.  1.
    9900012    2    1    2    0    0 -0.35819132116E+02 -0.20263212344E+02 -0.18316808070E+02  0.46142318099E+02  0.10000003084E+02 0.  0.
        -12    1    1    2    0    0  0.35819132116E+02  0.20263212344E+02  0.18316808070E+02  0.45045681901E+02  0.00000000000E+00 0.  1.
         11    1    3    3    0    0  0.23313148578E+00  0.28035610334E-01  0.26850588243E-01  0.23634191401E+00  0.51100000000E-03 0. -1.
        -11    1    3    3    0    0 -0.73422086537E+01 -0.10322220741E+01 -0.44497109734E+01  0.86471636004E+01  0.51100000000E-03 0.  1.
         12    1    3    3    0    0 -0.28710054948E+02 -0.19259025880E+02 -0.13893947685E+02  0.37258812585E+02  0.00000000000E+00 0. -1.
</event>
<event>
 7    1  0.4047706E-008  0.4614232E+02  0.7816164E-02  0.1320468E+00
        -11   -1    0    0    0    0  0.00000000000E+00  0.00000000000E+00  0.45593999997E+02  0.45594000000E+02  0.51100000000E-03 0.  1.
         11   -1    0    0    0    0 -0.00000000000E+00 -0.00000000000E+00 -0.45593999997E+02  0.45594000000E+02  0.51100000000E-03 0. -1.
    9900012    2    1    2    0    0 -0.16601988834E+02  0.34731269958E+02 -0.23392869552E+02  0.46142317720E+02  0.99999996294E+01 0.  0.
        -12    1    1    2    0    0  0.16601988834E+02 -0.34731269958E+02  0.23392869552E+02  0.45045682280E+02  0.00000000000E+00 0.  1.
         11    1    3    3    0    0 -0.21111736514E+01  0.59798702644E+01 -0.22094071871E+01  0.67154585060E+01  0.51100000000E-03 0. -1.
        -11    1    3    3    0    0 -0.15117444908E+02  0.26600483921E+02 -0.21134691343E+02  0.37185992844E+02  0.51100000000E-03 0.  1.
         12    1    3    3    0    0  0.62662972579E+00  0.21509157734E+01 -0.48771021316E-01  0.22408663704E+01  0.00000000000E+00 0. -1.
</event>
<event>
 7    1  0.4047706E-008  0.4614232E+02  0.7816164E-02  0.1320468E+00
        -11   -1    0    0    0    0  0.00000000000E+00  0.00000000000E+00  0.45593999997E+02  0.45594000000E+02  0.51100000000E-03 0.  1.
         11   -1    0    0    0    0 -0.00000000000E+00 -0.00000000000E+00 -0.45593999997E+02  0.45594000000E+02  0.51100000000E-03 0. -1.
    9900012    2    1    2    0    0 -0.32865847906E+02 -0.20640252302E+02 -0.22867654476E+02  0.46142316578E+02  0.99999892142E+01 0.  0.
        -12    1    1    2    0    0  0.32865847906E+02  0.20640252302E+02  0.22867654476E+02  0.45045683422E+02  0.00000000000E+00 0.  1.
         11    1    3    3    0    0 -0.22757812466E+02 -0.15596775752E+02 -0.20004879443E+02  0.34078917880E+02  0.51100000000E-03 0. -1.
        -11    1    3    3    0    0 -0.28743214360E+01 -0.30060649089E+01 -0.15263189564E+01  0.44303272759E+01  0.51100000000E-03 0.  1.
         12    1    3    3    0    0 -0.72337140042E+01 -0.20374116417E+01 -0.13364560765E+01  0.76330714222E+01  0.00000000000E+00 0. -1.
</event>
<event>
 7    1  0.4047706E-008  0.4614232E+02  0.7816164E-02  0.1320468E+00
        -11   -1    0    0    0    0  0.00000000000E+00  0.00000000000E+00  0.45593999997E+02  0.45594000000E+02  0.51100000000E-03 0. -1.
         11   -1    0    0    0    0 -0.00000000000E+00 -0.00000000000E+00 -0.45593999997E+02  0.45594000000E+02  0.51100000000E-03 0.  1.
    9900012    2    1    2    0    0  0.23925283743E+01  0.13092516795E+02  0.43034582620E+02  0.46142317750E+02  0.99999998993E+01 0.  0.
        -12    1    1    2    0    0 -0.23925283743E+01 -0.13092516795E+02 -0.43034582620E+02  0.45045682250E+02  0.00000000000E+00 0.  1.
         11    1    3    3    0    0  0.11980596178E+01  0.60185879552E+01  0.21787679399E+02  0.22635408582E+02  0.51100000000E-03 0. -1.
        -11    1    3    3    0    0 -0.16642972547E+01  0.58315305068E+01  0.18051686943E+02  0.19043109913E+02  0.51100000000E-03 0.  1.
        -12    1    3    3    0    0  0.28587660112E+01  0.12423983329E+01  0.31952162784E+01  0.44637992551E+01  0.00000000000E+00 0.  1.
</event>
<event>
 7    1  0.4047706E-008  0.4614232E+02  0.7816164E-02  0.1320468E+00
        -11   -1    0    0    0    0  0.00000000000E+00  0.00000000000E+00  0.45593999997E+02  0.45594000000E+02  0.51100000000E-03 0. -1.
         11   -1    0    0    0    0 -0.00000000000E+00 -0.00000000000E+00 -0.45593999997E+02  0.45594000000E+02  0.51100000000E-03 0.  1.
    9900012    2    1    2    0    0 -0.43706255436E+02  0.84111639578E+01  0.69375133359E+01  0.46142317247E+02  0.99999953122E+01 0.  0.
        -12    1    1    2    0    0  0.43706255436E+02 -0.84111639578E+01 -0.69375133359E+01  0.45045682753E+02  0.00000000000E+00 0.  1.
         11    1    3    3    0    0 -0.33324997478E+02  0.54533922562E+01  0.10134386156E+01  0.33783457522E+02  0.51100000000E-03 0. -1.
        -11    1    3    3    0    0 -0.65541113612E+01  0.13311107539E+01  0.36782437463E+01  0.76326737709E+01  0.51100000000E-03 0.  1.
         12    1    3    3    0    0 -0.38271465967E+01  0.16266609477E+01  0.22458309740E+01  0.47261859544E+01  0.00000000000E+00 0. -1.
</event>
<event>
 7    1  0.4047706E-008  0.4614232E+02  0.7816164E-02  0.1320468E+00
        -11   -1    0    0    0    0  0.00000000000E+00  0.00000000000E+00  0.45593999997E+02  0.45594000000E+02  0.51100000000E-03 0.  1.
         11   -1    0    0    0    0 -0.00000000000E+00 -0.00000000000E+00 -0.45593999997E+02  0.45594000000E+02  0.51100000000E-03 0. -1.
    9900012    2    1    2    0    0 -0.16896268586E+02 -0.33127500706E+02 -0.25420429383E+02  0.46142318462E+02  0.10000006394E+02 0.  0.
        -12    1    1    2    0    0  0.16896268586E+02  0.33127500706E+02  0.25420429383E+02  0.45045681538E+02  0.00000000000E+00 0.  1.
         11    1    3    3    0    0 -0.64757762171E+01 -0.21017182581E+02 -0.17557165965E+02  0.28140926037E+02  0.51100000000E-03 0. -1.
        -11    1    3    3    0    0 -0.37432980384E+01 -0.27271299711E+01 -0.28739023181E+01  0.54505809670E+01  0.51100000000E-03 0.  1.
         12    1    3    3    0    0 -0.66771943305E+01 -0.93831881547E+01 -0.49893611002E+01  0.12550811458E+02  0.00000000000E+00 0. -1.
</event>
<event>
 7    1  0.4047706E-008  0.4614232E+02  0.7816164E-02  0.1320468E+00
        -11   -1    0    0    0    0  0.00000000000E+00  0.00000000000E+00  0.45593999997E+02  0.45594000000E+02  0.51100000000E-03 0. -1.
         11   -1    0    0    0    0 -0.00000000000E+00 -0.00000000000E+00 -0.45593999997E+02  0.45594000000E+02  0.51100000000E-03 0.  1.
    9900012    2    1    2    0    0 -0.35139814630E+02 -0.16664448317E+01  0.28134140030E+02  0.46142318233E+02  0.10000004305E+02 0.  0.
        -12    1    1    2    0    0  0.35139814630E+02  0.16664448317E+01 -0.28134140030E+02  0.45045681767E+02  0.00000000000E+00 0.  1.
         11    1    3    3    0    0 -0.10257411320E+02 -0.86592984354E+00  0.72306224172E+01  0.12579595474E+02  0.51100000000E-03 0. -1.
        -11    1    3    3    0    0 -0.67842065403E+01 -0.38980462917E+01  0.74116750651E+01  0.10777437117E+02  0.51100000000E-03 0.  1.
         12    1    3    3    0    0 -0.18098196770E+02  0.30975313035E+01  0.13491842548E+02  0.22785285643E+02  0.00000000000E+00 0. -1.
</event>
<event>
 7    1  0.4047706E-008  0.4614232E+02  0.7816164E-02  0.1320468E+00
        -11   -1    0    0    0    0  0.00000000000E+00  0.00000000000E+00  0.45593999997E+02  0.45594000000E+02  0.51100000000E-03 0. -1.
         11   -1    0    0    0    0 -0.00000000000E+00 -0.00000000000E+00 -0.45593999997E+02  0.45594000000E+02  0.51100000000E-03 0.  1.
    9900012    2    1    2    0    0 -0.42634494999E+02 -0.34021712069E+01  0.14136422619E+02  0.46142318995E+02  0.10000011253E+02 0.  0.
        -12    1    1    2    0    0  0.42634494999E+02  0.34021712069E+01 -0.14136422619E+02  0.45045681005E+02  0.00000000000E+00 0.  1.
         11    1    3    3    0    0 -0.16457054337E+02 -0.37034995805E+00  0.27544620970E+01  0.16690082632E+02  0.51100000000E-03 0. -1.
        -11    1    3    3    0    0 -0.17999700293E+02  0.89355672663E+00  0.85667642051E+01  0.19954375547E+02  0.51100000000E-03 0.  1.
        -12    1    3    3    0    0 -0.81777403689E+01 -0.39253779755E+01  0.28151963175E+01  0.94978608169E+01  0.00000000000E+00 0.  1.
</event>
<event>
 7    1  0.4047706E-008  0.4614232E+02  0.7816164E-02  0.1320468E+00
        -11   -1    0    0    0    0  0.00000000000E+00  0.00000000000E+00  0.45593999997E+02  0.45594000000E+02  0.51100000000E-03 0. -1.
         11   -1    0    0    0    0 -0.00000000000E+00 -0.00000000000E+00 -0.45593999997E+02  0.45594000000E+02  0.51100000000E-03 0.  1.
    9900012    2    1    2    0    0  0.29978480440E+02 -0.17202618447E+02  0.28887266491E+02  0.46142317230E+02  0.99999951584E+01 0.  0.
        -12    1    1    2    0    0 -0.29978480440E+02  0.17202618447E+02 -0.28887266491E+02  0.45045682770E+02  0.00000000000E+00 0.  1.
         11    1    3    3    0    0  0.30791173548E+01 -0.11924571062E+01  0.57417357710E+01  0.66234769993E+01  0.51100000000E-03 0. -1.
        -11    1    3    3    0    0  0.15228211812E+02 -0.12302491666E+02  0.16397313740E+02  0.25536672342E+02  0.51100000000E-03 0.  1.
         12    1    3    3    0    0  0.11671151273E+02 -0.37076696746E+01  0.67482169795E+01  0.13982167888E+02  0.00000000000E+00 0. -1.
</event>
<event>
 7    1  0.4047706E-008  0.4614232E+02  0.7816164E-02  0.1320468E+00
        -11   -1    0    0    0    0  0.00000000000E+00  0.00000000000E+00  0.45593999997E+02  0.45594000000E+02  0.51100000000E-03 0.  1.
         11   -1    0    0    0    0 -0.00000000000E+00 -0.00000000000E+00 -0.45593999997E+02  0.45594000000E+02  0.51100000000E-03 0. -1.
    9900012    2    1    2    0    0 -0.78742629899E+00 -0.31122320556E+02 -0.32556023231E+02  0.46142317348E+02  0.99999962303E+01 0.  0.
        -12    1    1    2    0    0  0.78742629899E+00  0.31122320556E+02  0.32556023231E+02  0.45045682652E+02  0.00000000000E+00 0.  1.
         11    1    3    3    0    0  0.17294969619E+01 -0.20628207102E+01 -0.37351512593E+01  0.46041008041E+01  0.51100000000E-03 0. -1.
        -11    1    3    3    0    0  0.22130706352E+01 -0.69941529851E+01 -0.75455129189E+01  0.10523812194E+02  0.51100000000E-03 0.  1.
         12    1    3    3    0    0 -0.47299938961E+01 -0.22065346861E+02 -0.21275359053E+02  0.31014404350E+02  0.00000000000E+00 0. -1.
</event>
<event>
 7    1  0.4047706E-008  0.4614232E+02  0.7816164E-02  0.1320468E+00
        -11   -1    0    0    0    0  0.00000000000E+00  0.00000000000E+00  0.45593999997E+02  0.45594000000E+02  0.51100000000E-03 0. -1.
         11   -1    0    0    0    0 -0.00000000000E+00 -0.00000000000E+00 -0.45593999997E+02  0.45594000000E+02  0.51100000000E-03 0.  1.
    9900012    2    1    2    0    0  0.14298345293E+02 -0.41986938388E+02 -0.78592533147E+01  0.46142317232E+02  0.99999951792E+01 0.  0.
        -12    1    1    2    0    0 -0.14298345293E+02  0.41986938388E+02  0.78592533147E+01  0.45045682768E+02  0.00000000000E+00 0.  1.
         11    1    3    3    0    0  0.87339576353E+01 -0.23689362410E+02 -0.25032091142E+01  0.25371912886E+02  0.51100000000E-03 0. -1.
        -11    1    3    3    0    0  0.36318828049E+01 -0.43677544826E+01  0.11186918576E+00  0.56815813735E+01  0.51100000000E-03 0.  1.
        -12    1    3    3    0    0  0.19325048527E+01 -0.13929821496E+02 -0.54679133863E+01  0.15088822973E+02  0.00000000000E+00 0.  1.
</event>
<event>
 7    1  0.4047706E-008  0.4614232E+02  0.7816164E-02  0.1320468E+00
        -11   -1    0    0    0    0  0.00000000000E+00  0.00000000000E+00  0.45593999997E+02  0.45594000000E+02  0.51100000000E-03 0.  1.
         11   -1    0    0    0    0 -0.00000000000E+00 -0.00000000000E+00 -0.45593999997E+02  0.45594000000E+02  0.51100000000E-03 0. -1.
    9900012    2    1    2    0    0 -0.24793627744E+02  0.31409578194E+02 -0.20684001733E+02  0.46142317557E+02  0.99999981408E+01 0.  0.
        -12    1    1    2    0    0  0.24793627744E+02 -0.31409578194E+02  0.20684001733E+02  0.45045682443E+02  0.00000000000E+00 0.  1.
         11    1    3    3    0    0 -0.16375373640E+02  0.17001778723E+02 -0.83969310326E+01  0.25054376716E+02  0.51100000000E-03 0.  1.
        -11    1    3    3    0    0 -0.16384187117E+01  0.63441051059E+00 -0.16582486935E+01  0.24159225074E+01  0.51100000000E-03 0. -1.
        -12    1    3    3    0    0 -0.67798353919E+01  0.13773388961E+02 -0.10628822007E+02  0.18672018334E+02  0.00000000000E+00 0.  1.
</event>
<event>
 7    1  0.4047706E-008  0.4614232E+02  0.7816164E-02  0.1320468E+00
        -11   -1    0    0    0    0  0.00000000000E+00  0.00000000000E+00  0.45593999997E+02  0.45594000000E+02  0.51100000000E-03 0.  1.
         11   -1    0    0    0    0 -0.00000000000E+00 -0.00000000000E+00 -0.45593999997E+02  0.45594000000E+02  0.51100000000E-03 0. -1.
    9900012    2    1    2    0    0  0.26683411763E+02 -0.10080703781E+02 -0.34863856198E+02  0.46142317399E+02  0.99999966970E+01 0.  0.
        -12    1    1    2    0    0 -0.26683411763E+02  0.10080703781E+02  0.34863856198E+02  0.45045682601E+02  0.00000000000E+00 0.  1.
         11    1    3    3    0    0  0.52268956427E+01 -0.13913333658E+01 -0.39529561581E+01  0.66994111116E+01  0.51100000000E-03 0. -1.
        -11    1    3    3    0    0  0.74987784480E+01 -0.42585658169E+01 -0.58618102924E+01  0.10427266238E+02  0.51100000000E-03 0.  1.
         12    1    3    3    0    0  0.13957737673E+02 -0.44308045980E+01 -0.25049089747E+02  0.29015640049E+02  0.00000000000E+00 0. -1.
</event>
<event>
 7    1  0.4047706E-008  0.4614232E+02  0.7816164E-02  0.1320468E+00
        -11   -1    0    0    0    0  0.00000000000E+00  0.00000000000E+00  0.45593999997E+02  0.45594000000E+02  0.51100000000E-03 0.  1.
         11   -1    0    0    0    0 -0.00000000000E+00 -0.00000000000E+00 -0.45593999997E+02  0.45594000000E+02  0.51100000000E-03 0. -1.
    9900012    2    1    2    0    0  0.13437274681E+02  0.42953878186E+02 -0.18755208978E+01  0.46142316736E+02  0.99999906521E+01 0.  0.
        -12    1    1    2    0    0 -0.13437274681E+02 -0.42953878186E+02  0.18755208978E+01  0.45045683264E+02  0.00000000000E+00 0.  1.
         11    1    3    3    0    0  0.70421641346E+01  0.12987246723E+02  0.99112386043E+00  0.14806855842E+02  0.51100000000E-03 0. -1.
        -11    1    3    3    0    0  0.65446932621E+01  0.21469486668E+02 -0.38766669166E+01  0.22777190659E+02  0.51100000000E-03 0.  1.
        -12    1    3    3    0    0 -0.14958271608E+00  0.84971447949E+01  0.10100221583E+01  0.85582702350E+01  0.00000000000E+00 0.  1.
</event>
<event>
 7    1  0.4047706E-008  0.4614232E+02  0.7816164E-02  0.1320468E+00
        -11   -1    0    0    0    0  0.00000000000E+00  0.00000000000E+00  0.45593999997E+02  0.45594000000E+02  0.51100000000E-03 0. -1.
         11   -1    0    0    0    0 -0.00000000000E+00 -0.00000000000E+00 -0.45593999997E+02  0.45594000000E+02  0.51100000000E-03 0.  1.
    9900012    2    1    2    0    0  0.15369946439E+02 -0.39595294458E+02  0.15003025977E+02  0.46142318905E+02  0.10000010435E+02 0.  0.
        -12    1    1    2    0    0 -0.15369946439E+02  0.39595294458E+02 -0.15003025977E+02  0.45045681095E+02  0.00000000000E+00 0.  1.
         11    1    3    3    0    0  0.41897333187E+01 -0.12725856470E+02  0.70111393071E+01  0.15121420662E+02  0.51100000000E-03 0. -1.
        -11    1    3    3    0    0  0.16444655397E+01 -0.10296728011E+02  0.35906612234E+00  0.10433398458E+02  0.51100000000E-03 0.  1.
        -12    1    3    3    0    0  0.95357475806E+01 -0.16572709977E+02  0.76328205480E+01  0.20587499786E+02  0.00000000000E+00 0.  1.
</event>
<event>
 7    1  0.4047706E-008  0.4614232E+02  0.7816164E-02  0.1320468E+00
        -11   -1    0    0    0    0  0.00000000000E+00  0.00000000000E+00  0.45593999997E+02  0.45594000000E+02  0.51100000000E-03 0.  1.
         11   -1    0    0    0    0 -0.00000000000E+00 -0.00000000000E+00 -0.45593999997E+02  0.45594000000E+02  0.51100000000E-03 0. -1.
    9900012    2    1    2    0    0  0.30674336615E+02  0.16726183617E+02 -0.28432961484E+02  0.46142318255E+02  0.10000004501E+02 0.  0.
        -12    1    1    2    0    0 -0.30674336615E+02 -0.16726183617E+02  0.28432961484E+02  0.45045681745E+02  0.00000000000E+00 0.  1.
         11    1    3    3    0    0  0.23952483018E+02  0.16517982677E+02 -0.23751196790E+02  0.37559080708E+02  0.51100000000E-03 0. -1.
        -11    1    3    3    0    0  0.22771756412E+00  0.25197051765E+00  0.25573059991E+00  0.42513860284E+00  0.51100000000E-03 0.  1.
         12    1    3    3    0    0  0.64941360332E+01 -0.43769578191E-01 -0.49374952940E+01  0.81580989435E+01  0.00000000000E+00 0. -1.
</event>
<event>
 7    1  0.4047706E-008  0.4614232E+02  0.7816164E-02  0.1320468E+00
        -11   -1    0    0    0    0  0.00000000000E+00  0.00000000000E+00  0.45593999997E+02  0.45594000000E+02  0.51100000000E-03 0.  1.
         11   -1    0    0    0    0 -0.00000000000E+00 -0.00000000000E+00 -0.45593999997E+02  0.45594000000E+02  0.51100000000E-03 0. -1.
    9900012    2    1    2    0    0  0.10451104337E+02 -0.39024813299E+00 -0.43814788744E+02  0.46142316654E+02  0.99999899032E+01 0.  0.
        -12    1    1    2    0    0 -0.10451104337E+02  0.39024813299E+00  0.43814788744E+02  0.45045683346E+02  0.00000000000E+00 0.  1.
         11    1    3    3    0    0  0.84670227158E+01  0.45868289088E+00 -0.27062496727E+02  0.28359823571E+02  0.51100000000E-03 0. -1.
        -11    1    3    3    0    0 -0.21046419082E+00 -0.53196886489E+00 -0.14849911067E+02  0.14860926789E+02  0.51100000000E-03 0.  1.
         12    1    3    3    0    0  0.21945458120E+01 -0.31696215899E+00 -0.19023809498E+01  0.29215662939E+01  0.00000000000E+00 0. -1.
</event>
<event>
 7    1  0.4047706E-008  0.4614232E+02  0.7816164E-02  0.1320468E+00
        -11   -1    0    0    0    0  0.00000000000E+00  0.00000000000E+00  0.45593999997E+02  0.45594000000E+02  0.51100000000E-03 0. -1.
         11   -1    0    0    0    0 -0.00000000000E+00 -0.00000000000E+00 -0.45593999997E+02  0.45594000000E+02  0.51100000000E-03 0.  1.
    9900012    2    1    2    0    0  0.95581058805E+01  0.23408333503E+02  0.37280103189E+02  0.46142316975E+02  0.99999928291E+01 0.  0.
        -12    1    1    2    0    0 -0.95581058805E+01 -0.23408333503E+02 -0.37280103189E+02  0.45045683025E+02  0.00000000000E+00 0.  1.
         11    1    3    3    0    0  0.41919721005E+01  0.11037835854E+02  0.12338479697E+02  0.17077603225E+02  0.51100000000E-03 0.  1.
        -11    1    3    3    0    0  0.38718564229E+01  0.99770941901E+01  0.13223113024E+02  0.17011302095E+02  0.51100000000E-03 0. -1.
        -12    1    3    3    0    0  0.14942773572E+01  0.23934034594E+01  0.11718510468E+02  0.12053411655E+02  0.00000000000E+00 0.  1.
</event>
<event>
 7    1  0.4047706E-008  0.4614231E+02  0.7816164E-02  0.1320468E+00
        -11   -1    0    0    0    0  0.00000000000E+00  0.00000000000E+00  0.45593999997E+02  0.45594000000E+02  0.51100000000E-03 0. -1.
         11   -1    0    0    0    0 -0.00000000000E+00 -0.00000000000E+00 -0.45593999997E+02  0.45594000000E+02  0.51100000000E-03 0.  1.
    9900012    2    1    2    0    0 -0.27353137665E+02  0.35002552136E+02  0.74659928406E+01  0.46142313800E+02  0.99999638767E+01 0.  0.
        -12    1    1    2    0    0  0.27353137665E+02 -0.35002552136E+02 -0.74659928406E+01  0.45045686200E+02  0.00000000000E+00 0.  1.
         11    1    3    3    0    0 -0.16458312876E+02  0.18072312550E+02  0.73475945118E+01  0.25523943445E+02  0.51100000000E-03 0. -1.
        -11    1    3    3    0    0 -0.70450267018E+01  0.13888406920E+02  0.11103969650E+01  0.15612598428E+02  0.51100000000E-03 0.  1.
        -12    1    3    3    0    0 -0.38497980875E+01  0.30418326661E+01 -0.99199863622E+00  0.50057719262E+01  0.00000000000E+00 0.  1.
</event>
<event>
 7    1  0.4047706E-008  0.4614232E+02  0.7816164E-02  0.1320468E+00
        -11   -1    0    0    0    0  0.00000000000E+00  0.00000000000E+00  0.45593999997E+02  0.45594000000E+02  0.51100000000E-03 0.  1.
         11   -1    0    0    0    0 -0.00000000000E+00 -0.00000000000E+00 -0.45593999997E+02  0.45594000000E+02  0.51100000000E-03 0. -1.
    9900012    2    1    2    0    0 -0.27922085439E+02  0.55307900290E+01 -0.34912478487E+02  0.46142315992E+02  0.99999838720E+01 0.  0.
        -12    1    1    2    0    0  0.27922085439E+02 -0.55307900290E+01  0.34912478487E+02  0.45045684008E+02  0.00000000000E+00 0.  1.
         11    1    3    3    0    0 -0.42098856573E+01 -0.11495869493E+01 -0.80575848136E+01  0.91634797261E+01  0.51100000000E-03 0. -1.
        -11    1    3    3    0    0 -0.24133325241E+01  0.74415005755E+00 -0.63095338878E+01  0.67961865279E+01  0.51100000000E-03 0.  1.
        -12    1    3    3    0    0 -0.21298867258E+02  0.59362269207E+01 -0.20545359785E+02  0.30182649738E+02  0.00000000000E+00 0.  1.
</event>
<event>
 7    1  0.4047706E-008  0.4614232E+02  0.7816164E-02  0.1320468E+00
        -11   -1    0    0    0    0  0.00000000000E+00  0.00000000000E+00  0.45593999997E+02  0.45594000000E+02  0.51100000000E-03 0. -1.
         11   -1    0    0    0    0 -0.00000000000E+00 -0.00000000000E+00 -0.45593999997E+02  0.45594000000E+02  0.51100000000E-03 0.  1.
    9900012    2    1    2    0    0  0.35355094139E+01  0.43468206886E+02 -0.11275120348E+02  0.46142321233E+02  0.10000031661E+02 0.  0.
        -12    1    1    2    0    0 -0.35355094139E+01 -0.43468206886E+02  0.11275120348E+02  0.45045678767E+02  0.00000000000E+00 0.  1.
         11    1    3    3    0    0  0.31135051511E+01  0.23676850629E+02 -0.33166927705E+01  0.24109907117E+02  0.51100000000E-03 0. -1.
        -11    1    3    3    0    0  0.11263003629E+01  0.13079566529E+02 -0.25255883013E+01  0.13368702615E+02  0.51100000000E-03 0.  1.
        -12    1    3    3    0    0 -0.70429610013E+00  0.67117897287E+01 -0.54328392767E+01  0.86637115006E+01  0.00000000000E+00 0.  1.
</event>
<event>
 7    1  0.4047706E-008  0.4614232E+02  0.7816164E-02  0.1320468E+00
        -11   -1    0    0    0    0  0.00000000000E+00  0.00000000000E+00  0.45593999997E+02  0.45594000000E+02  0.51100000000E-03 0.  1.
         11   -1    0    0    0    0 -0.00000000000E+00 -0.00000000000E+00 -0.45593999997E+02  0.45594000000E+02  0.51100000000E-03 0. -1.
    9900012    2    1    2    0    0 -0.42277152426E+01 -0.11939814174E+02 -0.43228240641E+02  0.46142317325E+02  0.99999960277E+01 0.  0.
        -12    1    1    2    0    0  0.42277152426E+01  0.11939814174E+02  0.43228240641E+02  0.45045682675E+02  0.00000000000E+00 0.  1.
         11    1    3    3    0    0 -0.42929255099E+01 -0.60630919422E+01 -0.26497285868E+02  0.27519019822E+02  0.51100000000E-03 0. -1.
        -11    1    3    3    0    0 -0.24269419155E+01 -0.43603509986E+01 -0.81120095209E+01  0.95240436066E+01  0.51100000000E-03 0.  1.
        -12    1    3    3    0    0  0.24921521827E+01 -0.15163712335E+01 -0.86189452522E+01  0.90992538969E+01  0.00000000000E+00 0.  1.
</event>
<event>
 7    1  0.4047706E-008  0.4614232E+02  0.7816164E-02  0.1320468E+00
        -11   -1    0    0    0    0  0.00000000000E+00  0.00000000000E+00  0.45593999997E+02  0.45594000000E+02  0.51100000000E-03 0.  1.
         11   -1    0    0    0    0 -0.00000000000E+00 -0.00000000000E+00 -0.45593999997E+02  0.45594000000E+02  0.51100000000E-03 0. -1.
    9900012    2    1    2    0    0 -0.23206576483E+02 -0.68052198038E+01 -0.38003385779E+02  0.46142317195E+02  0.99999948405E+01 0.  0.
        -12    1    1    2    0    0  0.23206576483E+02  0.68052198038E+01  0.38003385779E+02  0.45045682805E+02  0.00000000000E+00 0.  1.
         11    1    3    3    0    0 -0.14368340608E+02 -0.28430897041E+01 -0.18496590642E+02  0.23593563456E+02  0.51100000000E-03 0.  1.
        -11    1    3    3    0    0  0.40578332470E+00  0.60372361885E+00 -0.29977872913E+01  0.30847805788E+01  0.51100000000E-03 0. -1.
         12    1    3    3    0    0 -0.92440191996E+01 -0.45658537186E+01 -0.16509007846E+02  0.19463973160E+02  0.00000000000E+00 0. -1.
</event>
<event>
 7    1  0.4047706E-008  0.4614232E+02  0.7816164E-02  0.1320468E+00
        -11   -1    0    0    0    0  0.00000000000E+00  0.00000000000E+00  0.45593999997E+02  0.45594000000E+02  0.51100000000E-03 0.  1.
         11   -1    0    0    0    0 -0.00000000000E+00 -0.00000000000E+00 -0.45593999997E+02  0.45594000000E+02  0.51100000000E-03 0. -1.
    9900012    2    1    2    0    0  0.33122049367E+02 -0.30522653024E+02  0.64108460586E+00  0.46142317728E+02  0.99999996978E+01 0.  0.
        -12    1    1    2    0    0 -0.33122049367E+02  0.30522653024E+02 -0.64108460586E+00  0.45045682272E+02  0.00000000000E+00 0.  1.
         11    1    3    3    0    0  0.53334018949E+01 -0.29712654371E+01 -0.64919381088E+00  0.61396292180E+01  0.51100000000E-03 0. -1.
        -11    1    3    3    0    0  0.14705143389E+01 -0.32796355868E+01 -0.18884759383E+01  0.40601433021E+01  0.51100000000E-03 0.  1.
         12    1    3    3    0    0  0.26318133133E+02 -0.24271752000E+02  0.31787543551E+01  0.35942545208E+02  0.00000000000E+00 0. -1.
</event>
<event>
 7    1  0.4047706E-008  0.4614232E+02  0.7816164E-02  0.1320468E+00
        -11   -1    0    0    0    0  0.00000000000E+00  0.00000000000E+00  0.45593999997E+02  0.45594000000E+02  0.51100000000E-03 0.  1.
         11   -1    0    0    0    0 -0.00000000000E+00 -0.00000000000E+00 -0.45593999997E+02  0.45594000000E+02  0.51100000000E-03 0. -1.
    9900012    2    1    2    0    0  0.39490173797E+01 -0.73898178911E+01 -0.44259567872E+02  0.46142317688E+02  0.99999993362E+01 0.  0.
        -12    1    1    2    0    0 -0.39490173797E+01  0.73898178911E+01  0.44259567872E+02  0.45045682312E+02  0.00000000000E+00 0.  1.
         11    1    3    3    0    0  0.12345281446E+01 -0.67556251862E+01 -0.33863986123E+02  0.34553322384E+02  0.51100000000E-03 0. -1.
        -11    1    3    3    0    0  0.55753573124E+00  0.25614614630E+00  0.27057155085E+00  0.67057152127E+00  0.51100000000E-03 0.  1.
         12    1    3    3    0    0  0.21569535038E+01 -0.89033885124E+00 -0.10666153300E+02  0.10918423783E+02  0.00000000000E+00 0. -1.
</event>
<event>
 7    1  0.4047706E-008  0.4614232E+02  0.7816164E-02  0.1320468E+00
        -11   -1    0    0    0    0  0.00000000000E+00  0.00000000000E+00  0.45593999997E+02  0.45594000000E+02  0.51100000000E-03 0.  1.
         11   -1    0    0    0    0 -0.00000000000E+00 -0.00000000000E+00 -0.45593999997E+02  0.45594000000E+02  0.51100000000E-03 0. -1.
    9900012    2    1    2    0    0 -0.82970613824E+01 -0.14136147937E+02 -0.41957615714E+02  0.46142318492E+02  0.10000006664E+02 0.  0.
        -12    1    1    2    0    0  0.82970613824E+01  0.14136147937E+02  0.41957615714E+02  0.45045681508E+02  0.00000000000E+00 0.  1.
         11    1    3    3    0    0 -0.12780515768E+01 -0.69736318188E+01 -0.17542464377E+02  0.18920967556E+02  0.51100000000E-03 0. -1.
        -11    1    3    3    0    0  0.40698932222E+00  0.89049654254E+00 -0.11789966243E+01  0.15325330998E+01  0.51100000000E-03 0.  1.
         12    1    3    3    0    0 -0.74259991279E+01 -0.80530126612E+01 -0.23236154713E+02  0.25688817836E+02  0.00000000000E+00 0. -1.
</event>
<event>
 7    1  0.4047706E-008  0.4614232E+02  0.7816164E-02  0.1320468E+00
        -11   -1    0    0    0    0  0.00000000000E+00  0.00000000000E+00  0.45593999997E+02  0.45594000000E+02  0.51100000000E-03 0.  1.
         11   -1    0    0    0    0 -0.00000000000E+00 -0.00000000000E+00 -0.45593999997E+02  0.45594000000E+02  0.51100000000E-03 0. -1.
    9900012    2    1    2    0    0  0.13072730362E+02 -0.95303176729E+01 -0.42040340295E+02  0.46142318229E+02  0.10000004269E+02 0.  0.
        -12    1    1    2    0    0 -0.13072730362E+02  0.95303176729E+01  0.42040340295E+02  0.45045681771E+02  0.00000000000E+00 0.  1.
         11    1    3    3    0    0  0.36290455724E+01 -0.58149147601E+01 -0.19162624919E+02  0.20351643656E+02  0.51100000000E-03 0. -1.
        -11    1    3    3    0    0  0.52656871193E+00 -0.97000549873E+00 -0.22015980661E-01  0.11039339837E+01  0.51100000000E-03 0.  1.
         12    1    3    3    0    0  0.89171160778E+01 -0.27453974140E+01 -0.22855699395E+02  0.24686740590E+02  0.00000000000E+00 0. -1.
</event>
<event>
 7    1  0.4047706E-008  0.4614232E+02  0.7816164E-02  0.1320468E+00
        -11   -1    0    0    0    0  0.00000000000E+00  0.00000000000E+00  0.45593999997E+02  0.45594000000E+02  0.51100000000E-03 0.  1.
         11   -1    0    0    0    0 -0.00000000000E+00 -0.00000000000E+00 -0.45593999997E+02  0.45594000000E+02  0.51100000000E-03 0. -1.
    9900012    2    1    2    0    0 -0.16405909189E+01 -0.23016212815E+02 -0.38686894975E+02  0.46142318368E+02  0.10000005530E+02 0.  0.
        -12    1    1    2    0    0  0.16405909189E+01  0.23016212815E+02  0.38686894975E+02  0.45045681632E+02  0.00000000000E+00 0.  1.
         11    1    3    3    0    0 -0.23225633088E+01 -0.11264038902E+02 -0.12288901550E+02  0.16831220225E+02  0.51100000000E-03 0. -1.
        -11    1    3    3    0    0 -0.60441896222E+00  0.25180649223E+00 -0.16580689617E+01  0.17826726380E+01  0.51100000000E-03 0.  1.
        -12    1    3    3    0    0  0.12863913521E+01 -0.12003980406E+02 -0.24739924463E+02  0.27528425504E+02  0.00000000000E+00 0.  1.
</event>
<event>
 7    1  0.4047706E-008  0.4614232E+02  0.7816164E-02  0.1320468E+00
        -11   -1    0    0    0    0  0.00000000000E+00  0.00000000000E+00  0.45593999997E+02  0.45594000000E+02  0.51100000000E-03 0.  1.
         11   -1    0    0    0    0 -0.00000000000E+00 -0.00000000000E+00 -0.45593999997E+02  0.45594000000E+02  0.51100000000E-03 0. -1.
    9900012    2    1    2    0    0  0.19618427543E+02 -0.18281780464E+01 -0.40507883035E+02  0.46142317385E+02  0.99999965722E+01 0.  0.
        -12    1    1    2    0    0 -0.19618427543E+02  0.18281780464E+01  0.40507883035E+02  0.45045682615E+02  0.00000000000E+00 0.  1.
         11    1    3    3    0    0  0.68353266309E+01 -0.26079651059E+01 -0.10042085457E+02  0.12424437723E+02  0.51100000000E-03 0. -1.
        -11    1    3    3    0    0  0.32937019133E+01 -0.22542222955E+01 -0.51733630794E+01  0.65340398119E+01  0.51100000000E-03 0.  1.
        -12    1    3    3    0    0  0.94893989984E+01  0.30340093551E+01 -0.25292434499E+02  0.27183839850E+02  0.00000000000E+00 0.  1.
</event>
<event>
 7    1  0.4047706E-008  0.4614232E+02  0.7816164E-02  0.1320468E+00
        -11   -1    0    0    0    0  0.00000000000E+00  0.00000000000E+00  0.45593999997E+02  0.45594000000E+02  0.51100000000E-03 0.  1.
         11   -1    0    0    0    0 -0.00000000000E+00 -0.00000000000E+00 -0.45593999997E+02  0.45594000000E+02  0.51100000000E-03 0. -1.
    9900012    2    1    2    0    0 -0.16325147513E+01  0.43903957808E+02 -0.99443785672E+01  0.46142320066E+02  0.10000021016E+02 0.  0.
        -12    1    1    2    0    0  0.16325147513E+01 -0.43903957808E+02  0.99443785672E+01  0.45045679934E+02  0.00000000000E+00 0.  1.
         11    1    3    3    0    0  0.15935945323E+01  0.88654626036E+01 -0.57801950908E+01  0.10702645760E+02  0.51100000000E-03 0. -1.
        -11    1    3    3    0    0 -0.56791151131E+00  0.50052304345E+01 -0.36440141509E+00  0.50505092654E+01  0.51100000000E-03 0.  1.
         12    1    3    3    0    0 -0.26581977723E+01  0.30033264770E+02 -0.37997820613E+01  0.30389165041E+02  0.00000000000E+00 0. -1.
</event>
<event>
 7    1  0.4047706E-008  0.4614232E+02  0.7816164E-02  0.1320468E+00
        -11   -1    0    0    0    0  0.00000000000E+00  0.00000000000E+00  0.45593999997E+02  0.45594000000E+02  0.51100000000E-03 0.  1.
         11   -1    0    0    0    0 -0.00000000000E+00 -0.00000000000E+00 -0.45593999997E+02  0.45594000000E+02  0.51100000000E-03 0. -1.
    9900012    2    1    2    0    0  0.31713156663E+02 -0.21668975608E+02 -0.23533903636E+02  0.46142318412E+02  0.10000005931E+02 0.  0.
        -12    1    1    2    0    0 -0.31713156663E+02  0.21668975608E+02  0.23533903636E+02  0.45045681588E+02  0.00000000000E+00 0.  1.
         11    1    3    3    0    0  0.15006102515E+02 -0.10967781889E+02 -0.81970175567E+01  0.20314193297E+02  0.51100000000E-03 0. -1.
        -11    1    3    3    0    0  0.24264550384E+01  0.38886748212E-01 -0.39622626326E+01  0.46463665012E+01  0.51100000000E-03 0.  1.
        -12    1    3    3    0    0  0.14280599110E+02 -0.10740080467E+02 -0.11374623447E+02  0.21181758613E+02  0.00000000000E+00 0.  1.
</event>
<event>
 7    1  0.4047706E-008  0.4614232E+02  0.7816164E-02  0.1320468E+00
        -11   -1    0    0    0    0  0.00000000000E+00  0.00000000000E+00  0.45593999997E+02  0.45594000000E+02  0.51100000000E-03 0.  1.
         11   -1    0    0    0    0 -0.00000000000E+00 -0.00000000000E+00 -0.45593999997E+02  0.45594000000E+02  0.51100000000E-03 0. -1.
    9900012    2    1    2    0    0  0.23676864323E+02  0.36908904306E+01 -0.38143113811E+02  0.46142315328E+02  0.99999778141E+01 0.  0.
        -12    1    1    2    0    0 -0.23676864323E+02 -0.36908904306E+01  0.38143113811E+02  0.45045684672E+02  0.00000000000E+00 0.  1.
         11    1    3    3    0    0  0.19023212633E+01 -0.13367999854E+01 -0.34904550941E+01  0.41939405593E+01  0.51100000000E-03 0.  1.
        -11    1    3    3    0    0  0.33261836587E+01 -0.17005477486E+01 -0.34755281922E+01  0.51024167659E+01  0.51100000000E-03 0. -1.
         12    1    3    3    0    0  0.18448359401E+02  0.67282381646E+01 -0.31177130525E+02  0.36845958003E+02  0.00000000000E+00 0. -1.
</event>
<event>
 7    1  0.4047706E-008  0.4614232E+02  0.7816164E-02  0.1320468E+00
        -11   -1    0    0    0    0  0.00000000000E+00  0.00000000000E+00  0.45593999997E+02  0.45594000000E+02  0.51100000000E-03 0. -1.
         11   -1    0    0    0    0 -0.00000000000E+00 -0.00000000000E+00 -0.45593999997E+02  0.45594000000E+02  0.51100000000E-03 0.  1.
    9900012    2    1    2    0    0  0.38811609740E+02  0.97514692372E+01  0.20680456966E+02  0.46142317596E+02  0.99999984976E+01 0.  0.
        -12    1    1    2    0    0 -0.38811609740E+02 -0.97514692372E+01 -0.20680456966E+02  0.45045682404E+02  0.00000000000E+00 0.  1.
         11    1    3    3    0    0  0.19088510778E+02  0.43977383280E+01  0.87752468119E+01  0.21464302994E+02  0.51100000000E-03 0. -1.
        -11    1    3    3    0    0  0.18778514206E+02  0.41279823620E+01  0.12593774481E+02  0.22984255266E+02  0.51100000000E-03 0.  1.
        -12    1    3    3    0    0  0.94458475501E+00  0.12257485472E+01 -0.68856432628E+00  0.16937593370E+01  0.00000000000E+00 0.  1.
</event>
<event>
 7    1  0.4047706E-008  0.4614232E+02  0.7816164E-02  0.1320468E+00
        -11   -1    0    0    0    0  0.00000000000E+00  0.00000000000E+00  0.45593999997E+02  0.45594000000E+02  0.51100000000E-03 0. -1.
         11   -1    0    0    0    0 -0.00000000000E+00 -0.00000000000E+00 -0.45593999997E+02  0.45594000000E+02  0.51100000000E-03 0.  1.
    9900012    2    1    2    0    0 -0.10531798634E+02  0.20796442296E+02  0.38544814279E+02  0.46142317605E+02  0.99999985766E+01 0.  0.
        -12    1    1    2    0    0  0.10531798634E+02 -0.20796442296E+02 -0.38544814279E+02  0.45045682395E+02  0.00000000000E+00 0.  1.
         11    1    3    3    0    0 -0.44453374388E+01  0.49995773350E+01  0.71076236249E+01  0.97608971067E+01  0.51100000000E-03 0. -1.
        -11    1    3    3    0    0 -0.31423515368E+01  0.68641148485E+01  0.74068154080E+01  0.10575980360E+02  0.51100000000E-03 0.  1.
        -12    1    3    3    0    0 -0.29441096586E+01  0.89327501129E+01  0.24030375246E+02  0.25805440138E+02  0.00000000000E+00 0.  1.
</event>
<event>
 7    1  0.4047706E-008  0.4614232E+02  0.7816164E-02  0.1320468E+00
        -11   -1    0    0    0    0  0.00000000000E+00  0.00000000000E+00  0.45593999997E+02  0.45594000000E+02  0.51100000000E-03 0.  1.
         11   -1    0    0    0    0 -0.00000000000E+00 -0.00000000000E+00 -0.45593999997E+02  0.45594000000E+02  0.51100000000E-03 0. -1.
    9900012    2    1    2    0    0  0.27617346860E+02 -0.29773329715E+02 -0.19492167541E+02  0.46142316463E+02  0.99999881622E+01 0.  0.
        -12    1    1    2    0    0 -0.27617346860E+02  0.29773329715E+02  0.19492167541E+02  0.45045683537E+02  0.00000000000E+00 0.  1.
         11    1    3    3    0    0  0.19101875412E+02 -0.23843367549E+02 -0.12778156334E+02  0.33115994623E+02  0.51100000000E-03 0. -1.
        -11    1    3    3    0    0  0.73568411478E+01 -0.46879507799E+01 -0.71425367226E+01  0.11274565414E+02  0.51100000000E-03 0.  1.
        -12    1    3    3    0    0  0.11586303003E+01 -0.12420113862E+01  0.42852551608E+00  0.17517564255E+01  0.00000000000E+00 0.  1.
</event>
<event>
 7    1  0.4047706E-008  0.4614232E+02  0.7816164E-02  0.1320468E+00
        -11   -1    0    0    0    0  0.00000000000E+00  0.00000000000E+00  0.45593999997E+02  0.45594000000E+02  0.51100000000E-03 0.  1.
         11   -1    0    0    0    0 -0.00000000000E+00 -0.00000000000E+00 -0.45593999997E+02  0.45594000000E+02  0.51100000000E-03 0. -1.
    9900012    2    1    2    0    0 -0.19778065759E+02  0.18026761389E+01 -0.40431323786E+02  0.46142317971E+02  0.10000001912E+02 0.  0.
        -12    1    1    2    0    0  0.19778065759E+02 -0.18026761389E+01  0.40431323786E+02  0.45045682029E+02  0.00000000000E+00 0.  1.
         11    1    3    3    0    0 -0.29579170410E+01 -0.24126665546E+01 -0.89532266334E+01  0.97329594952E+01  0.51100000000E-03 0. -1.
        -11    1    3    3    0    0 -0.13242937544E+02  0.69362998086E+00 -0.22146777653E+02  0.25813490234E+02  0.51100000000E-03 0.  1.
        -12    1    3    3    0    0 -0.35772111734E+01  0.35217127126E+01 -0.93313194989E+01  0.10595868242E+02  0.00000000000E+00 0.  1.
</event>
<event>
 7    1  0.4047706E-008  0.4614232E+02  0.7816164E-02  0.1320468E+00
        -11   -1    0    0    0    0  0.00000000000E+00  0.00000000000E+00  0.45593999997E+02  0.45594000000E+02  0.51100000000E-03 0.  1.
         11   -1    0    0    0    0 -0.00000000000E+00 -0.00000000000E+00 -0.45593999997E+02  0.45594000000E+02  0.51100000000E-03 0. -1.
    9900012    2    1    2    0    0  0.22413179498E+02  0.38954533054E+02  0.30507924411E+01  0.46142316575E+02  0.99999891873E+01 0.  0.
        -12    1    1    2    0    0 -0.22413179498E+02 -0.38954533054E+02 -0.30507924411E+01  0.45045683425E+02  0.00000000000E+00 0.  1.
         11    1    3    3    0    0  0.11267195838E+02  0.18213375625E+02  0.33853278589E+01  0.21682647410E+02  0.51100000000E-03 0. -1.
        -11    1    3    3    0    0 -0.34145050139E+00 -0.15998280624E+00 -0.47862003497E+00  0.60931136719E+00  0.51100000000E-03 0.  1.
        -12    1    3    3    0    0  0.11487434162E+02  0.20901140235E+02  0.14408461719E+00  0.23850357799E+02  0.00000000000E+00 0.  1.
</event>
<event>
 7    1  0.4047706E-008  0.4614232E+02  0.7816164E-02  0.1320468E+00
        -11   -1    0    0    0    0  0.00000000000E+00  0.00000000000E+00  0.45593999997E+02  0.45594000000E+02  0.51100000000E-03 0.  1.
         11   -1    0    0    0    0 -0.00000000000E+00 -0.00000000000E+00 -0.45593999997E+02  0.45594000000E+02  0.51100000000E-03 0. -1.
    9900012    2    1    2    0    0 -0.77891539633E+01  0.39371707654E+02 -0.20452657955E+02  0.46142317627E+02  0.99999987759E+01 0.  0.
        -12    1    1    2    0    0  0.77891539633E+01 -0.39371707654E+02  0.20452657955E+02  0.45045682373E+02  0.00000000000E+00 0.  1.
         11    1    3    3    0    0 -0.27116356397E+01  0.25770308451E+02 -0.11117087572E+02  0.28196655863E+02  0.51100000000E-03 0. -1.
        -11    1    3    3    0    0  0.46135883340E+00  0.77968481792E+00  0.32584426158E+00  0.96277470489E+00  0.51100000000E-03 0.  1.
         12    1    3    3    0    0 -0.55388771570E+01  0.12821714384E+02 -0.96614146446E+01  0.16982887059E+02  0.00000000000E+00 0. -1.
</event>
<event>
 7    1  0.4047706E-008  0.4614232E+02  0.7816164E-02  0.1320468E+00
        -11   -1    0    0    0    0  0.00000000000E+00  0.00000000000E+00  0.45593999997E+02  0.45594000000E+02  0.51100000000E-03 0.  1.
         11   -1    0    0    0    0 -0.00000000000E+00 -0.00000000000E+00 -0.45593999997E+02  0.45594000000E+02  0.51100000000E-03 0. -1.
    9900012    2    1    2    0    0 -0.10583582916E+02  0.19893044229E+02 -0.39004719103E+02  0.46142317095E+02  0.99999939291E+01 0.  0.
        -12    1    1    2    0    0  0.10583582916E+02 -0.19893044229E+02  0.39004719103E+02  0.45045682905E+02  0.00000000000E+00 0.  1.
         11    1    3    3    0    0  0.21202230285E+00  0.76788799203E+01 -0.90813821239E+01  0.11894605997E+02  0.51100000000E-03 0. -1.
        -11    1    3    3    0    0 -0.79749406066E+00  0.17960345598E+01 -0.59014221209E+01  0.62200096645E+01  0.51100000000E-03 0.  1.
         12    1    3    3    0    0 -0.99981111578E+01  0.10418129749E+02 -0.24021914858E+02  0.28027701434E+02  0.00000000000E+00 0. -1.
</event>
<event>
 7    1  0.4047706E-008  0.4614232E+02  0.7816164E-02  0.1320468E+00
        -11   -1    0    0    0    0  0.00000000000E+00  0.00000000000E+00  0.45593999997E+02  0.45594000000E+02  0.51100000000E-03 0.  1.
         11   -1    0    0    0    0 -0.00000000000E+00 -0.00000000000E+00 -0.45593999997E+02  0.45594000000E+02  0.51100000000E-03 0. -1.
    9900012    2    1    2    0    0 -0.37640004159E+02  0.17719357988E+02 -0.17273330304E+02  0.46142317628E+02  0.99999987858E+01 0.  0.
        -12    1    1    2    0    0  0.37640004159E+02 -0.17719357988E+02  0.17273330304E+02  0.45045682372E+02  0.00000000000E+00 0.  1.
         11    1    3    3    0    0 -0.13235916190E+02  0.67646838444E+01 -0.54380419940E+01  0.15827909713E+02  0.51100000000E-03 0. -1.
        -11    1    3    3    0    0 -0.23306223940E+02  0.12151643042E+02 -0.11103798999E+02  0.28533083525E+02  0.51100000000E-03 0.  1.
        -12    1    3    3    0    0 -0.10978640288E+01 -0.11969688986E+01 -0.73148931090E+00  0.17813243898E+01  0.00000000000E+00 0.  1.
</event>
<event>
 7    1  0.4047706E-008  0.4614232E+02  0.7816164E-02  0.1320468E+00
        -11   -1    0    0    0    0  0.00000000000E+00  0.00000000000E+00  0.45593999997E+02  0.45594000000E+02  0.51100000000E-03 0. -1.
         11   -1    0    0    0    0 -0.00000000000E+00 -0.00000000000E+00 -0.45593999997E+02  0.45594000000E+02  0.51100000000E-03 0.  1.
    9900012    2    1    2    0    0  0.30918859386E+02 -0.12348999696E+02 -0.30342048593E+02  0.46142316832E+02  0.99999915312E+01 0.  0.
        -12    1    1    2    0    0 -0.30918859386E+02  0.12348999696E+02  0.30342048593E+02  0.45045683168E+02  0.00000000000E+00 0.  1.
         11    1    3    3    0    0  0.16826896200E+02 -0.95930218330E+01 -0.14625858091E+02  0.24271098632E+02  0.51100000000E-03 0. -1.
        -11    1    3    3    0    0  0.11765071558E+02 -0.33668244549E+01 -0.15005336813E+02  0.19362658619E+02  0.51100000000E-03 0.  1.
        -12    1    3    3    0    0  0.23268916283E+01  0.61084659198E+00 -0.71085368872E+00  0.25085595818E+01  0.00000000000E+00 0.  1.
</event>
<event>
 7    1  0.4047706E-008  0.4614232E+02  0.7816164E-02  0.1320468E+00
        -11   -1    0    0    0    0  0.00000000000E+00  0.00000000000E+00  0.45593999997E+02  0.45594000000E+02  0.51100000000E-03 0.  1.
         11   -1    0    0    0    0 -0.00000000000E+00 -0.00000000000E+00 -0.45593999997E+02  0.45594000000E+02  0.51100000000E-03 0. -1.
    9900012    2    1    2    0    0  0.20721135091E+02 -0.43176359628E+01 -0.39763124269E+02  0.46142317949E+02  0.10000001716E+02 0.  0.
        -12    1    1    2    0    0 -0.20721135091E+02  0.43176359628E+01  0.39763124269E+02  0.45045682051E+02  0.00000000000E+00 0.  1.
         11    1    3    3    0    0  0.47077324606E+01  0.19557628689E+01 -0.51967144432E+01  0.72796699503E+01  0.51100000000E-03 0. -1.
        -11    1    3    3    0    0  0.10339368921E+02 -0.32702141505E+01 -0.25890472818E+02  0.28069795747E+02  0.51100000000E-03 0.  1.
        -12    1    3    3    0    0  0.56740337101E+01 -0.30031846812E+01 -0.86759370080E+01  0.10792852252E+02  0.00000000000E+00 0.  1.
</event>
<event>
 7    1  0.4047706E-008  0.4614232E+02  0.7816164E-02  0.1320468E+00
        -11   -1    0    0    0    0  0.00000000000E+00  0.00000000000E+00  0.45593999997E+02  0.45594000000E+02  0.51100000000E-03 0. -1.
         11   -1    0    0    0    0 -0.00000000000E+00 -0.00000000000E+00 -0.45593999997E+02  0.45594000000E+02  0.51100000000E-03 0.  1.
    9900012    2    1    2    0    0  0.45632141043E+00 -0.41436147775E+02 -0.17662137689E+02  0.46142315641E+02  0.99999806670E+01 0.  0.
        -12    1    1    2    0    0 -0.45632141043E+00  0.41436147775E+02  0.17662137689E+02  0.45045684359E+02  0.00000000000E+00 0.  1.
         11    1    3    3    0    0 -0.13201673792E+01 -0.95685507193E+01 -0.61753632569E+01  0.11464515532E+02  0.51100000000E-03 0.  1.
        -11    1    3    3    0    0 -0.56652590319E+00 -0.11061026140E+02 -0.74665345066E+01  0.13357259774E+02  0.51100000000E-03 0. -1.
        -12    1    3    3    0    0  0.23430146928E+01 -0.20806570915E+02 -0.40202399254E+01  0.21320540334E+02  0.00000000000E+00 0.  1.
</event>
<event>
 7    1  0.4047706E-008  0.4614232E+02  0.7816164E-02  0.1320468E+00
        -11   -1    0    0    0    0  0.00000000000E+00  0.00000000000E+00  0.45593999997E+02  0.45594000000E+02  0.51100000000E-03 0.  1.
         11   -1    0    0    0    0 -0.00000000000E+00 -0.00000000000E+00 -0.45593999997E+02  0.45594000000E+02  0.51100000000E-03 0. -1.
    9900012    2    1    2    0    0  0.37400852367E+02 -0.22220264361E+02  0.11685445441E+02  0.46142317175E+02  0.99999946527E+01 0.  0.
        -12    1    1    2    0    0 -0.37400852367E+02  0.22220264361E+02 -0.11685445441E+02  0.45045682825E+02  0.00000000000E+00 0.  1.
         11    1    3    3    0    0  0.52879617167E+01 -0.25618643155E+01 -0.36261321016E+00  0.58870346092E+01  0.51100000000E-03 0. -1.
        -11    1    3    3    0    0  0.13322799781E+02 -0.46781375496E+01  0.67349177513E+01  0.15644202834E+02  0.51100000000E-03 0.  1.
         12    1    3    3    0    0  0.18790090869E+02 -0.14980262496E+02  0.53131408997E+01  0.24611079731E+02  0.00000000000E+00 0. -1.
</event>
<event>
 7    1  0.4047706E-008  0.4614232E+02  0.7816164E-02  0.1320468E+00
        -11   -1    0    0    0    0  0.00000000000E+00  0.00000000000E+00  0.45593999997E+02  0.45594000000E+02  0.51100000000E-03 0. -1.
         11   -1    0    0    0    0 -0.00000000000E+00 -0.00000000000E+00 -0.45593999997E+02  0.45594000000E+02  0.51100000000E-03 0.  1.
    9900012    2    1    2    0    0  0.41625955443E+02  0.80398901017E+01  0.15223451192E+02  0.46142318014E+02  0.10000002309E+02 0.  0.
        -12    1    1    2    0    0 -0.41625955443E+02 -0.80398901017E+01 -0.15223451192E+02  0.45045681986E+02  0.00000000000E+00 0.  1.
         11    1    3    3    0    0  0.33810376911E+02  0.92671284902E+01  0.10466797316E+02  0.36586542657E+02  0.51100000000E-03 0. -1.
        -11    1    3    3    0    0  0.70342338019E+01 -0.27152992081E+00  0.38444100211E+01  0.80208267871E+01  0.51100000000E-03 0.  1.
         12    1    3    3    0    0  0.78134473018E+00 -0.95570846760E+00  0.91224385454E+00  0.15349485700E+01  0.00000000000E+00 0. -1.
</event>
<event>
 7    1  0.4047706E-008  0.4614232E+02  0.7816164E-02  0.1320468E+00
        -11   -1    0    0    0    0  0.00000000000E+00  0.00000000000E+00  0.45593999997E+02  0.45594000000E+02  0.51100000000E-03 0.  1.
         11   -1    0    0    0    0 -0.00000000000E+00 -0.00000000000E+00 -0.45593999997E+02  0.45594000000E+02  0.51100000000E-03 0. -1.
    9900012    2    1    2    0    0  0.34450384407E+02  0.18051475954E+02 -0.22725067520E+02  0.46142318035E+02  0.10000002500E+02 0.  0.
        -12    1    1    2    0    0 -0.34450384407E+02 -0.18051475954E+02  0.22725067520E+02  0.45045681965E+02  0.00000000000E+00 0.  1.
         11    1    3    3    0    0  0.25558303081E+02  0.17441420384E+02 -0.18373351231E+02  0.35986247889E+02  0.51100000000E-03 0. -1.
        -11    1    3    3    0    0  0.51430020123E+01  0.80279237422E+00 -0.14273576759E+01  0.53974341581E+01  0.51100000000E-03 0.  1.
        -12    1    3    3    0    0  0.37490793134E+01 -0.19273680431E+00 -0.29243586128E+01  0.47586359885E+01  0.00000000000E+00 0.  1.
</event>
<event>
 7    1  0.4047706E-008  0.4614232E+02  0.7816164E-02  0.1320468E+00
        -11   -1    0    0    0    0  0.00000000000E+00  0.00000000000E+00  0.45593999997E+02  0.45594000000E+02  0.51100000000E-03 0.  1.
         11   -1    0    0    0    0 -0.00000000000E+00 -0.00000000000E+00 -0.45593999997E+02  0.45594000000E+02  0.51100000000E-03 0. -1.
    9900012    2    1    2    0    0 -0.95626536323E+01  0.19026388149E+02 -0.39694653105E+02  0.46142320122E+02  0.10000021529E+02 0.  0.
        -12    1    1    2    0    0  0.95626536323E+01 -0.19026388149E+02  0.39694653105E+02  0.45045679878E+02  0.00000000000E+00 0.  1.
         11    1    3    3    0    0 -0.10581108409E+01  0.44601481695E+01 -0.13632243146E+02  0.14382300710E+02  0.51100000000E-03 0. -1.
        -11    1    3    3    0    0  0.65061144842E+00  0.29148410523E+01 -0.23580484351E+01  0.38052577180E+01  0.51100000000E-03 0.  1.
         12    1    3    3    0    0 -0.91551542398E+01  0.11651398928E+02 -0.23704361524E+02  0.27954761694E+02  0.00000000000E+00 0. -1.
</event>
<event>
 7    1  0.4047706E-008  0.4614232E+02  0.7816164E-02  0.1320468E+00
        -11   -1    0    0    0    0  0.00000000000E+00  0.00000000000E+00  0.45593999997E+02  0.45594000000E+02  0.51100000000E-03 0. -1.
         11   -1    0    0    0    0 -0.00000000000E+00 -0.00000000000E+00 -0.45593999997E+02  0.45594000000E+02  0.51100000000E-03 0.  1.
    9900012    2    1    2    0    0 -0.22074212270E+02 -0.37391169728E+02 -0.11989290196E+02  0.46142317628E+02  0.99999987853E+01 0.  0.
        -12    1    1    2    0    0  0.22074212270E+02  0.37391169728E+02  0.11989290196E+02  0.45045682372E+02  0.00000000000E+00 0.  1.
         11    1    3    3    0    0 -0.59355605923E+00 -0.24575045178E+01  0.53384860990E+00  0.25839179263E+01  0.51100000000E-03 0. -1.
        -11    1    3    3    0    0 -0.29548789546E+01 -0.93276660989E+01 -0.53423634729E+01  0.11147982429E+02  0.51100000000E-03 0.  1.
         12    1    3    3    0    0 -0.18525777257E+02 -0.25605999111E+02 -0.71807753332E+01  0.32410417273E+02  0.00000000000E+00 0. -1.
</event>
<event>
 7    1  0.4047706E-008  0.4614232E+02  0.7816164E-02  0.1320468E+00
        -11   -1    0    0    0    0  0.00000000000E+00  0.00000000000E+00  0.45593999997E+02  0.45594000000E+02  0.51100000000E-03 0. -1.
         11   -1    0    0    0    0 -0.00000000000E+00 -0.00000000000E+00 -0.45593999997E+02  0.45594000000E+02  0.51100000000E-03 0.  1.
    9900012    2    1    2    0    0  0.43338167475E+02  0.35214073170E+01  0.11769306320E+02  0.46142316069E+02  0.99999845687E+01 0.  0.
        -12    1    1    2    0    0 -0.43338167475E+02 -0.35214073170E+01 -0.11769306320E+02  0.45045683931E+02  0.00000000000E+00 0.  1.
         11    1    3    3    0    0  0.11032043652E+01 -0.29950953949E+00  0.38083923082E+00  0.12049085511E+01  0.51100000000E-03 0. -1.
        -11    1    3    3    0    0  0.72248858021E+01 -0.22598310306E+01  0.42898853952E+01  0.87010877541E+01  0.51100000000E-03 0.  1.
        -12    1    3    3    0    0  0.35010077308E+02  0.60807478870E+01  0.70985816938E+01  0.36236319764E+02  0.00000000000E+00 0.  1.
</event>
<event>
 7    1  0.4047706E-008  0.4614232E+02  0.7816164E-02  0.1320468E+00
        -11   -1    0    0    0    0  0.00000000000E+00  0.00000000000E+00  0.45593999997E+02  0.45594000000E+02  0.51100000000E-03 0.  1.
         11   -1    0    0    0    0 -0.00000000000E+00 -0.00000000000E+00 -0.45593999997E+02  0.45594000000E+02  0.51100000000E-03 0. -1.
    9900012    2    1    2    0    0  0.21575117527E+02 -0.68672873302E+01 -0.38941855380E+02  0.46142318387E+02  0.10000005705E+02 0.  0.
        -12    1    1    2    0    0 -0.21575117527E+02  0.68672873302E+01  0.38941855380E+02  0.45045681613E+02  0.00000000000E+00 0.  1.
         11    1    3    3    0    0  0.85099019439E+01 -0.47746044099E+01 -0.17290214246E+02  0.19853634108E+02  0.51100000000E-03 0. -1.
        -11    1    3    3    0    0  0.36959084520E+01  0.19943932579E+01 -0.35446390272E+01  0.54956173308E+01  0.51100000000E-03 0.  1.
        -12    1    3    3    0    0  0.93693071310E+01 -0.40870761782E+01 -0.18107002107E+02  0.20793066948E+02  0.00000000000E+00 0.  1.
</event>
<event>
 7    1  0.4047706E-008  0.4614232E+02  0.7816164E-02  0.1320468E+00
        -11   -1    0    0    0    0  0.00000000000E+00  0.00000000000E+00  0.45593999997E+02  0.45594000000E+02  0.51100000000E-03 0.  1.
         11   -1    0    0    0    0 -0.00000000000E+00 -0.00000000000E+00 -0.45593999997E+02  0.45594000000E+02  0.51100000000E-03 0. -1.
    9900012    2    1    2    0    0  0.42606472049E+02 -0.12901828271E+02 -0.68807578229E+01  0.46142318060E+02  0.10000002725E+02 0.  0.
        -12    1    1    2    0    0 -0.42606472049E+02  0.12901828271E+02  0.68807578229E+01  0.45045681940E+02  0.00000000000E+00 0.  1.
         11    1    3    3    0    0  0.52953212377E+01 -0.31489294953E+01 -0.18727579612E+01  0.64392085398E+01  0.51100000000E-03 0. -1.
        -11    1    3    3    0    0  0.34030699242E+02 -0.64792043779E+01 -0.53646242142E+01  0.35054925096E+02  0.51100000000E-03 0.  1.
         12    1    3    3    0    0  0.32804515692E+01 -0.32736943977E+01  0.35662435246E+00  0.46481844236E+01  0.00000000000E+00 0. -1.
</event>
<event>
 7    1  0.4047706E-008  0.4614232E+02  0.7816164E-02  0.1320468E+00
        -11   -1    0    0    0    0  0.00000000000E+00  0.00000000000E+00  0.45593999997E+02  0.45594000000E+02  0.51100000000E-03 0.  1.
         11   -1    0    0    0    0 -0.00000000000E+00 -0.00000000000E+00 -0.45593999997E+02  0.45594000000E+02  0.51100000000E-03 0. -1.
    9900012    2    1    2    0    0 -0.10700623702E+02  0.40701208194E+02 -0.16063055441E+02  0.46142318230E+02  0.10000004274E+02 0.  0.
        -12    1    1    2    0    0  0.10700623702E+02 -0.40701208194E+02  0.16063055441E+02  0.45045681770E+02  0.00000000000E+00 0.  1.
         11    1    3    3    0    0 -0.45242389649E+01  0.92193744558E+01 -0.25524193462E+01  0.10582081475E+02  0.51100000000E-03 0. -1.
        -11    1    3    3    0    0 -0.47324508812E+01  0.75150082436E+01 -0.38400576563E+01  0.96756128131E+01  0.51100000000E-03 0.  1.
        -12    1    3    3    0    0 -0.14439338559E+01  0.23966825494E+02 -0.96705784385E+01  0.25884623941E+02  0.00000000000E+00 0.  1.
</event>
<event>
 7    1  0.4047706E-008  0.4614232E+02  0.7816164E-02  0.1320468E+00
        -11   -1    0    0    0    0  0.00000000000E+00  0.00000000000E+00  0.45593999997E+02  0.45594000000E+02  0.51100000000E-03 0. -1.
         11   -1    0    0    0    0 -0.00000000000E+00 -0.00000000000E+00 -0.45593999997E+02  0.45594000000E+02  0.51100000000E-03 0.  1.
    9900012    2    1    2    0    0 -0.38301268328E+02 -0.17637260781E+02  0.15844648329E+02  0.46142323137E+02  0.10000049022E+02 0.  0.
        -12    1    1    2    0    0  0.38301268328E+02  0.17637260781E+02 -0.15844648329E+02  0.45045676863E+02  0.00000000000E+00 0.  1.
         11    1    3    3    0    0 -0.14366770444E+02 -0.43835331571E+01  0.55781610067E+01  0.16022962785E+02  0.51100000000E-03 0. -1.
        -11    1    3    3    0    0 -0.40994884236E+01 -0.31428369598E+00  0.37302350546E+01  0.55515073089E+01  0.51100000000E-03 0.  1.
         12    1    3    3    0    0 -0.19835009460E+02 -0.12939443928E+02  0.65362522681E+01  0.24567853043E+02  0.00000000000E+00 0. -1.
</event>
<event>
 7    1  0.4047706E-008  0.4614232E+02  0.7816164E-02  0.1320468E+00
        -11   -1    0    0    0    0  0.00000000000E+00  0.00000000000E+00  0.45593999997E+02  0.45594000000E+02  0.51100000000E-03 0.  1.
         11   -1    0    0    0    0 -0.00000000000E+00 -0.00000000000E+00 -0.45593999997E+02  0.45594000000E+02  0.51100000000E-03 0. -1.
    9900012    2    1    2    0    0 -0.30559474283E+02  0.20499529850E+02 -0.25980783233E+02  0.46142319964E+02  0.10000020087E+02 0.  0.
        -12    1    1    2    0    0  0.30559474283E+02 -0.20499529850E+02  0.25980783233E+02  0.45045680036E+02  0.00000000000E+00 0.  1.
         11    1    3    3    0    0 -0.62691714211E+01  0.66488221428E+01 -0.94056942984E+01  0.13113978484E+02  0.51100000000E-03 0. -1.
        -11    1    3    3    0    0 -0.19892467893E+01 -0.41122404805E+00 -0.63577187335E+00  0.21284769537E+01  0.51100000000E-03 0.  1.
         12    1    3    3    0    0 -0.22301056073E+02  0.14261931756E+02 -0.15939317061E+02  0.30899864526E+02  0.00000000000E+00 0. -1.
</event>
<event>
 7    1  0.4047706E-008  0.4614232E+02  0.7816164E-02  0.1320468E+00
        -11   -1    0    0    0    0  0.00000000000E+00  0.00000000000E+00  0.45593999997E+02  0.45594000000E+02  0.51100000000E-03 0.  1.
         11   -1    0    0    0    0 -0.00000000000E+00 -0.00000000000E+00 -0.45593999997E+02  0.45594000000E+02  0.51100000000E-03 0. -1.
    9900012    2    1    2    0    0  0.21743433591E+02  0.22316156606E+02 -0.32531914414E+02  0.46142320901E+02  0.10000028635E+02 0.  0.
        -12    1    1    2    0    0 -0.21743433591E+02 -0.22316156606E+02  0.32531914414E+02  0.45045679099E+02  0.00000000000E+00 0.  1.
         11    1    3    3    0    0 -0.52266569193E+00  0.72559511137E-01 -0.99507675869E+00  0.11263313567E+01  0.51100000000E-03 0. -1.
        -11    1    3    3    0    0  0.18111177815E+02  0.15963586004E+02 -0.20594341649E+02  0.31732912696E+02  0.51100000000E-03 0.  1.
         12    1    3    3    0    0  0.41549214677E+01  0.62800110915E+01 -0.10942496007E+02  0.13283076849E+02  0.00000000000E+00 0. -1.
</event>
<event>
 7    1  0.4047706E-008  0.4614232E+02  0.7816164E-02  0.1320468E+00
        -11   -1    0    0    0    0  0.00000000000E+00  0.00000000000E+00  0.45593999997E+02  0.45594000000E+02  0.51100000000E-03 0.  1.
         11   -1    0    0    0    0 -0.00000000000E+00 -0.00000000000E+00 -0.45593999997E+02  0.45594000000E+02  0.51100000000E-03 0. -1.
    9900012    2    1    2    0    0  0.37080584527E+02 -0.25253787345E+02  0.40484508455E+01  0.46142317872E+02  0.10000001009E+02 0.  0.
        -12    1    1    2    0    0 -0.37080584527E+02  0.25253787345E+02 -0.40484508455E+01  0.45045682128E+02  0.00000000000E+00 0.  1.
         11    1    3    3    0    0  0.10579589150E+02 -0.32869291640E+01  0.43694785604E+00  0.11087043501E+02  0.51100000000E-03 0. -1.
        -11    1    3    3    0    0  0.93224958792E+00 -0.14442137720E+00  0.94377977817E+00  0.13344164864E+01  0.51100000000E-03 0.  1.
        -12    1    3    3    0    0  0.25568745789E+02 -0.21822436804E+02  0.26677232112E+01  0.33720857884E+02  0.00000000000E+00 0.  1.
</event>
<event>
 7    1  0.4047706E-008  0.4614232E+02  0.7816164E-02  0.1320468E+00
        -11   -1    0    0    0    0  0.00000000000E+00  0.00000000000E+00  0.45593999997E+02  0.45594000000E+02  0.51100000000E-03 0.  1.
         11   -1    0    0    0    0 -0.00000000000E+00 -0.00000000000E+00 -0.45593999997E+02  0.45594000000E+02  0.51100000000E-03 0. -1.
    9900012    2    1    2    0    0  0.25508651946E+02 -0.17769309963E+01 -0.37084562965E+02  0.46142316321E+02  0.99999868635E+01 0.  0.
        -12    1    1    2    0    0 -0.25508651946E+02  0.17769309963E+01  0.37084562965E+02  0.45045683679E+02  0.00000000000E+00 0.  1.
         11    1    3    3    0    0  0.62883220815E+01 -0.20821506446E+01 -0.13034644182E+02  0.14621227551E+02  0.51100000000E-03 0. -1.
        -11    1    3    3    0    0  0.12662458295E+02 -0.29309241865E+01 -0.14152927867E+02  0.19215450402E+02  0.51100000000E-03 0.  1.
         12    1    3    3    0    0  0.65578715687E+01  0.32361438348E+01 -0.98969909166E+01  0.12305638368E+02  0.00000000000E+00 0. -1.
</event>
<event>
 7    1  0.4047706E-008  0.4614232E+02  0.7816164E-02  0.1320468E+00
        -11   -1    0    0    0    0  0.00000000000E+00  0.00000000000E+00  0.45593999997E+02  0.45594000000E+02  0.51100000000E-03 0.  1.
         11   -1    0    0    0    0 -0.00000000000E+00 -0.00000000000E+00 -0.45593999997E+02  0.45594000000E+02  0.51100000000E-03 0. -1.
    9900012    2    1    2    0    0 -0.66000800822E+01  0.83398770903E+00 -0.44551732899E+02  0.46142317667E+02  0.99999991404E+01 0.  0.
        -12    1    1    2    0    0  0.66000800822E+01 -0.83398770903E+00  0.44551732899E+02  0.45045682333E+02  0.00000000000E+00 0.  1.
         11    1    3    3    0    0 -0.43193835049E+01 -0.28282283563E+01 -0.26136452060E+02  0.26641510393E+02  0.51100000000E-03 0. -1.
        -11    1    3    3    0    0 -0.41132817538E+00  0.15161525982E+00  0.18808802808E+00  0.47702769552E+00  0.51100000000E-03 0.  1.
        -12    1    3    3    0    0 -0.18693684019E+01  0.35106008055E+01 -0.18603368867E+02  0.19023779578E+02  0.00000000000E+00 0.  1.
</event>
<event>
 7    1  0.4047706E-008  0.4614232E+02  0.7816164E-02  0.1320468E+00
        -11   -1    0    0    0    0  0.00000000000E+00  0.00000000000E+00  0.45593999997E+02  0.45594000000E+02  0.51100000000E-03 0.  1.
         11   -1    0    0    0    0 -0.00000000000E+00 -0.00000000000E+00 -0.45593999997E+02  0.45594000000E+02  0.51100000000E-03 0. -1.
    9900012    2    1    2    0    0 -0.23443071424E+02  0.10880929550E+02 -0.36893648388E+02  0.46142317443E+02  0.99999970968E+01 0.  0.
        -12    1    1    2    0    0  0.23443071424E+02 -0.10880929550E+02  0.36893648388E+02  0.45045682557E+02  0.00000000000E+00 0.  1.
         11    1    3    3    0    0 -0.26649401198E+01  0.65570006569E+00 -0.63278416162E+01  0.68973493604E+01  0.51100000000E-03 0. -1.
        -11    1    3    3    0    0 -0.16622509357E+02  0.11103540868E+02 -0.27539441996E+02  0.34029653287E+02  0.51100000000E-03 0.  1.
         12    1    3    3    0    0 -0.41556219470E+01 -0.87831138400E+00 -0.30263647758E+01  0.52153147949E+01  0.00000000000E+00 0. -1.
</event>
<event>
 7    1  0.4047706E-008  0.4614232E+02  0.7816164E-02  0.1320468E+00
        -11   -1    0    0    0    0  0.00000000000E+00  0.00000000000E+00  0.45593999997E+02  0.45594000000E+02  0.51100000000E-03 0.  1.
         11   -1    0    0    0    0 -0.00000000000E+00 -0.00000000000E+00 -0.45593999997E+02  0.45594000000E+02  0.51100000000E-03 0. -1.
    9900012    2    1    2    0    0 -0.75686295879E+01 -0.60743312507E+01 -0.43987859637E+02  0.46142318194E+02  0.10000003945E+02 0.  0.
        -12    1    1    2    0    0  0.75686295879E+01  0.60743312507E+01  0.43987859637E+02  0.45045681806E+02  0.00000000000E+00 0.  1.
         11    1    3    3    0    0 -0.34874583995E+01 -0.20126226310E+01 -0.54753935515E+01  0.67965396157E+01  0.51100000000E-03 0. -1.
        -11    1    3    3    0    0 -0.60843508480E+00  0.18719200530E+00 -0.23750909377E+00  0.67944457464E+00  0.51100000000E-03 0.  1.
        -12    1    3    3    0    0 -0.34727361037E+01 -0.42489006250E+01 -0.38274956991E+02  0.38666334003E+02  0.00000000000E+00 0.  1.
</event>
<event>
 7    1  0.4047706E-008  0.4614232E+02  0.7816164E-02  0.1320468E+00
        -11   -1    0    0    0    0  0.00000000000E+00  0.00000000000E+00  0.45593999997E+02  0.45594000000E+02  0.51100000000E-03 0.  1.
         11   -1    0    0    0    0 -0.00000000000E+00 -0.00000000000E+00 -0.45593999997E+02  0.45594000000E+02  0.51100000000E-03 0. -1.
    9900012    2    1    2    0    0  0.14985965743E+01 -0.30978316362E+02 -0.32668206451E+02  0.46142316644E+02  0.99999898096E+01 0.  0.
        -12    1    1    2    0    0 -0.14985965743E+01  0.30978316362E+02  0.32668206451E+02  0.45045683356E+02  0.00000000000E+00 0.  1.
         11    1    3    3    0    0  0.31015411396E+01 -0.11668224873E+02 -0.11587105120E+02  0.16734038199E+02  0.51100000000E-03 0. -1.
        -11    1    3    3    0    0 -0.17222192358E+01 -0.14152074870E+02 -0.19205409446E+02  0.23918507781E+02  0.51100000000E-03 0.  1.
        -12    1    3    3    0    0  0.11927467054E+00 -0.51580166193E+01 -0.18756918851E+01  0.54897706637E+01  0.00000000000E+00 0.  1.
</event>
<event>
 7    1  0.4047706E-008  0.4614232E+02  0.7816164E-02  0.1320468E+00
        -11   -1    0    0    0    0  0.00000000000E+00  0.00000000000E+00  0.45593999997E+02  0.45594000000E+02  0.51100000000E-03 0.  1.
         11   -1    0    0    0    0 -0.00000000000E+00 -0.00000000000E+00 -0.45593999997E+02  0.45594000000E+02  0.51100000000E-03 0. -1.
    9900012    2    1    2    0    0  0.15704109497E+02  0.41910624032E+02 -0.50984343587E+01  0.46142317691E+02  0.99999993571E+01 0.  0.
        -12    1    1    2    0    0 -0.15704109497E+02 -0.41910624032E+02  0.50984343587E+01  0.45045682309E+02  0.00000000000E+00 0.  1.
         11    1    3    3    0    0  0.88188226634E+01  0.21461837309E+02 -0.25196197505E+01  0.23339463957E+02  0.51100000000E-03 0. -1.
        -11    1    3    3    0    0  0.11212484820E+01  0.40628230199E+01 -0.33972022216E+01  0.54133826989E+01  0.51100000000E-03 0.  1.
        -12    1    3    3    0    0  0.57640383518E+01  0.16385963702E+02  0.81838761343E+00  0.17389471034E+02  0.00000000000E+00 0.  1.
</event>
<event>
 7    1  0.4047706E-008  0.4614232E+02  0.7816164E-02  0.1320468E+00
        -11   -1    0    0    0    0  0.00000000000E+00  0.00000000000E+00  0.45593999997E+02  0.45594000000E+02  0.51100000000E-03 0. -1.
         11   -1    0    0    0    0 -0.00000000000E+00 -0.00000000000E+00 -0.45593999997E+02  0.45594000000E+02  0.51100000000E-03 0.  1.
    9900012    2    1    2    0    0  0.19542654381E+02 -0.34844065145E+02  0.20810795502E+02  0.46142318459E+02  0.10000006363E+02 0.  0.
        -12    1    1    2    0    0 -0.19542654381E+02  0.34844065145E+02 -0.20810795502E+02  0.45045681541E+02  0.00000000000E+00 0.  1.
         11    1    3    3    0    0  0.12333613734E+02 -0.20221475622E+02  0.13171099803E+02  0.27101733788E+02  0.51100000000E-03 0. -1.
        -11    1    3    3    0    0  0.13390097106E+01 -0.85920785366E+01  0.57208403673E+01  0.10408879640E+02  0.51100000000E-03 0.  1.
        -12    1    3    3    0    0  0.58700309365E+01 -0.60305109866E+01  0.19188553316E+01  0.86317050308E+01  0.00000000000E+00 0.  1.
</event>
<event>
 7    1  0.4047706E-008  0.4614232E+02  0.7816164E-02  0.1320468E+00
        -11   -1    0    0    0    0  0.00000000000E+00  0.00000000000E+00  0.45593999997E+02  0.45594000000E+02  0.51100000000E-03 0. -1.
         11   -1    0    0    0    0 -0.00000000000E+00 -0.00000000000E+00 -0.45593999997E+02  0.45594000000E+02  0.51100000000E-03 0.  1.
    9900012    2    1    2    0    0 -0.14555288509E+02  0.41458811344E+02 -0.99208905264E+01  0.46142317294E+02  0.99999957385E+01 0.  0.
        -12    1    1    2    0    0  0.14555288509E+02 -0.41458811344E+02  0.99208905264E+01  0.45045682706E+02  0.00000000000E+00 0.  1.
         11    1    3    3    0    0 -0.11858474112E+02  0.23932630070E+02 -0.33779194449E+01  0.26922194011E+02  0.51100000000E-03 0. -1.
        -11    1    3    3    0    0 -0.98902542201E+00  0.26643020979E+01 -0.23397152795E+01  0.36811607957E+01  0.51100000000E-03 0.  1.
         12    1    3    3    0    0 -0.17077889743E+01  0.14861879176E+02 -0.42032558020E+01  0.15538962487E+02  0.00000000000E+00 0. -1.
</event>
<event>
 7    1  0.4047706E-008  0.4614232E+02  0.7816164E-02  0.1320468E+00
        -11   -1    0    0    0    0  0.00000000000E+00  0.00000000000E+00  0.45593999997E+02  0.45594000000E+02  0.51100000000E-03 0.  1.
         11   -1    0    0    0    0 -0.00000000000E+00 -0.00000000000E+00 -0.45593999997E+02  0.45594000000E+02  0.51100000000E-03 0. -1.
    9900012    2    1    2    0    0  0.77418188122E+01  0.29535058176E+02 -0.33118841533E+02  0.46142322245E+02  0.10000040884E+02 0.  0.
        -12    1    1    2    0    0 -0.77418188122E+01 -0.29535058176E+02  0.33118841533E+02  0.45045677755E+02  0.00000000000E+00 0.  1.
         11    1    3    3    0    0  0.34386642413E+01  0.43417126215E+01 -0.81032803638E+01  0.98151939954E+01  0.51100000000E-03 0. -1.
        -11    1    3    3    0    0 -0.79345165841E+00  0.12237234106E+02 -0.13695625451E+02  0.18383406128E+02  0.51100000000E-03 0.  1.
        -12    1    3    3    0    0  0.50966062294E+01  0.12956111448E+02 -0.11319935718E+02  0.17943722121E+02  0.00000000000E+00 0.  1.
</event>
<event>
 7    1  0.4047706E-008  0.4614232E+02  0.7816164E-02  0.1320468E+00
        -11   -1    0    0    0    0  0.00000000000E+00  0.00000000000E+00  0.45593999997E+02  0.45594000000E+02  0.51100000000E-03 0. -1.
         11   -1    0    0    0    0 -0.00000000000E+00 -0.00000000000E+00 -0.45593999997E+02  0.45594000000E+02  0.51100000000E-03 0.  1.
    9900012    2    1    2    0    0  0.11125504135E+02 -0.38405107681E+02  0.20745708872E+02  0.46142316801E+02  0.99999912478E+01 0.  0.
        -12    1    1    2    0    0 -0.11125504135E+02  0.38405107681E+02 -0.20745708872E+02  0.45045683199E+02  0.00000000000E+00 0.  1.
         11    1    3    3    0    0  0.31870434134E+01 -0.35639650521E+01  0.28481235968E+01  0.55651505726E+01  0.51100000000E-03 0. -1.
        -11    1    3    3    0    0  0.62265630128E+01 -0.12117425969E+02  0.70256606136E+01  0.15328470452E+02  0.51100000000E-03 0.  1.
         12    1    3    3    0    0  0.17118977084E+01 -0.22723716660E+02  0.10871924662E+02  0.25248695777E+02  0.00000000000E+00 0. -1.
</event>
<event>
 7    1  0.4047706E-008  0.4614232E+02  0.7816164E-02  0.1320468E+00
        -11   -1    0    0    0    0  0.00000000000E+00  0.00000000000E+00  0.45593999997E+02  0.45594000000E+02  0.51100000000E-03 0.  1.
         11   -1    0    0    0    0 -0.00000000000E+00 -0.00000000000E+00 -0.45593999997E+02  0.45594000000E+02  0.51100000000E-03 0. -1.
    9900012    2    1    2    0    0 -0.12859941418E+02  0.41607806303E+02 -0.11511991930E+02  0.46142316557E+02  0.99999890230E+01 0.  0.
        -12    1    1    2    0    0  0.12859941418E+02 -0.41607806303E+02  0.11511991930E+02  0.45045683443E+02  0.00000000000E+00 0.  1.
         11    1    3    3    0    0 -0.67155544660E+01  0.28339124769E+02 -0.99261474925E+01  0.30769027751E+02  0.51100000000E-03 0. -1.
        -11    1    3    3    0    0 -0.58698743517E+01  0.13271372233E+02 -0.22217735527E+01  0.14680634313E+02  0.51100000000E-03 0.  1.
         12    1    3    3    0    0 -0.27451260038E+00 -0.26906986808E-02  0.63592911515E+00  0.69265449332E+00  0.00000000000E+00 0. -1.
</event>
<event>
 7    1  0.4047706E-008  0.4614232E+02  0.7816164E-02  0.1320468E+00
        -11   -1    0    0    0    0  0.00000000000E+00  0.00000000000E+00  0.45593999997E+02  0.45594000000E+02  0.51100000000E-03 0.  1.
         11   -1    0    0    0    0 -0.00000000000E+00 -0.00000000000E+00 -0.45593999997E+02  0.45594000000E+02  0.51100000000E-03 0. -1.
    9900012    2    1    2    0    0 -0.21378082770E+02 -0.39602502561E+02 -0.19320802994E+01  0.46142316897E+02  0.99999921174E+01 0.  0.
        -12    1    1    2    0    0  0.21378082770E+02  0.39602502561E+02  0.19320802994E+01  0.45045683103E+02  0.00000000000E+00 0.  1.
         11    1    3    3    0    0 -0.21411650125E+01 -0.70522472697E+01  0.14151967236E+01  0.75047692298E+01  0.51100000000E-03 0. -1.
        -11    1    3    3    0    0 -0.14793293982E+02 -0.18128606746E+02 -0.17952095232E+01  0.23467226230E+02  0.51100000000E-03 0.  1.
        -12    1    3    3    0    0 -0.44436237746E+01 -0.14421648544E+02 -0.15520674998E+01  0.15170321437E+02  0.00000000000E+00 0.  1.
</event>
<event>
 7    1  0.4047706E-008  0.4614232E+02  0.7816164E-02  0.1320468E+00
        -11   -1    0    0    0    0  0.00000000000E+00  0.00000000000E+00  0.45593999997E+02  0.45594000000E+02  0.51100000000E-03 0.  1.
         11   -1    0    0    0    0 -0.00000000000E+00 -0.00000000000E+00 -0.45593999997E+02  0.45594000000E+02  0.51100000000E-03 0. -1.
    9900012    2    1    2    0    0 -0.88314412867E+01  0.43935013528E+02  0.45643951855E+01  0.46142317939E+02  0.10000001623E+02 0.  0.
        -12    1    1    2    0    0  0.88314412867E+01 -0.43935013528E+02 -0.45643951855E+01  0.45045682061E+02  0.00000000000E+00 0.  1.
         11    1    3    3    0    0 -0.69574827076E+00  0.92512846086E+01  0.31620543459E+01  0.98014754254E+01  0.51100000000E-03 0.  1.
        -11    1    3    3    0    0 -0.85193423247E+01  0.28218795766E+02 -0.83605738755E+00  0.29488618488E+02  0.51100000000E-03 0. -1.
         12    1    3    3    0    0  0.38364930875E+00  0.64649331533E+01  0.22383982271E+01  0.68522240252E+01  0.00000000000E+00 0. -1.
</event>
<event>
 7    1  0.4047706E-008  0.4614232E+02  0.7816164E-02  0.1320468E+00
        -11   -1    0    0    0    0  0.00000000000E+00  0.00000000000E+00  0.45593999997E+02  0.45594000000E+02  0.51100000000E-03 0. -1.
         11   -1    0    0    0    0 -0.00000000000E+00 -0.00000000000E+00 -0.45593999997E+02  0.45594000000E+02  0.51100000000E-03 0.  1.
    9900012    2    1    2    0    0 -0.99911109382E+01 -0.32213142693E+02  0.29859747437E+02  0.46142318998E+02  0.10000011278E+02 0.  0.
        -12    1    1    2    0    0  0.99911109382E+01  0.32213142693E+02 -0.29859747437E+02  0.45045681002E+02  0.00000000000E+00 0.  1.
         11    1    3    3    0    0 -0.23975691694E+01 -0.10015854256E+02  0.89066849147E+01  0.13615972636E+02  0.51100000000E-03 0. -1.
        -11    1    3    3    0    0  0.14733988249E+01 -0.36007666288E+01  0.16342047350E+01  0.42198400194E+01  0.51100000000E-03 0.  1.
         12    1    3    3    0    0 -0.90669405938E+01 -0.18596521809E+02  0.19318857787E+02  0.28306506342E+02  0.00000000000E+00 0. -1.
</event>
<event>
 7    1  0.4047706E-008  0.4614232E+02  0.7816164E-02  0.1320468E+00
        -11   -1    0    0    0    0  0.00000000000E+00  0.00000000000E+00  0.45593999997E+02  0.45594000000E+02  0.51100000000E-03 0.  1.
         11   -1    0    0    0    0 -0.00000000000E+00 -0.00000000000E+00 -0.45593999997E+02  0.45594000000E+02  0.51100000000E-03 0. -1.
    9900012    2    1    2    0    0  0.28020651164E+02  0.31592119390E+02  0.15681025186E+02  0.46142318186E+02  0.10000003871E+02 0.  0.
        -12    1    1    2    0    0 -0.28020651164E+02 -0.31592119390E+02 -0.15681025186E+02  0.45045681814E+02  0.00000000000E+00 0.  1.
         11    1    3    3    0    0  0.12401624327E+02  0.11348075295E+02  0.35408239882E+01  0.17178956127E+02  0.51100000000E-03 0. -1.
        -11    1    3    3    0    0  0.10512917736E+01  0.29876800998E+01  0.36607462150E+01  0.48407137784E+01  0.51100000000E-03 0.  1.
        -12    1    3    3    0    0  0.14567735064E+02  0.17256363996E+02  0.84794549831E+01  0.24122648280E+02  0.00000000000E+00 0.  1.
</event>
<event>
 7    1  0.4047706E-008  0.4614231E+02  0.7816164E-02  0.1320468E+00
        -11   -1    0    0    0    0  0.00000000000E+00  0.00000000000E+00  0.45593999997E+02  0.45594000000E+02  0.51100000000E-03 0.  1.
         11   -1    0    0    0    0 -0.00000000000E+00 -0.00000000000E+00 -0.45593999997E+02  0.45594000000E+02  0.51100000000E-03 0. -1.
    9900012    2    1    2    0    0  0.22358551640E+02  0.12849696000E+02 -0.36933650458E+02  0.46142311472E+02  0.99999426543E+01 0.  0.
        -12    1    1    2    0    0 -0.22358551640E+02 -0.12849696000E+02  0.36933650458E+02  0.45045688528E+02  0.00000000000E+00 0.  1.
         11    1    3    3    0    0  0.10528732738E+02  0.59704616504E+01 -0.13847764215E+02  0.18391878626E+02  0.51100000000E-03 0. -1.
        -11    1    3    3    0    0  0.86109135994E+01  0.78242484756E+01 -0.20264431635E+02  0.23366940043E+02  0.51100000000E-03 0.  1.
        -12    1    3    3    0    0  0.32189053028E+01 -0.94501412628E+00 -0.28214546089E+01  0.43834928033E+01  0.00000000000E+00 0.  1.
</event>
<event>
 7    1  0.4047706E-008  0.4614231E+02  0.7816164E-02  0.1320468E+00
        -11   -1    0    0    0    0  0.00000000000E+00  0.00000000000E+00  0.45593999997E+02  0.45594000000E+02  0.51100000000E-03 0. -1.
         11   -1    0    0    0    0 -0.00000000000E+00 -0.00000000000E+00 -0.45593999997E+02  0.45594000000E+02  0.51100000000E-03 0.  1.
    9900012    2    1    2    0    0  0.44395908052E+02  0.53449252208E+01  0.54358898468E+01  0.46142314571E+02  0.99999709087E+01 0.  0.
        -12    1    1    2    0    0 -0.44395908052E+02 -0.53449252208E+01 -0.54358898468E+01  0.45045685429E+02  0.00000000000E+00 0.  1.
         11    1    3    3    0    0  0.81658952601E+01 -0.11423274855E+01  0.29507201325E+01  0.87574829172E+01  0.51100000000E-03 0. -1.
        -11    1    3    3    0    0  0.34930100735E+02  0.67324599164E+01  0.34610703408E+01  0.35740970356E+02  0.51100000000E-03 0.  1.
        -12    1    3    3    0    0  0.12999120570E+01 -0.24520721005E+00 -0.97590062646E+00  0.16438612972E+01  0.00000000000E+00 0.  1.
</event>
<event>
 7    1  0.4047706E-008  0.4614232E+02  0.7816164E-02  0.1320468E+00
        -11   -1    0    0    0    0  0.00000000000E+00  0.00000000000E+00  0.45593999997E+02  0.45594000000E+02  0.51100000000E-03 0.  1.
         11   -1    0    0    0    0 -0.00000000000E+00 -0.00000000000E+00 -0.45593999997E+02  0.45594000000E+02  0.51100000000E-03 0. -1.
    9900012    2    1    2    0    0  0.53799398390E+01  0.34041674267E+02 -0.29005763288E+02  0.46142316039E+02  0.99999843006E+01 0.  0.
        -12    1    1    2    0    0 -0.53799398390E+01 -0.34041674267E+02  0.29005763288E+02  0.45045683961E+02  0.00000000000E+00 0.  1.
         11    1    3    3    0    0  0.22923276179E+01  0.23827503509E+02 -0.17458891327E+02  0.29627986364E+02  0.51100000000E-03 0. -1.
        -11    1    3    3    0    0  0.39301265483E+01  0.74723584230E+01 -0.62989805902E+01  0.10533716905E+02  0.51100000000E-03 0.  1.
        -12    1    3    3    0    0 -0.84251432718E+00  0.27418123346E+01 -0.52478913711E+01  0.59806127706E+01  0.00000000000E+00 0.  1.
</event>
<event>
 7    1  0.4047706E-008  0.4614232E+02  0.7816164E-02  0.1320468E+00
        -11   -1    0    0    0    0  0.00000000000E+00  0.00000000000E+00  0.45593999997E+02  0.45594000000E+02  0.51100000000E-03 0. -1.
         11   -1    0    0    0    0 -0.00000000000E+00 -0.00000000000E+00 -0.45593999997E+02  0.45594000000E+02  0.51100000000E-03 0.  1.
    9900012    2    1    2    0    0 -0.39359307606E+02 -0.19113735779E+02  0.10706240399E+02  0.46142316809E+02  0.99999913191E+01 0.  0.
        -12    1    1    2    0    0  0.39359307606E+02  0.19113735779E+02 -0.10706240399E+02  0.45045683191E+02  0.00000000000E+00 0.  1.
         11    1    3    3    0    0 -0.12398470344E+02 -0.22240694903E+01  0.46088238928E+01  0.13413046257E+02  0.51100000000E-03 0. -1.
        -11    1    3    3    0    0 -0.24313093286E+02 -0.14695846673E+02  0.39689949488E+01  0.28685315681E+02  0.51100000000E-03 0.  1.
        -12    1    3    3    0    0 -0.26477439764E+01 -0.21938196162E+01  0.21284215572E+01  0.40439548710E+01  0.00000000000E+00 0.  1.
</event>
<event>
 7    1  0.4047706E-008  0.4614232E+02  0.7816164E-02  0.1320468E+00
        -11   -1    0    0    0    0  0.00000000000E+00  0.00000000000E+00  0.45593999997E+02  0.45594000000E+02  0.51100000000E-03 0.  1.
         11   -1    0    0    0    0 -0.00000000000E+00 -0.00000000000E+00 -0.45593999997E+02  0.45594000000E+02  0.51100000000E-03 0. -1.
    9900012    2    1    2    0    0 -0.45624045125E+01  0.38107386070E+02 -0.23582304461E+02  0.46142317723E+02  0.99999996566E+01 0.  0.
        -12    1    1    2    0    0  0.45624045125E+01 -0.38107386070E+02  0.23582304461E+02  0.45045682277E+02  0.00000000000E+00 0.  1.
         11    1    3    3    0    0 -0.37614842554E+01  0.16519506841E+02 -0.96026054949E+01  0.19474416619E+02  0.51100000000E-03 0. -1.
        -11    1    3    3    0    0 -0.20105440500E+01  0.51723643201E+01 -0.66176313949E+01  0.86364741404E+01  0.51100000000E-03 0.  1.
        -12    1    3    3    0    0  0.12096237929E+01  0.16415514909E+02 -0.73620675714E+01  0.18031426964E+02  0.00000000000E+00 0.  1.
</event>
<event>
 7    1  0.4047706E-008  0.4614232E+02  0.7816164E-02  0.1320468E+00
        -11   -1    0    0    0    0  0.00000000000E+00  0.00000000000E+00  0.45593999997E+02  0.45594000000E+02  0.51100000000E-03 0.  1.
         11   -1    0    0    0    0 -0.00000000000E+00 -0.00000000000E+00 -0.45593999997E+02  0.45594000000E+02  0.51100000000E-03 0. -1.
    9900012    2    1    2    0    0  0.11456478640E+02 -0.30681705113E+01 -0.43456286872E+02  0.46142318278E+02  0.10000004712E+02 0.  0.
        -12    1    1    2    0    0 -0.11456478640E+02  0.30681705113E+01  0.43456286872E+02  0.45045681722E+02  0.00000000000E+00 0.  1.
         11    1    3    3    0    0  0.91797142367E+01 -0.21645606274E+01 -0.24536083967E+02  0.26286344228E+02  0.51100000000E-03 0. -1.
        -11    1    3    3    0    0  0.33605502842E+01 -0.99180248045E-01 -0.61018382707E+01  0.69667471231E+01  0.51100000000E-03 0.  1.
        -12    1    3    3    0    0 -0.10837858806E+01 -0.80442963593E+00 -0.12818364635E+02  0.12889226927E+02  0.00000000000E+00 0.  1.
</event>
<event>
 7    1  0.4047706E-008  0.4614232E+02  0.7816164E-02  0.1320468E+00
        -11   -1    0    0    0    0  0.00000000000E+00  0.00000000000E+00  0.45593999997E+02  0.45594000000E+02  0.51100000000E-03 0.  1.
         11   -1    0    0    0    0 -0.00000000000E+00 -0.00000000000E+00 -0.45593999997E+02  0.45594000000E+02  0.51100000000E-03 0. -1.
    9900012    2    1    2    0    0  0.17566588843E+02 -0.41098555832E+02 -0.56068932919E+01  0.46142316661E+02  0.99999899727E+01 0.  0.
        -12    1    1    2    0    0 -0.17566588843E+02  0.41098555832E+02  0.56068932919E+01  0.45045683339E+02  0.00000000000E+00 0.  1.
         11    1    3    3    0    0  0.98246907351E+01 -0.13985170316E+02 -0.56180450726E+00  0.17100443310E+02  0.51100000000E-03 0. -1.
        -11    1    3    3    0    0  0.56128228132E+01 -0.11024600270E+02 -0.22201145574E+01  0.12568790711E+02  0.51100000000E-03 0.  1.
        -12    1    3    3    0    0  0.21290752950E+01 -0.16088785246E+02 -0.28249742273E+01  0.16473082641E+02  0.00000000000E+00 0.  1.
</event>
<event>
 7    1  0.4047706E-008  0.4614232E+02  0.7816164E-02  0.1320468E+00
        -11   -1    0    0    0    0  0.00000000000E+00  0.00000000000E+00  0.45593999997E+02  0.45594000000E+02  0.51100000000E-03 0.  1.
         11   -1    0    0    0    0 -0.00000000000E+00 -0.00000000000E+00 -0.45593999997E+02  0.45594000000E+02  0.51100000000E-03 0. -1.
    9900012    2    1    2    0    0  0.72095900560E+01  0.40500842746E+02  0.18352574500E+02  0.46142318268E+02  0.10000004624E+02 0.  0.
        -12    1    1    2    0    0 -0.72095900560E+01 -0.40500842746E+02 -0.18352574500E+02  0.45045681732E+02  0.00000000000E+00 0.  1.
         11    1    3    3    0    0  0.18011596009E+00  0.16643449663E+02  0.58371140493E+01  0.17638275401E+02  0.51100000000E-03 0. -1.
        -11    1    3    3    0    0  0.62958329608E+01  0.17701552125E+02  0.11978257252E+02  0.22281407212E+02  0.51100000000E-03 0.  1.
        -12    1    3    3    0    0  0.73364113508E+00  0.61558409580E+01  0.53720319857E+00  0.62226356548E+01  0.00000000000E+00 0.  1.
</event>
<event>
 7    1  0.4047706E-008  0.4614232E+02  0.7816164E-02  0.1320468E+00
        -11   -1    0    0    0    0  0.00000000000E+00  0.00000000000E+00  0.45593999997E+02  0.45594000000E+02  0.51100000000E-03 0. -1.
         11   -1    0    0    0    0 -0.00000000000E+00 -0.00000000000E+00 -0.45593999997E+02  0.45594000000E+02  0.51100000000E-03 0.  1.
    9900012    2    1    2    0    0 -0.55796701403E+01 -0.36938995658E+01  0.44545885019E+02  0.46142317798E+02  0.10000000339E+02 0.  0.
        -12    1    1    2    0    0  0.55796701403E+01  0.36938995658E+01 -0.44545885019E+02  0.45045682202E+02  0.00000000000E+00 0.  1.
         11    1    3    3    0    0 -0.28351951253E+01 -0.24747703656E+01  0.72844338965E+01  0.81991339307E+01  0.51100000000E-03 0. -1.
        -11    1    3    3    0    0  0.96259919302E+00 -0.15088461894E+01  0.26443981570E+02  0.26504478406E+02  0.51100000000E-03 0.  1.
        -12    1    3    3    0    0 -0.37070742080E+01  0.28971698921E+00  0.10817469553E+02  0.11438705462E+02  0.00000000000E+00 0.  1.
</event>
<event>
 7    1  0.4047706E-008  0.4614232E+02  0.7816164E-02  0.1320468E+00
        -11   -1    0    0    0    0  0.00000000000E+00  0.00000000000E+00  0.45593999997E+02  0.45594000000E+02  0.51100000000E-03 0. -1.
         11   -1    0    0    0    0 -0.00000000000E+00 -0.00000000000E+00 -0.45593999997E+02  0.45594000000E+02  0.51100000000E-03 0.  1.
    9900012    2    1    2    0    0  0.43625571922E+02  0.98172703787E+01  0.54354470620E+01  0.46142318653E+02  0.10000008134E+02 0.  0.
        -12    1    1    2    0    0 -0.43625571922E+02 -0.98172703787E+01 -0.54354470620E+01  0.45045681347E+02  0.00000000000E+00 0.  1.
         11    1    3    3    0    0  0.12236101367E+02  0.40306755787E+01  0.12273551997E+01  0.12941210273E+02  0.51100000000E-03 0. -1.
        -11    1    3    3    0    0  0.30805445714E+01  0.23821414656E+01 -0.14070733434E+01  0.41405565415E+01  0.51100000000E-03 0.  1.
         12    1    3    3    0    0  0.28308925984E+02  0.34044533344E+01  0.56151652058E+01  0.29060551839E+02  0.00000000000E+00 0. -1.
</event>
<event>
 7    1  0.4047706E-008  0.4614232E+02  0.7816164E-02  0.1320468E+00
        -11   -1    0    0    0    0  0.00000000000E+00  0.00000000000E+00  0.45593999997E+02  0.45594000000E+02  0.51100000000E-03 0.  1.
         11   -1    0    0    0    0 -0.00000000000E+00 -0.00000000000E+00 -0.45593999997E+02  0.45594000000E+02  0.51100000000E-03 0. -1.
    9900012    2    1    2    0    0  0.52486521683E+01  0.30403028746E+02 -0.32821048153E+02  0.46142315319E+02  0.99999777276E+01 0.  0.
        -12    1    1    2    0    0 -0.52486521683E+01 -0.30403028746E+02  0.32821048153E+02  0.45045684681E+02  0.00000000000E+00 0.  1.
         11    1    3    3    0    0  0.38976146572E+01  0.15752516723E+02 -0.15029263337E+02  0.22118135994E+02  0.51100000000E-03 0. -1.
        -11    1    3    3    0    0  0.18708219996E+01  0.49595780249E+01 -0.10902052186E+02  0.12122381419E+02  0.51100000000E-03 0.  1.
        -12    1    3    3    0    0 -0.51978448850E+00  0.96909339981E+01 -0.68897326304E+01  0.11901797906E+02  0.00000000000E+00 0.  1.
</event>
<event>
 7    1  0.4047706E-008  0.4614232E+02  0.7816164E-02  0.1320468E+00
        -11   -1    0    0    0    0  0.00000000000E+00  0.00000000000E+00  0.45593999997E+02  0.45594000000E+02  0.51100000000E-03 0.  1.
         11   -1    0    0    0    0 -0.00000000000E+00 -0.00000000000E+00 -0.45593999997E+02  0.45594000000E+02  0.51100000000E-03 0. -1.
    9900012    2    1    2    0    0 -0.34046044832E+02  0.41032708816E+00 -0.29492573990E+02  0.46142318103E+02  0.10000003119E+02 0.  0.
        -12    1    1    2    0    0  0.34046044832E+02 -0.41032708816E+00  0.29492573990E+02  0.45045681897E+02  0.00000000000E+00 0.  1.
         11    1    3    3    0    0 -0.28439316035E+01 -0.12851778975E+01 -0.36848577375E+01  0.48288514163E+01  0.51100000000E-03 0. -1.
        -11    1    3    3    0    0 -0.12266195367E+02  0.39168309911E+01 -0.76099185954E+01  0.14957004215E+02  0.51100000000E-03 0.  1.
         12    1    3    3    0    0 -0.18935917861E+02 -0.22213260054E+01 -0.18197797657E+02  0.26356462472E+02  0.00000000000E+00 0. -1.
</event>
<event>
 7    1  0.4047706E-008  0.4614232E+02  0.7816164E-02  0.1320468E+00
        -11   -1    0    0    0    0  0.00000000000E+00  0.00000000000E+00  0.45593999997E+02  0.45594000000E+02  0.51100000000E-03 0.  1.
         11   -1    0    0    0    0 -0.00000000000E+00 -0.00000000000E+00 -0.45593999997E+02  0.45594000000E+02  0.51100000000E-03 0. -1.
    9900012    2    1    2    0    0  0.21983266403E+02 -0.35629598396E+02 -0.16624716561E+02  0.46142317806E+02  0.10000000405E+02 0.  0.
        -12    1    1    2    0    0 -0.21983266403E+02  0.35629598396E+02  0.16624716561E+02  0.45045682194E+02  0.00000000000E+00 0.  1.
         11    1    3    3    0    0  0.36482000785E+00 -0.21532731391E+01 -0.11014051035E+01  0.24459706280E+01  0.51100000000E-03 0. -1.
        -11    1    3    3    0    0 -0.81760966275E+00 -0.17531386063E+01 -0.12458671287E+01  0.23009054081E+01  0.51100000000E-03 0.  1.
         12    1    3    3    0    0  0.22436056058E+02 -0.31723186651E+02 -0.14277444329E+02  0.41395441769E+02  0.00000000000E+00 0. -1.
</event>
<event>
 7    1  0.4047706E-008  0.4614232E+02  0.7816164E-02  0.1320468E+00
        -11   -1    0    0    0    0  0.00000000000E+00  0.00000000000E+00  0.45593999997E+02  0.45594000000E+02  0.51100000000E-03 0.  1.
         11   -1    0    0    0    0 -0.00000000000E+00 -0.00000000000E+00 -0.45593999997E+02  0.45594000000E+02  0.51100000000E-03 0. -1.
    9900012    2    1    2    0    0 -0.17612079847E+02  0.16407952063E+02 -0.38075020738E+02  0.46142318169E+02  0.10000003717E+02 0.  0.
        -12    1    1    2    0    0  0.17612079847E+02 -0.16407952063E+02  0.38075020738E+02  0.45045681831E+02  0.00000000000E+00 0.  1.
         11    1    3    3    0    0 -0.13875214559E+01  0.51374233374E+01 -0.71865116252E+01  0.89422750986E+01  0.51100000000E-03 0. -1.
        -11    1    3    3    0    0 -0.44561476766E+01  0.16457907655E+01 -0.35926458773E+01  0.59559200817E+01  0.51100000000E-03 0.  1.
        -12    1    3    3    0    0 -0.11768410714E+02  0.96247379604E+01 -0.27295863235E+02  0.31244122988E+02  0.00000000000E+00 0.  1.
</event>
<event>
 7    1  0.4047706E-008  0.4614232E+02  0.7816164E-02  0.1320468E+00
        -11   -1    0    0    0    0  0.00000000000E+00  0.00000000000E+00  0.45593999997E+02  0.45594000000E+02  0.51100000000E-03 0. -1.
         11   -1    0    0    0    0 -0.00000000000E+00 -0.00000000000E+00 -0.45593999997E+02  0.45594000000E+02  0.51100000000E-03 0.  1.
    9900012    2    1    2    0    0 -0.29405954492E+02 -0.33870504799E+02 -0.41463414337E+01  0.46142318718E+02  0.10000008724E+02 0.  0.
        -12    1    1    2    0    0  0.29405954492E+02  0.33870504799E+02  0.41463414337E+01  0.45045681282E+02  0.00000000000E+00 0.  1.
         11    1    3    3    0    0 -0.46420164800E+01 -0.37759247314E+01  0.12327222896E+01  0.61094622580E+01  0.51100000000E-03 0. -1.
        -11    1    3    3    0    0  0.32061850005E+00  0.14527906798E+00  0.92505403592E-01  0.36395019025E+00  0.51100000000E-03 0.  1.
        -12    1    3    3    0    0 -0.25084556512E+02 -0.30239859135E+02 -0.54715691269E+01  0.39668906270E+02  0.00000000000E+00 0.  1.
</event>
<event>
 7    1  0.4047706E-008  0.4614232E+02  0.7816164E-02  0.1320468E+00
        -11   -1    0    0    0    0  0.00000000000E+00  0.00000000000E+00  0.45593999997E+02  0.45594000000E+02  0.51100000000E-03 0. -1.
         11   -1    0    0    0    0 -0.00000000000E+00 -0.00000000000E+00 -0.45593999997E+02  0.45594000000E+02  0.51100000000E-03 0.  1.
    9900012    2    1    2    0    0  0.29388947428E+02  0.34077487861E+02  0.20317670732E+01  0.46142317773E+02  0.10000000112E+02 0.  0.
        -12    1    1    2    0    0 -0.29388947428E+02 -0.34077487861E+02 -0.20317670732E+01  0.45045682227E+02  0.00000000000E+00 0.  1.
         11    1    3    3    0    0  0.81480966443E+01  0.11103903086E+02  0.21750174151E+01  0.13943415783E+02  0.51100000000E-03 0. -1.
        -11    1    3    3    0    0  0.37351431937E+01  0.78040023176E+01  0.21699946614E+01  0.89197883351E+01  0.51100000000E-03 0.  1.
         12    1    3    3    0    0  0.17505707590E+02  0.15169582457E+02 -0.23132450033E+01  0.23279113655E+02  0.00000000000E+00 0. -1.
</event>
<event>
 7    1  0.4047706E-008  0.4614232E+02  0.7816164E-02  0.1320468E+00
        -11   -1    0    0    0    0  0.00000000000E+00  0.00000000000E+00  0.45593999997E+02  0.45594000000E+02  0.51100000000E-03 0.  1.
         11   -1    0    0    0    0 -0.00000000000E+00 -0.00000000000E+00 -0.45593999997E+02  0.45594000000E+02  0.51100000000E-03 0. -1.
    9900012    2    1    2    0    0 -0.86086802921E+00  0.41737441848E+02 -0.16922126173E+02  0.46142317632E+02  0.99999988254E+01 0.  0.
        -12    1    1    2    0    0  0.86086802921E+00 -0.41737441848E+02  0.16922126173E+02  0.45045682368E+02  0.00000000000E+00 0.  1.
         11    1    3    3    0    0  0.26706758229E+01  0.19816874173E+02 -0.85060949313E+01  0.21730040556E+02  0.51100000000E-03 0. -1.
        -11    1    3    3    0    0  0.14744279308E+01  0.34092679000E+01 -0.17928732464E+01  0.41244927053E+01  0.51100000000E-03 0.  1.
        -12    1    3    3    0    0 -0.50059717829E+01  0.18511299775E+02 -0.66231579957E+01  0.20287784371E+02  0.00000000000E+00 0.  1.
</event>
<event>
 7    1  0.4047706E-008  0.4614232E+02  0.7816164E-02  0.1320468E+00
        -11   -1    0    0    0    0  0.00000000000E+00  0.00000000000E+00  0.45593999997E+02  0.45594000000E+02  0.51100000000E-03 0. -1.
         11   -1    0    0    0    0 -0.00000000000E+00 -0.00000000000E+00 -0.45593999997E+02  0.45594000000E+02  0.51100000000E-03 0.  1.
    9900012    2    1    2    0    0 -0.25171561804E+02 -0.29372994079E+02  0.23081012835E+02  0.46142318095E+02  0.10000003041E+02 0.  0.
        -12    1    1    2    0    0  0.25171561804E+02  0.29372994079E+02 -0.23081012835E+02  0.45045681905E+02  0.00000000000E+00 0.  1.
         11    1    3    3    0    0 -0.35891064309E+01 -0.25469886534E+01  0.42081536169E+01  0.60891208969E+01  0.51100000000E-03 0. -1.
        -11    1    3    3    0    0 -0.15204400455E+02 -0.12633343894E+02  0.10614400410E+02  0.22437483536E+02  0.51100000000E-03 0.  1.
        -12    1    3    3    0    0 -0.63780549185E+01 -0.14192661532E+02  0.82584588084E+01  0.17615713661E+02  0.00000000000E+00 0.  1.
</event>
<event>
 7    1  0.4047706E-008  0.4614232E+02  0.7816164E-02  0.1320468E+00
        -11   -1    0    0    0    0  0.00000000000E+00  0.00000000000E+00  0.45593999997E+02  0.45594000000E+02  0.51100000000E-03 0.  1.
         11   -1    0    0    0    0 -0.00000000000E+00 -0.00000000000E+00 -0.45593999997E+02  0.45594000000E+02  0.51100000000E-03 0. -1.
    9900012    2    1    2    0    0 -0.20928902865E+02 -0.29919474246E+02 -0.26380288181E+02  0.46142317424E+02  0.99999969221E+01 0.  0.
        -12    1    1    2    0    0  0.20928902865E+02  0.29919474246E+02  0.26380288181E+02  0.45045682576E+02  0.00000000000E+00 0.  1.
         11    1    3    3    0    0 -0.78468557773E+01 -0.95507887364E+01 -0.84911884202E+01  0.14996365964E+02  0.51100000000E-03 0. -1.
        -11    1    3    3    0    0 -0.39592817297E+01 -0.13135001745E+02 -0.80757143972E+01  0.15919213107E+02  0.51100000000E-03 0.  1.
        -12    1    3    3    0    0 -0.91227653575E+01 -0.72336837650E+01 -0.98133853634E+01  0.15226738353E+02  0.00000000000E+00 0.  1.
</event>
<event>
 7    1  0.4047706E-008  0.4614232E+02  0.7816164E-02  0.1320468E+00
        -11   -1    0    0    0    0  0.00000000000E+00  0.00000000000E+00  0.45593999997E+02  0.45594000000E+02  0.51100000000E-03 0.  1.
         11   -1    0    0    0    0 -0.00000000000E+00 -0.00000000000E+00 -0.45593999997E+02  0.45594000000E+02  0.51100000000E-03 0. -1.
    9900012    2    1    2    0    0  0.21003454729E+02 -0.32678562683E+02 -0.22805258170E+02  0.46142319078E+02  0.10000012005E+02 0.  0.
        -12    1    1    2    0    0 -0.21003454729E+02  0.32678562683E+02  0.22805258170E+02  0.45045680922E+02  0.00000000000E+00 0.  1.
         11    1    3    3    0    0  0.42924384905E+01 -0.61511515850E+01 -0.17902902270E+01  0.77114741375E+01  0.51100000000E-03 0. -1.
        -11    1    3    3    0    0  0.13156875144E+02 -0.23233318441E+02 -0.20281926249E+02  0.33529792453E+02  0.51100000000E-03 0.  1.
        -12    1    3    3    0    0  0.35541410947E+01 -0.32940926568E+01 -0.73304169381E+00  0.49010524867E+01  0.00000000000E+00 0.  1.
</event>
<event>
 7    1  0.4047706E-008  0.4614232E+02  0.7816164E-02  0.1320468E+00
        -11   -1    0    0    0    0  0.00000000000E+00  0.00000000000E+00  0.45593999997E+02  0.45594000000E+02  0.51100000000E-03 0. -1.
         11   -1    0    0    0    0 -0.00000000000E+00 -0.00000000000E+00 -0.45593999997E+02  0.45594000000E+02  0.51100000000E-03 0.  1.
    9900012    2    1    2    0    0  0.43016999025E+02 -0.12017048718E+02 -0.58516240940E+01  0.46142321300E+02  0.10000032267E+02 0.  0.
        -12    1    1    2    0    0 -0.43016999025E+02  0.12017048718E+02  0.58516240940E+01  0.45045678700E+02  0.00000000000E+00 0.  1.
         11    1    3    3    0    0  0.23473514517E+02 -0.60062089488E+01 -0.31020245461E+01  0.24427504708E+02  0.51100000000E-03 0. -1.
        -11    1    3    3    0    0  0.13973667293E+02 -0.29534139914E+01 -0.47532981682E+01  0.15052570397E+02  0.51100000000E-03 0.  1.
        -12    1    3    3    0    0  0.55698172161E+01 -0.30574257774E+01  0.20036986203E+01  0.66622461953E+01  0.00000000000E+00 0.  1.
</event>
<event>
 7    1  0.4047706E-008  0.4614232E+02  0.7816164E-02  0.1320468E+00
        -11   -1    0    0    0    0  0.00000000000E+00  0.00000000000E+00  0.45593999997E+02  0.45594000000E+02  0.51100000000E-03 0. -1.
         11   -1    0    0    0    0 -0.00000000000E+00 -0.00000000000E+00 -0.45593999997E+02  0.45594000000E+02  0.51100000000E-03 0.  1.
    9900012    2    1    2    0    0 -0.33348552538E+02  0.30024847435E+02  0.39364983835E+01  0.46142318305E+02  0.10000004959E+02 0.  0.
        -12    1    1    2    0    0  0.33348552538E+02 -0.30024847435E+02 -0.39364983835E+01  0.45045681695E+02  0.00000000000E+00 0.  1.
         11    1    3    3    0    0 -0.19965792607E+02  0.20960703375E+02  0.37680627037E+01  0.29192160887E+02  0.51100000000E-03 0. -1.
        -11    1    3    3    0    0 -0.18575317523E+01  0.32977516963E+01 -0.12477731266E+01  0.39852890106E+01  0.51100000000E-03 0.  1.
         12    1    3    3    0    0 -0.11525228178E+02  0.57663923633E+01  0.14162088063E+01  0.12964868408E+02  0.00000000000E+00 0. -1.
</event>
<event>
 7    1  0.4047706E-008  0.4614232E+02  0.7816164E-02  0.1320468E+00
        -11   -1    0    0    0    0  0.00000000000E+00  0.00000000000E+00  0.45593999997E+02  0.45594000000E+02  0.51100000000E-03 0. -1.
         11   -1    0    0    0    0 -0.00000000000E+00 -0.00000000000E+00 -0.45593999997E+02  0.45594000000E+02  0.51100000000E-03 0.  1.
    9900012    2    1    2    0    0 -0.35220352758E+02  0.27942525382E+02 -0.28027598436E+01  0.46142318344E+02  0.10000005316E+02 0.  0.
        -12    1    1    2    0    0  0.35220352758E+02 -0.27942525382E+02  0.28027598436E+01  0.45045681656E+02  0.00000000000E+00 0.  1.
         11    1    3    3    0    0 -0.12044955079E+02  0.12457865549E+02  0.11507731578E+00  0.17328952650E+02  0.51100000000E-03 0. -1.
        -11    1    3    3    0    0 -0.83788153050E+01  0.40606046649E+01  0.19137268405E+01  0.95055461096E+01  0.51100000000E-03 0.  1.
        -12    1    3    3    0    0 -0.14796582374E+02  0.11424055167E+02 -0.48315639999E+01  0.19307819585E+02  0.00000000000E+00 0.  1.
</event>
<event>
 7    1  0.4047706E-008  0.4614232E+02  0.7816164E-02  0.1320468E+00
        -11   -1    0    0    0    0  0.00000000000E+00  0.00000000000E+00  0.45593999997E+02  0.45594000000E+02  0.51100000000E-03 0.  1.
         11   -1    0    0    0    0 -0.00000000000E+00 -0.00000000000E+00 -0.45593999997E+02  0.45594000000E+02  0.51100000000E-03 0. -1.
    9900012    2    1    2    0    0 -0.10888888314E+01 -0.16079072313E+02 -0.42064132791E+02  0.46142317490E+02  0.99999975281E+01 0.  0.
        -12    1    1    2    0    0  0.10888888314E+01  0.16079072313E+02  0.42064132791E+02  0.45045682510E+02  0.00000000000E+00 0.  1.
         11    1    3    3    0    0 -0.19958447622E+00 -0.98727651159E+01 -0.30449709021E+02  0.32010874789E+02  0.51100000000E-03 0. -1.
        -11    1    3    3    0    0 -0.11663771342E+01 -0.41527041309E+01 -0.11221971411E+02  0.12022397009E+02  0.51100000000E-03 0.  1.
        -12    1    3    3    0    0  0.27707277900E+00 -0.20536030664E+01 -0.39245235806E+00  0.21090456924E+01  0.00000000000E+00 0.  1.
</event>
<event>
 7    1  0.4047706E-008  0.4614232E+02  0.7816164E-02  0.1320468E+00
        -11   -1    0    0    0    0  0.00000000000E+00  0.00000000000E+00  0.45593999997E+02  0.45594000000E+02  0.51100000000E-03 0.  1.
         11   -1    0    0    0    0 -0.00000000000E+00 -0.00000000000E+00 -0.45593999997E+02  0.45594000000E+02  0.51100000000E-03 0. -1.
    9900012    2    1    2    0    0 -0.20023712770E+02  0.26369631557E+02 -0.30541887343E+02  0.46142318475E+02  0.10000006511E+02 0.  0.
        -12    1    1    2    0    0  0.20023712770E+02 -0.26369631557E+02  0.30541887343E+02  0.45045681525E+02  0.00000000000E+00 0.  1.
         11    1    3    3    0    0 -0.10748771052E+02  0.94482604727E+01 -0.15711663026E+02  0.21252342468E+02  0.51100000000E-03 0. -1.
        -11    1    3    3    0    0 -0.21789530996E+01  0.12676703040E+01 -0.63706183433E+00  0.26001293529E+01  0.51100000000E-03 0.  1.
        -12    1    3    3    0    0 -0.70959886182E+01  0.15653700780E+02 -0.14193162484E+02  0.22289846654E+02  0.00000000000E+00 0.  1.
</event>
<event>
 7    1  0.4047706E-008  0.4614232E+02  0.7816164E-02  0.1320468E+00
        -11   -1    0    0    0    0  0.00000000000E+00  0.00000000000E+00  0.45593999997E+02  0.45594000000E+02  0.51100000000E-03 0.  1.
         11   -1    0    0    0    0 -0.00000000000E+00 -0.00000000000E+00 -0.45593999997E+02  0.45594000000E+02  0.51100000000E-03 0. -1.
    9900012    2    1    2    0    0  0.82233048500E+01 -0.57158944061E+01 -0.43918325256E+02  0.46142317801E+02  0.10000000361E+02 0.  0.
        -12    1    1    2    0    0 -0.82233048500E+01  0.57158944061E+01  0.43918325256E+02  0.45045682199E+02  0.00000000000E+00 0.  1.
         11    1    3    3    0    0  0.18802743814E+00 -0.37481914688E+01 -0.14737109553E+02  0.15207455140E+02  0.51100000000E-03 0. -1.
        -11    1    3    3    0    0  0.51357787760E+01  0.15735511407E+01 -0.19500228276E+02  0.20226497223E+02  0.51100000000E-03 0.  1.
        -12    1    3    3    0    0  0.28994986359E+01 -0.35412540780E+01 -0.96809874272E+01  0.10708365438E+02  0.00000000000E+00 0.  1.
</event>
<event>
 7    1  0.4047706E-008  0.4614232E+02  0.7816164E-02  0.1320468E+00
        -11   -1    0    0    0    0  0.00000000000E+00  0.00000000000E+00  0.45593999997E+02  0.45594000000E+02  0.51100000000E-03 0.  1.
         11   -1    0    0    0    0 -0.00000000000E+00 -0.00000000000E+00 -0.45593999997E+02  0.45594000000E+02  0.51100000000E-03 0. -1.
    9900012    2    1    2    0    0  0.14150886942E+02  0.34286163155E+02 -0.25560220428E+02  0.46142318149E+02  0.10000003535E+02 0.  0.
        -12    1    1    2    0    0 -0.14150886942E+02 -0.34286163155E+02  0.25560220428E+02  0.45045681851E+02  0.00000000000E+00 0.  1.
         11    1    3    3    0    0  0.35502019335E+01  0.59784655846E+01 -0.18808379751E+01  0.72030227172E+01  0.51100000000E-03 0. -1.
        -11    1    3    3    0    0  0.53443469129E+01  0.91719826467E+01 -0.11522967149E+02  0.15667357205E+02  0.51100000000E-03 0.  1.
         12    1    3    3    0    0  0.52563380959E+01  0.19135714923E+02 -0.12156415303E+02  0.23271938227E+02  0.00000000000E+00 0. -1.
</event>
<event>
 7    1  0.4047706E-008  0.4614232E+02  0.7816164E-02  0.1320468E+00
        -11   -1    0    0    0    0  0.00000000000E+00  0.00000000000E+00  0.45593999997E+02  0.45594000000E+02  0.51100000000E-03 0. -1.
         11   -1    0    0    0    0 -0.00000000000E+00 -0.00000000000E+00 -0.45593999997E+02  0.45594000000E+02  0.51100000000E-03 0.  1.
    9900012    2    1    2    0    0  0.38929403763E+02 -0.82672144872E+01  0.21101377733E+02  0.46142318132E+02  0.10000003381E+02 0.  0.
        -12    1    1    2    0    0 -0.38929403763E+02  0.82672144872E+01 -0.21101377733E+02  0.45045681868E+02  0.00000000000E+00 0.  1.
         11    1    3    3    0    0  0.26015437652E+02 -0.82840852331E+01  0.14919100839E+02  0.31112837133E+02  0.51100000000E-03 0. -1.
        -11    1    3    3    0    0  0.11436815484E+02  0.98555196287E-01  0.34906079664E+01  0.11958043560E+02  0.51100000000E-03 0.  1.
         12    1    3    3    0    0  0.14771506272E+01 -0.81684450427E-01  0.26916689277E+01  0.30714374389E+01  0.00000000000E+00 0. -1.
</event>
<event>
 7    1  0.4047706E-008  0.4614231E+02  0.7816164E-02  0.1320468E+00
        -11   -1    0    0    0    0  0.00000000000E+00  0.00000000000E+00  0.45593999997E+02  0.45594000000E+02  0.51100000000E-03 0. -1.
         11   -1    0    0    0    0 -0.00000000000E+00 -0.00000000000E+00 -0.45593999997E+02  0.45594000000E+02  0.51100000000E-03 0.  1.
    9900012    2    1    2    0    0 -0.10169078146E+02 -0.40780882093E+01  0.43692938032E+02  0.46142314439E+02  0.99999697108E+01 0.  0.
        -12    1    1    2    0    0  0.10169078146E+02  0.40780882093E+01 -0.43692938032E+02  0.45045685561E+02  0.00000000000E+00 0.  1.
         11    1    3    3    0    0 -0.54043914039E+01 -0.47320938164E+01  0.15124809917E+02  0.16743955137E+02  0.51100000000E-03 0. -1.
        -11    1    3    3    0    0 -0.25645977489E+01  0.69039161795E+00  0.44663978893E+01  0.51963941889E+01  0.51100000000E-03 0.  1.
        -12    1    3    3    0    0 -0.22000889930E+01 -0.36386010874E-01  0.24101730225E+02  0.24201965113E+02  0.00000000000E+00 0.  1.
</event>
<event>
 7    1  0.4047706E-008  0.4614232E+02  0.7816164E-02  0.1320468E+00
        -11   -1    0    0    0    0  0.00000000000E+00  0.00000000000E+00  0.45593999997E+02  0.45594000000E+02  0.51100000000E-03 0. -1.
         11   -1    0    0    0    0 -0.00000000000E+00 -0.00000000000E+00 -0.45593999997E+02  0.45594000000E+02  0.51100000000E-03 0.  1.
    9900012    2    1    2    0    0  0.42652579483E+02 -0.51736976399E+01  0.13531571975E+02  0.46142321806E+02  0.10000036889E+02 0.  0.
        -12    1    1    2    0    0 -0.42652579483E+02  0.51736976399E+01 -0.13531571975E+02  0.45045678194E+02  0.00000000000E+00 0.  1.
         11    1    3    3    0    0  0.31838443320E+02 -0.11500179954E+01  0.78628861207E+01  0.32815148832E+02  0.51100000000E-03 0. -1.
        -11    1    3    3    0    0  0.89707537511E+01 -0.24897243449E+01  0.57233709837E+01  0.10928409118E+02  0.51100000000E-03 0.  1.
        -12    1    3    3    0    0  0.18433824118E+01 -0.15339552996E+01 -0.54685129471E-01  0.23987638567E+01  0.00000000000E+00 0.  1.
</event>
<event>
 7    1  0.4047706E-008  0.4614232E+02  0.7816164E-02  0.1320468E+00
        -11   -1    0    0    0    0  0.00000000000E+00  0.00000000000E+00  0.45593999997E+02  0.45594000000E+02  0.51100000000E-03 0.  1.
         11   -1    0    0    0    0 -0.00000000000E+00 -0.00000000000E+00 -0.45593999997E+02  0.45594000000E+02  0.51100000000E-03 0. -1.
    9900012    2    1    2    0    0 -0.50213542526E+00  0.36105808116E+02 -0.26930131100E+02  0.46142317845E+02  0.10000000769E+02 0.  0.
        -12    1    1    2    0    0  0.50213542526E+00 -0.36105808116E+02  0.26930131100E+02  0.45045682155E+02  0.00000000000E+00 0.  1.
         11    1    3    3    0    0  0.22185421148E+01  0.12677189975E+02 -0.13633911718E+02  0.18748776594E+02  0.51100000000E-03 0. -1.
        -11    1    3    3    0    0 -0.31368557316E+01  0.10644635050E+02 -0.71642644904E+01  0.13208891141E+02  0.51100000000E-03 0.  1.
         12    1    3    3    0    0  0.41617819153E+00  0.12783983091E+02 -0.61319548919E+01  0.14184650110E+02  0.00000000000E+00 0. -1.
</event>
<event>
 7    1  0.4047706E-008  0.4614232E+02  0.7816164E-02  0.1320468E+00
        -11   -1    0    0    0    0  0.00000000000E+00  0.00000000000E+00  0.45593999997E+02  0.45594000000E+02  0.51100000000E-03 0. -1.
         11   -1    0    0    0    0 -0.00000000000E+00 -0.00000000000E+00 -0.45593999997E+02  0.45594000000E+02  0.51100000000E-03 0.  1.
    9900012    2    1    2    0    0 -0.26735936915E+02 -0.78633096593E+00  0.36244790549E+02  0.46142317843E+02  0.10000000743E+02 0.  0.
        -12    1    1    2    0    0  0.26735936915E+02  0.78633096593E+00 -0.36244790549E+02  0.45045682157E+02  0.00000000000E+00 0.  1.
         11    1    3    3    0    0 -0.12305747768E+02 -0.38433771805E+01  0.15740424661E+02  0.20346103928E+02  0.51100000000E-03 0. -1.
        -11    1    3    3    0    0 -0.36251788170E+01  0.32096504745E+01  0.60453881288E+01  0.77453531562E+01  0.51100000000E-03 0.  1.
        -12    1    3    3    0    0 -0.10805010330E+02 -0.15260425998E+00  0.14458977759E+02  0.18050860758E+02  0.00000000000E+00 0.  1.
</event>
<event>
 7    1  0.4047706E-008  0.4614232E+02  0.7816164E-02  0.1320468E+00
        -11   -1    0    0    0    0  0.00000000000E+00  0.00000000000E+00  0.45593999997E+02  0.45594000000E+02  0.51100000000E-03 0.  1.
         11   -1    0    0    0    0 -0.00000000000E+00 -0.00000000000E+00 -0.45593999997E+02  0.45594000000E+02  0.51100000000E-03 0. -1.
    9900012    2    1    2    0    0  0.35963618980E+02 -0.27173466547E+01 -0.26987920046E+02  0.46142315508E+02  0.99999794509E+01 0.  0.
        -12    1    1    2    0    0 -0.35963618980E+02  0.27173466547E+01  0.26987920046E+02  0.45045684492E+02  0.00000000000E+00 0.  1.
         11    1    3    3    0    0  0.21733070380E+02 -0.37365044100E+01 -0.18022261677E+02  0.28479637104E+02  0.51100000000E-03 0. -1.
        -11    1    3    3    0    0  0.24774870540E+01  0.22351761965E+01 -0.26751688018E+01  0.42767374378E+01  0.51100000000E-03 0.  1.
         12    1    3    3    0    0  0.11753061546E+02 -0.12160184412E+01 -0.62904895672E+01  0.13385940966E+02  0.00000000000E+00 0. -1.
</event>
<event>
 7    1  0.4047706E-008  0.4614232E+02  0.7816164E-02  0.1320468E+00
        -11   -1    0    0    0    0  0.00000000000E+00  0.00000000000E+00  0.45593999997E+02  0.45594000000E+02  0.51100000000E-03 0.  1.
         11   -1    0    0    0    0 -0.00000000000E+00 -0.00000000000E+00 -0.45593999997E+02  0.45594000000E+02  0.51100000000E-03 0. -1.
    9900012    2    1    2    0    0  0.40235348272E+02 -0.10959917807E+02 -0.17032635094E+02  0.46142315333E+02  0.99999778541E+01 0.  0.
        -12    1    1    2    0    0 -0.40235348272E+02  0.10959917807E+02  0.17032635094E+02  0.45045684667E+02  0.00000000000E+00 0.  1.
         11    1    3    3    0    0  0.29387966952E+01 -0.75392073103E+00 -0.43936385391E+01  0.53393803346E+01  0.51100000000E-03 0. -1.
        -11    1    3    3    0    0  0.13610559847E+02 -0.45511496981E+01 -0.60591875198E+01  0.15577999120E+02  0.51100000000E-03 0.  1.
        -12    1    3    3    0    0  0.23685991730E+02 -0.56548473781E+01 -0.65798090346E+01  0.25224935878E+02  0.00000000000E+00 0.  1.
</event>
<event>
 7    1  0.4047706E-008  0.4614232E+02  0.7816164E-02  0.1320468E+00
        -11   -1    0    0    0    0  0.00000000000E+00  0.00000000000E+00  0.45593999997E+02  0.45594000000E+02  0.51100000000E-03 0.  1.
         11   -1    0    0    0    0 -0.00000000000E+00 -0.00000000000E+00 -0.45593999997E+02  0.45594000000E+02  0.51100000000E-03 0. -1.
    9900012    2    1    2    0    0  0.21796281743E+02 -0.38644513634E+02 -0.77869917508E+01  0.46142316828E+02  0.99999914951E+01 0.  0.
        -12    1    1    2    0    0 -0.21796281743E+02  0.38644513634E+02  0.77869917508E+01  0.45045683172E+02  0.00000000000E+00 0.  1.
         11    1    3    3    0    0  0.13793316220E+02 -0.16963151066E+02 -0.27968378080E+01  0.22041469289E+02  0.51100000000E-03 0. -1.
        -11    1    3    3    0    0  0.78188687969E+01 -0.19206389860E+02 -0.30699774170E+01  0.20962940689E+02  0.51100000000E-03 0.  1.
         12    1    3    3    0    0  0.18409672591E+00 -0.24749727083E+01 -0.19201765258E+01  0.31379068504E+01  0.00000000000E+00 0. -1.
</event>
<event>
 7    1  0.4047706E-008  0.4614231E+02  0.7816164E-02  0.1320468E+00
        -11   -1    0    0    0    0  0.00000000000E+00  0.00000000000E+00  0.45593999997E+02  0.45594000000E+02  0.51100000000E-03 0. -1.
         11   -1    0    0    0    0 -0.00000000000E+00 -0.00000000000E+00 -0.45593999997E+02  0.45594000000E+02  0.51100000000E-03 0.  1.
    9900012    2    1    2    0    0  0.31669816742E+02  0.13853466125E+02  0.28882841141E+02  0.46142308435E+02  0.99999149590E+01 0.  0.
        -12    1    1    2    0    0 -0.31669816742E+02 -0.13853466125E+02 -0.28882841141E+02  0.45045691565E+02  0.00000000000E+00 0.  1.
         11    1    3    3    0    0  0.64046305984E+01 -0.57767949091E+00  0.58519610013E+01  0.86947371736E+01  0.51100000000E-03 0. -1.
        -11    1    3    3    0    0  0.36499200290E+00  0.53595983545E+00  0.17523629182E+01  0.18684882032E+01  0.51100000000E-03 0.  1.
         12    1    3    3    0    0  0.24900194141E+02  0.13895185780E+02  0.21278517222E+02  0.35579083058E+02  0.00000000000E+00 0. -1.
</event>
<event>
 7    1  0.4047706E-008  0.4614232E+02  0.7816164E-02  0.1320468E+00
        -11   -1    0    0    0    0  0.00000000000E+00  0.00000000000E+00  0.45593999997E+02  0.45594000000E+02  0.51100000000E-03 0. -1.
         11   -1    0    0    0    0 -0.00000000000E+00 -0.00000000000E+00 -0.45593999997E+02  0.45594000000E+02  0.51100000000E-03 0.  1.
    9900012    2    1    2    0    0 -0.14806750757E+02  0.26218506991E+02  0.33503188222E+02  0.46142316546E+02  0.99999889173E+01 0.  0.
        -12    1    1    2    0    0  0.14806750757E+02 -0.26218506991E+02 -0.33503188222E+02  0.45045683454E+02  0.00000000000E+00 0.  1.
         11    1    3    3    0    0 -0.12585106502E+02  0.18945434400E+02  0.29672318610E+02  0.37386640425E+02  0.51100000000E-03 0. -1.
        -11    1    3    3    0    0 -0.37601605851E+00  0.11849804229E+01 -0.14828153603E+00  0.12520201092E+01  0.51100000000E-03 0.  1.
         12    1    3    3    0    0 -0.18456281973E+01  0.60880921681E+01  0.39791511477E+01  0.75036560120E+01  0.00000000000E+00 0. -1.
</event>
<event>
 7    1  0.4047706E-008  0.4614232E+02  0.7816164E-02  0.1320468E+00
        -11   -1    0    0    0    0  0.00000000000E+00  0.00000000000E+00  0.45593999997E+02  0.45594000000E+02  0.51100000000E-03 0.  1.
         11   -1    0    0    0    0 -0.00000000000E+00 -0.00000000000E+00 -0.45593999997E+02  0.45594000000E+02  0.51100000000E-03 0. -1.
    9900012    2    1    2    0    0 -0.38062125325E+02 -0.20338697528E+02 -0.12912220888E+02  0.46142318190E+02  0.10000003913E+02 0.  0.
        -12    1    1    2    0    0  0.38062125325E+02  0.20338697528E+02  0.12912220888E+02  0.45045681810E+02  0.00000000000E+00 0.  1.
         11    1    3    3    0    0 -0.26878923908E+02 -0.13958344775E+02 -0.52476711308E+01  0.30738412318E+02  0.51100000000E-03 0. -1.
        -11    1    3    3    0    0 -0.13403357434E+01 -0.23638704976E+01 -0.12863736313E+01  0.30065164252E+01  0.51100000000E-03 0.  1.
         12    1    3    3    0    0 -0.98428656745E+01 -0.40164822556E+01 -0.63781761262E+01  0.12397389447E+02  0.00000000000E+00 0. -1.
</event>
<event>
 7    1  0.4047706E-008  0.4614232E+02  0.7816164E-02  0.1320468E+00
        -11   -1    0    0    0    0  0.00000000000E+00  0.00000000000E+00  0.45593999997E+02  0.45594000000E+02  0.51100000000E-03 0.  1.
         11   -1    0    0    0    0 -0.00000000000E+00 -0.00000000000E+00 -0.45593999997E+02  0.45594000000E+02  0.51100000000E-03 0. -1.
    9900012    2    1    2    0    0 -0.42246929332E+02 -0.15110669864E+02  0.39972542681E+01  0.46142318483E+02  0.10000006579E+02 0.  0.
        -12    1    1    2    0    0  0.42246929332E+02  0.15110669864E+02 -0.39972542681E+01  0.45045681517E+02  0.00000000000E+00 0.  1.
         11    1    3    3    0    0 -0.31366986960E+01 -0.27094109564E+01  0.25565742124E+01  0.48698930588E+01  0.51100000000E-03 0.  1.
        -11    1    3    3    0    0 -0.76518751191E+01 -0.11956327235E+01  0.14424318358E+01  0.78779020247E+01  0.51100000000E-03 0. -1.
        -12    1    3    3    0    0 -0.31458355516E+02 -0.11205626184E+02 -0.17517800933E-02  0.33394523399E+02  0.00000000000E+00 0.  1.
</event>
<event>
 7    1  0.4047706E-008  0.4614232E+02  0.7816164E-02  0.1320468E+00
        -11   -1    0    0    0    0  0.00000000000E+00  0.00000000000E+00  0.45593999997E+02  0.45594000000E+02  0.51100000000E-03 0.  1.
         11   -1    0    0    0    0 -0.00000000000E+00 -0.00000000000E+00 -0.45593999997E+02  0.45594000000E+02  0.51100000000E-03 0. -1.
    9900012    2    1    2    0    0  0.19944482146E+02  0.22334712174E+02 -0.33652515049E+02  0.46142317575E+02  0.99999983072E+01 0.  0.
        -12    1    1    2    0    0 -0.19944482146E+02 -0.22334712174E+02  0.33652515049E+02  0.45045682425E+02  0.00000000000E+00 0.  1.
         11    1    3    3    0    0  0.39041885649E+01  0.32305499356E+01 -0.64141698940E+01  0.81743939792E+01  0.51100000000E-03 0. -1.
        -11    1    3    3    0    0  0.10637906106E+02  0.63454816870E+01 -0.15244894749E+02  0.19642734034E+02  0.51100000000E-03 0.  1.
        -12    1    3    3    0    0  0.54023874743E+01  0.12758680552E+02 -0.11993450406E+02  0.18325189562E+02  0.00000000000E+00 0.  1.
</event>
<event>
 7    1  0.4047706E-008  0.4614232E+02  0.7816164E-02  0.1320468E+00
        -11   -1    0    0    0    0  0.00000000000E+00  0.00000000000E+00  0.45593999997E+02  0.45594000000E+02  0.51100000000E-03 0. -1.
         11   -1    0    0    0    0 -0.00000000000E+00 -0.00000000000E+00 -0.45593999997E+02  0.45594000000E+02  0.51100000000E-03 0.  1.
    9900012    2    1    2    0    0 -0.29713522347E+02  0.53128148487E+01  0.33436418447E+02  0.46142317737E+02  0.99999997839E+01 0.  0.
        -12    1    1    2    0    0  0.29713522347E+02 -0.53128148487E+01 -0.33436418447E+02  0.45045682263E+02  0.00000000000E+00 0.  1.
         11    1    3    3    0    0 -0.20050764144E+02  0.34990180409E+01  0.17051332581E+02  0.26552292049E+02  0.51100000000E-03 0. -1.
        -11    1    3    3    0    0 -0.73389636663E+00  0.15505283249E+01  0.36663364961E+01  0.40478099668E+01  0.51100000000E-03 0.  1.
         12    1    3    3    0    0 -0.89288618373E+01  0.26326848294E+00  0.12718749370E+02  0.15542215722E+02  0.00000000000E+00 0. -1.
</event>
<event>
 7    1  0.4047706E-008  0.4614232E+02  0.7816164E-02  0.1320468E+00
        -11   -1    0    0    0    0  0.00000000000E+00  0.00000000000E+00  0.45593999997E+02  0.45594000000E+02  0.51100000000E-03 0.  1.
         11   -1    0    0    0    0 -0.00000000000E+00 -0.00000000000E+00 -0.45593999997E+02  0.45594000000E+02  0.51100000000E-03 0. -1.
    9900012    2    1    2    0    0 -0.11965502770E+02  0.60833426496E+01 -0.42999222574E+02  0.46142318117E+02  0.10000003245E+02 0.  0.
        -12    1    1    2    0    0  0.11965502770E+02 -0.60833426496E+01  0.42999222574E+02  0.45045681883E+02  0.00000000000E+00 0.  1.
         11    1    3    3    0    0 -0.60081205717E+01  0.83298050562E+00 -0.12343029867E+02  0.13752881730E+02  0.51100000000E-03 0. -1.
        -11    1    3    3    0    0 -0.58371299234E+01  0.49115479456E+01 -0.15966292235E+02  0.17695137099E+02  0.51100000000E-03 0.  1.
         12    1    3    3    0    0 -0.12025227467E+00  0.33881419833E+00 -0.14689900473E+02  0.14694299288E+02  0.00000000000E+00 0. -1.
</event>
<event>
 7    1  0.4047706E-008  0.4614232E+02  0.7816164E-02  0.1320468E+00
        -11   -1    0    0    0    0  0.00000000000E+00  0.00000000000E+00  0.45593999997E+02  0.45594000000E+02  0.51100000000E-03 0. -1.
         11   -1    0    0    0    0 -0.00000000000E+00 -0.00000000000E+00 -0.45593999997E+02  0.45594000000E+02  0.51100000000E-03 0.  1.
    9900012    2    1    2    0    0  0.14528582838E+02  0.39961442112E+02  0.14870000393E+02  0.46142317780E+02  0.10000000174E+02 0.  0.
        -12    1    1    2    0    0 -0.14528582838E+02 -0.39961442112E+02 -0.14870000393E+02  0.45045682220E+02  0.00000000000E+00 0.  1.
         11    1    3    3    0    0  0.52516447245E+01  0.95536920774E+01  0.52775779413E+01  0.12112210113E+02  0.51100000000E-03 0. -1.
        -11    1    3    3    0    0  0.69443316834E+01  0.11820374974E+02  0.59562563025E+01  0.14947307331E+02  0.51100000000E-03 0.  1.
        -12    1    3    3    0    0  0.23326064302E+01  0.18587375061E+02  0.36361661488E+01  0.19082800336E+02  0.00000000000E+00 0.  1.
</event>
<event>
 7    1  0.4047706E-008  0.4614232E+02  0.7816164E-02  0.1320468E+00
        -11   -1    0    0    0    0  0.00000000000E+00  0.00000000000E+00  0.45593999997E+02  0.45594000000E+02  0.51100000000E-03 0. -1.
         11   -1    0    0    0    0 -0.00000000000E+00 -0.00000000000E+00 -0.45593999997E+02  0.45594000000E+02  0.51100000000E-03 0.  1.
    9900012    2    1    2    0    0 -0.24664681101E+01  0.31275267456E+02  0.32324712799E+02  0.46142324548E+02  0.10000061890E+02 0.  0.
        -12    1    1    2    0    0  0.24664681101E+01 -0.31275267456E+02 -0.32324712799E+02  0.45045675452E+02  0.00000000000E+00 0.  1.
         11    1    3    3    0    0  0.44251885067E+00  0.11240489807E+02  0.13871847137E+02  0.17859803394E+02  0.51100000000E-03 0.  1.
        -11    1    3    3    0    0 -0.26510354894E+01  0.18886115841E+02  0.13951079542E+02  0.23629345767E+02  0.51100000000E-03 0. -1.
         12    1    3    3    0    0 -0.25795147129E+00  0.11486618077E+01  0.45017861200E+01  0.46531753868E+01  0.00000000000E+00 0. -1.
</event>
<event>
 7    1  0.4047706E-008  0.4614232E+02  0.7816164E-02  0.1320468E+00
        -11   -1    0    0    0    0  0.00000000000E+00  0.00000000000E+00  0.45593999997E+02  0.45594000000E+02  0.51100000000E-03 0. -1.
         11   -1    0    0    0    0 -0.00000000000E+00 -0.00000000000E+00 -0.45593999997E+02  0.45594000000E+02  0.51100000000E-03 0.  1.
    9900012    2    1    2    0    0  0.22316673270E+02  0.27451896159E+02  0.27883205948E+02  0.46142315606E+02  0.99999803480E+01 0.  0.
        -12    1    1    2    0    0 -0.22316673270E+02 -0.27451896159E+02 -0.27883205948E+02  0.45045684394E+02  0.00000000000E+00 0.  1.
         11    1    3    3    0    0  0.14473015037E+02  0.18621248153E+02  0.23486558212E+02  0.33284192404E+02  0.51100000000E-03 0. -1.
        -11    1    3    3    0    0  0.14815753811E+01  0.34324598802E+01  0.14317041817E+01  0.40033265622E+01  0.51100000000E-03 0.  1.
         12    1    3    3    0    0  0.63620828522E+01  0.53981881257E+01  0.29649435542E+01  0.88547966402E+01  0.00000000000E+00 0. -1.
</event>
<event>
 7    1  0.4047706E-008  0.4614232E+02  0.7816164E-02  0.1320468E+00
        -11   -1    0    0    0    0  0.00000000000E+00  0.00000000000E+00  0.45593999997E+02  0.45594000000E+02  0.51100000000E-03 0.  1.
         11   -1    0    0    0    0 -0.00000000000E+00 -0.00000000000E+00 -0.45593999997E+02  0.45594000000E+02  0.51100000000E-03 0. -1.
    9900012    2    1    2    0    0  0.30723595976E+02  0.23363676181E+02 -0.23223108881E+02  0.46142317627E+02  0.99999987758E+01 0.  0.
        -12    1    1    2    0    0 -0.30723595976E+02 -0.23363676181E+02  0.23223108881E+02  0.45045682373E+02  0.00000000000E+00 0.  1.
         11    1    3    3    0    0  0.10402323608E+02  0.45377366619E+01 -0.53736514351E+01  0.12556891354E+02  0.51100000000E-03 0. -1.
        -11    1    3    3    0    0  0.58472362718E+01  0.43766769029E+01 -0.81696743448E+01  0.10958515040E+02  0.51100000000E-03 0.  1.
         12    1    3    3    0    0  0.14474036096E+02  0.14449262616E+02 -0.96797831007E+01  0.22626911233E+02  0.00000000000E+00 0. -1.
</event>
<event>
 7    1  0.4047706E-008  0.4614232E+02  0.7816164E-02  0.1320468E+00
        -11   -1    0    0    0    0  0.00000000000E+00  0.00000000000E+00  0.45593999997E+02  0.45594000000E+02  0.51100000000E-03 0.  1.
         11   -1    0    0    0    0 -0.00000000000E+00 -0.00000000000E+00 -0.45593999997E+02  0.45594000000E+02  0.51100000000E-03 0. -1.
    9900012    2    1    2    0    0  0.72774056631E+01  0.32405878284E+02 -0.30430443904E+02  0.46142317668E+02  0.99999991495E+01 0.  0.
        -12    1    1    2    0    0 -0.72774056631E+01 -0.32405878284E+02  0.30430443904E+02  0.45045682332E+02  0.00000000000E+00 0.  1.
         11    1    3    3    0    0  0.19389934932E+01  0.82254294729E+00 -0.29132579511E+01  0.35949053975E+01  0.51100000000E-03 0.  1.
        -11    1    3    3    0    0  0.47557133319E+01  0.24938275078E+02 -0.18901468312E+02  0.31651222374E+02  0.51100000000E-03 0. -1.
        -12    1    3    3    0    0  0.58269883800E+00  0.66450602589E+01 -0.86157176413E+01  0.10896189896E+02  0.00000000000E+00 0.  1.
</event>
<event>
 7    1  0.4047706E-008  0.4614232E+02  0.7816164E-02  0.1320468E+00
        -11   -1    0    0    0    0  0.00000000000E+00  0.00000000000E+00  0.45593999997E+02  0.45594000000E+02  0.51100000000E-03 0. -1.
         11   -1    0    0    0    0 -0.00000000000E+00 -0.00000000000E+00 -0.45593999997E+02  0.45594000000E+02  0.51100000000E-03 0.  1.
    9900012    2    1    2    0    0  0.24782358990E+02  0.34306235375E+02  0.15428232871E+02  0.46142317940E+02  0.10000001634E+02 0.  0.
        -12    1    1    2    0    0 -0.24782358990E+02 -0.34306235375E+02 -0.15428232871E+02  0.45045682060E+02  0.00000000000E+00 0.  1.
         11    1    3    3    0    0  0.58758837231E+01  0.63275821169E+01  0.40430536504E+01  0.95347044031E+01  0.51100000000E-03 0. -1.
        -11    1    3    3    0    0  0.88691027977E+01  0.13325623121E+02  0.98158417138E+01  0.18777219305E+02  0.51100000000E-03 0.  1.
         12    1    3    3    0    0  0.10037372469E+02  0.14653030137E+02  0.15693375066E+01  0.17830394232E+02  0.00000000000E+00 0. -1.
</event>
<event>
 7    1  0.4047706E-008  0.4614232E+02  0.7816164E-02  0.1320468E+00
        -11   -1    0    0    0    0  0.00000000000E+00  0.00000000000E+00  0.45593999997E+02  0.45594000000E+02  0.51100000000E-03 0.  1.
         11   -1    0    0    0    0 -0.00000000000E+00 -0.00000000000E+00 -0.45593999997E+02  0.45594000000E+02  0.51100000000E-03 0. -1.
    9900012    2    1    2    0    0 -0.17694359305E+02 -0.58731338700E+00 -0.41420746165E+02  0.46142317620E+02  0.99999987158E+01 0.  0.
        -12    1    1    2    0    0  0.17694359305E+02  0.58731338700E+00  0.41420746165E+02  0.45045682380E+02  0.00000000000E+00 0.  1.
         11    1    3    3    0    0 -0.15361588372E+02 -0.24734785106E+01 -0.32717590611E+02  0.36228955669E+02  0.51100000000E-03 0. -1.
        -11    1    3    3    0    0 -0.11137049413E+01 -0.99146085067E+00 -0.18117436584E+01  0.23464331782E+01  0.51100000000E-03 0.  1.
         12    1    3    3    0    0 -0.12190659912E+01  0.28776259742E+01 -0.68914118953E+01  0.75669287726E+01  0.00000000000E+00 0. -1.
</event>
<event>
 7    1  0.4047706E-008  0.4614232E+02  0.7816164E-02  0.1320468E+00
        -11   -1    0    0    0    0  0.00000000000E+00  0.00000000000E+00  0.45593999997E+02  0.45594000000E+02  0.51100000000E-03 0.  1.
         11   -1    0    0    0    0 -0.00000000000E+00 -0.00000000000E+00 -0.45593999997E+02  0.45594000000E+02  0.51100000000E-03 0. -1.
    9900012    2    1    2    0    0 -0.16709537654E+01 -0.44166635235E+02 -0.86965345497E+01  0.46142317991E+02  0.10000002096E+02 0.  0.
        -12    1    1    2    0    0  0.16709537654E+01  0.44166635235E+02  0.86965345497E+01  0.45045682009E+02  0.00000000000E+00 0.  1.
         11    1    3    3    0    0 -0.67375162059E+00 -0.22571185466E+02 -0.31235077963E+01  0.22796242142E+02  0.51100000000E-03 0. -1.
        -11    1    3    3    0    0  0.20443556280E+01 -0.53961185236E+01  0.47304700666E+00  0.57897546396E+01  0.51100000000E-03 0.  1.
         12    1    3    3    0    0 -0.30415577727E+01 -0.16199331246E+02 -0.60460737601E+01  0.17556321209E+02  0.00000000000E+00 0. -1.
</event>
<event>
 7    1  0.4047706E-008  0.4614232E+02  0.7816164E-02  0.1320468E+00
        -11   -1    0    0    0    0  0.00000000000E+00  0.00000000000E+00  0.45593999997E+02  0.45594000000E+02  0.51100000000E-03 0.  1.
         11   -1    0    0    0    0 -0.00000000000E+00 -0.00000000000E+00 -0.45593999997E+02  0.45594000000E+02  0.51100000000E-03 0. -1.
    9900012    2    1    2    0    0 -0.16823372257E+02  0.28050281633E+02 -0.30972071773E+02  0.46142318923E+02  0.10000010596E+02 0.  0.
        -12    1    1    2    0    0  0.16823372257E+02 -0.28050281633E+02  0.30972071773E+02  0.45045681077E+02  0.00000000000E+00 0.  1.
         11    1    3    3    0    0 -0.56229555428E+00  0.36333813828E+01 -0.20201810986E+01  0.41950886159E+01  0.51100000000E-03 0. -1.
        -11    1    3    3    0    0 -0.69543515389E+01  0.17193321835E+02 -0.16849860403E+02  0.25057755624E+02  0.51100000000E-03 0.  1.
         12    1    3    3    0    0 -0.93067251640E+01  0.72235784157E+01 -0.12102030271E+02  0.16889474684E+02  0.00000000000E+00 0. -1.
</event>
<event>
 7    1  0.4047706E-008  0.4614232E+02  0.7816164E-02  0.1320468E+00
        -11   -1    0    0    0    0  0.00000000000E+00  0.00000000000E+00  0.45593999997E+02  0.45594000000E+02  0.51100000000E-03 0.  1.
         11   -1    0    0    0    0 -0.00000000000E+00 -0.00000000000E+00 -0.45593999997E+02  0.45594000000E+02  0.51100000000E-03 0. -1.
    9900012    2    1    2    0    0  0.41161689768E+01  0.43923708552E+02 -0.91037633390E+01  0.46142317333E+02  0.99999960983E+01 0.  0.
        -12    1    1    2    0    0 -0.41161689768E+01 -0.43923708552E+02  0.91037633390E+01  0.45045682667E+02  0.00000000000E+00 0.  1.
         11    1    3    3    0    0  0.30637548788E+01  0.29322560937E+02 -0.27444723211E+01  0.29609648806E+02  0.51100000000E-03 0. -1.
        -11    1    3    3    0    0  0.83220409249E+00  0.16577469627E+01 -0.23230500870E+01  0.29727513538E+01  0.51100000000E-03 0.  1.
        -12    1    3    3    0    0  0.22021000554E+00  0.12943400652E+02 -0.40362409309E+01  0.13559917173E+02  0.00000000000E+00 0.  1.
</event>
<event>
 7    1  0.4047706E-008  0.4614232E+02  0.7816164E-02  0.1320468E+00
        -11   -1    0    0    0    0  0.00000000000E+00  0.00000000000E+00  0.45593999997E+02  0.45594000000E+02  0.51100000000E-03 0.  1.
         11   -1    0    0    0    0 -0.00000000000E+00 -0.00000000000E+00 -0.45593999997E+02  0.45594000000E+02  0.51100000000E-03 0. -1.
    9900012    2    1    2    0    0  0.29698763540E+02 -0.18354389234E+02 -0.28464244937E+02  0.46142318744E+02  0.10000008963E+02 0.  0.
        -12    1    1    2    0    0 -0.29698763540E+02  0.18354389234E+02  0.28464244937E+02  0.45045681256E+02  0.00000000000E+00 0.  1.
         11    1    3    3    0    0  0.13489335747E+02 -0.32134212142E+01 -0.10360601742E+02  0.17309833145E+02  0.51100000000E-03 0. -1.
        -11    1    3    3    0    0  0.93429484545E+01 -0.85967706502E+01 -0.12491810527E+02  0.17811245940E+02  0.51100000000E-03 0.  1.
         12    1    3    3    0    0  0.68664793384E+01 -0.65441973698E+01 -0.56118326687E+01  0.11021239659E+02  0.00000000000E+00 0. -1.
</event>
<event>
 7    1  0.4047706E-008  0.4614232E+02  0.7816164E-02  0.1320468E+00
        -11   -1    0    0    0    0  0.00000000000E+00  0.00000000000E+00  0.45593999997E+02  0.45594000000E+02  0.51100000000E-03 0.  1.
         11   -1    0    0    0    0 -0.00000000000E+00 -0.00000000000E+00 -0.45593999997E+02  0.45594000000E+02  0.51100000000E-03 0. -1.
    9900012    2    1    2    0    0  0.99423641189E+01 -0.56330211300E+01 -0.43572146894E+02  0.46142317451E+02  0.99999971767E+01 0.  0.
        -12    1    1    2    0    0 -0.99423641189E+01  0.56330211300E+01  0.43572146894E+02  0.45045682549E+02  0.00000000000E+00 0.  1.
         11    1    3    3    0    0  0.12285207745E+01 -0.14129959831E+01 -0.97843356289E+01  0.99618795868E+01  0.51100000000E-03 0. -1.
        -11    1    3    3    0    0  0.39343131612E+01 -0.65301989037E+01 -0.20469050647E+02  0.21842718522E+02  0.51100000000E-03 0.  1.
         12    1    3    3    0    0  0.47795301833E+01  0.23101737567E+01 -0.13318760618E+02  0.14337719343E+02  0.00000000000E+00 0. -1.
</event>
<event>
 7    1  0.4047706E-008  0.4614232E+02  0.7816164E-02  0.1320468E+00
        -11   -1    0    0    0    0  0.00000000000E+00  0.00000000000E+00  0.45593999997E+02  0.45594000000E+02  0.51100000000E-03 0.  1.
         11   -1    0    0    0    0 -0.00000000000E+00 -0.00000000000E+00 -0.45593999997E+02  0.45594000000E+02  0.51100000000E-03 0. -1.
    9900012    2    1    2    0    0  0.31105799897E+02  0.31291948817E+02 -0.90750571704E+01  0.46142317514E+02  0.99999977439E+01 0.  0.
        -12    1    1    2    0    0 -0.31105799897E+02 -0.31291948817E+02  0.90750571704E+01  0.45045682486E+02  0.00000000000E+00 0.  1.
         11    1    3    3    0    0  0.23538928335E+02  0.21415214670E+02 -0.70458058598E+01  0.32593495470E+02  0.51100000000E-03 0. -1.
        -11    1    3    3    0    0  0.77845708757E+01  0.92554515591E+01 -0.75851523161E+00  0.12117684304E+02  0.51100000000E-03 0.  1.
        -12    1    3    3    0    0 -0.21769931348E+00  0.62128258849E+00 -0.12707360790E+01  0.14311377391E+01  0.00000000000E+00 0.  1.
</event>
<event>
 7    1  0.4047706E-008  0.4614232E+02  0.7816164E-02  0.1320468E+00
        -11   -1    0    0    0    0  0.00000000000E+00  0.00000000000E+00  0.45593999997E+02  0.45594000000E+02  0.51100000000E-03 0. -1.
         11   -1    0    0    0    0 -0.00000000000E+00 -0.00000000000E+00 -0.45593999997E+02  0.45594000000E+02  0.51100000000E-03 0.  1.
    9900012    2    1    2    0    0  0.18602765631E+02  0.39310373056E+01  0.40836228682E+02  0.46142317450E+02  0.99999971637E+01 0.  0.
        -12    1    1    2    0    0 -0.18602765631E+02 -0.39310373056E+01 -0.40836228682E+02  0.45045682550E+02  0.00000000000E+00 0.  1.
         11    1    3    3    0    0  0.74121393085E+01  0.16897905821E+01  0.26174673320E+02  0.27256352012E+02  0.51100000000E-03 0. -1.
        -11    1    3    3    0    0  0.33745202567E+01 -0.88125332885E+00  0.42561415071E+01  0.55026116692E+01  0.51100000000E-03 0.  1.
         12    1    3    3    0    0  0.78161060656E+01  0.31225000524E+01  0.10405413855E+02  0.13383353769E+02  0.00000000000E+00 0. -1.
</event>
<event>
 7    1  0.4047706E-008  0.4614232E+02  0.7816164E-02  0.1320468E+00
        -11   -1    0    0    0    0  0.00000000000E+00  0.00000000000E+00  0.45593999997E+02  0.45594000000E+02  0.51100000000E-03 0.  1.
         11   -1    0    0    0    0 -0.00000000000E+00 -0.00000000000E+00 -0.45593999997E+02  0.45594000000E+02  0.51100000000E-03 0. -1.
    9900012    2    1    2    0    0  0.15945347685E+02 -0.78433371116E+01 -0.41392529449E+02  0.46142317143E+02  0.99999943640E+01 0.  0.
        -12    1    1    2    0    0 -0.15945347685E+02  0.78433371116E+01  0.41392529449E+02  0.45045682857E+02  0.00000000000E+00 0.  1.
         11    1    3    3    0    0  0.38392182647E+01 -0.21173291752E+01 -0.94099995788E+01  0.10381270252E+02  0.51100000000E-03 0.  1.
        -11    1    3    3    0    0  0.83378720505E+01  0.25341705607E+00 -0.12423642509E+02  0.14964331725E+02  0.51100000000E-03 0. -1.
        -12    1    3    3    0    0  0.37682573698E+01 -0.59794249925E+01 -0.19558887361E+02  0.20796715165E+02  0.00000000000E+00 0.  1.
</event>
<event>
 7    1  0.4047706E-008  0.4614232E+02  0.7816164E-02  0.1320468E+00
        -11   -1    0    0    0    0  0.00000000000E+00  0.00000000000E+00  0.45593999997E+02  0.45594000000E+02  0.51100000000E-03 0.  1.
         11   -1    0    0    0    0 -0.00000000000E+00 -0.00000000000E+00 -0.45593999997E+02  0.45594000000E+02  0.51100000000E-03 0. -1.
    9900012    2    1    2    0    0 -0.37467309892E+02 -0.13268016087E+02 -0.21196084798E+02  0.46142316831E+02  0.99999915172E+01 0.  0.
        -12    1    1    2    0    0  0.37467309892E+02  0.13268016087E+02  0.21196084798E+02  0.45045683169E+02  0.00000000000E+00 0.  1.
         11    1    3    3    0    0 -0.30758795125E+02 -0.13000046594E+02 -0.18343572136E+02  0.38099754959E+02  0.51100000000E-03 0. -1.
        -11    1    3    3    0    0 -0.49320735874E+01  0.20180331259E+00 -0.35467502075E+01  0.60782819731E+01  0.51100000000E-03 0.  1.
        -12    1    3    3    0    0 -0.17764411791E+01 -0.46977280598E+00  0.69423754481E+00  0.19642798988E+01  0.00000000000E+00 0.  1.
</event>
<event>
 7    1  0.4047706E-008  0.4614232E+02  0.7816164E-02  0.1320468E+00
        -11   -1    0    0    0    0  0.00000000000E+00  0.00000000000E+00  0.45593999997E+02  0.45594000000E+02  0.51100000000E-03 0. -1.
         11   -1    0    0    0    0 -0.00000000000E+00 -0.00000000000E+00 -0.45593999997E+02  0.45594000000E+02  0.51100000000E-03 0.  1.
    9900012    2    1    2    0    0 -0.37378062108E+02  0.23704296106E+02 -0.83725941185E+01  0.46142317487E+02  0.99999975024E+01 0.  0.
        -12    1    1    2    0    0  0.37378062108E+02 -0.23704296106E+02  0.83725941185E+01  0.45045682513E+02  0.00000000000E+00 0.  1.
         11    1    3    3    0    0 -0.35469468338E+01  0.21375188748E+01 -0.49355506346E+00  0.41705414089E+01  0.51100000000E-03 0. -1.
        -11    1    3    3    0    0 -0.26787446706E+02  0.19131449438E+02 -0.29786704471E+01  0.33052263712E+02  0.51100000000E-03 0.  1.
        -12    1    3    3    0    0 -0.70436685678E+01  0.24353277927E+01 -0.49003686080E+01  0.89195123658E+01  0.00000000000E+00 0.  1.
</event>
<event>
 7    1  0.4047706E-008  0.4614232E+02  0.7816164E-02  0.1320468E+00
        -11   -1    0    0    0    0  0.00000000000E+00  0.00000000000E+00  0.45593999997E+02  0.45594000000E+02  0.51100000000E-03 0. -1.
         11   -1    0    0    0    0 -0.00000000000E+00 -0.00000000000E+00 -0.45593999997E+02  0.45594000000E+02  0.51100000000E-03 0.  1.
    9900012    2    1    2    0    0 -0.37236310310E+02 -0.20539455025E+02  0.14856024352E+02  0.46142317879E+02  0.10000001073E+02 0.  0.
        -12    1    1    2    0    0  0.37236310310E+02  0.20539455025E+02 -0.14856024352E+02  0.45045682121E+02  0.00000000000E+00 0.  1.
         11    1    3    3    0    0 -0.93772427478E+01 -0.83781783988E+01  0.70458467713E+01  0.14414246835E+02  0.51100000000E-03 0.  1.
        -11    1    3    3    0    0 -0.63306147530E+01 -0.13094268140E+01  0.28035950354E+00  0.64706942011E+01  0.51100000000E-03 0. -1.
         12    1    3    3    0    0 -0.21528452809E+02 -0.10851849813E+02  0.75298180776E+01  0.25257376843E+02  0.00000000000E+00 0. -1.
</event>
<event>
 7    1  0.4047706E-008  0.4614232E+02  0.7816164E-02  0.1320468E+00
        -11   -1    0    0    0    0  0.00000000000E+00  0.00000000000E+00  0.45593999997E+02  0.45594000000E+02  0.51100000000E-03 0.  1.
         11   -1    0    0    0    0 -0.00000000000E+00 -0.00000000000E+00 -0.45593999997E+02  0.45594000000E+02  0.51100000000E-03 0. -1.
    9900012    2    1    2    0    0 -0.11192603637E+02 -0.71714856245E+01 -0.43039621161E+02  0.46142316834E+02  0.99999915474E+01 0.  0.
        -12    1    1    2    0    0  0.11192603637E+02  0.71714856245E+01  0.43039621161E+02  0.45045683166E+02  0.00000000000E+00 0.  1.
         11    1    3    3    0    0 -0.39006251417E+01 -0.55636261587E+01 -0.16466255628E+02  0.17813095947E+02  0.51100000000E-03 0.  1.
        -11    1    3    3    0    0  0.64476249207E+00 -0.12917753882E+01 -0.79915339040E+01  0.81208999948E+01  0.51100000000E-03 0. -1.
         12    1    3    3    0    0 -0.79367409872E+01 -0.31608407760E+00 -0.18581831628E+02  0.20208320893E+02  0.00000000000E+00 0. -1.
</event>
<event>
 7    1  0.4047706E-008  0.4614232E+02  0.7816164E-02  0.1320468E+00
        -11   -1    0    0    0    0  0.00000000000E+00  0.00000000000E+00  0.45593999997E+02  0.45594000000E+02  0.51100000000E-03 0.  1.
         11   -1    0    0    0    0 -0.00000000000E+00 -0.00000000000E+00 -0.45593999997E+02  0.45594000000E+02  0.51100000000E-03 0. -1.
    9900012    2    1    2    0    0 -0.26258697251E+02 -0.60149141328E+01 -0.36102843453E+02  0.46142315648E+02  0.99999807301E+01 0.  0.
        -12    1    1    2    0    0  0.26258697251E+02  0.60149141328E+01  0.36102843453E+02  0.45045684352E+02  0.00000000000E+00 0.  1.
         11    1    3    3    0    0 -0.19207727276E+01 -0.26773563307E+01 -0.26871557273E+01  0.42518714652E+01  0.51100000000E-03 0. -1.
        -11    1    3    3    0    0 -0.72782220210E+00  0.43191431386E+00 -0.56771576885E-01  0.84823251851E+00  0.51100000000E-03 0.  1.
         12    1    3    3    0    0 -0.23610102322E+02 -0.37694721159E+01 -0.33358916149E+02  0.41042211664E+02  0.00000000000E+00 0. -1.
</event>
<event>
 7    1  0.4047706E-008  0.4614232E+02  0.7816164E-02  0.1320468E+00
        -11   -1    0    0    0    0  0.00000000000E+00  0.00000000000E+00  0.45593999997E+02  0.45594000000E+02  0.51100000000E-03 0. -1.
         11   -1    0    0    0    0 -0.00000000000E+00 -0.00000000000E+00 -0.45593999997E+02  0.45594000000E+02  0.51100000000E-03 0.  1.
    9900012    2    1    2    0    0  0.47464324915E+01  0.10701628953E+02  0.43497817044E+02  0.46142316841E+02  0.99999916097E+01 0.  0.
        -12    1    1    2    0    0 -0.47464324915E+01 -0.10701628953E+02 -0.43497817044E+02  0.45045683159E+02  0.00000000000E+00 0.  1.
         11    1    3    3    0    0  0.51729578522E+00  0.43940702917E+01  0.20892531707E+02  0.21355873432E+02  0.51100000000E-03 0.  1.
        -11    1    3    3    0    0  0.13460696615E+01  0.67757439586E+01  0.18503291586E+02  0.19750807819E+02  0.51100000000E-03 0. -1.
        -12    1    3    3    0    0  0.28830670448E+01 -0.46818529778E+00  0.41019937515E+01  0.50356355900E+01  0.00000000000E+00 0.  1.
</event>
<event>
 7    1  0.4047706E-008  0.4614232E+02  0.7816164E-02  0.1320468E+00
        -11   -1    0    0    0    0  0.00000000000E+00  0.00000000000E+00  0.45593999997E+02  0.45594000000E+02  0.51100000000E-03 0.  1.
         11   -1    0    0    0    0 -0.00000000000E+00 -0.00000000000E+00 -0.45593999997E+02  0.45594000000E+02  0.51100000000E-03 0. -1.
    9900012    2    1    2    0    0 -0.11236382179E+02  0.16786300318E+02 -0.40262605000E+02  0.46142317363E+02  0.99999963711E+01 0.  0.
        -12    1    1    2    0    0  0.11236382179E+02 -0.16786300318E+02  0.40262605000E+02  0.45045682637E+02  0.00000000000E+00 0.  1.
         11    1    3    3    0    0 -0.91342486345E+01  0.13134043039E+02 -0.28296129394E+02  0.32505515280E+02  0.51100000000E-03 0. -1.
        -11    1    3    3    0    0 -0.24317384877E+01  0.36441982973E+01 -0.49408661929E+01  0.66034606307E+01  0.51100000000E-03 0.  1.
        -12    1    3    3    0    0  0.32960494286E+00  0.80589814216E-02 -0.70256094125E+01  0.70333414522E+01  0.00000000000E+00 0.  1.
</event>
<event>
 7    1  0.4047706E-008  0.4614232E+02  0.7816164E-02  0.1320468E+00
        -11   -1    0    0    0    0  0.00000000000E+00  0.00000000000E+00  0.45593999997E+02  0.45594000000E+02  0.51100000000E-03 0.  1.
         11   -1    0    0    0    0 -0.00000000000E+00 -0.00000000000E+00 -0.45593999997E+02  0.45594000000E+02  0.51100000000E-03 0. -1.
    9900012    2    1    2    0    0  0.17628101251E+02  0.37351140674E+02  0.17979316845E+02  0.46142317659E+02  0.99999990687E+01 0.  0.
        -12    1    1    2    0    0 -0.17628101251E+02 -0.37351140674E+02 -0.17979316845E+02  0.45045682341E+02  0.00000000000E+00 0.  1.
         11    1    3    3    0    0  0.16617090874E+01  0.78697945443E+01  0.36578930610E+01  0.88360129678E+01  0.51100000000E-03 0.  1.
        -11    1    3    3    0    0  0.15514528841E+02  0.23390430572E+02  0.13492753006E+02  0.31142691461E+02  0.51100000000E-03 0. -1.
         12    1    3    3    0    0  0.45186332265E+00  0.60909155572E+01  0.82867077793E+00  0.61636132297E+01  0.00000000000E+00 0. -1.
</event>
<event>
 7    1  0.4047706E-008  0.4614232E+02  0.7816164E-02  0.1320468E+00
        -11   -1    0    0    0    0  0.00000000000E+00  0.00000000000E+00  0.45593999997E+02  0.45594000000E+02  0.51100000000E-03 0. -1.
         11   -1    0    0    0    0 -0.00000000000E+00 -0.00000000000E+00 -0.45593999997E+02  0.45594000000E+02  0.51100000000E-03 0.  1.
    9900012    2    1    2    0    0  0.22039437723E+02 -0.34684565602E+01  0.39132422750E+02  0.46142317451E+02  0.99999971735E+01 0.  0.
        -12    1    1    2    0    0 -0.22039437723E+02  0.34684565602E+01 -0.39132422750E+02  0.45045682549E+02  0.00000000000E+00 0.  1.
         11    1    3    3    0    0  0.36732711300E+01 -0.35575823513E+00  0.13195571276E+02  0.13701919073E+02  0.51100000000E-03 0. -1.
        -11    1    3    3    0    0  0.76760973478E+01 -0.39270735827E+01  0.13521498951E+02  0.16036686427E+02  0.51100000000E-03 0.  1.
        -12    1    3    3    0    0  0.10690069245E+02  0.81437525761E+00  0.12415352522E+02  0.16403711951E+02  0.00000000000E+00 0.  1.
</event>
<event>
 7    1  0.4047706E-008  0.4614232E+02  0.7816164E-02  0.1320468E+00
        -11   -1    0    0    0    0  0.00000000000E+00  0.00000000000E+00  0.45593999997E+02  0.45594000000E+02  0.51100000000E-03 0.  1.
         11   -1    0    0    0    0 -0.00000000000E+00 -0.00000000000E+00 -0.45593999997E+02  0.45594000000E+02  0.51100000000E-03 0. -1.
    9900012    2    1    2    0    0  0.12957205678E+02 -0.35340437881E+02 -0.24744246157E+02  0.46142318226E+02  0.10000004243E+02 0.  0.
        -12    1    1    2    0    0 -0.12957205678E+02  0.35340437881E+02  0.24744246157E+02  0.45045681774E+02  0.00000000000E+00 0.  1.
         11    1    3    3    0    0  0.12545948052E+02 -0.24165696427E+02 -0.16663202380E+02  0.31922468735E+02  0.51100000000E-03 0. -1.
        -11    1    3    3    0    0  0.92536668678E+00 -0.11092255071E+02 -0.79631506987E+01  0.13685985363E+02  0.51100000000E-03 0.  1.
        -12    1    3    3    0    0 -0.51410906050E+00 -0.82486383338E-01 -0.11789307841E+00  0.53386412828E+00  0.00000000000E+00 0.  1.
</event>
<event>
 7    1  0.4047706E-008  0.4614232E+02  0.7816164E-02  0.1320468E+00
        -11   -1    0    0    0    0  0.00000000000E+00  0.00000000000E+00  0.45593999997E+02  0.45594000000E+02  0.51100000000E-03 0.  1.
         11   -1    0    0    0    0 -0.00000000000E+00 -0.00000000000E+00 -0.45593999997E+02  0.45594000000E+02  0.51100000000E-03 0. -1.
    9900012    2    1    2    0    0  0.21786468186E+02 -0.31386679738E+01 -0.39301552804E+02  0.46142317793E+02  0.10000000293E+02 0.  0.
        -12    1    1    2    0    0 -0.21786468186E+02  0.31386679738E+01  0.39301552804E+02  0.45045682207E+02  0.00000000000E+00 0.  1.
         11    1    3    3    0    0  0.31639467605E+01 -0.18620674018E+01 -0.54851349069E+01  0.66003453940E+01  0.51100000000E-03 0. -1.
        -11    1    3    3    0    0  0.10928689139E+02  0.33972724706E+01 -0.20254893232E+02  0.23264531086E+02  0.51100000000E-03 0.  1.
        -12    1    3    3    0    0  0.76938322865E+01 -0.46738730427E+01 -0.13561524665E+02  0.16277441313E+02  0.00000000000E+00 0.  1.
</event>
<event>
 7    1  0.4047706E-008  0.4614232E+02  0.7816164E-02  0.1320468E+00
        -11   -1    0    0    0    0  0.00000000000E+00  0.00000000000E+00  0.45593999997E+02  0.45594000000E+02  0.51100000000E-03 0. -1.
         11   -1    0    0    0    0 -0.00000000000E+00 -0.00000000000E+00 -0.45593999997E+02  0.45594000000E+02  0.51100000000E-03 0.  1.
    9900012    2    1    2    0    0  0.19079852248E+02  0.36076827314E+02  0.19066602040E+02  0.46142317141E+02  0.99999943485E+01 0.  0.
        -12    1    1    2    0    0 -0.19079852248E+02 -0.36076827314E+02 -0.19066602040E+02  0.45045682859E+02  0.00000000000E+00 0.  1.
         11    1    3    3    0    0  0.30188710042E+01  0.37953951461E+01  0.20181543522E+01  0.52527662908E+01  0.51100000000E-03 0. -1.
        -11    1    3    3    0    0  0.53837380424E+01  0.49431819596E+01  0.82649022827E+00  0.73554584869E+01  0.51100000000E-03 0.  1.
        -12    1    3    3    0    0  0.10677243202E+02  0.27338250208E+02  0.16221957459E+02  0.33534092364E+02  0.00000000000E+00 0.  1.
</event>
<event>
 7    1  0.4047706E-008  0.4614232E+02  0.7816164E-02  0.1320468E+00
        -11   -1    0    0    0    0  0.00000000000E+00  0.00000000000E+00  0.45593999997E+02  0.45594000000E+02  0.51100000000E-03 0.  1.
         11   -1    0    0    0    0 -0.00000000000E+00 -0.00000000000E+00 -0.45593999997E+02  0.45594000000E+02  0.51100000000E-03 0. -1.
    9900012    2    1    2    0    0  0.91124192820E+01  0.42342642882E+02  0.12376503433E+02  0.46142318424E+02  0.10000006047E+02 0.  0.
        -12    1    1    2    0    0 -0.91124192820E+01 -0.42342642882E+02 -0.12376503433E+02  0.45045681576E+02  0.00000000000E+00 0.  1.
         11    1    3    3    0    0  0.38106670974E+00  0.42523867538E+01  0.30791660727E+01  0.52639594324E+01  0.51100000000E-03 0. -1.
        -11    1    3    3    0    0 -0.86568098159E+00  0.92603019278E+01  0.84313829844E+00  0.93388156533E+01  0.51100000000E-03 0.  1.
        -12    1    3    3    0    0  0.95970335539E+01  0.28829954200E+02  0.84541990616E+01  0.31539543339E+02  0.00000000000E+00 0.  1.
</event>
<event>
 7    1  0.4047706E-008  0.4614232E+02  0.7816164E-02  0.1320468E+00
        -11   -1    0    0    0    0  0.00000000000E+00  0.00000000000E+00  0.45593999997E+02  0.45594000000E+02  0.51100000000E-03 0.  1.
         11   -1    0    0    0    0 -0.00000000000E+00 -0.00000000000E+00 -0.45593999997E+02  0.45594000000E+02  0.51100000000E-03 0. -1.
    9900012    2    1    2    0    0  0.26999282897E+02  0.19962043588E+02 -0.30027806951E+02  0.46142315951E+02  0.99999834909E+01 0.  0.
        -12    1    1    2    0    0 -0.26999282897E+02 -0.19962043588E+02  0.30027806951E+02  0.45045684049E+02  0.00000000000E+00 0.  1.
         11    1    3    3    0    0  0.12436086625E+02  0.13469903328E+02 -0.18809387611E+02  0.26265711656E+02  0.51100000000E-03 0. -1.
        -11    1    3    3    0    0  0.19768588124E+01  0.42704166945E+00 -0.31482269543E+01  0.37418803520E+01  0.51100000000E-03 0.  1.
         12    1    3    3    0    0  0.12586337460E+02  0.60650985904E+01 -0.80701923853E+01  0.16134723943E+02  0.00000000000E+00 0. -1.
</event>
<event>
 7    1  0.4047706E-008  0.4614232E+02  0.7816164E-02  0.1320468E+00
        -11   -1    0    0    0    0  0.00000000000E+00  0.00000000000E+00  0.45593999997E+02  0.45594000000E+02  0.51100000000E-03 0.  1.
         11   -1    0    0    0    0 -0.00000000000E+00 -0.00000000000E+00 -0.45593999997E+02  0.45594000000E+02  0.51100000000E-03 0. -1.
    9900012    2    1    2    0    0  0.31939634545E+02 -0.29441198174E+02 -0.11924308510E+02  0.46142317207E+02  0.99999949490E+01 0.  0.
        -12    1    1    2    0    0 -0.31939634545E+02  0.29441198174E+02  0.11924308510E+02  0.45045682793E+02  0.00000000000E+00 0.  1.
         11    1    3    3    0    0  0.72853618092E+01 -0.11222085697E+02 -0.42065986066E+01  0.14025233552E+02  0.51100000000E-03 0. -1.
        -11    1    3    3    0    0  0.15170239370E+01 -0.24627840705E+01 -0.20787757535E+01  0.35620185145E+01  0.51100000000E-03 0.  1.
         12    1    3    3    0    0  0.23137248799E+02 -0.15756328407E+02 -0.56389341498E+01  0.28555065141E+02  0.00000000000E+00 0. -1.
</event>
<event>
 7    1  0.4047706E-008  0.4614232E+02  0.7816164E-02  0.1320468E+00
        -11   -1    0    0    0    0  0.00000000000E+00  0.00000000000E+00  0.45593999997E+02  0.45594000000E+02  0.51100000000E-03 0. -1.
         11   -1    0    0    0    0 -0.00000000000E+00 -0.00000000000E+00 -0.45593999997E+02  0.45594000000E+02  0.51100000000E-03 0.  1.
    9900012    2    1    2    0    0 -0.26703541822E+02  0.24618162959E+02  0.26645452322E+02  0.46142320709E+02  0.10000026882E+02 0.  0.
        -12    1    1    2    0    0  0.26703541822E+02 -0.24618162959E+02 -0.26645452322E+02  0.45045679291E+02  0.00000000000E+00 0.  1.
         11    1    3    3    0    0 -0.28144663026E+01  0.47713505829E+01  0.22188752311E+01  0.59674462298E+01  0.51100000000E-03 0. -1.
        -11    1    3    3    0    0 -0.17357027420E+01  0.33359146299E+00  0.37098501758E+01  0.41093717112E+01  0.51100000000E-03 0.  1.
         12    1    3    3    0    0 -0.22153372778E+02  0.19513220913E+02  0.20716726915E+02  0.36065502768E+02  0.00000000000E+00 0. -1.
</event>
<event>
 7    1  0.4047706E-008  0.4614232E+02  0.7816164E-02  0.1320468E+00
        -11   -1    0    0    0    0  0.00000000000E+00  0.00000000000E+00  0.45593999997E+02  0.45594000000E+02  0.51100000000E-03 0.  1.
         11   -1    0    0    0    0 -0.00000000000E+00 -0.00000000000E+00 -0.45593999997E+02  0.45594000000E+02  0.51100000000E-03 0. -1.
    9900012    2    1    2    0    0  0.42888874486E+02  0.84480217804E+01 -0.10876076240E+02  0.46142315844E+02  0.99999825183E+01 0.  0.
        -12    1    1    2    0    0 -0.42888874486E+02 -0.84480217804E+01  0.10876076240E+02  0.45045684156E+02  0.00000000000E+00 0.  1.
         11    1    3    3    0    0  0.22455224997E+02  0.59319692167E+01 -0.36284727321E+01  0.23507258519E+02  0.51100000000E-03 0. -1.
        -11    1    3    3    0    0  0.19133790596E+02  0.21711384383E+01 -0.48054819269E+01  0.19847126782E+02  0.51100000000E-03 0.  1.
        -12    1    3    3    0    0  0.12998588934E+01  0.34491412540E+00 -0.24421215810E+01  0.27879305431E+01  0.00000000000E+00 0.  1.
</event>
<event>
 7    1  0.4047706E-008  0.4614232E+02  0.7816164E-02  0.1320468E+00
        -11   -1    0    0    0    0  0.00000000000E+00  0.00000000000E+00  0.45593999997E+02  0.45594000000E+02  0.51100000000E-03 0.  1.
         11   -1    0    0    0    0 -0.00000000000E+00 -0.00000000000E+00 -0.45593999997E+02  0.45594000000E+02  0.51100000000E-03 0. -1.
    9900012    2    1    2    0    0 -0.71956257503E+01  0.12796162118E+02 -0.42586320504E+02  0.46142317755E+02  0.99999999398E+01 0.  0.
        -12    1    1    2    0    0  0.71956257503E+01 -0.12796162118E+02  0.42586320504E+02  0.45045682245E+02  0.00000000000E+00 0.  1.
         11    1    3    3    0    0 -0.49224267516E+01  0.52024388036E+01 -0.11661722444E+02  0.13685445746E+02  0.51100000000E-03 0. -1.
        -11    1    3    3    0    0 -0.20769134691E+01  0.70827397925E+00 -0.14211842415E+02  0.14380253359E+02  0.51100000000E-03 0.  1.
        -12    1    3    3    0    0 -0.19628552968E+00  0.68854493356E+01 -0.16712755645E+02  0.18076618650E+02  0.00000000000E+00 0.  1.
</event>
<event>
 7    1  0.4047706E-008  0.4614232E+02  0.7816164E-02  0.1320468E+00
        -11   -1    0    0    0    0  0.00000000000E+00  0.00000000000E+00  0.45593999997E+02  0.45594000000E+02  0.51100000000E-03 0. -1.
         11   -1    0    0    0    0 -0.00000000000E+00 -0.00000000000E+00 -0.45593999997E+02  0.45594000000E+02  0.51100000000E-03 0.  1.
    9900012    2    1    2    0    0  0.17582025959E+02 -0.12703281389E+02  0.39479267296E+02  0.46142317176E+02  0.99999946628E+01 0.  0.
        -12    1    1    2    0    0 -0.17582025959E+02  0.12703281389E+02 -0.39479267296E+02  0.45045682824E+02  0.00000000000E+00 0.  1.
         11    1    3    3    0    0  0.19813284533E+01 -0.24005588280E+01  0.43403101714E+01  0.53410333992E+01  0.51100000000E-03 0. -1.
        -11    1    3    3    0    0  0.20956282823E+01 -0.41199338690E-01  0.38752401494E+00  0.21315558652E+01  0.51100000000E-03 0.  1.
        -12    1    3    3    0    0  0.13505069223E+02 -0.10261523223E+02  0.34751433109E+02  0.38669727911E+02  0.00000000000E+00 0.  1.
</event>
<event>
 7    1  0.4047706E-008  0.4614232E+02  0.7816164E-02  0.1320468E+00
        -11   -1    0    0    0    0  0.00000000000E+00  0.00000000000E+00  0.45593999997E+02  0.45594000000E+02  0.51100000000E-03 0. -1.
         11   -1    0    0    0    0 -0.00000000000E+00 -0.00000000000E+00 -0.45593999997E+02  0.45594000000E+02  0.51100000000E-03 0.  1.
    9900012    2    1    2    0    0  0.18797533951E+02  0.38576330945E+02  0.13697918130E+02  0.46142317045E+02  0.99999934694E+01 0.  0.
        -12    1    1    2    0    0 -0.18797533951E+02 -0.38576330945E+02 -0.13697918130E+02  0.45045682955E+02  0.00000000000E+00 0.  1.
         11    1    3    3    0    0  0.59745869253E+01  0.10561568870E+02  0.61746001093E+01  0.13614995876E+02  0.51100000000E-03 0. -1.
        -11    1    3    3    0    0  0.12704030914E+02  0.28397468547E+02  0.77587254684E+01  0.32062539551E+02  0.51100000000E-03 0.  1.
        -12    1    3    3    0    0  0.11891611163E+00 -0.38270647241E+00 -0.23540744771E+00  0.46478161761E+00  0.00000000000E+00 0.  1.
</event>
<event>
 7    1  0.4047706E-008  0.4614232E+02  0.7816164E-02  0.1320468E+00
        -11   -1    0    0    0    0  0.00000000000E+00  0.00000000000E+00  0.45593999997E+02  0.45594000000E+02  0.51100000000E-03 0.  1.
         11   -1    0    0    0    0 -0.00000000000E+00 -0.00000000000E+00 -0.45593999997E+02  0.45594000000E+02  0.51100000000E-03 0. -1.
    9900012    2    1    2    0    0  0.31499222419E+02 -0.19845014051E+02 -0.25359177943E+02  0.46142317614E+02  0.99999986562E+01 0.  0.
        -12    1    1    2    0    0 -0.31499222419E+02  0.19845014051E+02  0.25359177943E+02  0.45045682386E+02  0.00000000000E+00 0.  1.
         11    1    3    3    0    0  0.74052552904E+01 -0.23257754075E+01 -0.77977503395E+01  0.11002361009E+02  0.51100000000E-03 0. -1.
        -11    1    3    3    0    0  0.15203029864E+02 -0.10973100258E+02 -0.74720311584E+01  0.20183465912E+02  0.51100000000E-03 0.  1.
         12    1    3    3    0    0  0.88909372642E+01 -0.65461383856E+01 -0.10089396445E+02  0.14956490692E+02  0.00000000000E+00 0. -1.
</event>
<event>
 7    1  0.4047706E-008  0.4614232E+02  0.7816164E-02  0.1320468E+00
        -11   -1    0    0    0    0  0.00000000000E+00  0.00000000000E+00  0.45593999997E+02  0.45594000000E+02  0.51100000000E-03 0.  1.
         11   -1    0    0    0    0 -0.00000000000E+00 -0.00000000000E+00 -0.45593999997E+02  0.45594000000E+02  0.51100000000E-03 0. -1.
    9900012    2    1    2    0    0  0.31419930236E+02 -0.14410613128E+02 -0.28883138104E+02  0.46142318148E+02  0.10000003530E+02 0.  0.
        -12    1    1    2    0    0 -0.31419930236E+02  0.14410613128E+02  0.28883138104E+02  0.45045681852E+02  0.00000000000E+00 0.  1.
         11    1    3    3    0    0  0.15789469028E+02 -0.98265545347E+01 -0.12668006182E+02  0.22502152944E+02  0.51100000000E-03 0. -1.
        -11    1    3    3    0    0  0.40630029956E+01 -0.17186904824E+01 -0.14031210921E+01  0.46293238574E+01  0.51100000000E-03 0.  1.
        -12    1    3    3    0    0  0.11567458213E+02 -0.28653681106E+01 -0.14812010829E+02  0.19010841347E+02  0.00000000000E+00 0.  1.
</event>
<event>
 7    1  0.4047706E-008  0.4614232E+02  0.7816164E-02  0.1320468E+00
        -11   -1    0    0    0    0  0.00000000000E+00  0.00000000000E+00  0.45593999997E+02  0.45594000000E+02  0.51100000000E-03 0. -1.
         11   -1    0    0    0    0 -0.00000000000E+00 -0.00000000000E+00 -0.45593999997E+02  0.45594000000E+02  0.51100000000E-03 0.  1.
    9900012    2    1    2    0    0  0.17908118277E+02 -0.19732464157E+02  0.36318626849E+02  0.46142317653E+02  0.99999990133E+01 0.  0.
        -12    1    1    2    0    0 -0.17908118277E+02  0.19732464157E+02 -0.36318626849E+02  0.45045682347E+02  0.00000000000E+00 0.  1.
         11    1    3    3    0    0  0.54734908277E+01 -0.55828021910E+01  0.13777861343E+02  0.15841598580E+02  0.51100000000E-03 0. -1.
        -11    1    3    3    0    0  0.24218151814E+01 -0.28670062099E+01  0.10009068501E+02  0.10689544701E+02  0.51100000000E-03 0.  1.
        -12    1    3    3    0    0  0.10012812268E+02 -0.11282655756E+02  0.12531697005E+02  0.19611174372E+02  0.00000000000E+00 0.  1.
</event>
<event>
 7    1  0.4047706E-008  0.4614232E+02  0.7816164E-02  0.1320468E+00
        -11   -1    0    0    0    0  0.00000000000E+00  0.00000000000E+00  0.45593999997E+02  0.45594000000E+02  0.51100000000E-03 0. -1.
         11   -1    0    0    0    0 -0.00000000000E+00 -0.00000000000E+00 -0.45593999997E+02  0.45594000000E+02  0.51100000000E-03 0.  1.
    9900012    2    1    2    0    0  0.49138500029E+01 -0.13846289825E+02  0.42582247589E+02  0.46142317926E+02  0.10000001502E+02 0.  0.
        -12    1    1    2    0    0 -0.49138500029E+01  0.13846289825E+02 -0.42582247589E+02  0.45045682074E+02  0.00000000000E+00 0.  1.
         11    1    3    3    0    0  0.38431069861E+00 -0.66524976886E+01  0.15330950529E+02  0.16716502762E+02  0.51100000000E-03 0. -1.
        -11    1    3    3    0    0  0.33095235460E+01 -0.77733866758E+01  0.26631899247E+02  0.27939873734E+02  0.51100000000E-03 0.  1.
        -12    1    3    3    0    0  0.12200157583E+01  0.57959453970E+00  0.61939781328E+00  0.14859414295E+01  0.00000000000E+00 0.  1.
</event>
<event>
 7    1  0.4047706E-008  0.4614232E+02  0.7816164E-02  0.1320468E+00
        -11   -1    0    0    0    0  0.00000000000E+00  0.00000000000E+00  0.45593999997E+02  0.45594000000E+02  0.51100000000E-03 0.  1.
         11   -1    0    0    0    0 -0.00000000000E+00 -0.00000000000E+00 -0.45593999997E+02  0.45594000000E+02  0.51100000000E-03 0. -1.
    9900012    2    1    2    0    0 -0.37658031068E+02  0.78275232173E+01 -0.23446022087E+02  0.46142319016E+02  0.10000011440E+02 0.  0.
        -12    1    1    2    0    0  0.37658031068E+02 -0.78275232173E+01  0.23446022087E+02  0.45045680984E+02  0.00000000000E+00 0.  1.
         11    1    3    3    0    0 -0.22759497357E+02  0.27658403878E+01 -0.11580242556E+02  0.25685533105E+02  0.51100000000E-03 0. -1.
        -11    1    3    3    0    0 -0.10526800437E+02  0.12372012785E+01 -0.59014995462E+01  0.12131442272E+02  0.51100000000E-03 0.  1.
         12    1    3    3    0    0 -0.43717332735E+01  0.38244815511E+01 -0.59642799853E+01  0.83253436381E+01  0.00000000000E+00 0. -1.
</event>
<event>
 7    1  0.4047706E-008  0.4614232E+02  0.7816164E-02  0.1320468E+00
        -11   -1    0    0    0    0  0.00000000000E+00  0.00000000000E+00  0.45593999997E+02  0.45594000000E+02  0.51100000000E-03 0.  1.
         11   -1    0    0    0    0 -0.00000000000E+00 -0.00000000000E+00 -0.45593999997E+02  0.45594000000E+02  0.51100000000E-03 0. -1.
    9900012    2    1    2    0    0 -0.15159972158E+02  0.42371441080E+02 -0.19874156228E+01  0.46142316568E+02  0.99999891207E+01 0.  0.
        -12    1    1    2    0    0  0.15159972158E+02 -0.42371441080E+02  0.19874156228E+01  0.45045683432E+02  0.00000000000E+00 0.  1.
         11    1    3    3    0    0 -0.92072939722E+01  0.26043046327E+02  0.11646141545E+01  0.27647257562E+02  0.51100000000E-03 0. -1.
        -11    1    3    3    0    0 -0.55427164695E+01  0.78259996658E+01 -0.60126930368E+00  0.96088241564E+01  0.51100000000E-03 0.  1.
        -12    1    3    3    0    0 -0.40996171650E+00  0.85023950866E+01 -0.25507604737E+01  0.88862348502E+01  0.00000000000E+00 0.  1.
</event>
<event>
 7    1  0.4047706E-008  0.4614232E+02  0.7816164E-02  0.1320468E+00
        -11   -1    0    0    0    0  0.00000000000E+00  0.00000000000E+00  0.45593999997E+02  0.45594000000E+02  0.51100000000E-03 0. -1.
         11   -1    0    0    0    0 -0.00000000000E+00 -0.00000000000E+00 -0.45593999997E+02  0.45594000000E+02  0.51100000000E-03 0.  1.
    9900012    2    1    2    0    0 -0.41730201642E+02 -0.15534107951E+02  0.68114085607E+01  0.46142317349E+02  0.99999962456E+01 0.  0.
        -12    1    1    2    0    0  0.41730201642E+02  0.15534107951E+02 -0.68114085607E+01  0.45045682651E+02  0.00000000000E+00 0.  1.
         11    1    3    3    0    0 -0.30689708611E+02 -0.67297699740E+01  0.53882389334E+01  0.31877596170E+02  0.51100000000E-03 0. -1.
        -11    1    3    3    0    0 -0.50402935193E+01 -0.31636701893E+01  0.82402397990E+00  0.60076937013E+01  0.51100000000E-03 0.  1.
         12    1    3    3    0    0 -0.60001995115E+01 -0.56406677874E+01  0.59914564742E+00  0.82570274780E+01  0.00000000000E+00 0. -1.
</event>
<event>
 7    1  0.4047706E-008  0.4614232E+02  0.7816164E-02  0.1320468E+00
        -11   -1    0    0    0    0  0.00000000000E+00  0.00000000000E+00  0.45593999997E+02  0.45594000000E+02  0.51100000000E-03 0. -1.
         11   -1    0    0    0    0 -0.00000000000E+00 -0.00000000000E+00 -0.45593999997E+02  0.45594000000E+02  0.51100000000E-03 0.  1.
    9900012    2    1    2    0    0 -0.90193550047E+00  0.35629373458E+02  0.27547192060E+02  0.46142317287E+02  0.99999956796E+01 0.  0.
        -12    1    1    2    0    0  0.90193550047E+00 -0.35629373458E+02 -0.27547192060E+02  0.45045682713E+02  0.00000000000E+00 0.  1.
         11    1    3    3    0    0  0.11964716395E+01  0.19716545053E+02  0.17271516893E+02  0.26238883156E+02  0.51100000000E-03 0. -1.
        -11    1    3    3    0    0 -0.34826039362E+01  0.13560287629E+02  0.70415717842E+01  0.15671428276E+02  0.51100000000E-03 0.  1.
         12    1    3    3    0    0  0.13841967962E+01  0.23525407768E+01  0.32341033822E+01  0.42320058558E+01  0.00000000000E+00 0. -1.
</event>
<event>
 7    1  0.4047706E-008  0.4614232E+02  0.7816164E-02  0.1320468E+00
        -11   -1    0    0    0    0  0.00000000000E+00  0.00000000000E+00  0.45593999997E+02  0.45594000000E+02  0.51100000000E-03 0.  1.
         11   -1    0    0    0    0 -0.00000000000E+00 -0.00000000000E+00 -0.45593999997E+02  0.45594000000E+02  0.51100000000E-03 0. -1.
    9900012    2    1    2    0    0 -0.31260177488E+02  0.95872544339E+01 -0.30983859321E+02  0.46142315606E+02  0.99999803476E+01 0.  0.
        -12    1    1    2    0    0  0.31260177488E+02 -0.95872544339E+01  0.30983859321E+02  0.45045684394E+02  0.00000000000E+00 0.  1.
         11    1    3    3    0    0 -0.26623973202E+02  0.54574688414E+01 -0.24624047990E+02  0.36673746126E+02  0.51100000000E-03 0. -1.
        -11    1    3    3    0    0 -0.14421065591E+01  0.16672662884E-01 -0.29028761892E+00  0.14711276180E+01  0.51100000000E-03 0.  1.
         12    1    3    3    0    0 -0.31940977268E+01  0.41131129296E+01 -0.60695237111E+01  0.79974418623E+01  0.00000000000E+00 0. -1.
</event>
<event>
 7    1  0.4047706E-008  0.4614232E+02  0.7816164E-02  0.1320468E+00
        -11   -1    0    0    0    0  0.00000000000E+00  0.00000000000E+00  0.45593999997E+02  0.45594000000E+02  0.51100000000E-03 0.  1.
         11   -1    0    0    0    0 -0.00000000000E+00 -0.00000000000E+00 -0.45593999997E+02  0.45594000000E+02  0.51100000000E-03 0. -1.
    9900012    2    1    2    0    0  0.40005762952E+02  0.20135579924E+02 -0.48177609946E+01  0.46142317973E+02  0.10000001936E+02 0.  0.
        -12    1    1    2    0    0 -0.40005762952E+02 -0.20135579924E+02  0.48177609946E+01  0.45045682027E+02  0.00000000000E+00 0.  1.
         11    1    3    3    0    0  0.11667463605E+02  0.83800848193E+01 -0.11602932410E+01  0.14411863489E+02  0.51100000000E-03 0. -1.
        -11    1    3    3    0    0  0.42398458635E+01  0.31457678401E+01  0.17751741744E+01  0.55698646178E+01  0.51100000000E-03 0.  1.
         12    1    3    3    0    0  0.24098453483E+02  0.86097272644E+01 -0.54326419280E+01  0.26160589867E+02  0.00000000000E+00 0. -1.
</event>
<event>
 7    1  0.4047706E-008  0.4614232E+02  0.7816164E-02  0.1320468E+00
        -11   -1    0    0    0    0  0.00000000000E+00  0.00000000000E+00  0.45593999997E+02  0.45594000000E+02  0.51100000000E-03 0.  1.
         11   -1    0    0    0    0 -0.00000000000E+00 -0.00000000000E+00 -0.45593999997E+02  0.45594000000E+02  0.51100000000E-03 0. -1.
    9900012    2    1    2    0    0 -0.39269772678E+02  0.16598522025E+02 -0.14542614873E+02  0.46142316223E+02  0.99999859764E+01 0.  0.
        -12    1    1    2    0    0  0.39269772678E+02 -0.16598522025E+02  0.14542614873E+02  0.45045683777E+02  0.00000000000E+00 0.  1.
         11    1    3    3    0    0 -0.75906454061E+01  0.38095524201E+01 -0.62486814641E+01  0.10544031849E+02  0.51100000000E-03 0. -1.
        -11    1    3    3    0    0 -0.84348900674E+01  0.90637570370E+00 -0.14023816106E+01  0.85985790575E+01  0.51100000000E-03 0.  1.
        -12    1    3    3    0    0 -0.23244237204E+02  0.11882593901E+02 -0.68915517986E+01  0.26999705317E+02  0.00000000000E+00 0.  1.
</event>
<event>
 7    1  0.4047706E-008  0.4614232E+02  0.7816164E-02  0.1320468E+00
        -11   -1    0    0    0    0  0.00000000000E+00  0.00000000000E+00  0.45593999997E+02  0.45594000000E+02  0.51100000000E-03 0. -1.
         11   -1    0    0    0    0 -0.00000000000E+00 -0.00000000000E+00 -0.45593999997E+02  0.45594000000E+02  0.51100000000E-03 0.  1.
    9900012    2    1    2    0    0 -0.52712658248E+01 -0.28716522005E+02  0.34302895422E+02  0.46142317479E+02  0.99999974250E+01 0.  0.
        -12    1    1    2    0    0  0.52712658248E+01  0.28716522005E+02 -0.34302895422E+02  0.45045682521E+02  0.00000000000E+00 0.  1.
         11    1    3    3    0    0 -0.13858297930E+01 -0.84998968798E+01  0.59425816558E+01  0.10463414748E+02  0.51100000000E-03 0. -1.
        -11    1    3    3    0    0 -0.33841836565E+01 -0.18555006098E+02  0.21491221475E+02  0.28593942559E+02  0.51100000000E-03 0.  1.
        -12    1    3    3    0    0 -0.50125237536E+00 -0.16616190276E+01  0.68690922915E+01  0.70849601725E+01  0.00000000000E+00 0.  1.
</event>
<event>
 7    1  0.4047706E-008  0.4614232E+02  0.7816164E-02  0.1320468E+00
        -11   -1    0    0    0    0  0.00000000000E+00  0.00000000000E+00  0.45593999997E+02  0.45594000000E+02  0.51100000000E-03 0.  1.
         11   -1    0    0    0    0 -0.00000000000E+00 -0.00000000000E+00 -0.45593999997E+02  0.45594000000E+02  0.51100000000E-03 0. -1.
    9900012    2    1    2    0    0 -0.13888298023E+02  0.21154727598E+02 -0.37265343555E+02  0.46142321495E+02  0.10000034049E+02 0.  0.
        -12    1    1    2    0    0  0.13888298023E+02 -0.21154727598E+02  0.37265343555E+02  0.45045678505E+02  0.00000000000E+00 0.  1.
         11    1    3    3    0    0 -0.88665132192E+01  0.13274784374E+02 -0.30570922914E+02  0.34487915056E+02  0.51100000000E-03 0. -1.
        -11    1    3    3    0    0 -0.81340828666E+00  0.26856088837E+01 -0.14561502772E+01  0.31614082317E+01  0.51100000000E-03 0.  1.
        -12    1    3    3    0    0 -0.42083765167E+01  0.51943343403E+01 -0.52382703634E+01  0.84929982071E+01  0.00000000000E+00 0.  1.
</event>
<event>
 7    1  0.4047706E-008  0.4614232E+02  0.7816164E-02  0.1320468E+00
        -11   -1    0    0    0    0  0.00000000000E+00  0.00000000000E+00  0.45593999997E+02  0.45594000000E+02  0.51100000000E-03 0.  1.
         11   -1    0    0    0    0 -0.00000000000E+00 -0.00000000000E+00 -0.45593999997E+02  0.45594000000E+02  0.51100000000E-03 0. -1.
    9900012    2    1    2    0    0  0.29328824145E+02 -0.10595519684E+02 -0.32506438719E+02  0.46142317396E+02  0.99999966679E+01 0.  0.
        -12    1    1    2    0    0 -0.29328824145E+02  0.10595519684E+02  0.32506438719E+02  0.45045682604E+02  0.00000000000E+00 0.  1.
         11    1    3    3    0    0  0.22016268586E+02 -0.87797756854E+01 -0.27798687429E+02  0.36531733692E+02  0.51100000000E-03 0. -1.
        -11    1    3    3    0    0  0.17603674921E+01 -0.18308084130E+01 -0.26991188157E+01  0.37062104359E+01  0.51100000000E-03 0.  1.
        -12    1    3    3    0    0  0.55521880671E+01  0.15064414234E-01 -0.20086324746E+01  0.59043732679E+01  0.00000000000E+00 0.  1.
</event>
<event>
 7    1  0.4047706E-008  0.4614232E+02  0.7816164E-02  0.1320468E+00
        -11   -1    0    0    0    0  0.00000000000E+00  0.00000000000E+00  0.45593999997E+02  0.45594000000E+02  0.51100000000E-03 0.  1.
         11   -1    0    0    0    0 -0.00000000000E+00 -0.00000000000E+00 -0.45593999997E+02  0.45594000000E+02  0.51100000000E-03 0. -1.
    9900012    2    1    2    0    0 -0.17051566092E+02  0.41360282380E+02  0.52616386707E+01  0.46142315342E+02  0.99999779448E+01 0.  0.
        -12    1    1    2    0    0  0.17051566092E+02 -0.41360282380E+02 -0.52616386707E+01  0.45045684658E+02  0.00000000000E+00 0.  1.
         11    1    3    3    0    0 -0.56124523278E+00  0.10869394375E+01 -0.91759078979E+00  0.15291849694E+01  0.51100000000E-03 0. -1.
        -11    1    3    3    0    0  0.31590221612E+00  0.57582647290E+01  0.28508366482E+00  0.57739656958E+01  0.51100000000E-03 0.  1.
         12    1    3    3    0    0 -0.16806223076E+02  0.34515078214E+02  0.58941457957E+01  0.38839164677E+02  0.00000000000E+00 0. -1.
</event>
<event>
 7    1  0.4047706E-008  0.4614232E+02  0.7816164E-02  0.1320468E+00
        -11   -1    0    0    0    0  0.00000000000E+00  0.00000000000E+00  0.45593999997E+02  0.45594000000E+02  0.51100000000E-03 0.  1.
         11   -1    0    0    0    0 -0.00000000000E+00 -0.00000000000E+00 -0.45593999997E+02  0.45594000000E+02  0.51100000000E-03 0. -1.
    9900012    2    1    2    0    0 -0.18645053143E+02  0.20718992711E+01 -0.40953420465E+02  0.46142318508E+02  0.10000006811E+02 0.  0.
        -12    1    1    2    0    0  0.18645053143E+02 -0.20718992711E+01  0.40953420465E+02  0.45045681492E+02  0.00000000000E+00 0.  1.
         11    1    3    3    0    0 -0.97903327148E+01  0.21268476983E+01 -0.22066479847E+02  0.24234348122E+02  0.51100000000E-03 0. -1.
        -11    1    3    3    0    0 -0.88032185118E+01  0.16311082690E+01 -0.13004288844E+02  0.15788245594E+02  0.51100000000E-03 0.  1.
        -12    1    3    3    0    0 -0.51501916497E-01 -0.16860566961E+01 -0.58826517745E+01  0.61197247920E+01  0.00000000000E+00 0.  1.
</event>
<event>
 7    1  0.4047706E-008  0.4614232E+02  0.7816164E-02  0.1320468E+00
        -11   -1    0    0    0    0  0.00000000000E+00  0.00000000000E+00  0.45593999997E+02  0.45594000000E+02  0.51100000000E-03 0.  1.
         11   -1    0    0    0    0 -0.00000000000E+00 -0.00000000000E+00 -0.45593999997E+02  0.45594000000E+02  0.51100000000E-03 0. -1.
    9900012    2    1    2    0    0  0.15026037549E+02 -0.12815730849E+02 -0.40485663288E+02  0.46142315484E+02  0.99999792357E+01 0.  0.
        -12    1    1    2    0    0 -0.15026037549E+02  0.12815730849E+02  0.40485663288E+02  0.45045684516E+02  0.00000000000E+00 0.  1.
         11    1    3    3    0    0  0.62402379669E+01 -0.10823430663E+02 -0.18659517032E+02  0.22455841051E+02  0.51100000000E-03 0. -1.
        -11    1    3    3    0    0 -0.64502491108E-01 -0.44910808771E-01 -0.34742363531E-01  0.85935121157E-01  0.51100000000E-03 0.  1.
         12    1    3    3    0    0  0.88503020729E+01 -0.19473893775E+01 -0.21791403893E+02  0.23600539312E+02  0.00000000000E+00 0. -1.
</event>
<event>
 7    1  0.4047706E-008  0.4614232E+02  0.7816164E-02  0.1320468E+00
        -11   -1    0    0    0    0  0.00000000000E+00  0.00000000000E+00  0.45593999997E+02  0.45594000000E+02  0.51100000000E-03 0.  1.
         11   -1    0    0    0    0 -0.00000000000E+00 -0.00000000000E+00 -0.45593999997E+02  0.45594000000E+02  0.51100000000E-03 0. -1.
    9900012    2    1    2    0    0 -0.13576751813E+02  0.18379085697E+02 -0.38820025638E+02  0.46142319059E+02  0.10000011839E+02 0.  0.
        -12    1    1    2    0    0  0.13576751813E+02 -0.18379085697E+02  0.38820025638E+02  0.45045680941E+02  0.00000000000E+00 0.  1.
         11    1    3    3    0    0 -0.28447154820E+00  0.42208538636E+01 -0.91938543798E+01  0.10120449102E+02  0.51100000000E-03 0. -1.
        -11    1    3    3    0    0  0.15746346242E-01  0.26330996720E+01 -0.60478708088E+01  0.65962264524E+01  0.51100000000E-03 0.  1.
         12    1    3    3    0    0 -0.13308026611E+02  0.11525132161E+02 -0.23578300450E+02  0.29425643506E+02  0.00000000000E+00 0. -1.
</event>
<event>
 7    1  0.4047706E-008  0.4614232E+02  0.7816164E-02  0.1320468E+00
        -11   -1    0    0    0    0  0.00000000000E+00  0.00000000000E+00  0.45593999997E+02  0.45594000000E+02  0.51100000000E-03 0.  1.
         11   -1    0    0    0    0 -0.00000000000E+00 -0.00000000000E+00 -0.45593999997E+02  0.45594000000E+02  0.51100000000E-03 0. -1.
    9900012    2    1    2    0    0  0.15537250899E+02 -0.16423878836E+02 -0.38961051316E+02  0.46142317841E+02  0.10000000727E+02 0.  0.
        -12    1    1    2    0    0 -0.15537250899E+02  0.16423878836E+02  0.38961051316E+02  0.45045682159E+02  0.00000000000E+00 0.  1.
         11    1    3    3    0    0  0.69998178569E+01 -0.85669054963E+01 -0.18373076851E+02  0.21446661117E+02  0.51100000000E-03 0. -1.
        -11    1    3    3    0    0  0.46881665140E+01 -0.20589704797E+01 -0.33845529887E+01  0.61378712835E+01  0.51100000000E-03 0.  1.
         12    1    3    3    0    0  0.38492665281E+01 -0.57980028599E+01 -0.17203421476E+02  0.18557785441E+02  0.00000000000E+00 0. -1.
</event>
<event>
 7    1  0.4047706E-008  0.4614232E+02  0.7816164E-02  0.1320468E+00
        -11   -1    0    0    0    0  0.00000000000E+00  0.00000000000E+00  0.45593999997E+02  0.45594000000E+02  0.51100000000E-03 0.  1.
         11   -1    0    0    0    0 -0.00000000000E+00 -0.00000000000E+00 -0.45593999997E+02  0.45594000000E+02  0.51100000000E-03 0. -1.
    9900012    2    1    2    0    0  0.11097660987E+02  0.82322006588E+01 -0.42874074447E+02  0.46142318001E+02  0.10000002188E+02 0.  0.
        -12    1    1    2    0    0 -0.11097660987E+02 -0.82322006588E+01  0.42874074447E+02  0.45045681999E+02  0.00000000000E+00 0.  1.
         11    1    3    3    0    0  0.95732436426E-02 -0.14882581874E+01 -0.20350438093E+01  0.25211917115E+01  0.51100000000E-03 0.  1.
        -11    1    3    3    0    0  0.14249654770E+01  0.21275161993E+01 -0.12045099021E+02  0.12314270684E+02  0.51100000000E-03 0. -1.
         12    1    3    3    0    0  0.96631222663E+01  0.75929426469E+01 -0.28793931616E+02  0.31306855605E+02  0.00000000000E+00 0. -1.
</event>
<event>
 7    1  0.4047706E-008  0.4614232E+02  0.7816164E-02  0.1320468E+00
        -11   -1    0    0    0    0  0.00000000000E+00  0.00000000000E+00  0.45593999997E+02  0.45594000000E+02  0.51100000000E-03 0.  1.
         11   -1    0    0    0    0 -0.00000000000E+00 -0.00000000000E+00 -0.45593999997E+02  0.45594000000E+02  0.51100000000E-03 0. -1.
    9900012    2    1    2    0    0 -0.22159011924E+02  0.25858235239E+02 -0.29486326388E+02  0.46142316711E+02  0.99999904221E+01 0.  0.
        -12    1    1    2    0    0  0.22159011924E+02 -0.25858235239E+02  0.29486326388E+02  0.45045683289E+02  0.00000000000E+00 0.  1.
         11    1    3    3    0    0 -0.69065765535E+01  0.58728514950E+01 -0.90526372805E+01  0.12811769057E+02  0.51100000000E-03 0. -1.
        -11    1    3    3    0    0 -0.11272908052E+02  0.95846691554E+01 -0.14479430299E+02  0.20702614347E+02  0.51100000000E-03 0.  1.
         12    1    3    3    0    0 -0.39795273178E+01  0.10400714589E+02 -0.59542588089E+01  0.12627933307E+02  0.00000000000E+00 0. -1.
</event>
<event>
 7    1  0.4047706E-008  0.4614232E+02  0.7816164E-02  0.1320468E+00
        -11   -1    0    0    0    0  0.00000000000E+00  0.00000000000E+00  0.45593999997E+02  0.45594000000E+02  0.51100000000E-03 0.  1.
         11   -1    0    0    0    0 -0.00000000000E+00 -0.00000000000E+00 -0.45593999997E+02  0.45594000000E+02  0.51100000000E-03 0. -1.
    9900012    2    1    2    0    0  0.20619076908E+02  0.39005714110E+02  0.90841314622E+01  0.46142317518E+02  0.99999977872E+01 0.  0.
        -12    1    1    2    0    0 -0.20619076908E+02 -0.39005714110E+02 -0.90841314622E+01  0.45045682482E+02  0.00000000000E+00 0.  1.
         11    1    3    3    0    0  0.13832647820E+02  0.26970399058E+02  0.84636491705E+01  0.31470270551E+02  0.51100000000E-03 0. -1.
        -11    1    3    3    0    0  0.59885505364E+01  0.56977150596E+01  0.15440409361E+00  0.82674382558E+01  0.51100000000E-03 0.  1.
         12    1    3    3    0    0  0.79787855166E+00  0.63375999931E+01  0.46607819811E+00  0.64046087112E+01  0.00000000000E+00 0. -1.
</event>
<event>
 7    1  0.4047706E-008  0.4614232E+02  0.7816164E-02  0.1320468E+00
        -11   -1    0    0    0    0  0.00000000000E+00  0.00000000000E+00  0.45593999997E+02  0.45594000000E+02  0.51100000000E-03 0.  1.
         11   -1    0    0    0    0 -0.00000000000E+00 -0.00000000000E+00 -0.45593999997E+02  0.45594000000E+02  0.51100000000E-03 0. -1.
    9900012    2    1    2    0    0 -0.16521114144E+02 -0.37449209677E+02 -0.18807525787E+02  0.46142317141E+02  0.99999943476E+01 0.  0.
        -12    1    1    2    0    0  0.16521114144E+02  0.37449209677E+02  0.18807525787E+02  0.45045682859E+02  0.00000000000E+00 0.  1.
         11    1    3    3    0    0 -0.44187616762E+01 -0.56112566036E+01 -0.29124407486E+01  0.77132332260E+01  0.51100000000E-03 0. -1.
        -11    1    3    3    0    0 -0.61757980696E+01 -0.69177315715E+01 -0.29681942428E+01  0.97368202826E+01  0.51100000000E-03 0.  1.
        -12    1    3    3    0    0 -0.59265543987E+01 -0.24920221502E+02 -0.12926890795E+02  0.28692263633E+02  0.00000000000E+00 0.  1.
</event>
<event>
 7    1  0.4047706E-008  0.4614232E+02  0.7816164E-02  0.1320468E+00
        -11   -1    0    0    0    0  0.00000000000E+00  0.00000000000E+00  0.45593999997E+02  0.45594000000E+02  0.51100000000E-03 0.  1.
         11   -1    0    0    0    0 -0.00000000000E+00 -0.00000000000E+00 -0.45593999997E+02  0.45594000000E+02  0.51100000000E-03 0. -1.
    9900012    2    1    2    0    0  0.35724492368E+02  0.22795111586E+02 -0.15272760621E+02  0.46142315588E+02  0.99999801794E+01 0.  0.
        -12    1    1    2    0    0 -0.35724492368E+02 -0.22795111586E+02  0.15272760621E+02  0.45045684412E+02  0.00000000000E+00 0.  1.
         11    1    3    3    0    0  0.22854828627E+02  0.13951726808E+02 -0.12707026082E+02  0.29638866115E+02  0.51100000000E-03 0. -1.
        -11    1    3    3    0    0  0.60085532279E+01  0.29773028699E+01 -0.32476366261E+01  0.74507844009E+01  0.51100000000E-03 0.  1.
        -12    1    3    3    0    0  0.68611105137E+01  0.58660819088E+01  0.68190208747E+00  0.90526650716E+01  0.00000000000E+00 0.  1.
</event>
<event>
 7    1  0.4047706E-008  0.4614232E+02  0.7816164E-02  0.1320468E+00
        -11   -1    0    0    0    0  0.00000000000E+00  0.00000000000E+00  0.45593999997E+02  0.45594000000E+02  0.51100000000E-03 0. -1.
         11   -1    0    0    0    0 -0.00000000000E+00 -0.00000000000E+00 -0.45593999997E+02  0.45594000000E+02  0.51100000000E-03 0.  1.
    9900012    2    1    2    0    0  0.34089000974E+02  0.26069898098E+02  0.13689920443E+02  0.46142317676E+02  0.99999992252E+01 0.  0.
        -12    1    1    2    0    0 -0.34089000974E+02 -0.26069898098E+02 -0.13689920443E+02  0.45045682324E+02  0.00000000000E+00 0.  1.
         11    1    3    3    0    0  0.19319815657E+02  0.10583545455E+02  0.85479759779E+01  0.23629105040E+02  0.51100000000E-03 0. -1.
        -11    1    3    3    0    0  0.64592974909E+00  0.21916813783E+01  0.16172166176E+01  0.27993003330E+01  0.51100000000E-03 0.  1.
        -12    1    3    3    0    0  0.14123255568E+02  0.13294671265E+02  0.35247278480E+01  0.19713912303E+02  0.00000000000E+00 0.  1.
</event>
<event>
 7    1  0.4047706E-008  0.4614232E+02  0.7816164E-02  0.1320468E+00
        -11   -1    0    0    0    0  0.00000000000E+00  0.00000000000E+00  0.45593999997E+02  0.45594000000E+02  0.51100000000E-03 0.  1.
         11   -1    0    0    0    0 -0.00000000000E+00 -0.00000000000E+00 -0.45593999997E+02  0.45594000000E+02  0.51100000000E-03 0. -1.
    9900012    2    1    2    0    0 -0.20079133817E+02  0.32470843760E+02 -0.23907870057E+02  0.46142316966E+02  0.99999927532E+01 0.  0.
        -12    1    1    2    0    0  0.20079133817E+02 -0.32470843760E+02  0.23907870057E+02  0.45045683034E+02  0.00000000000E+00 0.  1.
         11    1    3    3    0    0 -0.34023205075E+01  0.35646632835E+01 -0.70343934913E+00  0.49776938776E+01  0.51100000000E-03 0. -1.
        -11    1    3    3    0    0 -0.34721703837E+01  0.12233786614E+02 -0.92991710695E+01  0.15754240221E+02  0.51100000000E-03 0.  1.
         12    1    3    3    0    0 -0.13204642926E+02  0.16672393862E+02 -0.13905259638E+02  0.25410382868E+02  0.00000000000E+00 0. -1.
</event>
<event>
 7    1  0.4047706E-008  0.4614232E+02  0.7816164E-02  0.1320468E+00
        -11   -1    0    0    0    0  0.00000000000E+00  0.00000000000E+00  0.45593999997E+02  0.45594000000E+02  0.51100000000E-03 0.  1.
         11   -1    0    0    0    0 -0.00000000000E+00 -0.00000000000E+00 -0.45593999997E+02  0.45594000000E+02  0.51100000000E-03 0. -1.
    9900012    2    1    2    0    0 -0.33795979258E+02  0.27758312357E+02  0.10789883162E+02  0.46142315439E+02  0.99999788260E+01 0.  0.
        -12    1    1    2    0    0  0.33795979258E+02 -0.27758312357E+02 -0.10789883162E+02  0.45045684561E+02  0.00000000000E+00 0.  1.
         11    1    3    3    0    0 -0.15592715557E+02  0.14554290937E+02  0.68301700155E+01  0.22396682474E+02  0.51100000000E-03 0. -1.
        -11    1    3    3    0    0 -0.65689776745E+01  0.50923568726E+01  0.46906259625E+01  0.95438743908E+01  0.51100000000E-03 0.  1.
         12    1    3    3    0    0 -0.11634286026E+02  0.81116645475E+01 -0.73091281573E+00  0.14201758575E+02  0.00000000000E+00 0. -1.
</event>
<event>
 7    1  0.4047706E-008  0.4614232E+02  0.7816164E-02  0.1320468E+00
        -11   -1    0    0    0    0  0.00000000000E+00  0.00000000000E+00  0.45593999997E+02  0.45594000000E+02  0.51100000000E-03 0.  1.
         11   -1    0    0    0    0 -0.00000000000E+00 -0.00000000000E+00 -0.45593999997E+02  0.45594000000E+02  0.51100000000E-03 0. -1.
    9900012    2    1    2    0    0 -0.44326975662E+02 -0.72910947697E+01 -0.33275582436E+01  0.46142317874E+02  0.10000001031E+02 0.  0.
        -12    1    1    2    0    0  0.44326975662E+02  0.72910947697E+01  0.33275582436E+01  0.45045682126E+02  0.00000000000E+00 0.  1.
         11    1    3    3    0    0 -0.15851231442E+02 -0.36212084584E+01 -0.21089336014E+01  0.16395800991E+02  0.51100000000E-03 0. -1.
        -11    1    3    3    0    0 -0.27746340626E+02 -0.50092135767E+01 -0.12239716598E+01  0.28221441240E+02  0.51100000000E-03 0.  1.
        -12    1    3    3    0    0 -0.72940359467E+00  0.13393272654E+01  0.53470176876E-02  0.15250756435E+01  0.00000000000E+00 0.  1.
</event>
<event>
 7    1  0.4047706E-008  0.4614232E+02  0.7816164E-02  0.1320468E+00
        -11   -1    0    0    0    0  0.00000000000E+00  0.00000000000E+00  0.45593999997E+02  0.45594000000E+02  0.51100000000E-03 0. -1.
         11   -1    0    0    0    0 -0.00000000000E+00 -0.00000000000E+00 -0.45593999997E+02  0.45594000000E+02  0.51100000000E-03 0.  1.
    9900012    2    1    2    0    0  0.22769517993E+01  0.39627762666E+02  0.21297168005E+02  0.46142318204E+02  0.10000004043E+02 0.  0.
        -12    1    1    2    0    0 -0.22769517993E+01 -0.39627762666E+02 -0.21297168005E+02  0.45045681796E+02  0.00000000000E+00 0.  1.
         11    1    3    3    0    0  0.17137614515E+01  0.26163529199E+01  0.28453959831E+01  0.42283045628E+01  0.51100000000E-03 0. -1.
        -11    1    3    3    0    0 -0.22286353581E+01  0.64184717484E+01  0.46675255195E+01  0.82431419908E+01  0.51100000000E-03 0.  1.
         12    1    3    3    0    0  0.27918257058E+01  0.30592937997E+02  0.13784246503E+02  0.33670871651E+02  0.00000000000E+00 0. -1.
</event>
<event>
 7    1  0.4047706E-008  0.4614232E+02  0.7816164E-02  0.1320468E+00
        -11   -1    0    0    0    0  0.00000000000E+00  0.00000000000E+00  0.45593999997E+02  0.45594000000E+02  0.51100000000E-03 0.  1.
         11   -1    0    0    0    0 -0.00000000000E+00 -0.00000000000E+00 -0.45593999997E+02  0.45594000000E+02  0.51100000000E-03 0. -1.
    9900012    2    1    2    0    0 -0.26112920692E+02 -0.12839203401E+02 -0.34385806900E+02  0.46142317774E+02  0.10000000119E+02 0.  0.
        -12    1    1    2    0    0  0.26112920692E+02  0.12839203401E+02  0.34385806900E+02  0.45045682226E+02  0.00000000000E+00 0.  1.
         11    1    3    3    0    0 -0.29513774394E+01 -0.17199604531E+01 -0.16036411143E+01  0.37736663651E+01  0.51100000000E-03 0. -1.
        -11    1    3    3    0    0 -0.79045149130E+01 -0.37881393468E-02 -0.84173892569E+01  0.11547026133E+02  0.51100000000E-03 0.  1.
         12    1    3    3    0    0 -0.15257028340E+02 -0.11115454809E+02 -0.24364776528E+02  0.30821625276E+02  0.00000000000E+00 0. -1.
</event>
