<event>
 8    1  0.2031623E-013  0.9118800E+02  0.7816164E-02  0.1184000E+00
        -11   -1    0    0    0    0  0.00000000000E+00  0.00000000000E+00  0.45593999997E+02  0.45594000000E+02  0.51100000000E-03 0. -1.
         11   -1    0    0    0    0 -0.00000000000E+00 -0.00000000000E+00 -0.45593999997E+02  0.45594000000E+02  0.51100000000E-03 0.  1.
         23    2    1    2    0    0 -0.35527136788E-14 -0.35527136788E-14 -0.35527136788E-14  0.91188000000E+02  0.91188000000E+02 0.  0.
    9900012    2    3    3    0    0 -0.25201371796E+02  0.88293146423E+01  0.30661037279E+02  0.50528866408E+02  0.30000019934E+02 0.  0.
        -12    1    3    3    0    0  0.25201371796E+02 -0.88293146423E+01 -0.30661037279E+02  0.40659133592E+02  0.00000000000E+00 0.  1.
         11    1    4    4    0    0 -0.13599816646E+02  0.54995081155E+01  0.13882021660E+02  0.20196785089E+02  0.51100000000E-03 0. -1.
        -11    1    4    4    0    0 -0.28893016617E+01 -0.93818417759E+01  0.56910938991E+01  0.11347051125E+02  0.51100000000E-03 0.  1.
        -12    1    4    4    0    0 -0.87122534878E+01  0.12711648303E+02  0.11087921720E+02  0.18985030194E+02  0.00000000000E+00 0.  1.
</event>
<event>
 8    1  0.2031623E-013  0.9118800E+02  0.7816164E-02  0.1184000E+00
        -11   -1    0    0    0    0  0.00000000000E+00  0.00000000000E+00  0.45593999997E+02  0.45594000000E+02  0.51100000000E-03 0. -1.
         11   -1    0    0    0    0 -0.00000000000E+00 -0.00000000000E+00 -0.45593999997E+02  0.45594000000E+02  0.51100000000E-03 0.  1.
         23    2    1    2    0    0 -0.35527136788E-14  0.00000000000E+00 -0.35527136788E-14  0.91188000000E+02  0.91188000000E+02 0.  0.
    9900012    2    3    3    0    0 -0.19865728882E+02 -0.18736651287E+02 -0.30124018858E+02  0.50528858375E+02  0.29999995518E+02 0.  0.
         12    1    3    3    0    0  0.19865728882E+02  0.18736651287E+02  0.30124018858E+02  0.40659141625E+02  0.00000000000E+00 0. -1.
         11    1    4    4    0    0 -0.12174088824E+01  0.43381387854E+01  0.13999159748E+01  0.47181879473E+01  0.51100000000E-03 0. -1.
        -11    1    4    4    0    0 -0.10629201119E+02 -0.13380936028E+02 -0.27901280231E+02  0.32718661406E+02  0.51100000000E-03 0.  1.
        -12    1    4    4    0    0 -0.80191188816E+01 -0.96938540448E+01 -0.36226546017E+01  0.13092009022E+02  0.00000000000E+00 0.  1.
</event>
<event>
 8    1  0.2031623E-013  0.9118800E+02  0.7816164E-02  0.1184000E+00
        -11   -1    0    0    0    0  0.00000000000E+00  0.00000000000E+00  0.45593999997E+02  0.45594000000E+02  0.51100000000E-03 0. -1.
         11   -1    0    0    0    0 -0.00000000000E+00 -0.00000000000E+00 -0.45593999997E+02  0.45594000000E+02  0.51100000000E-03 0.  1.
         23    2    1    2    0    0  0.66613381478E-15  0.00000000000E+00  0.00000000000E+00  0.91188000000E+02  0.91188000000E+02 0.  0.
    9900012    2    3    3    0    0 -0.13058872804E+01 -0.30843632420E+02  0.26459993769E+02  0.50528852534E+02  0.29999977761E+02 0.  0.
        -12    1    3    3    0    0  0.13058872804E+01  0.30843632420E+02 -0.26459993769E+02  0.40659147466E+02  0.00000000000E+00 0.  1.
         11    1    4    4    0    0  0.75204366985E+01 -0.45807208802E+01 -0.81575963878E+00  0.88433837397E+01  0.51100000000E-03 0. -1.
        -11    1    4    4    0    0 -0.88829401582E+01 -0.25833408921E+02  0.29039475218E+02  0.39869321082E+02  0.51100000000E-03 0.  1.
         12    1    4    4    0    0  0.56616179370E-01 -0.42950261870E+00 -0.17637218096E+01  0.18161477123E+01  0.00000000000E+00 0. -1.
</event>
<event>
 8    1  0.2031623E-013  0.9118800E+02  0.7816164E-02  0.1184000E+00
        -11   -1    0    0    0    0  0.00000000000E+00  0.00000000000E+00  0.45593999997E+02  0.45594000000E+02  0.51100000000E-03 0. -1.
         11   -1    0    0    0    0 -0.00000000000E+00 -0.00000000000E+00 -0.45593999997E+02  0.45594000000E+02  0.51100000000E-03 0.  1.
         23    2    1    2    0    0  0.00000000000E+00  0.00000000000E+00  0.88817841970E-15  0.91188000000E+02  0.91188000000E+02 0.  0.
    9900012    2    3    3    0    0  0.34851790473E+02  0.19389297900E+02  0.79103129848E+01  0.50528865432E+02  0.30000016968E+02 0.  0.
        -12    1    3    3    0    0 -0.34851790473E+02 -0.19389297900E+02 -0.79103129848E+01  0.40659134568E+02  0.00000000000E+00 0.  1.
         11    1    4    4    0    0  0.33449624369E+02  0.22497841503E+02  0.13414036589E+02  0.42484898736E+02  0.51100000000E-03 0. -1.
        -11    1    4    4    0    0 -0.74372366350E+00  0.99105247377E+00 -0.11753969181E+01  0.17078840914E+01  0.51100000000E-03 0.  1.
         12    1    4    4    0    0  0.21458897680E+01 -0.40995960762E+01 -0.43283266857E+01  0.63360826054E+01  0.00000000000E+00 0. -1.
</event>
<event>
 8    1  0.2031623E-013  0.9118800E+02  0.7816164E-02  0.1184000E+00
        -11   -1    0    0    0    0  0.00000000000E+00  0.00000000000E+00  0.45593999997E+02  0.45594000000E+02  0.51100000000E-03 0. -1.
         11   -1    0    0    0    0 -0.00000000000E+00 -0.00000000000E+00 -0.45593999997E+02  0.45594000000E+02  0.51100000000E-03 0.  1.
         23    2    1    2    0    0  0.00000000000E+00  0.00000000000E+00  0.00000000000E+00  0.91188000000E+02  0.91188000000E+02 0.  0.
    9900012    2    3    3    0    0 -0.64023521199E+01 -0.36523613967E+02  0.16679392018E+02  0.50528848411E+02  0.29999965230E+02 0.  0.
        -12    1    3    3    0    0  0.64023521199E+01  0.36523613967E+02 -0.16679392018E+02  0.40659151589E+02  0.00000000000E+00 0.  1.
         11    1    4    4    0    0  0.40384595161E+00  0.22686128692E+01  0.48469342786E+00  0.23547025041E+01  0.51100000000E-03 0. -1.
        -11    1    4    4    0    0 -0.54886103777E+01 -0.41033244112E+02  0.17859905875E+02  0.45086896149E+02  0.51100000000E-03 0.  1.
        -12    1    4    4    0    0 -0.13175876938E+01  0.22410172762E+01 -0.16652072851E+01  0.30872497575E+01  0.00000000000E+00 0.  1.
</event>
<event>
 8    1  0.3368033E-013  0.9118800E+02  0.7816164E-02  0.1184000E+00
        -11   -1    0    0    0    0  0.00000000000E+00  0.00000000000E+00  0.45593999997E+02  0.45594000000E+02  0.51100000000E-03 0. -1.
         11   -1    0    0    0    0 -0.00000000000E+00 -0.00000000000E+00 -0.45593999997E+02  0.45594000000E+02  0.51100000000E-03 0.  1.
         23    2    1    2    0    0  0.13322676296E-14  0.00000000000E+00  0.71054273576E-14  0.91188000000E+02  0.91188000000E+02 0.  0.
    9900012    2    3    3    0    0  0.22905582364E+01  0.18984047409E+02 -0.35882099890E+02  0.50528858278E+02  0.29999995222E+02 0.  0.
         12    1    3    3    0    0 -0.22905582364E+01 -0.18984047409E+02  0.35882099890E+02  0.40659141722E+02  0.00000000000E+00 0. -1.
         11    1    4    4    0    0 -0.94440320191E+01  0.81119928155E+01 -0.21690838261E+01  0.12637210654E+02  0.51100000000E-03 0. -1.
        -11    1    4    4    0    0  0.17089715838E+01  0.55737632929E+01 -0.13710230924E+02  0.14898250011E+02  0.51100000000E-03 0.  1.
         12    1    4    4    0    0  0.10025618672E+02  0.52982913002E+01 -0.20002785140E+02  0.22993397613E+02  0.00000000000E+00 0. -1.
</event>
<event>
 8    1  0.2031623E-013  0.9118800E+02  0.7816164E-02  0.1184000E+00
        -11   -1    0    0    0    0  0.00000000000E+00  0.00000000000E+00  0.45593999997E+02  0.45594000000E+02  0.51100000000E-03 0. -1.
         11   -1    0    0    0    0 -0.00000000000E+00 -0.00000000000E+00 -0.45593999997E+02  0.45594000000E+02  0.51100000000E-03 0.  1.
         23    2    1    2    0    0  0.00000000000E+00  0.00000000000E+00  0.00000000000E+00  0.91188000000E+02  0.91188000000E+02 0.  0.
    9900012    2    3    3    0    0  0.39344307202E+02 -0.91403393275E+01  0.46524777267E+01  0.50528857593E+02  0.29999993141E+02 0.  0.
        -12    1    3    3    0    0 -0.39344307202E+02  0.91403393275E+01 -0.46524777267E+01  0.40659142407E+02  0.00000000000E+00 0.  1.
         11    1    4    4    0    0  0.18199187369E+02 -0.93978748409E+01  0.22079648411E+01  0.20601106315E+02  0.51100000000E-03 0. -1.
        -11    1    4    4    0    0  0.18005966811E+02  0.92816245958E+01  0.21154714877E+01  0.20367587383E+02  0.51100000000E-03 0.  1.
        -12    1    4    4    0    0  0.31391530228E+01 -0.90240890824E+01  0.32904139795E+00  0.95601638955E+01  0.00000000000E+00 0.  1.
</event>
<event>
 8    1  0.2031623E-013  0.9118800E+02  0.7816164E-02  0.1184000E+00
        -11   -1    0    0    0    0  0.00000000000E+00  0.00000000000E+00  0.45593999997E+02  0.45594000000E+02  0.51100000000E-03 0. -1.
         11   -1    0    0    0    0 -0.00000000000E+00 -0.00000000000E+00 -0.45593999997E+02  0.45594000000E+02  0.51100000000E-03 0.  1.
         23    2    1    2    0    0  0.35527136788E-14  0.00000000000E+00  0.00000000000E+00  0.91188000000E+02  0.91188000000E+02 0.  0.
    9900012    2    3    3    0    0 -0.29851203819E+02 -0.21401367388E+02  0.17437117799E+02  0.50528856223E+02  0.29999988976E+02 0.  0.
        -12    1    3    3    0    0  0.29851203819E+02  0.21401367388E+02 -0.17437117799E+02  0.40659143777E+02  0.00000000000E+00 0.  1.
         11    1    4    4    0    0 -0.26869742854E+02 -0.17690285905E+02  0.17151880616E+02  0.36457047404E+02  0.51100000000E-03 0. -1.
        -11    1    4    4    0    0 -0.27810512352E+01 -0.46809233514E+01 -0.57716115247E+01  0.79345314448E+01  0.51100000000E-03 0.  1.
         12    1    4    4    0    0 -0.20040972942E+00  0.96984186784E+00  0.60568487074E+01  0.61372773746E+01  0.00000000000E+00 0. -1.
</event>
<event>
 8    1  0.2031623E-013  0.9118800E+02  0.7816164E-02  0.1184000E+00
        -11   -1    0    0    0    0  0.00000000000E+00  0.00000000000E+00  0.45593999997E+02  0.45594000000E+02  0.51100000000E-03 0. -1.
         11   -1    0    0    0    0 -0.00000000000E+00 -0.00000000000E+00 -0.45593999997E+02  0.45594000000E+02  0.51100000000E-03 0.  1.
         23    2    1    2    0    0  0.00000000000E+00  0.00000000000E+00  0.00000000000E+00  0.91188000000E+02  0.91188000000E+02 0.  0.
    9900012    2    3    3    0    0 -0.20171312737E+02 -0.26626530898E+02 -0.23180024562E+02  0.50528836901E+02  0.29999930245E+02 0.  0.
         12    1    3    3    0    0  0.20171312737E+02  0.26626530898E+02  0.23180024562E+02  0.40659163099E+02  0.00000000000E+00 0. -1.
         11    1    4    4    0    0 -0.75920515468E+01 -0.59589893984E+00  0.10192731642E+00  0.76160837492E+01  0.51100000000E-03 0. -1.
        -11    1    4    4    0    0 -0.67156324326E+01 -0.25711677255E+02 -0.25311506752E+02  0.36699624529E+02  0.51100000000E-03 0.  1.
        -12    1    4    4    0    0 -0.58636287575E+01 -0.31895470346E+00  0.20295548737E+01  0.62131286237E+01  0.00000000000E+00 0.  1.
</event>
<event>
 8    1  0.2031623E-013  0.9118800E+02  0.7816164E-02  0.1184000E+00
        -11   -1    0    0    0    0  0.00000000000E+00  0.00000000000E+00  0.45593999997E+02  0.45594000000E+02  0.51100000000E-03 0. -1.
         11   -1    0    0    0    0 -0.00000000000E+00 -0.00000000000E+00 -0.45593999997E+02  0.45594000000E+02  0.51100000000E-03 0.  1.
         23    2    1    2    0    0  0.00000000000E+00  0.00000000000E+00  0.35527136788E-14  0.91188000000E+02  0.91188000000E+02 0.  0.
    9900012    2    3    3    0    0 -0.19646408034E+02 -0.21679330702E+02 -0.28234575446E+02  0.50528856146E+02  0.29999988741E+02 0.  0.
         12    1    3    3    0    0  0.19646408034E+02  0.21679330702E+02  0.28234575446E+02  0.40659143854E+02  0.00000000000E+00 0. -1.
         11    1    4    4    0    0 -0.11767232904E+02 -0.77085733970E+01 -0.68274843299E+01  0.15636636997E+02  0.51100000000E-03 0. -1.
        -11    1    4    4    0    0  0.70583701604E+01 -0.62561922630E+01 -0.13093541671E+02  0.16136956489E+02  0.51100000000E-03 0.  1.
        -12    1    4    4    0    0 -0.14937545290E+02 -0.77145650424E+01 -0.83135494451E+01  0.18755262660E+02  0.00000000000E+00 0.  1.
</event>
<event>
 8    1  0.2031623E-013  0.9118800E+02  0.7816164E-02  0.1184000E+00
        -11   -1    0    0    0    0  0.00000000000E+00  0.00000000000E+00  0.45593999997E+02  0.45594000000E+02  0.51100000000E-03 0. -1.
         11   -1    0    0    0    0 -0.00000000000E+00 -0.00000000000E+00 -0.45593999997E+02  0.45594000000E+02  0.51100000000E-03 0.  1.
         23    2    1    2    0    0  0.35527136788E-14  0.00000000000E+00  0.00000000000E+00  0.91188000000E+02  0.91188000000E+02 0.  0.
    9900012    2    3    3    0    0 -0.19643113123E+02 -0.96152301895E+01  0.34276244820E+02  0.50528861990E+02  0.30000006505E+02 0.  0.
        -12    1    3    3    0    0  0.19643113123E+02  0.96152301895E+01 -0.34276244820E+02  0.40659138010E+02  0.00000000000E+00 0.  1.
         11    1    4    4    0    0  0.25062147609E+01 -0.27602625687E+01 -0.40840043702E+01  0.55298511583E+01  0.51100000000E-03 0.  1.
        -11    1    4    4    0    0 -0.83340918481E+01 -0.44528394080E+01  0.13980123114E+02  0.16873906136E+02  0.51100000000E-03 0. -1.
        -12    1    4    4    0    0 -0.13815236036E+02 -0.24021282129E+01  0.24380126076E+02  0.28125104696E+02  0.00000000000E+00 0.  1.
</event>
<event>
 8    1  0.2031623E-013  0.9118800E+02  0.7816164E-02  0.1184000E+00
        -11   -1    0    0    0    0  0.00000000000E+00  0.00000000000E+00  0.45593999997E+02  0.45594000000E+02  0.51100000000E-03 0. -1.
         11   -1    0    0    0    0 -0.00000000000E+00 -0.00000000000E+00 -0.45593999997E+02  0.45594000000E+02  0.51100000000E-03 0.  1.
         23    2    1    2    0    0  0.00000000000E+00 -0.17763568394E-14  0.00000000000E+00  0.91188000000E+02  0.91188000000E+02 0.  0.
    9900012    2    3    3    0    0 -0.32246754587E+02  0.14904050302E+02  0.19778286430E+02  0.50528874199E+02  0.30000043615E+02 0.  0.
        -12    1    3    3    0    0  0.32246754587E+02 -0.14904050302E+02 -0.19778286430E+02  0.40659125801E+02  0.00000000000E+00 0.  1.
         11    1    4    4    0    0 -0.23393092202E+02 -0.94925703326E+00  0.11161012489E+02  0.25936577487E+02  0.51100000000E-03 0. -1.
        -11    1    4    4    0    0 -0.24406980860E+01  0.10441338111E+02 -0.21551474815E+01  0.10937239580E+02  0.51100000000E-03 0.  1.
        -12    1    4    4    0    0 -0.64129642990E+01  0.54119692236E+01  0.10772421423E+02  0.13655057132E+02  0.00000000000E+00 0.  1.
</event>
<event>
 8    1  0.2031623E-013  0.9118800E+02  0.7816164E-02  0.1184000E+00
        -11   -1    0    0    0    0  0.00000000000E+00  0.00000000000E+00  0.45593999997E+02  0.45594000000E+02  0.51100000000E-03 0.  1.
         11   -1    0    0    0    0 -0.00000000000E+00 -0.00000000000E+00 -0.45593999997E+02  0.45594000000E+02  0.51100000000E-03 0. -1.
         23    2    1    2    0    0  0.00000000000E+00  0.00000000000E+00 -0.88817841970E-15  0.91188000000E+02  0.91188000000E+02 0.  0.
    9900012    2    3    3    0    0 -0.30614988251E+02 -0.26362645403E+02 -0.45716322280E+01  0.50528850974E+02  0.29999973022E+02 0.  0.
        -12    1    3    3    0    0  0.30614988251E+02  0.26362645403E+02  0.45716322280E+01  0.40659149026E+02  0.00000000000E+00 0.  1.
         11    1    4    4    0    0 -0.16735222315E+01 -0.19652326787E+02 -0.28234193931E+01  0.19924515606E+02  0.51100000000E-03 0.  1.
        -11    1    4    4    0    0 -0.21000022951E+02 -0.39114563891E+01  0.18632626932E+01  0.21442299391E+02  0.51100000000E-03 0. -1.
        -12    1    4    4    0    0 -0.79414430681E+01 -0.27988622273E+01 -0.36114755280E+01  0.91620359779E+01  0.00000000000E+00 0.  1.
</event>
<event>
 8    1  0.2031623E-013  0.9118800E+02  0.7816164E-02  0.1184000E+00
        -11   -1    0    0    0    0  0.00000000000E+00  0.00000000000E+00  0.45593999997E+02  0.45594000000E+02  0.51100000000E-03 0.  1.
         11   -1    0    0    0    0 -0.00000000000E+00 -0.00000000000E+00 -0.45593999997E+02  0.45594000000E+02  0.51100000000E-03 0. -1.
         23    2    1    2    0    0 -0.35527136788E-14 -0.71054273576E-14  0.88817841970E-15  0.91188000000E+02  0.91188000000E+02 0.  0.
    9900012    2    3    3    0    0 -0.29044206045E+02 -0.28033596218E+02  0.48700306454E+01  0.50528860558E+02  0.30000002153E+02 0.  0.
        -12    1    3    3    0    0  0.29044206045E+02  0.28033596218E+02 -0.48700306454E+01  0.40659139442E+02  0.00000000000E+00 0.  1.
         11    1    4    4    0    0 -0.18403156860E+02 -0.22627055986E+02  0.12376082432E+02  0.31683233131E+02  0.51100000000E-03 0.  1.
        -11    1    4    4    0    0 -0.11253769501E+02 -0.77229476693E+01 -0.86823825709E+01  0.16176372153E+02  0.51100000000E-03 0. -1.
        -12    1    4    4    0    0  0.61272031634E+00  0.23164074377E+01  0.11763307839E+01  0.26692552737E+01  0.00000000000E+00 0.  1.
</event>
<event>
 8    1  0.2031623E-013  0.9118800E+02  0.7816164E-02  0.1184000E+00
        -11   -1    0    0    0    0  0.00000000000E+00  0.00000000000E+00  0.45593999997E+02  0.45594000000E+02  0.51100000000E-03 0. -1.
         11   -1    0    0    0    0 -0.00000000000E+00 -0.00000000000E+00 -0.45593999997E+02  0.45594000000E+02  0.51100000000E-03 0.  1.
         23    2    1    2    0    0  0.00000000000E+00  0.00000000000E+00  0.00000000000E+00  0.91188000000E+02  0.91188000000E+02 0.  0.
    9900012    2    3    3    0    0  0.35567779268E+02  0.11478227630E+02 -0.16010787806E+02  0.50528905596E+02  0.30000139049E+02 0.  0.
         12    1    3    3    0    0 -0.35567779268E+02 -0.11478227630E+02  0.16010787806E+02  0.40659094404E+02  0.00000000000E+00 0. -1.
         11    1    4    4    0    0  0.15153855154E+02  0.90156446916E+01 -0.15149656286E+02  0.23247220502E+02  0.51100000000E-03 0.  1.
        -11    1    4    4    0    0  0.12067216287E+02 -0.49345493162E+01  0.58238672038E+01  0.14278827520E+02  0.51100000000E-03 0. -1.
         12    1    4    4    0    0  0.83467078271E+01  0.73971322545E+01 -0.66849987239E+01  0.13002857574E+02  0.00000000000E+00 0. -1.
</event>
<event>
 8    1  0.2031623E-013  0.9118800E+02  0.7816164E-02  0.1184000E+00
        -11   -1    0    0    0    0  0.00000000000E+00  0.00000000000E+00  0.45593999997E+02  0.45594000000E+02  0.51100000000E-03 0. -1.
         11   -1    0    0    0    0 -0.00000000000E+00 -0.00000000000E+00 -0.45593999997E+02  0.45594000000E+02  0.51100000000E-03 0.  1.
         23    2    1    2    0    0  0.71054273576E-14  0.35527136788E-14  0.00000000000E+00  0.91188000000E+02  0.91188000000E+02 0.  0.
    9900012    2    3    3    0    0  0.34099094124E+02  0.21626479474E+02  0.47657976486E+01  0.50528860047E+02  0.30000000599E+02 0.  0.
        -12    1    3    3    0    0 -0.34099094124E+02 -0.21626479474E+02 -0.47657976486E+01  0.40659139953E+02  0.00000000000E+00 0.  1.
         11    1    4    4    0    0  0.17932397137E+02  0.14731965945E+02  0.13368830423E+01  0.23246267318E+02  0.51100000000E-03 0. -1.
        -11    1    4    4    0    0  0.57959942540E+01 -0.22870687263E+01 -0.74194968612E+01  0.96888165781E+01  0.51100000000E-03 0.  1.
        -12    1    4    4    0    0  0.10370702733E+02  0.91815822548E+01  0.10848411467E+02  0.17593776151E+02  0.00000000000E+00 0.  1.
</event>
<event>
 8    1  0.2031623E-013  0.9118800E+02  0.7816164E-02  0.1184000E+00
        -11   -1    0    0    0    0  0.00000000000E+00  0.00000000000E+00  0.45593999997E+02  0.45594000000E+02  0.51100000000E-03 0. -1.
         11   -1    0    0    0    0 -0.00000000000E+00 -0.00000000000E+00 -0.45593999997E+02  0.45594000000E+02  0.51100000000E-03 0.  1.
         23    2    1    2    0    0  0.35527136788E-14  0.17763568394E-14  0.71054273576E-14  0.91188000000E+02  0.91188000000E+02 0.  0.
    9900012    2    3    3    0    0  0.17379670511E+02  0.11924568487E+02  0.34769479002E+02  0.50528868790E+02  0.30000027174E+02 0.  0.
        -12    1    3    3    0    0 -0.17379670511E+02 -0.11924568487E+02 -0.34769479002E+02  0.40659131210E+02  0.00000000000E+00 0.  1.
         11    1    4    4    0    0  0.17710895920E+02  0.41862409562E+01  0.86057275073E+01  0.20131045523E+02  0.51100000000E-03 0. -1.
        -11    1    4    4    0    0 -0.66842046086E+01  0.22318839195E+01  0.12724580153E+02  0.14545612308E+02  0.51100000000E-03 0.  1.
         12    1    4    4    0    0  0.63529791997E+01  0.55064436110E+01  0.13439171342E+02  0.15852210960E+02  0.00000000000E+00 0. -1.
</event>
<event>
 8    1  0.2031623E-013  0.9118800E+02  0.7816164E-02  0.1184000E+00
        -11   -1    0    0    0    0  0.00000000000E+00  0.00000000000E+00  0.45593999997E+02  0.45594000000E+02  0.51100000000E-03 0. -1.
         11   -1    0    0    0    0 -0.00000000000E+00 -0.00000000000E+00 -0.45593999997E+02  0.45594000000E+02  0.51100000000E-03 0.  1.
         23    2    1    2    0    0  0.00000000000E+00  0.77715611724E-15  0.00000000000E+00  0.91188000000E+02  0.91188000000E+02 0.  0.
    9900012    2    3    3    0    0 -0.16876477904E+02  0.64395187094E+00 -0.36985621613E+02  0.50528851133E+02  0.29999973503E+02 0.  0.
         12    1    3    3    0    0  0.16876477904E+02 -0.64395187094E+00  0.36985621613E+02  0.40659148867E+02  0.00000000000E+00 0. -1.
         11    1    4    4    0    0 -0.54765242873E+01 -0.72779737964E+01 -0.31513112991E+02  0.32803010708E+02  0.51100000000E-03 0. -1.
        -11    1    4    4    0    0 -0.11558376055E+02  0.30328668160E+01 -0.35020645457E+01  0.12452260618E+02  0.51100000000E-03 0.  1.
         12    1    4    4    0    0  0.15842243787E+00  0.48890588513E+01 -0.19704440766E+01  0.52735798069E+01  0.00000000000E+00 0. -1.
</event>
<event>
 8    1  0.2031623E-013  0.9118800E+02  0.7816164E-02  0.1184000E+00
        -11   -1    0    0    0    0  0.00000000000E+00  0.00000000000E+00  0.45593999997E+02  0.45594000000E+02  0.51100000000E-03 0. -1.
         11   -1    0    0    0    0 -0.00000000000E+00 -0.00000000000E+00 -0.45593999997E+02  0.45594000000E+02  0.51100000000E-03 0.  1.
         23    2    1    2    0    0  0.00000000000E+00  0.00000000000E+00  0.00000000000E+00  0.91188000000E+02  0.91188000000E+02 0.  0.
    9900012    2    3    3    0    0  0.17393117170E+02  0.36190964775E+02 -0.63921011474E+01  0.50528863102E+02  0.30000009884E+02 0.  0.
         12    1    3    3    0    0 -0.17393117170E+02 -0.36190964775E+02  0.63921011474E+01  0.40659136898E+02  0.00000000000E+00 0. -1.
         11    1    4    4    0    0  0.98611447465E+01  0.72450544606E+00  0.48050292315E+01  0.10993424854E+02  0.51100000000E-03 0. -1.
        -11    1    4    4    0    0  0.71207214780E+01  0.17026069507E+02 -0.10533114738E+01  0.18485161145E+02  0.51100000000E-03 0.  1.
         12    1    4    4    0    0  0.41125094519E+00  0.18440389822E+02 -0.10143818905E+02  0.21050277103E+02  0.00000000000E+00 0. -1.
</event>
<event>
 8    1  0.2031623E-013  0.9118800E+02  0.7816164E-02  0.1184000E+00
        -11   -1    0    0    0    0  0.00000000000E+00  0.00000000000E+00  0.45593999997E+02  0.45594000000E+02  0.51100000000E-03 0. -1.
         11   -1    0    0    0    0 -0.00000000000E+00 -0.00000000000E+00 -0.45593999997E+02  0.45594000000E+02  0.51100000000E-03 0.  1.
         23    2    1    2    0    0  0.35527136788E-14 -0.17763568394E-14  0.00000000000E+00  0.91188000000E+02  0.91188000000E+02 0.  0.
    9900012    2    3    3    0    0 -0.20424730725E+02 -0.93802313160E+01  0.33882262973E+02  0.50528854548E+02  0.29999983883E+02 0.  0.
        -12    1    3    3    0    0  0.20424730725E+02  0.93802313160E+01 -0.33882262973E+02  0.40659145452E+02  0.00000000000E+00 0.  1.
         11    1    4    4    0    0 -0.84321639044E+01 -0.12305701903E+02  0.27696796262E+02  0.31458611077E+02  0.51100000000E-03 0. -1.
        -11    1    4    4    0    0  0.79666017984E+00 -0.18059974347E+01 -0.22831979218E+01  0.30181595696E+01  0.51100000000E-03 0.  1.
         12    1    4    4    0    0 -0.12789227000E+02  0.47314680217E+01  0.84686646330E+01  0.16052083901E+02  0.00000000000E+00 0. -1.
</event>
<event>
 8    1  0.2031623E-013  0.9118800E+02  0.7816164E-02  0.1184000E+00
        -11   -1    0    0    0    0  0.00000000000E+00  0.00000000000E+00  0.45593999997E+02  0.45594000000E+02  0.51100000000E-03 0. -1.
         11   -1    0    0    0    0 -0.00000000000E+00 -0.00000000000E+00 -0.45593999997E+02  0.45594000000E+02  0.51100000000E-03 0.  1.
         23    2    1    2    0    0  0.17763568394E-14  0.00000000000E+00  0.00000000000E+00  0.91188000000E+02  0.91188000000E+02 0.  0.
    9900012    2    3    3    0    0 -0.68435856221E+01  0.36194750298E+02 -0.17212514186E+02  0.50528865013E+02  0.30000015693E+02 0.  0.
         12    1    3    3    0    0  0.68435856221E+01 -0.36194750298E+02  0.17212514186E+02  0.40659134987E+02  0.00000000000E+00 0. -1.
         11    1    4    4    0    0 -0.15946793013E+02  0.22175643111E+02 -0.60630195922E+01  0.27978912802E+02  0.51100000000E-03 0. -1.
        -11    1    4    4    0    0  0.82394047809E+01  0.40022238400E+01 -0.75516978733E+01  0.11871551198E+02  0.51100000000E-03 0.  1.
         12    1    4    4    0    0  0.86380260966E+00  0.10016883348E+02 -0.35977967200E+01  0.10678401013E+02  0.00000000000E+00 0. -1.
</event>
<event>
 8    1  0.2031623E-013  0.9118800E+02  0.7816164E-02  0.1184000E+00
        -11   -1    0    0    0    0  0.00000000000E+00  0.00000000000E+00  0.45593999997E+02  0.45594000000E+02  0.51100000000E-03 0. -1.
         11   -1    0    0    0    0 -0.00000000000E+00 -0.00000000000E+00 -0.45593999997E+02  0.45594000000E+02  0.51100000000E-03 0.  1.
         23    2    1    2    0    0  0.00000000000E+00 -0.13322676296E-14  0.00000000000E+00  0.91188000000E+02  0.91188000000E+02 0.  0.
    9900012    2    3    3    0    0 -0.32098588949E+01 -0.24806925152E+01 -0.40456260957E+02  0.50528854902E+02  0.29999984961E+02 0.  0.
         12    1    3    3    0    0  0.32098588949E+01  0.24806925152E+01  0.40456260957E+02  0.40659145098E+02  0.00000000000E+00 0. -1.
         11    1    4    4    0    0  0.49198289364E+01 -0.76170106062E+01 -0.16049694169E+02  0.18434105634E+02  0.51100000000E-03 0. -1.
        -11    1    4    4    0    0 -0.11433628246E+01  0.11388532682E+02 -0.14128469731E+02  0.18182948397E+02  0.51100000000E-03 0.  1.
        -12    1    4    4    0    0 -0.69863250067E+01 -0.62522145907E+01 -0.10278097056E+02  0.13911800871E+02  0.00000000000E+00 0.  1.
</event>
<event>
 8    1  0.2031623E-013  0.9118800E+02  0.7816164E-02  0.1184000E+00
        -11   -1    0    0    0    0  0.00000000000E+00  0.00000000000E+00  0.45593999997E+02  0.45594000000E+02  0.51100000000E-03 0. -1.
         11   -1    0    0    0    0 -0.00000000000E+00 -0.00000000000E+00 -0.45593999997E+02  0.45594000000E+02  0.51100000000E-03 0.  1.
         23    2    1    2    0    0  0.00000000000E+00  0.00000000000E+00  0.00000000000E+00  0.91188000000E+02  0.91188000000E+02 0.  0.
    9900012    2    3    3    0    0  0.34114113145E+02 -0.87345449131E+01  0.20324883272E+02  0.50528857479E+02  0.29999992794E+02 0.  0.
        -12    1    3    3    0    0 -0.34114113145E+02  0.87345449131E+01 -0.20324883272E+02  0.40659142521E+02  0.00000000000E+00 0.  1.
         11    1    4    4    0    0  0.25412607510E+02 -0.14117462304E+02  0.51214719664E+01  0.29518347476E+02  0.51100000000E-03 0. -1.
        -11    1    4    4    0    0 -0.16278204421E+01  0.36222804072E+01  0.49981638963E+01  0.63837573055E+01  0.51100000000E-03 0.  1.
         12    1    4    4    0    0  0.10329326077E+02  0.17606369837E+01  0.10205247409E+02  0.14626752697E+02  0.00000000000E+00 0. -1.
</event>
<event>
 8    1  0.2662663E-013  0.9118800E+02  0.7816164E-02  0.1184000E+00
        -11   -1    0    0    0    0  0.00000000000E+00  0.00000000000E+00  0.45593999997E+02  0.45594000000E+02  0.51100000000E-03 0. -1.
         11   -1    0    0    0    0 -0.00000000000E+00 -0.00000000000E+00 -0.45593999997E+02  0.45594000000E+02  0.51100000000E-03 0.  1.
         23    2    1    2    0    0  0.00000000000E+00 -0.35527136788E-14  0.35527136788E-14  0.91188000000E+02  0.91188000000E+02 0.  0.
    9900012    2    3    3    0    0  0.28427191803E+02  0.17650362329E+02 -0.23098158455E+02  0.50528862673E+02  0.30000008580E+02 0.  0.
         12    1    3    3    0    0 -0.28427191803E+02 -0.17650362329E+02  0.23098158455E+02  0.40659137327E+02  0.00000000000E+00 0. -1.
         11    1    4    4    0    0 -0.40031095167E+01  0.23598527160E+01 -0.97149284095E+00  0.47473770911E+01  0.51100000000E-03 0. -1.
        -11    1    4    4    0    0  0.25162000951E+02  0.14868508112E+02 -0.24485956436E+02  0.38128216430E+02  0.51100000000E-03 0.  1.
         12    1    4    4    0    0  0.72683003689E+01  0.42200150164E+00  0.23592908213E+01  0.76532691511E+01  0.00000000000E+00 0. -1.
</event>
<event>
 8    1  0.2166488E-013  0.9118800E+02  0.7816164E-02  0.1184000E+00
        -11   -1    0    0    0    0  0.00000000000E+00  0.00000000000E+00  0.45593999997E+02  0.45594000000E+02  0.51100000000E-03 0. -1.
         11   -1    0    0    0    0 -0.00000000000E+00 -0.00000000000E+00 -0.45593999997E+02  0.45594000000E+02  0.51100000000E-03 0.  1.
         23    2    1    2    0    0 -0.88817841970E-15 -0.35527136788E-14  0.00000000000E+00  0.91188000000E+02  0.91188000000E+02 0.  0.
    9900012    2    3    3    0    0 -0.54506456706E+01 -0.27864080467E+02 -0.29104091585E+02  0.50528872298E+02  0.30000037836E+02 0.  0.
         12    1    3    3    0    0  0.54506456706E+01  0.27864080467E+02  0.29104091585E+02  0.40659127702E+02  0.00000000000E+00 0. -1.
         11    1    4    4    0    0 -0.81977985306E+01 -0.74037578120E+00 -0.10202761827E+02  0.13109096316E+02  0.51100000000E-03 0. -1.
        -11    1    4    4    0    0 -0.11362232374E+01 -0.27943494427E+02 -0.14531582629E+02  0.31516611144E+02  0.51100000000E-03 0.  1.
         12    1    4    4    0    0  0.38833760975E+01  0.81978974070E+00 -0.43697471289E+01  0.59031648379E+01  0.00000000000E+00 0. -1.
</event>
<event>
 8    1  0.2031623E-013  0.9118800E+02  0.7816164E-02  0.1184000E+00
        -11   -1    0    0    0    0  0.00000000000E+00  0.00000000000E+00  0.45593999997E+02  0.45594000000E+02  0.51100000000E-03 0.  1.
         11   -1    0    0    0    0 -0.00000000000E+00 -0.00000000000E+00 -0.45593999997E+02  0.45594000000E+02  0.51100000000E-03 0. -1.
         23    2    1    2    0    0 -0.35527136788E-14  0.00000000000E+00  0.17763568394E-14  0.91188000000E+02  0.91188000000E+02 0.  0.
    9900012    2    3    3    0    0  0.22393453675E+02 -0.31254410099E+02 -0.13223833305E+02  0.50528749080E+02  0.29999663301E+02 0.  0.
        -12    1    3    3    0    0 -0.22393453675E+02  0.31254410099E+02  0.13223833305E+02  0.40659250920E+02  0.00000000000E+00 0.  1.
         11    1    4    4    0    0  0.68916425908E+01 -0.17607116569E+02 -0.20810222890E+02  0.28117088549E+02  0.51100000000E-03 0. -1.
        -11    1    4    4    0    0  0.71525628800E+01 -0.54490025241E+01  0.54571805116E+01  0.10518155906E+02  0.51100000000E-03 0.  1.
         12    1    4    4    0    0  0.83492482044E+01 -0.81982910054E+01  0.21292090734E+01  0.11893504625E+02  0.00000000000E+00 0. -1.
</event>
<event>
 8    1  0.2031623E-013  0.9118800E+02  0.7816164E-02  0.1184000E+00
        -11   -1    0    0    0    0  0.00000000000E+00  0.00000000000E+00  0.45593999997E+02  0.45594000000E+02  0.51100000000E-03 0. -1.
         11   -1    0    0    0    0 -0.00000000000E+00 -0.00000000000E+00 -0.45593999997E+02  0.45594000000E+02  0.51100000000E-03 0.  1.
         23    2    1    2    0    0  0.00000000000E+00  0.00000000000E+00 -0.35527136788E-14  0.91188000000E+02  0.91188000000E+02 0.  0.
    9900012    2    3    3    0    0  0.28950351007E+02 -0.27630977014E+01  0.28414931261E+02  0.50528857720E+02  0.29999993526E+02 0.  0.
        -12    1    3    3    0    0 -0.28950351007E+02  0.27630977014E+01 -0.28414931261E+02  0.40659142280E+02  0.00000000000E+00 0.  1.
         11    1    4    4    0    0  0.25867071957E+02 -0.97680658252E+00  0.84961603219E+01  0.27244160901E+02  0.51100000000E-03 0. -1.
        -11    1    4    4    0    0 -0.23136250156E+01  0.26226848428E+01  0.19329338874E+01  0.39959442152E+01  0.51100000000E-03 0.  1.
         12    1    4    4    0    0  0.53969040656E+01 -0.44089759617E+01  0.17985837052E+02  0.19288752603E+02  0.00000000000E+00 0. -1.
</event>
<event>
 8    1  0.2031623E-013  0.9118800E+02  0.7816164E-02  0.1184000E+00
        -11   -1    0    0    0    0  0.00000000000E+00  0.00000000000E+00  0.45593999997E+02  0.45594000000E+02  0.51100000000E-03 0. -1.
         11   -1    0    0    0    0 -0.00000000000E+00 -0.00000000000E+00 -0.45593999997E+02  0.45594000000E+02  0.51100000000E-03 0.  1.
         23    2    1    2    0    0  0.00000000000E+00 -0.33306690739E-15  0.00000000000E+00  0.91188000000E+02  0.91188000000E+02 0.  0.
    9900012    2    3    3    0    0  0.19280577091E+02  0.86911735502E+00  0.35786399436E+02  0.50528900127E+02  0.30000122425E+02 0.  0.
        -12    1    3    3    0    0 -0.19280577091E+02 -0.86911735502E+00 -0.35786399436E+02  0.40659099873E+02  0.00000000000E+00 0.  1.
         11    1    4    4    0    0  0.14183449081E+02 -0.50180759355E+01  0.62752671647E+01  0.16301235910E+02  0.51100000000E-03 0. -1.
        -11    1    4    4    0    0  0.91037732292E+01  0.81235638593E+01  0.24866989544E+02  0.27699063992E+02  0.51100000000E-03 0.  1.
         12    1    4    4    0    0 -0.40066452191E+01 -0.22363705688E+01  0.46441427272E+01  0.65286002254E+01  0.00000000000E+00 0. -1.
</event>
<event>
 8    1  0.2031623E-013  0.9118800E+02  0.7816164E-02  0.1184000E+00
        -11   -1    0    0    0    0  0.00000000000E+00  0.00000000000E+00  0.45593999997E+02  0.45594000000E+02  0.51100000000E-03 0. -1.
         11   -1    0    0    0    0 -0.00000000000E+00 -0.00000000000E+00 -0.45593999997E+02  0.45594000000E+02  0.51100000000E-03 0.  1.
         23    2    1    2    0    0  0.00000000000E+00 -0.88817841970E-15  0.00000000000E+00  0.91188000000E+02  0.91188000000E+02 0.  0.
    9900012    2    3    3    0    0  0.26846693529E+02 -0.64117560752E+01  0.29854824508E+02  0.50528854463E+02  0.29999983625E+02 0.  0.
        -12    1    3    3    0    0 -0.26846693529E+02  0.64117560752E+01 -0.29854824508E+02  0.40659145537E+02  0.00000000000E+00 0.  1.
         11    1    4    4    0    0  0.38922159014E+01  0.25862208938E+01  0.44854704143E+01  0.64774476635E+01  0.51100000000E-03 0. -1.
        -11    1    4    4    0    0  0.22018450321E+02 -0.16856826281E+02  0.16969769927E+02  0.32510580408E+02  0.51100000000E-03 0.  1.
        -12    1    4    4    0    0  0.93602730662E+00  0.78588493119E+01  0.83995841669E+01  0.11540826392E+02  0.00000000000E+00 0.  1.
</event>
<event>
 8    1  0.2031623E-013  0.9118800E+02  0.7816164E-02  0.1184000E+00
        -11   -1    0    0    0    0  0.00000000000E+00  0.00000000000E+00  0.45593999997E+02  0.45594000000E+02  0.51100000000E-03 0. -1.
         11   -1    0    0    0    0 -0.00000000000E+00 -0.00000000000E+00 -0.45593999997E+02  0.45594000000E+02  0.51100000000E-03 0.  1.
         23    2    1    2    0    0 -0.88817841970E-15 -0.66613381478E-15  0.71054273576E-14  0.91188000000E+02  0.91188000000E+02 0.  0.
    9900012    2    3    3    0    0 -0.55174638420E+01 -0.10061870503E+01  0.40270457257E+02  0.50528873752E+02  0.30000042255E+02 0.  0.
        -12    1    3    3    0    0  0.55174638420E+01  0.10061870503E+01 -0.40270457257E+02  0.40659126248E+02  0.00000000000E+00 0.  1.
         11    1    4    4    0    0  0.43990640644E+01 -0.76113376427E+01  0.78045099574E+01  0.11755619987E+02  0.51100000000E-03 0. -1.
        -11    1    4    4    0    0 -0.71893985816E+01  0.67982362100E+01  0.48446657403E+01  0.11016998408E+02  0.51100000000E-03 0.  1.
         12    1    4    4    0    0 -0.27271293247E+01 -0.19308561755E+00  0.27621281559E+02  0.27756255356E+02  0.00000000000E+00 0. -1.
</event>
<event>
 8    1  0.2031623E-013  0.9118800E+02  0.7816164E-02  0.1184000E+00
        -11   -1    0    0    0    0  0.00000000000E+00  0.00000000000E+00  0.45593999997E+02  0.45594000000E+02  0.51100000000E-03 0. -1.
         11   -1    0    0    0    0 -0.00000000000E+00 -0.00000000000E+00 -0.45593999997E+02  0.45594000000E+02  0.51100000000E-03 0.  1.
         23    2    1    2    0    0  0.00000000000E+00  0.00000000000E+00  0.00000000000E+00  0.91188000000E+02  0.91188000000E+02 0.  0.
    9900012    2    3    3    0    0 -0.17425694912E+02  0.30452119614E+02 -0.20547000077E+02  0.50528860261E+02  0.30000001250E+02 0.  0.
         12    1    3    3    0    0  0.17425694912E+02 -0.30452119614E+02  0.20547000077E+02  0.40659139739E+02  0.00000000000E+00 0. -1.
         11    1    4    4    0    0 -0.19758925282E+01  0.26471551519E+02 -0.11323331546E+02  0.28859401044E+02  0.51100000000E-03 0. -1.
        -11    1    4    4    0    0 -0.99050121113E+01  0.65508494863E+01 -0.99790211388E+01  0.15511407321E+02  0.51100000000E-03 0.  1.
         12    1    4    4    0    0 -0.55447902723E+01 -0.25702813909E+01  0.75535260791E+00  0.61580518960E+01  0.00000000000E+00 0. -1.
</event>
<event>
 8    1  0.2031623E-013  0.9118800E+02  0.7816164E-02  0.1184000E+00
        -11   -1    0    0    0    0  0.00000000000E+00  0.00000000000E+00  0.45593999997E+02  0.45594000000E+02  0.51100000000E-03 0. -1.
         11   -1    0    0    0    0 -0.00000000000E+00 -0.00000000000E+00 -0.45593999997E+02  0.45594000000E+02  0.51100000000E-03 0.  1.
         23    2    1    2    0    0  0.00000000000E+00  0.00000000000E+00  0.00000000000E+00  0.91188000000E+02  0.91188000000E+02 0.  0.
    9900012    2    3    3    0    0  0.17580673135E+02  0.19300143841E+02  0.31170337306E+02  0.50528861446E+02  0.30000004853E+02 0.  0.
        -12    1    3    3    0    0 -0.17580673135E+02 -0.19300143841E+02 -0.31170337306E+02  0.40659138554E+02  0.00000000000E+00 0.  1.
         11    1    4    4    0    0 -0.84187103697E+00  0.18139321424E+02  0.18813504947E+02  0.26147498872E+02  0.51100000000E-03 0. -1.
        -11    1    4    4    0    0  0.75683271956E+01 -0.44655200937E+01  0.54243492255E+01  0.10326858720E+02  0.51100000000E-03 0.  1.
         12    1    4    4    0    0  0.10854216976E+02  0.56263425102E+01  0.69324831332E+01  0.14054503855E+02  0.00000000000E+00 0. -1.
</event>
<event>
 8    1  0.2031623E-013  0.9118800E+02  0.7816164E-02  0.1184000E+00
        -11   -1    0    0    0    0  0.00000000000E+00  0.00000000000E+00  0.45593999997E+02  0.45594000000E+02  0.51100000000E-03 0. -1.
         11   -1    0    0    0    0 -0.00000000000E+00 -0.00000000000E+00 -0.45593999997E+02  0.45594000000E+02  0.51100000000E-03 0.  1.
         23    2    1    2    0    0 -0.88817841970E-15 -0.35527136788E-14  0.00000000000E+00  0.91188000000E+02  0.91188000000E+02 0.  0.
    9900012    2    3    3    0    0 -0.33779529996E+01 -0.22985454578E+02  0.33368003005E+02  0.50528864333E+02  0.30000013628E+02 0.  0.
        -12    1    3    3    0    0  0.33779529996E+01  0.22985454578E+02 -0.33368003005E+02  0.40659135667E+02  0.00000000000E+00 0.  1.
         11    1    4    4    0    0 -0.13871752265E+01 -0.45017167359E+01  0.12614720382E+02  0.13465544150E+02  0.51100000000E-03 0. -1.
        -11    1    4    4    0    0  0.14449159929E+01 -0.17578573196E+02  0.17428833006E+01  0.17723759767E+02  0.51100000000E-03 0.  1.
        -12    1    4    4    0    0 -0.34356937660E+01 -0.90516464593E+00  0.19010399322E+02  0.19339560416E+02  0.00000000000E+00 0.  1.
</event>
<event>
 8    1  0.2031623E-013  0.9118800E+02  0.7816164E-02  0.1184000E+00
        -11   -1    0    0    0    0  0.00000000000E+00  0.00000000000E+00  0.45593999997E+02  0.45594000000E+02  0.51100000000E-03 0.  1.
         11   -1    0    0    0    0 -0.00000000000E+00 -0.00000000000E+00 -0.45593999997E+02  0.45594000000E+02  0.51100000000E-03 0. -1.
         23    2    1    2    0    0 -0.88817841970E-15  0.00000000000E+00  0.71054273576E-14  0.91188000000E+02  0.91188000000E+02 0.  0.
    9900012    2    3    3    0    0  0.33580582125E+01  0.10576716460E+02 -0.39115488853E+02  0.50528868747E+02  0.30000027043E+02 0.  0.
         12    1    3    3    0    0 -0.33580582125E+01 -0.10576716460E+02  0.39115488853E+02  0.40659131253E+02  0.00000000000E+00 0. -1.
         11    1    4    4    0    0 -0.13193443116E+01  0.10141438634E+02 -0.27764846165E+02  0.29588445883E+02  0.51100000000E-03 0. -1.
        -11    1    4    4    0    0  0.86936512258E+01  0.48010626958E+00  0.20225322604E+00  0.87092468270E+01  0.51100000000E-03 0.  1.
        -12    1    4    4    0    0 -0.40162487017E+01 -0.44828443144E-01 -0.11552895915E+02  0.12231176037E+02  0.00000000000E+00 0.  1.
</event>
<event>
 8    1  0.2031623E-013  0.9118800E+02  0.7816164E-02  0.1184000E+00
        -11   -1    0    0    0    0  0.00000000000E+00  0.00000000000E+00  0.45593999997E+02  0.45594000000E+02  0.51100000000E-03 0. -1.
         11   -1    0    0    0    0 -0.00000000000E+00 -0.00000000000E+00 -0.45593999997E+02  0.45594000000E+02  0.51100000000E-03 0.  1.
         23    2    1    2    0    0  0.00000000000E+00  0.00000000000E+00  0.00000000000E+00  0.91188000000E+02  0.91188000000E+02 0.  0.
    9900012    2    3    3    0    0  0.79218462926E+01  0.14451965948E+02  0.37169203022E+02  0.50528872836E+02  0.30000039472E+02 0.  0.
        -12    1    3    3    0    0 -0.79218462926E+01 -0.14451965948E+02 -0.37169203022E+02  0.40659127164E+02  0.00000000000E+00 0.  1.
         11    1    4    4    0    0  0.13313457637E+02  0.20647384592E+01  0.17566254394E+02  0.22137854297E+02  0.51100000000E-03 0. -1.
        -11    1    4    4    0    0 -0.45488679070E+01  0.50357906486E+01 -0.66108053006E+00  0.68182412996E+01  0.51100000000E-03 0.  1.
         12    1    4    4    0    0 -0.84274343742E+00  0.73514368399E+01  0.20264029158E+02  0.21572777240E+02  0.00000000000E+00 0. -1.
</event>
<event>
 8    1  0.2031623E-013  0.9118800E+02  0.7816164E-02  0.1184000E+00
        -11   -1    0    0    0    0  0.00000000000E+00  0.00000000000E+00  0.45593999997E+02  0.45594000000E+02  0.51100000000E-03 0. -1.
         11   -1    0    0    0    0 -0.00000000000E+00 -0.00000000000E+00 -0.45593999997E+02  0.45594000000E+02  0.51100000000E-03 0.  1.
         23    2    1    2    0    0 -0.71054273576E-14  0.35527136788E-14  0.00000000000E+00  0.91188000000E+02  0.91188000000E+02 0.  0.
    9900012    2    3    3    0    0  0.33067729728E+02 -0.20161428797E+02 -0.12377709069E+02  0.50528860286E+02  0.30000001324E+02 0.  0.
         12    1    3    3    0    0 -0.33067729728E+02  0.20161428797E+02  0.12377709069E+02  0.40659139714E+02  0.00000000000E+00 0. -1.
         11    1    4    4    0    0  0.18696445268E+01  0.72609256744E+00  0.60859150099E+01  0.64078969126E+01  0.51100000000E-03 0. -1.
        -11    1    4    4    0    0  0.17663028545E+02 -0.85483532640E+01 -0.16615687791E+02  0.25712603951E+02  0.51100000000E-03 0.  1.
        -12    1    4    4    0    0  0.13535056656E+02 -0.12339168100E+02 -0.18479362879E+01  0.18408359422E+02  0.00000000000E+00 0.  1.
</event>
<event>
 8    1  0.2031623E-013  0.9118800E+02  0.7816164E-02  0.1184000E+00
        -11   -1    0    0    0    0  0.00000000000E+00  0.00000000000E+00  0.45593999997E+02  0.45594000000E+02  0.51100000000E-03 0. -1.
         11   -1    0    0    0    0 -0.00000000000E+00 -0.00000000000E+00 -0.45593999997E+02  0.45594000000E+02  0.51100000000E-03 0.  1.
         23    2    1    2    0    0  0.44408920985E-15 -0.22204460493E-15  0.71054273576E-14  0.91188000000E+02  0.91188000000E+02 0.  0.
    9900012    2    3    3    0    0  0.15893297837E+01 -0.16523912225E+01  0.40594442373E+02  0.50528866739E+02  0.30000020940E+02 0.  0.
        -12    1    3    3    0    0 -0.15893297837E+01  0.16523912225E+01 -0.40594442373E+02  0.40659133261E+02  0.00000000000E+00 0.  1.
         11    1    4    4    0    0 -0.22446921256E+01 -0.36977492267E+00  0.34750219494E+02  0.34824605258E+02  0.51100000000E-03 0. -1.
        -11    1    4    4    0    0 -0.27696204012E+01  0.20358872813E+01 -0.27262788250E+01  0.43872805566E+01  0.51100000000E-03 0.  1.
         12    1    4    4    0    0  0.66036423105E+01 -0.33185035811E+01  0.85705017047E+01  0.11316980925E+02  0.00000000000E+00 0. -1.
</event>
<event>
 8    1  0.2031623E-013  0.9118800E+02  0.7816164E-02  0.1184000E+00
        -11   -1    0    0    0    0  0.00000000000E+00  0.00000000000E+00  0.45593999997E+02  0.45594000000E+02  0.51100000000E-03 0. -1.
         11   -1    0    0    0    0 -0.00000000000E+00 -0.00000000000E+00 -0.45593999997E+02  0.45594000000E+02  0.51100000000E-03 0.  1.
         23    2    1    2    0    0 -0.71054273576E-14  0.00000000000E+00  0.00000000000E+00  0.91188000000E+02  0.91188000000E+02 0.  0.
    9900012    2    3    3    0    0 -0.36073231590E+02 -0.16077320884E+02 -0.96647387790E+01  0.50528862529E+02  0.30000008144E+02 0.  0.
         12    1    3    3    0    0  0.36073231590E+02  0.16077320884E+02  0.96647387790E+01  0.40659137471E+02  0.00000000000E+00 0. -1.
         11    1    4    4    0    0 -0.22788792825E+02 -0.60907698403E+00 -0.16822024628E+02  0.28331617780E+02  0.51100000000E-03 0. -1.
        -11    1    4    4    0    0 -0.39112490174E+01 -0.62327658234E+01  0.31295747454E+00  0.73649970351E+01  0.51100000000E-03 0.  1.
         12    1    4    4    0    0 -0.93731897474E+01 -0.92354780771E+01  0.68443283742E+01  0.14832247714E+02  0.00000000000E+00 0. -1.
</event>
<event>
 8    1  0.2031623E-013  0.9118800E+02  0.7816164E-02  0.1184000E+00
        -11   -1    0    0    0    0  0.00000000000E+00  0.00000000000E+00  0.45593999997E+02  0.45594000000E+02  0.51100000000E-03 0. -1.
         11   -1    0    0    0    0 -0.00000000000E+00 -0.00000000000E+00 -0.45593999997E+02  0.45594000000E+02  0.51100000000E-03 0.  1.
         23    2    1    2    0    0  0.00000000000E+00  0.00000000000E+00  0.35527136788E-14  0.91188000000E+02  0.91188000000E+02 0.  0.
    9900012    2    3    3    0    0 -0.24631472504E+02 -0.13668241451E+02 -0.29319555147E+02  0.50528848803E+02  0.29999966421E+02 0.  0.
         12    1    3    3    0    0  0.24631472504E+02  0.13668241451E+02  0.29319555147E+02  0.40659151197E+02  0.00000000000E+00 0. -1.
         11    1    4    4    0    0 -0.10119949203E+01 -0.62037988088E+00 -0.83759458197E+01  0.84596379090E+01  0.51100000000E-03 0. -1.
        -11    1    4    4    0    0 -0.27200666851E+02 -0.57966121881E+01 -0.12881518158E+02  0.30649804246E+02  0.51100000000E-03 0.  1.
        -12    1    4    4    0    0  0.35811892674E+01 -0.72512493821E+01 -0.80620911685E+01  0.11419406647E+02  0.00000000000E+00 0.  1.
</event>
<event>
 8    1  0.2031623E-013  0.9118800E+02  0.7816164E-02  0.1184000E+00
        -11   -1    0    0    0    0  0.00000000000E+00  0.00000000000E+00  0.45593999997E+02  0.45594000000E+02  0.51100000000E-03 0.  1.
         11   -1    0    0    0    0 -0.00000000000E+00 -0.00000000000E+00 -0.45593999997E+02  0.45594000000E+02  0.51100000000E-03 0. -1.
         23    2    1    2    0    0  0.00000000000E+00  0.71054273576E-14  0.00000000000E+00  0.91188000000E+02  0.91188000000E+02 0.  0.
    9900012    2    3    3    0    0  0.16985707633E+02 -0.32922565941E+02  0.16755717395E+02  0.50528884449E+02  0.30000074771E+02 0.  0.
        -12    1    3    3    0    0 -0.16985707633E+02  0.32922565941E+02 -0.16755717395E+02  0.40659115551E+02  0.00000000000E+00 0.  1.
         11    1    4    4    0    0  0.13030376087E+02 -0.10350020979E+02 -0.48669699285E+01  0.17337849687E+02  0.51100000000E-03 0. -1.
        -11    1    4    4    0    0  0.31235045854E+01 -0.20392468273E+02  0.22653869576E+02  0.30639955127E+02  0.51100000000E-03 0.  1.
        -12    1    4    4    0    0  0.83182696050E+00 -0.21800766903E+01 -0.10311822524E+01  0.25510796353E+01  0.00000000000E+00 0.  1.
</event>
<event>
 8    1  0.2031623E-013  0.9118800E+02  0.7816164E-02  0.1184000E+00
        -11   -1    0    0    0    0  0.00000000000E+00  0.00000000000E+00  0.45593999997E+02  0.45594000000E+02  0.51100000000E-03 0. -1.
         11   -1    0    0    0    0 -0.00000000000E+00 -0.00000000000E+00 -0.45593999997E+02  0.45594000000E+02  0.51100000000E-03 0.  1.
         23    2    1    2    0    0 -0.22204460493E-14  0.00000000000E+00  0.00000000000E+00  0.91188000000E+02  0.91188000000E+02 0.  0.
    9900012    2    3    3    0    0 -0.25623008741E+01 -0.16654657015E+02 -0.37002983048E+02  0.50528883672E+02  0.30000072410E+02 0.  0.
         12    1    3    3    0    0  0.25623008741E+01  0.16654657015E+02  0.37002983048E+02  0.40659116328E+02  0.00000000000E+00 0. -1.
         11    1    4    4    0    0 -0.27884567259E+01 -0.36378053136E+01  0.13763574136E+01  0.47857578713E+01  0.51100000000E-03 0. -1.
        -11    1    4    4    0    0  0.84656320287E+01 -0.13979535549E+02 -0.28394304262E+02  0.32761728504E+02  0.51100000000E-03 0.  1.
        -12    1    4    4    0    0 -0.82394761769E+01  0.96268384686E+00 -0.99850362004E+01  0.12981397297E+02  0.00000000000E+00 0.  1.
</event>
<event>
 8    1  0.2031623E-013  0.9118800E+02  0.7816164E-02  0.1184000E+00
        -11   -1    0    0    0    0  0.00000000000E+00  0.00000000000E+00  0.45593999997E+02  0.45594000000E+02  0.51100000000E-03 0. -1.
         11   -1    0    0    0    0 -0.00000000000E+00 -0.00000000000E+00 -0.45593999997E+02  0.45594000000E+02  0.51100000000E-03 0.  1.
         23    2    1    2    0    0  0.35527136788E-14  0.22204460493E-15  0.00000000000E+00  0.91188000000E+02  0.91188000000E+02 0.  0.
    9900012    2    3    3    0    0 -0.24492959684E+02 -0.19243025074E+01  0.32396872797E+02  0.50528863496E+02  0.30000011082E+02 0.  0.
        -12    1    3    3    0    0  0.24492959684E+02  0.19243025074E+01 -0.32396872797E+02  0.40659136504E+02  0.00000000000E+00 0.  1.
         11    1    4    4    0    0 -0.23981140080E+02 -0.76697513619E+01  0.21070902826E+02  0.32831434809E+02  0.51100000000E-03 0. -1.
        -11    1    4    4    0    0 -0.41955057126E+01  0.79691793609E+01  0.58755033781E+01  0.10753214779E+02  0.51100000000E-03 0.  1.
         12    1    4    4    0    0  0.36836861083E+01 -0.22237305064E+01  0.54504665934E+01  0.69442139077E+01  0.00000000000E+00 0. -1.
</event>
<event>
 8    1  0.2031623E-013  0.9118800E+02  0.7816164E-02  0.1184000E+00
        -11   -1    0    0    0    0  0.00000000000E+00  0.00000000000E+00  0.45593999997E+02  0.45594000000E+02  0.51100000000E-03 0. -1.
         11   -1    0    0    0    0 -0.00000000000E+00 -0.00000000000E+00 -0.45593999997E+02  0.45594000000E+02  0.51100000000E-03 0.  1.
         23    2    1    2    0    0  0.35527136788E-14  0.00000000000E+00  0.00000000000E+00  0.91188000000E+02  0.91188000000E+02 0.  0.
    9900012    2    3    3    0    0 -0.19164750078E+02 -0.22611277498E+02  0.27831807145E+02  0.50528843533E+02  0.29999950404E+02 0.  0.
        -12    1    3    3    0    0  0.19164750078E+02  0.22611277498E+02 -0.27831807145E+02  0.40659156467E+02  0.00000000000E+00 0.  1.
         11    1    4    4    0    0 -0.14354247764E+02 -0.12295428124E+02  0.31110961730E+02  0.36402114247E+02  0.51100000000E-03 0. -1.
        -11    1    4    4    0    0  0.28493076896E+00 -0.34845605123E+01 -0.43017019276E+01  0.55432830744E+01  0.51100000000E-03 0.  1.
         12    1    4    4    0    0 -0.50954330827E+01 -0.68312888619E+01  0.10225473427E+01  0.85834462125E+01  0.00000000000E+00 0. -1.
</event>
<event>
 8    1  0.2031623E-013  0.9118800E+02  0.7816164E-02  0.1184000E+00
        -11   -1    0    0    0    0  0.00000000000E+00  0.00000000000E+00  0.45593999997E+02  0.45594000000E+02  0.51100000000E-03 0. -1.
         11   -1    0    0    0    0 -0.00000000000E+00 -0.00000000000E+00 -0.45593999997E+02  0.45594000000E+02  0.51100000000E-03 0.  1.
         23    2    1    2    0    0 -0.35527136788E-14  0.35527136788E-14  0.00000000000E+00  0.91188000000E+02  0.91188000000E+02 0.  0.
    9900012    2    3    3    0    0  0.25590476367E+02 -0.13414981136E+02 -0.28606489280E+02  0.50528862915E+02  0.30000009315E+02 0.  0.
         12    1    3    3    0    0 -0.25590476367E+02  0.13414981136E+02  0.28606489280E+02  0.40659137085E+02  0.00000000000E+00 0. -1.
         11    1    4    4    0    0 -0.15983116710E+01  0.53792348385E+01  0.11660158428E+01  0.57315234321E+01  0.51100000000E-03 0. -1.
        -11    1    4    4    0    0  0.18262075654E+02 -0.13785583936E+02 -0.17436200615E+02  0.28767461199E+02  0.51100000000E-03 0.  1.
         12    1    4    4    0    0  0.89267123843E+01 -0.50086320385E+01 -0.12336304508E+02  0.16029878284E+02  0.00000000000E+00 0. -1.
</event>
<event>
 8    1  0.2031623E-013  0.9118800E+02  0.7816164E-02  0.1184000E+00
        -11   -1    0    0    0    0  0.00000000000E+00  0.00000000000E+00  0.45593999997E+02  0.45594000000E+02  0.51100000000E-03 0. -1.
         11   -1    0    0    0    0 -0.00000000000E+00 -0.00000000000E+00 -0.45593999997E+02  0.45594000000E+02  0.51100000000E-03 0.  1.
         23    2    1    2    0    0  0.00000000000E+00  0.00000000000E+00  0.35527136788E-14  0.91188000000E+02  0.91188000000E+02 0.  0.
    9900012    2    3    3    0    0 -0.27964691222E+02  0.22165958921E+02 -0.19488802369E+02  0.50528842264E+02  0.29999946545E+02 0.  0.
         12    1    3    3    0    0  0.27964691222E+02 -0.22165958921E+02  0.19488802369E+02  0.40659157736E+02  0.00000000000E+00 0. -1.
         11    1    4    4    0    0  0.24947683748E+01  0.27742220193E+01  0.50282662641E+01  0.62612809344E+01  0.51100000000E-03 0. -1.
        -11    1    4    4    0    0 -0.16418150241E+02  0.63530877967E+01 -0.10178512446E+02  0.20335178823E+02  0.51100000000E-03 0.  1.
         12    1    4    4    0    0 -0.14041309356E+02  0.13038649105E+02 -0.14338556187E+02  0.23932382506E+02  0.00000000000E+00 0. -1.
</event>
<event>
 8    1  0.2031623E-013  0.9118800E+02  0.7816164E-02  0.1184000E+00
        -11   -1    0    0    0    0  0.00000000000E+00  0.00000000000E+00  0.45593999997E+02  0.45594000000E+02  0.51100000000E-03 0. -1.
         11   -1    0    0    0    0 -0.00000000000E+00 -0.00000000000E+00 -0.45593999997E+02  0.45594000000E+02  0.51100000000E-03 0.  1.
         23    2    1    2    0    0  0.35527136788E-14  0.00000000000E+00  0.00000000000E+00  0.91188000000E+02  0.91188000000E+02 0.  0.
    9900012    2    3    3    0    0  0.22324598217E+02 -0.91905237359E+01  0.32715629338E+02  0.50528858161E+02  0.29999994867E+02 0.  0.
        -12    1    3    3    0    0 -0.22324598217E+02  0.91905237359E+01 -0.32715629338E+02  0.40659141839E+02  0.00000000000E+00 0.  1.
         11    1    4    4    0    0 -0.78624558970E+00 -0.52579836001E+01  0.66440344415E+00  0.53577986025E+01  0.51100000000E-03 0. -1.
        -11    1    4    4    0    0  0.25638949238E+02 -0.37473040493E+01  0.19666328162E+02  0.32529409299E+02  0.51100000000E-03 0.  1.
        -12    1    4    4    0    0 -0.25281054317E+01 -0.18523608646E+00  0.12384897732E+02  0.12641650260E+02  0.00000000000E+00 0.  1.
</event>
<event>
 8    1  0.2031623E-013  0.9118800E+02  0.7816164E-02  0.1184000E+00
        -11   -1    0    0    0    0  0.00000000000E+00  0.00000000000E+00  0.45593999997E+02  0.45594000000E+02  0.51100000000E-03 0.  1.
         11   -1    0    0    0    0 -0.00000000000E+00 -0.00000000000E+00 -0.45593999997E+02  0.45594000000E+02  0.51100000000E-03 0. -1.
         23    2    1    2    0    0 -0.35527136788E-14  0.00000000000E+00  0.00000000000E+00  0.91188000000E+02  0.91188000000E+02 0.  0.
    9900012    2    3    3    0    0  0.18601516154E+02 -0.69535852513E+01 -0.35479540813E+02  0.50528848910E+02  0.29999966746E+02 0.  0.
         12    1    3    3    0    0 -0.18601516154E+02  0.69535852513E+01  0.35479540813E+02  0.40659151090E+02  0.00000000000E+00 0. -1.
         11    1    4    4    0    0  0.10777724529E+02  0.13626456567E+01 -0.20441920240E+02  0.23149260303E+02  0.51100000000E-03 0. -1.
        -11    1    4    4    0    0 -0.21391313802E+01 -0.11566251495E+02 -0.11134700905E+02  0.16196778112E+02  0.51100000000E-03 0.  1.
        -12    1    4    4    0    0  0.99629230053E+01  0.32500205868E+01 -0.39029196674E+01  0.11182810494E+02  0.00000000000E+00 0.  1.
</event>
<event>
 8    1  0.2031623E-013  0.9118800E+02  0.7816164E-02  0.1184000E+00
        -11   -1    0    0    0    0  0.00000000000E+00  0.00000000000E+00  0.45593999997E+02  0.45594000000E+02  0.51100000000E-03 0. -1.
         11   -1    0    0    0    0 -0.00000000000E+00 -0.00000000000E+00 -0.45593999997E+02  0.45594000000E+02  0.51100000000E-03 0.  1.
         23    2    1    2    0    0  0.00000000000E+00 -0.17763568394E-14  0.00000000000E+00  0.91188000000E+02  0.91188000000E+02 0.  0.
    9900012    2    3    3    0    0 -0.94991073002E+01 -0.63605072383E+01  0.39018928151E+02  0.50528857783E+02  0.29999993716E+02 0.  0.
        -12    1    3    3    0    0  0.94991073002E+01  0.63605072383E+01 -0.39018928151E+02  0.40659142217E+02  0.00000000000E+00 0.  1.
         11    1    4    4    0    0 -0.74991761805E+01 -0.14844976529E+02  0.31684968405E+02  0.35784748073E+02  0.51100000000E-03 0. -1.
        -11    1    4    4    0    0  0.11001363276E+01  0.49969103749E+01  0.85120469457E+01  0.99314831068E+01  0.51100000000E-03 0.  1.
         12    1    4    4    0    0 -0.31000674473E+01  0.34875589157E+01 -0.11780872002E+01  0.48126266030E+01  0.00000000000E+00 0. -1.
</event>
<event>
 8    1  0.2031623E-013  0.9118800E+02  0.7816164E-02  0.1184000E+00
        -11   -1    0    0    0    0  0.00000000000E+00  0.00000000000E+00  0.45593999997E+02  0.45594000000E+02  0.51100000000E-03 0. -1.
         11   -1    0    0    0    0 -0.00000000000E+00 -0.00000000000E+00 -0.45593999997E+02  0.45594000000E+02  0.51100000000E-03 0.  1.
         23    2    1    2    0    0  0.00000000000E+00 -0.71054273576E-14  0.00000000000E+00  0.91188000000E+02  0.91188000000E+02 0.  0.
    9900012    2    3    3    0    0  0.59699098288E+01  0.35199177430E+02  0.19456207456E+02  0.50528856826E+02  0.29999990808E+02 0.  0.
        -12    1    3    3    0    0 -0.59699098288E+01 -0.35199177430E+02 -0.19456207456E+02  0.40659143174E+02  0.00000000000E+00 0.  1.
         11    1    4    4    0    0  0.18043575908E+01  0.73026706745E+01 -0.46350379830E+01  0.88356257651E+01  0.51100000000E-03 0. -1.
        -11    1    4    4    0    0 -0.40732820019E+01  0.81470048483E+01  0.16756306339E+02  0.19071945801E+02  0.51100000000E-03 0.  1.
        -12    1    4    4    0    0  0.82388342399E+01  0.19749501907E+02  0.73349390997E+01  0.22621285260E+02  0.00000000000E+00 0.  1.
</event>
<event>
 8    1  0.2031623E-013  0.9118800E+02  0.7816164E-02  0.1184000E+00
        -11   -1    0    0    0    0  0.00000000000E+00  0.00000000000E+00  0.45593999997E+02  0.45594000000E+02  0.51100000000E-03 0. -1.
         11   -1    0    0    0    0 -0.00000000000E+00 -0.00000000000E+00 -0.45593999997E+02  0.45594000000E+02  0.51100000000E-03 0.  1.
         23    2    1    2    0    0  0.00000000000E+00  0.88817841970E-15 -0.71054273576E-14  0.91188000000E+02  0.91188000000E+02 0.  0.
    9900012    2    3    3    0    0  0.16945759702E+01  0.70166261300E+01 -0.40013258742E+02  0.50528861972E+02  0.30000006451E+02 0.  0.
         12    1    3    3    0    0 -0.16945759702E+01 -0.70166261300E+01  0.40013258742E+02  0.40659138028E+02  0.00000000000E+00 0. -1.
         11    1    4    4    0    0  0.38833477256E+01  0.47147267088E+01  0.66771262534E+00  0.61444998094E+01  0.51100000000E-03 0. -1.
        -11    1    4    4    0    0 -0.55404477549E+01 -0.41860937797E+01 -0.33243950437E+02  0.33961451432E+02  0.51100000000E-03 0.  1.
        -12    1    4    4    0    0  0.33516759995E+01  0.64879932009E+01 -0.74370209306E+01  0.10422910731E+02  0.00000000000E+00 0.  1.
</event>
<event>
 8    1  0.2031623E-013  0.9118800E+02  0.7816164E-02  0.1184000E+00
        -11   -1    0    0    0    0  0.00000000000E+00  0.00000000000E+00  0.45593999997E+02  0.45594000000E+02  0.51100000000E-03 0. -1.
         11   -1    0    0    0    0 -0.00000000000E+00 -0.00000000000E+00 -0.45593999997E+02  0.45594000000E+02  0.51100000000E-03 0.  1.
         23    2    1    2    0    0  0.00000000000E+00  0.00000000000E+00  0.17763568394E-14  0.91188000000E+02  0.91188000000E+02 0.  0.
    9900012    2    3    3    0    0  0.30515579462E+02  0.22263425924E+02  0.15043445615E+02  0.50528856136E+02  0.29999988711E+02 0.  0.
        -12    1    3    3    0    0 -0.30515579462E+02 -0.22263425924E+02 -0.15043445615E+02  0.40659143864E+02  0.00000000000E+00 0.  1.
         11    1    4    4    0    0  0.47477686256E+01  0.12923750833E+02  0.14572902270E+02  0.20048294774E+02  0.51100000000E-03 0. -1.
        -11    1    4    4    0    0  0.23314838568E+02  0.71015093213E+01  0.49844253276E+01  0.24876849241E+02  0.51100000000E-03 0.  1.
        -12    1    4    4    0    0  0.24529722691E+01  0.22381657698E+01 -0.45138819832E+01  0.56037121201E+01  0.00000000000E+00 0.  1.
</event>
<event>
 8    1  0.2031623E-013  0.9118800E+02  0.7816164E-02  0.1184000E+00
        -11   -1    0    0    0    0  0.00000000000E+00  0.00000000000E+00  0.45593999997E+02  0.45594000000E+02  0.51100000000E-03 0. -1.
         11   -1    0    0    0    0 -0.00000000000E+00 -0.00000000000E+00 -0.45593999997E+02  0.45594000000E+02  0.51100000000E-03 0.  1.
         23    2    1    2    0    0 -0.17763568394E-14  0.10547118734E-14 -0.71054273576E-14  0.91188000000E+02  0.91188000000E+02 0.  0.
    9900012    2    3    3    0    0  0.83364768753E+01 -0.36457761979E+00  0.39793660701E+02  0.50528865780E+02  0.30000018024E+02 0.  0.
        -12    1    3    3    0    0 -0.83364768753E+01  0.36457761979E+00 -0.39793660701E+02  0.40659134220E+02  0.00000000000E+00 0.  1.
         11    1    4    4    0    0  0.33760949104E+01  0.54290465797E+01  0.19398092649E+02  0.20424459902E+02  0.51100000000E-03 0. -1.
        -11    1    4    4    0    0  0.10060843839E+02 -0.46685515733E+01  0.23756857478E+01  0.11342831903E+02  0.51100000000E-03 0.  1.
        -12    1    4    4    0    0 -0.51004618742E+01 -0.11250726262E+01  0.18019882305E+02  0.18761573975E+02  0.00000000000E+00 0.  1.
</event>
<event>
 8    1  0.2031623E-013  0.9118800E+02  0.7816164E-02  0.1184000E+00
        -11   -1    0    0    0    0  0.00000000000E+00  0.00000000000E+00  0.45593999997E+02  0.45594000000E+02  0.51100000000E-03 0. -1.
         11   -1    0    0    0    0 -0.00000000000E+00 -0.00000000000E+00 -0.45593999997E+02  0.45594000000E+02  0.51100000000E-03 0.  1.
         23    2    1    2    0    0  0.00000000000E+00  0.00000000000E+00  0.71054273576E-14  0.91188000000E+02  0.91188000000E+02 0.  0.
    9900012    2    3    3    0    0 -0.16119395456E+02 -0.17808253805E+02  0.32805452799E+02  0.50528849162E+02  0.29999967514E+02 0.  0.
        -12    1    3    3    0    0  0.16119395456E+02  0.17808253805E+02 -0.32805452799E+02  0.40659150838E+02  0.00000000000E+00 0.  1.
         11    1    4    4    0    0 -0.26622937798E+01 -0.15223856709E+02  0.11991957537E+01  0.15501344845E+02  0.51100000000E-03 0. -1.
        -11    1    4    4    0    0 -0.13879979807E+02 -0.25553205209E+01  0.31594562620E+02  0.34603466442E+02  0.51100000000E-03 0.  1.
        -12    1    4    4    0    0  0.42287813018E+00 -0.29076575170E-01  0.11694425376E-01  0.42403787542E+00  0.00000000000E+00 0.  1.
</event>
<event>
 8    1  0.2031623E-013  0.9118800E+02  0.7816164E-02  0.1184000E+00
        -11   -1    0    0    0    0  0.00000000000E+00  0.00000000000E+00  0.45593999997E+02  0.45594000000E+02  0.51100000000E-03 0. -1.
         11   -1    0    0    0    0 -0.00000000000E+00 -0.00000000000E+00 -0.45593999997E+02  0.45594000000E+02  0.51100000000E-03 0.  1.
         23    2    1    2    0    0 -0.71054273576E-14  0.00000000000E+00  0.00000000000E+00  0.91188000000E+02  0.91188000000E+02 0.  0.
    9900012    2    3    3    0    0  0.32748613707E+02  0.13376555052E+02  0.20044009816E+02  0.50528852760E+02  0.29999978449E+02 0.  0.
        -12    1    3    3    0    0 -0.32748613707E+02 -0.13376555052E+02 -0.20044009816E+02  0.40659147240E+02  0.00000000000E+00 0.  1.
         11    1    4    4    0    0  0.27591065568E+02  0.94236378652E+01  0.15112172826E+02  0.32839756661E+02  0.51100000000E-03 0. -1.
        -11    1    4    4    0    0 -0.81280184710E+00  0.33302329273E+01 -0.50130309443E+01  0.60730204760E+01  0.51100000000E-03 0.  1.
        -12    1    4    4    0    0  0.59703499861E+01  0.62268425995E+00  0.99448679345E+01  0.11616075623E+02  0.00000000000E+00 0.  1.
</event>
<event>
 8    1  0.2031623E-013  0.9118800E+02  0.7816164E-02  0.1184000E+00
        -11   -1    0    0    0    0  0.00000000000E+00  0.00000000000E+00  0.45593999997E+02  0.45594000000E+02  0.51100000000E-03 0. -1.
         11   -1    0    0    0    0 -0.00000000000E+00 -0.00000000000E+00 -0.45593999997E+02  0.45594000000E+02  0.51100000000E-03 0.  1.
         23    2    1    2    0    0 -0.35527136788E-14 -0.35527136788E-14  0.17763568394E-14  0.91188000000E+02  0.91188000000E+02 0.  0.
    9900012    2    3    3    0    0  0.30607043677E+02  0.24331082590E+02 -0.11152270591E+02  0.50528857831E+02  0.29999993862E+02 0.  0.
         12    1    3    3    0    0 -0.30607043677E+02 -0.24331082590E+02  0.11152270591E+02  0.40659142169E+02  0.00000000000E+00 0. -1.
         11    1    4    4    0    0 -0.40477182202E+01  0.72246871896E+01 -0.43674171190E+01  0.93623960784E+01  0.51100000000E-03 0. -1.
        -11    1    4    4    0    0  0.25540631916E+02  0.72454503141E+01 -0.78823427445E+01  0.27693893845E+02  0.51100000000E-03 0.  1.
         12    1    4    4    0    0  0.91141299812E+01  0.98609450862E+01  0.10974892721E+01  0.13472567907E+02  0.00000000000E+00 0. -1.
</event>
<event>
 8    1  0.2031623E-013  0.9118800E+02  0.7816164E-02  0.1184000E+00
        -11   -1    0    0    0    0  0.00000000000E+00  0.00000000000E+00  0.45593999997E+02  0.45594000000E+02  0.51100000000E-03 0. -1.
         11   -1    0    0    0    0 -0.00000000000E+00 -0.00000000000E+00 -0.45593999997E+02  0.45594000000E+02  0.51100000000E-03 0.  1.
         23    2    1    2    0    0  0.00000000000E+00  0.00000000000E+00  0.00000000000E+00  0.91188000000E+02  0.91188000000E+02 0.  0.
    9900012    2    3    3    0    0  0.12866349484E+02  0.26411974293E+02  0.28107492522E+02  0.50528850095E+02  0.29999970349E+02 0.  0.
        -12    1    3    3    0    0 -0.12866349484E+02 -0.26411974293E+02 -0.28107492522E+02  0.40659149905E+02  0.00000000000E+00 0.  1.
         11    1    4    4    0    0  0.68946265792E+01  0.82117042870E+01  0.16799725519E+02  0.19929845477E+02  0.51100000000E-03 0. -1.
        -11    1    4    4    0    0  0.30474551951E+01  0.98880538909E+01 -0.54286739125E+01  0.11684652054E+02  0.51100000000E-03 0.  1.
        -12    1    4    4    0    0  0.29242677098E+01  0.83122161150E+01  0.16736440916E+02  0.18914352564E+02  0.00000000000E+00 0.  1.
</event>
<event>
 8    1  0.2031623E-013  0.9118800E+02  0.7816164E-02  0.1184000E+00
        -11   -1    0    0    0    0  0.00000000000E+00  0.00000000000E+00  0.45593999997E+02  0.45594000000E+02  0.51100000000E-03 0. -1.
         11   -1    0    0    0    0 -0.00000000000E+00 -0.00000000000E+00 -0.45593999997E+02  0.45594000000E+02  0.51100000000E-03 0.  1.
         23    2    1    2    0    0  0.66613381478E-15  0.00000000000E+00  0.00000000000E+00  0.91188000000E+02  0.91188000000E+02 0.  0.
    9900012    2    3    3    0    0 -0.14575044902E+01  0.15790057920E+02 -0.37439486810E+02  0.50528863006E+02  0.30000009595E+02 0.  0.
         12    1    3    3    0    0  0.14575044902E+01 -0.15790057920E+02  0.37439486810E+02  0.40659136994E+02  0.00000000000E+00 0. -1.
         11    1    4    4    0    0  0.47704556310E+00  0.20874895214E+02 -0.31666246259E+02  0.37930726002E+02  0.51100000000E-03 0. -1.
        -11    1    4    4    0    0 -0.51387476082E+01 -0.60580455614E-01 -0.18423018145E+01  0.54593473245E+01  0.51100000000E-03 0.  1.
         12    1    4    4    0    0  0.32041975549E+01 -0.50242568378E+01 -0.39309387364E+01  0.71387896798E+01  0.00000000000E+00 0. -1.
</event>
<event>
 8    1  0.2031623E-013  0.9118800E+02  0.7816164E-02  0.1184000E+00
        -11   -1    0    0    0    0  0.00000000000E+00  0.00000000000E+00  0.45593999997E+02  0.45594000000E+02  0.51100000000E-03 0. -1.
         11   -1    0    0    0    0 -0.00000000000E+00 -0.00000000000E+00 -0.45593999997E+02  0.45594000000E+02  0.51100000000E-03 0.  1.
         23    2    1    2    0    0  0.00000000000E+00  0.00000000000E+00  0.35527136788E-14  0.91188000000E+02  0.91188000000E+02 0.  0.
    9900012    2    3    3    0    0 -0.23612932399E+02  0.90339427738E+01 -0.31842957841E+02  0.50528970713E+02  0.30000336976E+02 0.  0.
         12    1    3    3    0    0  0.23612932399E+02 -0.90339427738E+01  0.31842957841E+02  0.40659029287E+02  0.00000000000E+00 0. -1.
         11    1    4    4    0    0 -0.10336751724E+02 -0.40266657592E+01  0.14494698812E+01  0.11187646604E+02  0.51100000000E-03 0. -1.
        -11    1    4    4    0    0 -0.38363612669E+01  0.70416220303E+01 -0.65636418807E+01  0.10362601198E+02  0.51100000000E-03 0.  1.
         12    1    4    4    0    0 -0.94398194081E+01  0.60189865027E+01 -0.26728785842E+02  0.28978722911E+02  0.00000000000E+00 0. -1.
</event>
<event>
 8    1  0.2031623E-013  0.9118800E+02  0.7816164E-02  0.1184000E+00
        -11   -1    0    0    0    0  0.00000000000E+00  0.00000000000E+00  0.45593999997E+02  0.45594000000E+02  0.51100000000E-03 0.  1.
         11   -1    0    0    0    0 -0.00000000000E+00 -0.00000000000E+00 -0.45593999997E+02  0.45594000000E+02  0.51100000000E-03 0. -1.
         23    2    1    2    0    0  0.00000000000E+00  0.33306690739E-15  0.00000000000E+00  0.91188000000E+02  0.91188000000E+02 0.  0.
    9900012    2    3    3    0    0 -0.29790518865E+02 -0.58648840554E+00  0.27664900278E+02  0.50528859696E+02  0.29999999532E+02 0.  0.
        -12    1    3    3    0    0  0.29790518865E+02  0.58648840554E+00 -0.27664900278E+02  0.40659140304E+02  0.00000000000E+00 0.  1.
         11    1    4    4    0    0  0.24271401053E+01  0.62620685222E+01  0.63025533841E+00  0.67454972626E+01  0.51100000000E-03 0. -1.
        -11    1    4    4    0    0 -0.26530867134E+02 -0.23868320465E+01  0.24295742080E+02  0.36053667797E+02  0.51100000000E-03 0.  1.
        -12    1    4    4    0    0 -0.56867918361E+01 -0.44617248813E+01  0.27389028592E+01  0.77296946366E+01  0.00000000000E+00 0.  1.
</event>
<event>
 8    1  0.2031623E-013  0.9118800E+02  0.7816164E-02  0.1184000E+00
        -11   -1    0    0    0    0  0.00000000000E+00  0.00000000000E+00  0.45593999997E+02  0.45594000000E+02  0.51100000000E-03 0. -1.
         11   -1    0    0    0    0 -0.00000000000E+00 -0.00000000000E+00 -0.45593999997E+02  0.45594000000E+02  0.51100000000E-03 0.  1.
         23    2    1    2    0    0 -0.17763568394E-14  0.00000000000E+00 -0.17763568394E-14  0.91188000000E+02  0.91188000000E+02 0.  0.
    9900012    2    3    3    0    0 -0.15601061298E+02  0.35902987340E+02  0.10988542771E+02  0.50528859751E+02  0.29999999700E+02 0.  0.
        -12    1    3    3    0    0  0.15601061298E+02 -0.35902987340E+02 -0.10988542771E+02  0.40659140249E+02  0.00000000000E+00 0.  1.
         11    1    4    4    0    0 -0.90836233646E+01  0.11441403621E+02  0.59195947598E+00  0.14620818942E+02  0.51100000000E-03 0. -1.
        -11    1    4    4    0    0  0.73008438427E+01  0.14572770917E+02  0.95583040716E+01  0.18895215003E+02  0.51100000000E-03 0.  1.
        -12    1    4    4    0    0 -0.13818281776E+02  0.98888128008E+01  0.83827922290E+00  0.17012825806E+02  0.00000000000E+00 0.  1.
</event>
<event>
 8    1  0.2031623E-013  0.9118800E+02  0.7816164E-02  0.1184000E+00
        -11   -1    0    0    0    0  0.00000000000E+00  0.00000000000E+00  0.45593999997E+02  0.45594000000E+02  0.51100000000E-03 0.  1.
         11   -1    0    0    0    0 -0.00000000000E+00 -0.00000000000E+00 -0.45593999997E+02  0.45594000000E+02  0.51100000000E-03 0. -1.
         23    2    1    2    0    0  0.71054273576E-14  0.35527136788E-14  0.88817841970E-15  0.91188000000E+02  0.91188000000E+02 0.  0.
    9900012    2    3    3    0    0 -0.33495029222E+02 -0.22401078514E+02 -0.54256116882E+01  0.50528898148E+02  0.30000116411E+02 0.  0.
         12    1    3    3    0    0  0.33495029222E+02  0.22401078514E+02  0.54256116882E+01  0.40659101852E+02  0.00000000000E+00 0. -1.
         11    1    4    4    0    0 -0.24453726487E+02 -0.22343829611E+02 -0.12818317288E+02  0.35518174490E+02  0.51100000000E-03 0. -1.
        -11    1    4    4    0    0 -0.28178302567E+01  0.45095111913E+01  0.34949266255E+01  0.63632044537E+01  0.51100000000E-03 0.  1.
        -12    1    4    4    0    0 -0.62234724790E+01 -0.45667600950E+01  0.38977789739E+01  0.86475192044E+01  0.00000000000E+00 0.  1.
</event>
<event>
 8    1  0.2031623E-013  0.9118800E+02  0.7816164E-02  0.1184000E+00
        -11   -1    0    0    0    0  0.00000000000E+00  0.00000000000E+00  0.45593999997E+02  0.45594000000E+02  0.51100000000E-03 0. -1.
         11   -1    0    0    0    0 -0.00000000000E+00 -0.00000000000E+00 -0.45593999997E+02  0.45594000000E+02  0.51100000000E-03 0.  1.
         23    2    1    2    0    0  0.18873791419E-14  0.00000000000E+00 -0.71054273576E-14  0.91188000000E+02  0.91188000000E+02 0.  0.
    9900012    2    3    3    0    0 -0.97177398125E+00  0.11009924930E+02  0.39128028823E+02  0.50528862881E+02  0.30000009214E+02 0.  0.
        -12    1    3    3    0    0  0.97177398125E+00 -0.11009924930E+02 -0.39128028823E+02  0.40659137119E+02  0.00000000000E+00 0.  1.
         11    1    4    4    0    0  0.75172769589E+01 -0.73478462314E-01  0.12608703522E+01  0.76226403738E+01  0.51100000000E-03 0. -1.
        -11    1    4    4    0    0 -0.52664334977E+01 -0.61789852009E+00  0.23537455839E+02  0.24127348549E+02  0.51100000000E-03 0.  1.
         12    1    4    4    0    0 -0.32226174425E+01  0.11701301912E+02  0.14329702632E+02  0.18778873959E+02  0.00000000000E+00 0. -1.
</event>
<event>
 8    1  0.2031623E-013  0.9118800E+02  0.7816164E-02  0.1184000E+00
        -11   -1    0    0    0    0  0.00000000000E+00  0.00000000000E+00  0.45593999997E+02  0.45594000000E+02  0.51100000000E-03 0. -1.
         11   -1    0    0    0    0 -0.00000000000E+00 -0.00000000000E+00 -0.45593999997E+02  0.45594000000E+02  0.51100000000E-03 0.  1.
         23    2    1    2    0    0  0.35527136788E-14  0.00000000000E+00  0.35527136788E-14  0.91188000000E+02  0.91188000000E+02 0.  0.
    9900012    2    3    3    0    0  0.26740588457E+02  0.34405681130E+01  0.30434669970E+02  0.50528859378E+02  0.29999998565E+02 0.  0.
        -12    1    3    3    0    0 -0.26740588457E+02 -0.34405681130E+01 -0.30434669970E+02  0.40659140622E+02  0.00000000000E+00 0.  1.
         11    1    4    4    0    0  0.17724269636E+02 -0.57537599951E+01  0.32005775452E+02  0.37035458020E+02  0.51100000000E-03 0. -1.
        -11    1    4    4    0    0  0.85036005326E+01  0.73221721275E+01 -0.40497099715E+00  0.11228954914E+02  0.51100000000E-03 0.  1.
         12    1    4    4    0    0  0.51271828864E+00  0.18721559805E+01 -0.11661344854E+01  0.22644464438E+01  0.00000000000E+00 0. -1.
</event>
<event>
 8    1  0.2031623E-013  0.9118800E+02  0.7816164E-02  0.1184000E+00
        -11   -1    0    0    0    0  0.00000000000E+00  0.00000000000E+00  0.45593999997E+02  0.45594000000E+02  0.51100000000E-03 0. -1.
         11   -1    0    0    0    0 -0.00000000000E+00 -0.00000000000E+00 -0.45593999997E+02  0.45594000000E+02  0.51100000000E-03 0.  1.
         23    2    1    2    0    0 -0.17763568394E-14  0.35527136788E-14  0.00000000000E+00  0.91188000000E+02  0.91188000000E+02 0.  0.
    9900012    2    3    3    0    0  0.14264257397E+02 -0.24443835354E+02  0.29192384928E+02  0.50528862482E+02  0.30000008002E+02 0.  0.
        -12    1    3    3    0    0 -0.14264257397E+02  0.24443835354E+02 -0.29192384928E+02  0.40659137518E+02  0.00000000000E+00 0.  1.
         11    1    4    4    0    0  0.12875616821E+02 -0.26913579256E+02  0.15789859832E+02  0.33755620727E+02  0.51100000000E-03 0. -1.
        -11    1    4    4    0    0  0.38707051984E+00  0.32978241715E+01  0.12686760626E-01  0.33204862699E+01  0.51100000000E-03 0.  1.
         12    1    4    4    0    0  0.10015700557E+01 -0.82808026941E+00  0.13389838335E+02  0.13452755485E+02  0.00000000000E+00 0. -1.
</event>
<event>
 8    1  0.2031623E-013  0.9118800E+02  0.7816164E-02  0.1184000E+00
        -11   -1    0    0    0    0  0.00000000000E+00  0.00000000000E+00  0.45593999997E+02  0.45594000000E+02  0.51100000000E-03 0. -1.
         11   -1    0    0    0    0 -0.00000000000E+00 -0.00000000000E+00 -0.45593999997E+02  0.45594000000E+02  0.51100000000E-03 0.  1.
         23    2    1    2    0    0 -0.22204460493E-15  0.17763568394E-14  0.00000000000E+00  0.91188000000E+02  0.91188000000E+02 0.  0.
    9900012    2    3    3    0    0  0.13943473563E+01  0.14061850645E+02 -0.38124487450E+02  0.50528974047E+02  0.30000347111E+02 0.  0.
         12    1    3    3    0    0 -0.13943473563E+01 -0.14061850645E+02  0.38124487450E+02  0.40659025953E+02  0.00000000000E+00 0. -1.
         11    1    4    4    0    0  0.41236095222E+01 -0.67575101420E+01 -0.61732303547E+01  0.10038768455E+02  0.51100000000E-03 0. -1.
        -11    1    4    4    0    0 -0.19757857251E+00  0.13138302445E+02 -0.84155261499E+01  0.15603688957E+02  0.51100000000E-03 0.  1.
         12    1    4    4    0    0 -0.25316835934E+01  0.76810583414E+01 -0.23535730946E+02  0.24886516635E+02  0.00000000000E+00 0. -1.
</event>
<event>
 8    1  0.2031623E-013  0.9118800E+02  0.7816164E-02  0.1184000E+00
        -11   -1    0    0    0    0  0.00000000000E+00  0.00000000000E+00  0.45593999997E+02  0.45594000000E+02  0.51100000000E-03 0. -1.
         11   -1    0    0    0    0 -0.00000000000E+00 -0.00000000000E+00 -0.45593999997E+02  0.45594000000E+02  0.51100000000E-03 0.  1.
         23    2    1    2    0    0 -0.17763568394E-14  0.00000000000E+00  0.00000000000E+00  0.91188000000E+02  0.91188000000E+02 0.  0.
    9900012    2    3    3    0    0 -0.12499102746E+02 -0.37750976975E+02 -0.84735439684E+01  0.50528870897E+02  0.30000033579E+02 0.  0.
         12    1    3    3    0    0  0.12499102746E+02  0.37750976975E+02  0.84735439684E+01  0.40659129103E+02  0.00000000000E+00 0. -1.
         11    1    4    4    0    0 -0.12626997955E+02 -0.25301115665E+01  0.24916983755E+01  0.13116825186E+02  0.51100000000E-03 0. -1.
        -11    1    4    4    0    0  0.27625609905E+01 -0.25161282997E+02 -0.67996584352E+01  0.26209869522E+02  0.51100000000E-03 0.  1.
         12    1    4    4    0    0 -0.26346657813E+01 -0.10059582411E+02 -0.41655839088E+01  0.11202176189E+02  0.00000000000E+00 0. -1.
</event>
<event>
 8    1  0.2281327E-013  0.9118800E+02  0.7816164E-02  0.1184000E+00
        -11   -1    0    0    0    0  0.00000000000E+00  0.00000000000E+00  0.45593999997E+02  0.45594000000E+02  0.51100000000E-03 0. -1.
         11   -1    0    0    0    0 -0.00000000000E+00 -0.00000000000E+00 -0.45593999997E+02  0.45594000000E+02  0.51100000000E-03 0.  1.
         23    2    1    2    0    0  0.00000000000E+00 -0.71054273576E-14 -0.35527136788E-14  0.91188000000E+02  0.91188000000E+02 0.  0.
    9900012    2    3    3    0    0  0.10428252592E+02  0.33456513247E+02 -0.20617494453E+02  0.50528833650E+02  0.29999920362E+02 0.  0.
         12    1    3    3    0    0 -0.10428252592E+02 -0.33456513247E+02  0.20617494453E+02  0.40659166350E+02  0.00000000000E+00 0. -1.
         11    1    4    4    0    0  0.29163853380E+01 -0.45842170329E+01 -0.39278726386E+01  0.67043667092E+01  0.51100000000E-03 0. -1.
        -11    1    4    4    0    0  0.97330716963E+01  0.26565763879E+02 -0.14975322504E+02  0.32011447632E+02  0.51100000000E-03 0.  1.
         12    1    4    4    0    0 -0.22212044419E+01  0.11474966401E+02 -0.17142993104E+01  0.11813019309E+02  0.00000000000E+00 0. -1.
</event>
<event>
 8    1  0.2031623E-013  0.9118800E+02  0.7816164E-02  0.1184000E+00
        -11   -1    0    0    0    0  0.00000000000E+00  0.00000000000E+00  0.45593999997E+02  0.45594000000E+02  0.51100000000E-03 0. -1.
         11   -1    0    0    0    0 -0.00000000000E+00 -0.00000000000E+00 -0.45593999997E+02  0.45594000000E+02  0.51100000000E-03 0.  1.
         23    2    1    2    0    0 -0.35527136788E-14 -0.44408920985E-15  0.00000000000E+00  0.91188000000E+02  0.91188000000E+02 0.  0.
    9900012    2    3    3    0    0  0.27851537630E+02  0.30015544337E+01 -0.29469445878E+02  0.50528859359E+02  0.29999998506E+02 0.  0.
         12    1    3    3    0    0 -0.27851537630E+02 -0.30015544337E+01  0.29469445878E+02  0.40659140641E+02  0.00000000000E+00 0. -1.
         11    1    4    4    0    0  0.21388003068E+01  0.70065455228E+01 -0.51960647462E+01  0.89813827456E+01  0.51100000000E-03 0. -1.
        -11    1    4    4    0    0  0.26871741337E+02 -0.58325033111E+01 -0.26678189589E+02  0.38312326703E+02  0.51100000000E-03 0.  1.
        -12    1    4    4    0    0 -0.11590040142E+01  0.18275122221E+01  0.24048084573E+01  0.32351499105E+01  0.00000000000E+00 0.  1.
</event>
<event>
 8    1  0.2031623E-013  0.9118800E+02  0.7816164E-02  0.1184000E+00
        -11   -1    0    0    0    0  0.00000000000E+00  0.00000000000E+00  0.45593999997E+02  0.45594000000E+02  0.51100000000E-03 0.  1.
         11   -1    0    0    0    0 -0.00000000000E+00 -0.00000000000E+00 -0.45593999997E+02  0.45594000000E+02  0.51100000000E-03 0. -1.
         23    2    1    2    0    0  0.00000000000E+00  0.00000000000E+00  0.88817841970E-15  0.91188000000E+02  0.91188000000E+02 0.  0.
    9900012    2    3    3    0    0  0.86529533324E+01  0.39567384032E+02 -0.35655631181E+01  0.50528871617E+02  0.30000035768E+02 0.  0.
         12    1    3    3    0    0 -0.86529533324E+01 -0.39567384032E+02  0.35655631181E+01  0.40659128383E+02  0.00000000000E+00 0. -1.
         11    1    4    4    0    0 -0.47938182684E+01  0.15611835112E+02 -0.12992718537E+01  0.16382862899E+02  0.51100000000E-03 0. -1.
        -11    1    4    4    0    0  0.18674796299E+01 -0.35058221428E+01 -0.17451759679E+01  0.43386528422E+01  0.51100000000E-03 0.  1.
        -12    1    4    4    0    0  0.11579291971E+02  0.27461371062E+02 -0.52111529653E+00  0.29807355876E+02  0.00000000000E+00 0.  1.
</event>
<event>
 8    1  0.2031623E-013  0.9118800E+02  0.7816164E-02  0.1184000E+00
        -11   -1    0    0    0    0  0.00000000000E+00  0.00000000000E+00  0.45593999997E+02  0.45594000000E+02  0.51100000000E-03 0. -1.
         11   -1    0    0    0    0 -0.00000000000E+00 -0.00000000000E+00 -0.45593999997E+02  0.45594000000E+02  0.51100000000E-03 0.  1.
         23    2    1    2    0    0  0.17763568394E-14 -0.35527136788E-14  0.00000000000E+00  0.91188000000E+02  0.91188000000E+02 0.  0.
    9900012    2    3    3    0    0 -0.11854188599E+02  0.18086595053E+02 -0.34431356234E+02  0.50528868184E+02  0.30000025331E+02 0.  0.
         12    1    3    3    0    0  0.11854188599E+02 -0.18086595053E+02  0.34431356234E+02  0.40659131816E+02  0.00000000000E+00 0. -1.
         11    1    4    4    0    0  0.96852308209E+01  0.42088194470E+01 -0.71441261142E+01  0.12749760601E+02  0.51100000000E-03 0. -1.
        -11    1    4    4    0    0 -0.10757126710E+02  0.59737762250E+01 -0.95929828090E+01  0.15602150393E+02  0.51100000000E-03 0.  1.
         12    1    4    4    0    0 -0.10782292710E+02  0.79039993814E+01 -0.17694247310E+02  0.22176957190E+02  0.00000000000E+00 0. -1.
</event>
<event>
 8    1  0.2031623E-013  0.9118800E+02  0.7816164E-02  0.1184000E+00
        -11   -1    0    0    0    0  0.00000000000E+00  0.00000000000E+00  0.45593999997E+02  0.45594000000E+02  0.51100000000E-03 0. -1.
         11   -1    0    0    0    0 -0.00000000000E+00 -0.00000000000E+00 -0.45593999997E+02  0.45594000000E+02  0.51100000000E-03 0.  1.
         23    2    1    2    0    0 -0.17763568394E-14 -0.17763568394E-14  0.00000000000E+00  0.91188000000E+02  0.91188000000E+02 0.  0.
    9900012    2    3    3    0    0  0.60604293623E+01  0.15069270952E+02 -0.37274053593E+02  0.50528846020E+02  0.29999957964E+02 0.  0.
         12    1    3    3    0    0 -0.60604293623E+01 -0.15069270952E+02  0.37274053593E+02  0.40659153980E+02  0.00000000000E+00 0. -1.
         11    1    4    4    0    0 -0.87748276279E+01  0.10865450939E+02 -0.16843996859E+02  0.21880947293E+02  0.51100000000E-03 0. -1.
        -11    1    4    4    0    0  0.13301115378E+02  0.58375553847E+01 -0.91948200053E+01  0.17191318692E+02  0.51100000000E-03 0.  1.
         12    1    4    4    0    0  0.15341416123E+01 -0.16337353723E+01 -0.11235236729E+02  0.11456580036E+02  0.00000000000E+00 0. -1.
</event>
<event>
 8    1  0.2031623E-013  0.9118800E+02  0.7816164E-02  0.1184000E+00
        -11   -1    0    0    0    0  0.00000000000E+00  0.00000000000E+00  0.45593999997E+02  0.45594000000E+02  0.51100000000E-03 0. -1.
         11   -1    0    0    0    0 -0.00000000000E+00 -0.00000000000E+00 -0.45593999997E+02  0.45594000000E+02  0.51100000000E-03 0.  1.
         23    2    1    2    0    0 -0.17763568394E-14  0.44408920985E-15  0.71054273576E-14  0.91188000000E+02  0.91188000000E+02 0.  0.
    9900012    2    3    3    0    0 -0.15280429316E+02 -0.25472499751E+01  0.37592364346E+02  0.50528857613E+02  0.29999993200E+02 0.  0.
        -12    1    3    3    0    0  0.15280429316E+02  0.25472499751E+01 -0.37592364346E+02  0.40659142387E+02  0.00000000000E+00 0.  1.
         11    1    4    4    0    0 -0.11374596636E+02  0.97706827627E+01  0.18587946174E+02  0.23882199093E+02  0.51100000000E-03 0. -1.
        -11    1    4    4    0    0 -0.14963711213E-01 -0.12016062954E+02  0.19297849153E+02  0.22733081072E+02  0.51100000000E-03 0.  1.
        -12    1    4    4    0    0 -0.38908689694E+01 -0.30186978403E+00 -0.29343098079E+00  0.39135774483E+01  0.00000000000E+00 0.  1.
</event>
<event>
 8    1  0.2031623E-013  0.9118800E+02  0.7816164E-02  0.1184000E+00
        -11   -1    0    0    0    0  0.00000000000E+00  0.00000000000E+00  0.45593999997E+02  0.45594000000E+02  0.51100000000E-03 0. -1.
         11   -1    0    0    0    0 -0.00000000000E+00 -0.00000000000E+00 -0.45593999997E+02  0.45594000000E+02  0.51100000000E-03 0.  1.
         23    2    1    2    0    0  0.00000000000E+00 -0.22204460493E-14  0.00000000000E+00  0.91188000000E+02  0.91188000000E+02 0.  0.
    9900012    2    3    3    0    0  0.27961283063E+02  0.67528075808E+00  0.29510617435E+02  0.50528857166E+02  0.29999991840E+02 0.  0.
        -12    1    3    3    0    0 -0.27961283063E+02 -0.67528075808E+00 -0.29510617435E+02  0.40659142834E+02  0.00000000000E+00 0.  1.
         11    1    4    4    0    0  0.13861567113E+02  0.12283266817E+02  0.16924241600E+02  0.25088874836E+02  0.51100000000E-03 0. -1.
        -11    1    4    4    0    0  0.26953001965E+01 -0.10230911594E+02  0.68093510365E+01  0.12581870171E+02  0.51100000000E-03 0.  1.
        -12    1    4    4    0    0  0.11404415753E+02 -0.13770744648E+01  0.57770247984E+01  0.12858112158E+02  0.00000000000E+00 0.  1.
</event>
<event>
 8    1  0.2031623E-013  0.9118800E+02  0.7816164E-02  0.1184000E+00
        -11   -1    0    0    0    0  0.00000000000E+00  0.00000000000E+00  0.45593999997E+02  0.45594000000E+02  0.51100000000E-03 0. -1.
         11   -1    0    0    0    0 -0.00000000000E+00 -0.00000000000E+00 -0.45593999997E+02  0.45594000000E+02  0.51100000000E-03 0.  1.
         23    2    1    2    0    0 -0.22204460493E-15  0.88817841970E-15 -0.14210854715E-13  0.91188000000E+02  0.91188000000E+02 0.  0.
    9900012    2    3    3    0    0  0.17695312589E+01 -0.46455583918E+01  0.40354044588E+02  0.50528912845E+02  0.30000161083E+02 0.  0.
        -12    1    3    3    0    0 -0.17695312589E+01  0.46455583918E+01 -0.40354044588E+02  0.40659087155E+02  0.00000000000E+00 0.  1.
         11    1    4    4    0    0  0.42791116157E+01  0.23148907076E+01  0.92892726128E+01  0.10486186206E+02  0.51100000000E-03 0. -1.
        -11    1    4    4    0    0 -0.11119564665E+02 -0.37169432039E+01  0.56518110023E+01  0.13015504331E+02  0.51100000000E-03 0.  1.
        -12    1    4    4    0    0  0.86099843082E+01 -0.32435058955E+01  0.25412960973E+02  0.27027222308E+02  0.00000000000E+00 0.  1.
</event>
<event>
 8    1  0.2031623E-013  0.9118800E+02  0.7816164E-02  0.1184000E+00
        -11   -1    0    0    0    0  0.00000000000E+00  0.00000000000E+00  0.45593999997E+02  0.45594000000E+02  0.51100000000E-03 0. -1.
         11   -1    0    0    0    0 -0.00000000000E+00 -0.00000000000E+00 -0.45593999997E+02  0.45594000000E+02  0.51100000000E-03 0.  1.
         23    2    1    2    0    0  0.00000000000E+00  0.00000000000E+00  0.00000000000E+00  0.91188000000E+02  0.91188000000E+02 0.  0.
    9900012    2    3    3    0    0  0.23812727221E+02 -0.11275153099E+02 -0.30967755226E+02  0.50528721614E+02  0.29999579815E+02 0.  0.
         12    1    3    3    0    0 -0.23812727221E+02  0.11275153099E+02  0.30967755226E+02  0.40659278386E+02  0.00000000000E+00 0. -1.
         11    1    4    4    0    0  0.12824384559E+02  0.60995003428E+01 -0.16200412748E+02  0.21543493617E+02  0.51100000000E-03 0. -1.
        -11    1    4    4    0    0  0.40417216126E+01 -0.17115840892E+02 -0.81333206537E+01  0.19376233591E+02  0.51100000000E-03 0.  1.
        -12    1    4    4    0    0  0.69466210490E+01 -0.25881254938E+00 -0.66340218245E+01  0.96089944064E+01  0.00000000000E+00 0.  1.
</event>
<event>
 8    1  0.2031623E-013  0.9118800E+02  0.7816164E-02  0.1184000E+00
        -11   -1    0    0    0    0  0.00000000000E+00  0.00000000000E+00  0.45593999997E+02  0.45594000000E+02  0.51100000000E-03 0. -1.
         11   -1    0    0    0    0 -0.00000000000E+00 -0.00000000000E+00 -0.45593999997E+02  0.45594000000E+02  0.51100000000E-03 0.  1.
         23    2    1    2    0    0  0.17763568394E-14  0.00000000000E+00 -0.71054273576E-14  0.91188000000E+02  0.91188000000E+02 0.  0.
    9900012    2    3    3    0    0 -0.13698322983E+02 -0.14600611835E+02  0.35388469338E+02  0.50528859815E+02  0.29999999894E+02 0.  0.
        -12    1    3    3    0    0  0.13698322983E+02  0.14600611835E+02 -0.35388469338E+02  0.40659140185E+02  0.00000000000E+00 0.  1.
         11    1    4    4    0    0 -0.63395092395E+01  0.61284183239E+01  0.11951377004E+02  0.14852013369E+02  0.51100000000E-03 0. -1.
        -11    1    4    4    0    0 -0.21591429294E+01 -0.21045047704E+02  0.21375785954E+02  0.30074576580E+02  0.51100000000E-03 0.  1.
        -12    1    4    4    0    0 -0.51996708142E+01  0.31601754564E+00  0.20613063798E+01  0.56022698664E+01  0.00000000000E+00 0.  1.
</event>
<event>
 8    1  0.2031623E-013  0.9118800E+02  0.7816164E-02  0.1184000E+00
        -11   -1    0    0    0    0  0.00000000000E+00  0.00000000000E+00  0.45593999997E+02  0.45594000000E+02  0.51100000000E-03 0.  1.
         11   -1    0    0    0    0 -0.00000000000E+00 -0.00000000000E+00 -0.45593999997E+02  0.45594000000E+02  0.51100000000E-03 0. -1.
         23    2    1    2    0    0  0.00000000000E+00  0.00000000000E+00 -0.17763568394E-14  0.91188000000E+02  0.91188000000E+02 0.  0.
    9900012    2    3    3    0    0 -0.32138745912E+02 -0.21792420219E+02  0.12056423714E+02  0.50528856864E+02  0.29999990925E+02 0.  0.
        -12    1    3    3    0    0  0.32138745912E+02  0.21792420219E+02 -0.12056423714E+02  0.40659143136E+02  0.00000000000E+00 0.  1.
         11    1    4    4    0    0 -0.29122175088E+02 -0.28097816742E+02  0.12652780992E+02  0.42399071389E+02  0.51100000000E-03 0. -1.
        -11    1    4    4    0    0  0.73084491254E+00  0.30717219482E+01 -0.18057576466E+00  0.31626283186E+01  0.51100000000E-03 0.  1.
         12    1    4    4    0    0 -0.37474157357E+01  0.32336745750E+01 -0.41578151362E+00  0.49671571568E+01  0.00000000000E+00 0. -1.
</event>
<event>
 8    1  0.2031623E-013  0.9118800E+02  0.7816164E-02  0.1184000E+00
        -11   -1    0    0    0    0  0.00000000000E+00  0.00000000000E+00  0.45593999997E+02  0.45594000000E+02  0.51100000000E-03 0. -1.
         11   -1    0    0    0    0 -0.00000000000E+00 -0.00000000000E+00 -0.45593999997E+02  0.45594000000E+02  0.51100000000E-03 0.  1.
         23    2    1    2    0    0  0.44408920985E-15  0.00000000000E+00  0.35527136788E-14  0.91188000000E+02  0.91188000000E+02 0.  0.
    9900012    2    3    3    0    0 -0.20765265781E+01 -0.31366862971E+02 -0.25787115852E+02  0.50528838680E+02  0.29999935652E+02 0.  0.
         12    1    3    3    0    0  0.20765265781E+01  0.31366862971E+02  0.25787115852E+02  0.40659161320E+02  0.00000000000E+00 0. -1.
         11    1    4    4    0    0 -0.10748510209E+01 -0.27973670922E+02 -0.67336674163E+01  0.28792774210E+02  0.51100000000E-03 0. -1.
        -11    1    4    4    0    0 -0.40167260538E+01  0.17114075524E+01 -0.62202207747E+01  0.75996151711E+01  0.51100000000E-03 0.  1.
         12    1    4    4    0    0  0.30150504966E+01 -0.51045996020E+01 -0.12833227661E+02  0.14136449299E+02  0.00000000000E+00 0. -1.
</event>
<event>
 8    1  0.2031623E-013  0.9118800E+02  0.7816164E-02  0.1184000E+00
        -11   -1    0    0    0    0  0.00000000000E+00  0.00000000000E+00  0.45593999997E+02  0.45594000000E+02  0.51100000000E-03 0. -1.
         11   -1    0    0    0    0 -0.00000000000E+00 -0.00000000000E+00 -0.45593999997E+02  0.45594000000E+02  0.51100000000E-03 0.  1.
         23    2    1    2    0    0  0.35527136788E-14  0.00000000000E+00  0.35527136788E-14  0.91188000000E+02  0.91188000000E+02 0.  0.
    9900012    2    3    3    0    0 -0.19016003726E+02 -0.18477926711E+02  0.30824036066E+02  0.50528888197E+02  0.30000086162E+02 0.  0.
        -12    1    3    3    0    0  0.19016003726E+02  0.18477926711E+02 -0.30824036066E+02  0.40659111803E+02  0.00000000000E+00 0.  1.
         11    1    4    4    0    0 -0.90563230667E+00 -0.42616976110E+01  0.15802969372E+02  0.16392561656E+02  0.51100000000E-03 0. -1.
        -11    1    4    4    0    0 -0.14089998922E+02 -0.18660129009E+02  0.75756677254E+01  0.24578836954E+02  0.51100000000E-03 0.  1.
        -12    1    4    4    0    0 -0.40203724969E+01  0.44438999083E+01  0.74453989687E+01  0.95574895873E+01  0.00000000000E+00 0.  1.
</event>
<event>
 8    1  0.2031623E-013  0.9118800E+02  0.7816164E-02  0.1184000E+00
        -11   -1    0    0    0    0  0.00000000000E+00  0.00000000000E+00  0.45593999997E+02  0.45594000000E+02  0.51100000000E-03 0. -1.
         11   -1    0    0    0    0 -0.00000000000E+00 -0.00000000000E+00 -0.45593999997E+02  0.45594000000E+02  0.51100000000E-03 0.  1.
         23    2    1    2    0    0 -0.17763568394E-14  0.00000000000E+00  0.00000000000E+00  0.91188000000E+02  0.91188000000E+02 0.  0.
    9900012    2    3    3    0    0  0.42607952124E+01 -0.32935999797E+02  0.23457008446E+02  0.50528859531E+02  0.29999999029E+02 0.  0.
        -12    1    3    3    0    0 -0.42607952124E+01  0.32935999797E+02 -0.23457008446E+02  0.40659140469E+02  0.00000000000E+00 0.  1.
         11    1    4    4    0    0  0.92108459627E+01 -0.92690517928E+01  0.20600263239E+02  0.24395201378E+02  0.51100000000E-03 0. -1.
        -11    1    4    4    0    0 -0.67326110790E+01 -0.22026227209E+02  0.41256092469E+01  0.23398790330E+02  0.51100000000E-03 0.  1.
        -12    1    4    4    0    0  0.17825603287E+01 -0.16407207960E+01 -0.12688640401E+01  0.27348678228E+01  0.00000000000E+00 0.  1.
</event>
<event>
 8    1  0.2031623E-013  0.9118800E+02  0.7816164E-02  0.1184000E+00
        -11   -1    0    0    0    0  0.00000000000E+00  0.00000000000E+00  0.45593999997E+02  0.45594000000E+02  0.51100000000E-03 0. -1.
         11   -1    0    0    0    0 -0.00000000000E+00 -0.00000000000E+00 -0.45593999997E+02  0.45594000000E+02  0.51100000000E-03 0.  1.
         23    2    1    2    0    0  0.00000000000E+00 -0.17763568394E-14  0.71054273576E-14  0.91188000000E+02  0.91188000000E+02 0.  0.
    9900012    2    3    3    0    0  0.19339214604E+02  0.12706330428E+02 -0.33432161676E+02  0.50528862174E+02  0.30000007063E+02 0.  0.
         12    1    3    3    0    0 -0.19339214604E+02 -0.12706330428E+02  0.33432161676E+02  0.40659137826E+02  0.00000000000E+00 0. -1.
         11    1    4    4    0    0  0.49803838063E+01  0.18251894494E+02 -0.89071315382E+01  0.20911070465E+02  0.51100000000E-03 0. -1.
        -11    1    4    4    0    0  0.12136536216E+02 -0.18817431726E+01 -0.19038941962E+02  0.22656517384E+02  0.51100000000E-03 0.  1.
         12    1    4    4    0    0  0.22222945819E+01 -0.36638208937E+01 -0.54860881761E+01  0.69612743248E+01  0.00000000000E+00 0. -1.
</event>
<event>
 8    1  0.2031623E-013  0.9118800E+02  0.7816164E-02  0.1184000E+00
        -11   -1    0    0    0    0  0.00000000000E+00  0.00000000000E+00  0.45593999997E+02  0.45594000000E+02  0.51100000000E-03 0. -1.
         11   -1    0    0    0    0 -0.00000000000E+00 -0.00000000000E+00 -0.45593999997E+02  0.45594000000E+02  0.51100000000E-03 0.  1.
         23    2    1    2    0    0  0.00000000000E+00  0.00000000000E+00  0.00000000000E+00  0.91188000000E+02  0.91188000000E+02 0.  0.
    9900012    2    3    3    0    0  0.17685828116E+02  0.81737401474E+01  0.35687070687E+02  0.50528861318E+02  0.30000004461E+02 0.  0.
        -12    1    3    3    0    0 -0.17685828116E+02 -0.81737401474E+01 -0.35687070687E+02  0.40659138682E+02  0.00000000000E+00 0.  1.
         11    1    4    4    0    0 -0.17641462158E+01 -0.14769769748E+01  0.24298037546E+02  0.24406726567E+02  0.51100000000E-03 0. -1.
        -11    1    4    4    0    0  0.86601650394E+01  0.92745923018E+01  0.67288401752E+01  0.14362931847E+02  0.51100000000E-03 0.  1.
         12    1    4    4    0    0  0.10789809293E+02  0.37612482043E+00  0.46601929658E+01  0.11759202904E+02  0.00000000000E+00 0. -1.
</event>
<event>
 8    1  0.2031623E-013  0.9118800E+02  0.7816164E-02  0.1184000E+00
        -11   -1    0    0    0    0  0.00000000000E+00  0.00000000000E+00  0.45593999997E+02  0.45594000000E+02  0.51100000000E-03 0. -1.
         11   -1    0    0    0    0 -0.00000000000E+00 -0.00000000000E+00 -0.45593999997E+02  0.45594000000E+02  0.51100000000E-03 0.  1.
         23    2    1    2    0    0  0.35527136788E-14 -0.35527136788E-14  0.00000000000E+00  0.91188000000E+02  0.91188000000E+02 0.  0.
    9900012    2    3    3    0    0  0.58657286528E+01  0.19398408805E+02  0.35248557441E+02  0.50528857873E+02  0.29999993992E+02 0.  0.
        -12    1    3    3    0    0 -0.58657286528E+01 -0.19398408805E+02 -0.35248557441E+02  0.40659142127E+02  0.00000000000E+00 0.  1.
         11    1    4    4    0    0  0.16338106197E+02  0.11403168399E+02  0.11920113584E+02  0.23217559557E+02  0.51100000000E-03 0. -1.
        -11    1    4    4    0    0 -0.64030164463E+01  0.47164557310E+01  0.18737300572E+02  0.20355097820E+02  0.51100000000E-03 0.  1.
         12    1    4    4    0    0 -0.40693610978E+01  0.32787846754E+01  0.45911432841E+01  0.69562004965E+01  0.00000000000E+00 0. -1.
</event>
<event>
 8    1  0.2031623E-013  0.9118800E+02  0.7816164E-02  0.1184000E+00
        -11   -1    0    0    0    0  0.00000000000E+00  0.00000000000E+00  0.45593999997E+02  0.45594000000E+02  0.51100000000E-03 0. -1.
         11   -1    0    0    0    0 -0.00000000000E+00 -0.00000000000E+00 -0.45593999997E+02  0.45594000000E+02  0.51100000000E-03 0.  1.
         23    2    1    2    0    0  0.49960036108E-15  0.00000000000E+00  0.35527136788E-14  0.91188000000E+02  0.91188000000E+02 0.  0.
    9900012    2    3    3    0    0 -0.83806947497E-01  0.32481627983E+02  0.24456188233E+02  0.50528827321E+02  0.29999901126E+02 0.  0.
        -12    1    3    3    0    0  0.83806947497E-01 -0.32481627983E+02 -0.24456188233E+02  0.40659172679E+02  0.00000000000E+00 0.  1.
         11    1    4    4    0    0  0.16731552756E+01  0.79476014519E+01  0.23434280171E+02  0.24801800435E+02  0.51100000000E-03 0. -1.
        -11    1    4    4    0    0 -0.38834231414E+01  0.99019246592E+01  0.23134821004E+01  0.10884910975E+02  0.51100000000E-03 0.  1.
         12    1    4    4    0    0  0.21264609183E+01  0.14632101872E+02 -0.12915740385E+01  0.14842115911E+02  0.00000000000E+00 0. -1.
</event>
<event>
 8    1  0.2031623E-013  0.9118800E+02  0.7816164E-02  0.1184000E+00
        -11   -1    0    0    0    0  0.00000000000E+00  0.00000000000E+00  0.45593999997E+02  0.45594000000E+02  0.51100000000E-03 0. -1.
         11   -1    0    0    0    0 -0.00000000000E+00 -0.00000000000E+00 -0.45593999997E+02  0.45594000000E+02  0.51100000000E-03 0.  1.
         23    2    1    2    0    0  0.00000000000E+00  0.00000000000E+00  0.00000000000E+00  0.91188000000E+02  0.91188000000E+02 0.  0.
    9900012    2    3    3    0    0  0.16203915737E+02 -0.21025809218E+02 -0.30797938172E+02  0.50528873913E+02  0.30000042746E+02 0.  0.
         12    1    3    3    0    0 -0.16203915737E+02  0.21025809218E+02  0.30797938172E+02  0.40659126087E+02  0.00000000000E+00 0. -1.
         11    1    4    4    0    0  0.92762995148E+01 -0.22910941686E+02 -0.79064659181E+01  0.25951361914E+02  0.51100000000E-03 0. -1.
        -11    1    4    4    0    0  0.54727198487E+01 -0.34269574902E+00 -0.19558858032E+02  0.20312976904E+02  0.51100000000E-03 0.  1.
         12    1    4    4    0    0  0.14548963737E+01  0.22278282168E+01 -0.33326142220E+01  0.42645350947E+01  0.00000000000E+00 0. -1.
</event>
<event>
 8    1  0.2792627E-013  0.9118800E+02  0.7816164E-02  0.1184000E+00
        -11   -1    0    0    0    0  0.00000000000E+00  0.00000000000E+00  0.45593999997E+02  0.45594000000E+02  0.51100000000E-03 0. -1.
         11   -1    0    0    0    0 -0.00000000000E+00 -0.00000000000E+00 -0.45593999997E+02  0.45594000000E+02  0.51100000000E-03 0.  1.
         23    2    1    2    0    0  0.00000000000E+00  0.00000000000E+00  0.00000000000E+00  0.91188000000E+02  0.91188000000E+02 0.  0.
    9900012    2    3    3    0    0 -0.20172931042E+02 -0.64111892243E+01 -0.34714769794E+02  0.50528859134E+02  0.29999997824E+02 0.  0.
         12    1    3    3    0    0  0.20172931042E+02  0.64111892243E+01  0.34714769794E+02  0.40659140866E+02  0.00000000000E+00 0. -1.
         11    1    4    4    0    0 -0.66279539097E+01  0.18393333832E+00  0.44753609150E+01  0.79995287413E+01  0.51100000000E-03 0. -1.
        -11    1    4    4    0    0 -0.28408739276E+01 -0.45730362928E+01 -0.16573696859E+02  0.17426148554E+02  0.51100000000E-03 0.  1.
         12    1    4    4    0    0 -0.10704103205E+02 -0.20220862698E+01 -0.22616433850E+02  0.25103181838E+02  0.00000000000E+00 0. -1.
</event>
<event>
 8    1  0.2031623E-013  0.9118800E+02  0.7816164E-02  0.1184000E+00
        -11   -1    0    0    0    0  0.00000000000E+00  0.00000000000E+00  0.45593999997E+02  0.45594000000E+02  0.51100000000E-03 0. -1.
         11   -1    0    0    0    0 -0.00000000000E+00 -0.00000000000E+00 -0.45593999997E+02  0.45594000000E+02  0.51100000000E-03 0.  1.
         23    2    1    2    0    0 -0.35527136788E-14  0.00000000000E+00  0.35527136788E-14  0.91188000000E+02  0.91188000000E+02 0.  0.
    9900012    2    3    3    0    0 -0.15725378304E+02 -0.32032552204E+02  0.19488331817E+02  0.50528843583E+02  0.29999950556E+02 0.  0.
        -12    1    3    3    0    0  0.15725378304E+02  0.32032552204E+02 -0.19488331817E+02  0.40659156417E+02  0.00000000000E+00 0.  1.
         11    1    4    4    0    0 -0.11796483662E+02 -0.18127216031E+02  0.13627508470E+02  0.25562902323E+02  0.51100000000E-03 0. -1.
        -11    1    4    4    0    0  0.61010278295E+01 -0.10772424995E+02 -0.99388875952E+00  0.12419963606E+02  0.51100000000E-03 0.  1.
        -12    1    4    4    0    0 -0.10029922472E+02 -0.31329111778E+01  0.68547121060E+01  0.12545977654E+02  0.00000000000E+00 0.  1.
</event>
<event>
 8    1  0.2240258E-013  0.9118800E+02  0.7816164E-02  0.1184000E+00
        -11   -1    0    0    0    0  0.00000000000E+00  0.00000000000E+00  0.45593999997E+02  0.45594000000E+02  0.51100000000E-03 0. -1.
         11   -1    0    0    0    0 -0.00000000000E+00 -0.00000000000E+00 -0.45593999997E+02  0.45594000000E+02  0.51100000000E-03 0.  1.
         23    2    1    2    0    0  0.00000000000E+00  0.00000000000E+00  0.71054273576E-14  0.91188000000E+02  0.91188000000E+02 0.  0.
    9900012    2    3    3    0    0 -0.78318734651E+01  0.21029265914E+02 -0.33905717419E+02  0.50528856618E+02  0.29999990177E+02 0.  0.
         12    1    3    3    0    0  0.78318734651E+01 -0.21029265914E+02  0.33905717419E+02  0.40659143382E+02  0.00000000000E+00 0. -1.
         11    1    4    4    0    0 -0.47733794588E+01 -0.67244171943E+01 -0.77053294660E+01  0.11286055135E+02  0.51100000000E-03 0. -1.
        -11    1    4    4    0    0 -0.58146149984E+01  0.14149854664E+02 -0.14723343649E+02  0.21232168591E+02  0.51100000000E-03 0.  1.
         12    1    4    4    0    0  0.27561209921E+01  0.13603828444E+02 -0.11477044303E+02  0.18010632893E+02  0.00000000000E+00 0. -1.
</event>
<event>
 8    1  0.2031623E-013  0.9118800E+02  0.7816164E-02  0.1184000E+00
        -11   -1    0    0    0    0  0.00000000000E+00  0.00000000000E+00  0.45593999997E+02  0.45594000000E+02  0.51100000000E-03 0. -1.
         11   -1    0    0    0    0 -0.00000000000E+00 -0.00000000000E+00 -0.45593999997E+02  0.45594000000E+02  0.51100000000E-03 0.  1.
         23    2    1    2    0    0 -0.17763568394E-14  0.00000000000E+00  0.71054273576E-14  0.91188000000E+02  0.91188000000E+02 0.  0.
    9900012    2    3    3    0    0 -0.10456593127E+02  0.10063330433E+02 -0.37980974161E+02  0.50528863789E+02  0.30000011972E+02 0.  0.
         12    1    3    3    0    0  0.10456593127E+02 -0.10063330433E+02  0.37980974161E+02  0.40659136211E+02  0.00000000000E+00 0. -1.
         11    1    4    4    0    0  0.17968797854E+01  0.13203780222E+01  0.21662586478E+01  0.31088344882E+01  0.51100000000E-03 0. -1.
        -11    1    4    4    0    0 -0.29249493013E+01  0.80052102888E-01 -0.32369694993E+02  0.32501675202E+02  0.51100000000E-03 0.  1.
        -12    1    4    4    0    0 -0.93285236113E+01  0.86629003083E+01 -0.77775378161E+01  0.14918354098E+02  0.00000000000E+00 0.  1.
</event>
<event>
 8    1  0.2031623E-013  0.9118800E+02  0.7816164E-02  0.1184000E+00
        -11   -1    0    0    0    0  0.00000000000E+00  0.00000000000E+00  0.45593999997E+02  0.45594000000E+02  0.51100000000E-03 0. -1.
         11   -1    0    0    0    0 -0.00000000000E+00 -0.00000000000E+00 -0.45593999997E+02  0.45594000000E+02  0.51100000000E-03 0.  1.
         23    2    1    2    0    0  0.88817841970E-15  0.17763568394E-14 -0.71054273576E-14  0.91188000000E+02  0.91188000000E+02 0.  0.
    9900012    2    3    3    0    0  0.33375506943E+01  0.96847947729E+01 -0.39347585863E+02  0.50528843495E+02  0.29999950288E+02 0.  0.
         12    1    3    3    0    0 -0.33375506943E+01 -0.96847947729E+01  0.39347585863E+02  0.40659156505E+02  0.00000000000E+00 0. -1.
         11    1    4    4    0    0 -0.89404547859E+01  0.66764446306E+01 -0.28013006414E+02  0.30153526714E+02  0.51100000000E-03 0. -1.
        -11    1    4    4    0    0  0.73042188866E+01  0.66926573733E+01 -0.99331511820E+01  0.14028926150E+02  0.51100000000E-03 0.  1.
         12    1    4    4    0    0  0.49737865935E+01 -0.36843072310E+01 -0.14014282671E+01  0.63463906308E+01  0.00000000000E+00 0. -1.
</event>
<event>
 8    1  0.2031623E-013  0.9118800E+02  0.7816164E-02  0.1184000E+00
        -11   -1    0    0    0    0  0.00000000000E+00  0.00000000000E+00  0.45593999997E+02  0.45594000000E+02  0.51100000000E-03 0. -1.
         11   -1    0    0    0    0 -0.00000000000E+00 -0.00000000000E+00 -0.45593999997E+02  0.45594000000E+02  0.51100000000E-03 0.  1.
         23    2    1    2    0    0 -0.17763568394E-14 -0.44408920985E-15 -0.71054273576E-14  0.91188000000E+02  0.91188000000E+02 0.  0.
    9900012    2    3    3    0    0 -0.13000460861E+02  0.17149886327E+01 -0.38486526817E+02  0.50528856932E+02  0.29999991130E+02 0.  0.
         12    1    3    3    0    0  0.13000460861E+02 -0.17149886327E+01  0.38486526817E+02  0.40659143068E+02  0.00000000000E+00 0. -1.
         11    1    4    4    0    0 -0.59022804076E+01  0.35453189785E+01  0.32197931390E+01  0.76008728965E+01  0.51100000000E-03 0. -1.
        -11    1    4    4    0    0  0.38366008953E+00  0.18004284656E+01 -0.83643663806E+01  0.85645410230E+01  0.51100000000E-03 0.  1.
         12    1    4    4    0    0 -0.74818405429E+01 -0.36307588114E+01 -0.33341953575E+02  0.34363443012E+02  0.00000000000E+00 0. -1.
</event>
<event>
 8    1  0.2031623E-013  0.9118800E+02  0.7816164E-02  0.1184000E+00
        -11   -1    0    0    0    0  0.00000000000E+00  0.00000000000E+00  0.45593999997E+02  0.45594000000E+02  0.51100000000E-03 0. -1.
         11   -1    0    0    0    0 -0.00000000000E+00 -0.00000000000E+00 -0.45593999997E+02  0.45594000000E+02  0.51100000000E-03 0.  1.
         23    2    1    2    0    0  0.00000000000E+00 -0.17763568394E-14  0.00000000000E+00  0.91188000000E+02  0.91188000000E+02 0.  0.
    9900012    2    3    3    0    0  0.85163344981E+01 -0.14747825923E+02 -0.36920715356E+02  0.50528861480E+02  0.30000004956E+02 0.  0.
         12    1    3    3    0    0 -0.85163344981E+01  0.14747825923E+02  0.36920715356E+02  0.40659138520E+02  0.00000000000E+00 0. -1.
         11    1    4    4    0    0 -0.42693672985E+01  0.13143226572E+01 -0.48494711857E+01  0.65933536397E+01  0.51100000000E-03 0. -1.
        -11    1    4    4    0    0  0.16190727872E+02 -0.32904679664E+01 -0.14756330611E+02  0.22152113710E+02  0.51100000000E-03 0.  1.
        -12    1    4    4    0    0 -0.34050260752E+01 -0.12771680614E+02 -0.17314913560E+02  0.21783394131E+02  0.00000000000E+00 0.  1.
</event>
<event>
 8    1  0.2031623E-013  0.9118800E+02  0.7816164E-02  0.1184000E+00
        -11   -1    0    0    0    0  0.00000000000E+00  0.00000000000E+00  0.45593999997E+02  0.45594000000E+02  0.51100000000E-03 0. -1.
         11   -1    0    0    0    0 -0.00000000000E+00 -0.00000000000E+00 -0.45593999997E+02  0.45594000000E+02  0.51100000000E-03 0.  1.
         23    2    1    2    0    0  0.00000000000E+00 -0.35527136788E-14 -0.35527136788E-14  0.91188000000E+02  0.91188000000E+02 0.  0.
    9900012    2    3    3    0    0  0.87858271783E+01  0.31528141550E+02  0.24123698514E+02  0.50528839916E+02  0.29999939408E+02 0.  0.
        -12    1    3    3    0    0 -0.87858271783E+01 -0.31528141550E+02 -0.24123698514E+02  0.40659160084E+02  0.00000000000E+00 0.  1.
         11    1    4    4    0    0  0.17230782573E+02  0.17757107343E+02  0.14749636367E+02  0.28805667888E+02  0.51100000000E-03 0. -1.
        -11    1    4    4    0    0 -0.16538870227E+01 -0.17003925788E+01 -0.57524042537E-01  0.23727592551E+01  0.51100000000E-03 0.  1.
         12    1    4    4    0    0 -0.67910683724E+01  0.15471426785E+02  0.94315861894E+01  0.19350412772E+02  0.00000000000E+00 0. -1.
</event>
<event>
 8    1  0.2031623E-013  0.9118800E+02  0.7816164E-02  0.1184000E+00
        -11   -1    0    0    0    0  0.00000000000E+00  0.00000000000E+00  0.45593999997E+02  0.45594000000E+02  0.51100000000E-03 0.  1.
         11   -1    0    0    0    0 -0.00000000000E+00 -0.00000000000E+00 -0.45593999997E+02  0.45594000000E+02  0.51100000000E-03 0. -1.
         23    2    1    2    0    0  0.00000000000E+00  0.17763568394E-14  0.00000000000E+00  0.91188000000E+02  0.91188000000E+02 0.  0.
    9900012    2    3    3    0    0 -0.37134098746E+02 -0.14399264466E+02  0.81783931631E+01  0.50528853163E+02  0.29999979673E+02 0.  0.
         12    1    3    3    0    0  0.37134098746E+02  0.14399264466E+02 -0.81783931631E+01  0.40659146837E+02  0.00000000000E+00 0. -1.
         11    1    4    4    0    0 -0.30467649876E+00 -0.96190832200E+00  0.90332592045E+01  0.90894371390E+01  0.51100000000E-03 0. -1.
        -11    1    4    4    0    0 -0.23256138986E+02 -0.14005096510E+02  0.30132991331E+01  0.27314294806E+02  0.51100000000E-03 0.  1.
         12    1    4    4    0    0 -0.13573283261E+02  0.56774036657E+00 -0.38681651744E+01  0.14125121218E+02  0.00000000000E+00 0. -1.
</event>
<event>
 8    1  0.2031623E-013  0.9118800E+02  0.7816164E-02  0.1184000E+00
        -11   -1    0    0    0    0  0.00000000000E+00  0.00000000000E+00  0.45593999997E+02  0.45594000000E+02  0.51100000000E-03 0. -1.
         11   -1    0    0    0    0 -0.00000000000E+00 -0.00000000000E+00 -0.45593999997E+02  0.45594000000E+02  0.51100000000E-03 0.  1.
         23    2    1    2    0    0 -0.35527136788E-14  0.00000000000E+00 -0.71054273576E-14  0.91188000000E+02  0.91188000000E+02 0.  0.
    9900012    2    3    3    0    0  0.22853638151E+02 -0.11252660670E+02  0.31689973400E+02  0.50528861262E+02  0.30000004292E+02 0.  0.
        -12    1    3    3    0    0 -0.22853638151E+02  0.11252660670E+02 -0.31689973400E+02  0.40659138738E+02  0.00000000000E+00 0.  1.
         11    1    4    4    0    0  0.20295681544E+01 -0.71910073636E+01  0.84049304401E+01  0.11246003279E+02  0.51100000000E-03 0. -1.
        -11    1    4    4    0    0  0.18552982391E+02 -0.25208053082E+01  0.31802615507E+01  0.18991621279E+02  0.51100000000E-03 0.  1.
        -12    1    4    4    0    0  0.22710876047E+01 -0.15408479978E+01  0.20104781409E+02  0.20291236703E+02  0.00000000000E+00 0.  1.
</event>
<event>
 8    1  0.2031623E-013  0.9118800E+02  0.7816164E-02  0.1184000E+00
        -11   -1    0    0    0    0  0.00000000000E+00  0.00000000000E+00  0.45593999997E+02  0.45594000000E+02  0.51100000000E-03 0. -1.
         11   -1    0    0    0    0 -0.00000000000E+00 -0.00000000000E+00 -0.45593999997E+02  0.45594000000E+02  0.51100000000E-03 0.  1.
         23    2    1    2    0    0  0.00000000000E+00  0.00000000000E+00  0.17763568394E-14  0.91188000000E+02  0.91188000000E+02 0.  0.
    9900012    2    3    3    0    0  0.13235156858E+02  0.35569008134E+02 -0.14589133434E+02  0.50528849356E+02  0.29999968103E+02 0.  0.
         12    1    3    3    0    0 -0.13235156858E+02 -0.35569008134E+02  0.14589133434E+02  0.40659150644E+02  0.00000000000E+00 0. -1.
         11    1    4    4    0    0  0.22269041121E+01  0.37544444461E-01 -0.10982802707E+02  0.11206358332E+02  0.51100000000E-03 0. -1.
        -11    1    4    4    0    0  0.12713301634E+02  0.23633879741E+02 -0.47336133984E+01  0.27250603776E+02  0.51100000000E-03 0.  1.
         12    1    4    4    0    0 -0.17050488886E+01  0.11897583949E+02  0.11272826708E+01  0.12071887249E+02  0.00000000000E+00 0. -1.
</event>
<event>
 8    1  0.2031623E-013  0.9118800E+02  0.7816164E-02  0.1184000E+00
        -11   -1    0    0    0    0  0.00000000000E+00  0.00000000000E+00  0.45593999997E+02  0.45594000000E+02  0.51100000000E-03 0.  1.
         11   -1    0    0    0    0 -0.00000000000E+00 -0.00000000000E+00 -0.45593999997E+02  0.45594000000E+02  0.51100000000E-03 0. -1.
         23    2    1    2    0    0  0.00000000000E+00  0.00000000000E+00  0.00000000000E+00  0.91188000000E+02  0.91188000000E+02 0.  0.
    9900012    2    3    3    0    0  0.25723473593E+02 -0.28213302515E+02 -0.13981357470E+02  0.50528857250E+02  0.29999992096E+02 0.  0.
         12    1    3    3    0    0 -0.25723473593E+02  0.28213302515E+02  0.13981357470E+02  0.40659142750E+02  0.00000000000E+00 0. -1.
         11    1    4    4    0    0  0.89145678617E+01 -0.22150719005E+02 -0.16688717494E+02  0.29131377662E+02  0.51100000000E-03 0. -1.
        -11    1    4    4    0    0  0.91791595208E+01 -0.91056648598E+01  0.25685337383E+01  0.13182088904E+02  0.51100000000E-03 0.  1.
         12    1    4    4    0    0  0.76297462110E+01  0.30430813503E+01  0.13882628651E+00  0.82153906837E+01  0.00000000000E+00 0. -1.
</event>
<event>
 8    1  0.2031623E-013  0.9118800E+02  0.7816164E-02  0.1184000E+00
        -11   -1    0    0    0    0  0.00000000000E+00  0.00000000000E+00  0.45593999997E+02  0.45594000000E+02  0.51100000000E-03 0. -1.
         11   -1    0    0    0    0 -0.00000000000E+00 -0.00000000000E+00 -0.45593999997E+02  0.45594000000E+02  0.51100000000E-03 0.  1.
         23    2    1    2    0    0  0.00000000000E+00 -0.17763568394E-14 -0.35527136788E-14  0.91188000000E+02  0.91188000000E+02 0.  0.
    9900012    2    3    3    0    0 -0.28479052893E+02 -0.11830985558E+02 -0.26497888259E+02  0.50528846601E+02  0.29999959727E+02 0.  0.
         12    1    3    3    0    0  0.28479052893E+02  0.11830985558E+02  0.26497888259E+02  0.40659153399E+02  0.00000000000E+00 0. -1.
         11    1    4    4    0    0 -0.15064080046E+02  0.69724632915E+01 -0.18752427368E+02  0.25043867202E+02  0.51100000000E-03 0. -1.
        -11    1    4    4    0    0 -0.19370213343E+01 -0.74991219325E+00 -0.28706299112E+01  0.35432945538E+01  0.51100000000E-03 0.  1.
         12    1    4    4    0    0 -0.11477951513E+02 -0.18053536657E+02 -0.48748309794E+01  0.21941684844E+02  0.00000000000E+00 0. -1.
</event>
<event>
 8    1  0.2031623E-013  0.9118800E+02  0.7816164E-02  0.1184000E+00
        -11   -1    0    0    0    0  0.00000000000E+00  0.00000000000E+00  0.45593999997E+02  0.45594000000E+02  0.51100000000E-03 0. -1.
         11   -1    0    0    0    0 -0.00000000000E+00 -0.00000000000E+00 -0.45593999997E+02  0.45594000000E+02  0.51100000000E-03 0.  1.
         23    2    1    2    0    0  0.00000000000E+00  0.00000000000E+00  0.44408920985E-15  0.91188000000E+02  0.91188000000E+02 0.  0.
    9900012    2    3    3    0    0 -0.19469557002E+02 -0.35634456914E+02  0.20705152927E+01  0.50528865688E+02  0.30000017745E+02 0.  0.
        -12    1    3    3    0    0  0.19469557002E+02  0.35634456914E+02 -0.20705152927E+01  0.40659134312E+02  0.00000000000E+00 0.  1.
         11    1    4    4    0    0  0.43069575864E+01 -0.12057430807E+02 -0.92027073136E+00  0.12836604683E+02  0.51100000000E-03 0. -1.
        -11    1    4    4    0    0 -0.86598197885E+01  0.99446847631E+00  0.10131846673E+01  0.87754196339E+01  0.51100000000E-03 0.  1.
         12    1    4    4    0    0 -0.15116694800E+02 -0.24571494584E+02  0.19776013568E+01  0.28916841371E+02  0.00000000000E+00 0. -1.
</event>
<event>
 8    1  0.2031623E-013  0.9118800E+02  0.7816164E-02  0.1184000E+00
        -11   -1    0    0    0    0  0.00000000000E+00  0.00000000000E+00  0.45593999997E+02  0.45594000000E+02  0.51100000000E-03 0. -1.
         11   -1    0    0    0    0 -0.00000000000E+00 -0.00000000000E+00 -0.45593999997E+02  0.45594000000E+02  0.51100000000E-03 0.  1.
         23    2    1    2    0    0  0.35527136788E-14  0.00000000000E+00 -0.71054273576E-14  0.91188000000E+02  0.91188000000E+02 0.  0.
    9900012    2    3    3    0    0 -0.17236361241E+02 -0.29856877802E+02  0.21555525946E+02  0.50528855890E+02  0.29999987964E+02 0.  0.
        -12    1    3    3    0    0  0.17236361241E+02  0.29856877802E+02 -0.21555525946E+02  0.40659144110E+02  0.00000000000E+00 0.  1.
         11    1    4    4    0    0 -0.15803028198E+02 -0.23951214961E+02  0.14806469008E+02  0.32289749505E+02  0.51100000000E-03 0. -1.
        -11    1    4    4    0    0  0.59102685900E+01 -0.71860681464E+01  0.24003782253E+01  0.96089888176E+01  0.51100000000E-03 0.  1.
        -12    1    4    4    0    0 -0.73436016323E+01  0.12804053055E+01  0.43486787132E+01  0.86301175676E+01  0.00000000000E+00 0.  1.
</event>
<event>
 8    1  0.2031623E-013  0.9118800E+02  0.7816164E-02  0.1184000E+00
        -11   -1    0    0    0    0  0.00000000000E+00  0.00000000000E+00  0.45593999997E+02  0.45594000000E+02  0.51100000000E-03 0. -1.
         11   -1    0    0    0    0 -0.00000000000E+00 -0.00000000000E+00 -0.45593999997E+02  0.45594000000E+02  0.51100000000E-03 0.  1.
         23    2    1    2    0    0  0.00000000000E+00  0.88817841970E-15  0.00000000000E+00  0.91188000000E+02  0.91188000000E+02 0.  0.
    9900012    2    3    3    0    0 -0.13755223454E+01 -0.21025259166E+01  0.40581452900E+02  0.50528843633E+02  0.29999950708E+02 0.  0.
        -12    1    3    3    0    0  0.13755223454E+01  0.21025259166E+01 -0.40581452900E+02  0.40659156367E+02  0.00000000000E+00 0.  1.
         11    1    4    4    0    0 -0.22379743848E+01 -0.14207654351E+02  0.22743731804E+02  0.26909910965E+02  0.51100000000E-03 0. -1.
        -11    1    4    4    0    0 -0.10948416661E+01  0.18873956708E+00 -0.82926179201E+00  0.13863535908E+01  0.51100000000E-03 0.  1.
         12    1    4    4    0    0  0.19572937055E+01  0.11916388867E+02  0.18666982888E+02  0.22232579077E+02  0.00000000000E+00 0. -1.
</event>
<event>
 8    1  0.2031623E-013  0.9118800E+02  0.7816164E-02  0.1184000E+00
        -11   -1    0    0    0    0  0.00000000000E+00  0.00000000000E+00  0.45593999997E+02  0.45594000000E+02  0.51100000000E-03 0. -1.
         11   -1    0    0    0    0 -0.00000000000E+00 -0.00000000000E+00 -0.45593999997E+02  0.45594000000E+02  0.51100000000E-03 0.  1.
         23    2    1    2    0    0 -0.35527136788E-14  0.00000000000E+00  0.00000000000E+00  0.91188000000E+02  0.91188000000E+02 0.  0.
    9900012    2    3    3    0    0  0.21703814941E+02  0.18816775589E+02  0.28775665883E+02  0.50528861131E+02  0.30000003893E+02 0.  0.
        -12    1    3    3    0    0 -0.21703814941E+02 -0.18816775589E+02 -0.28775665883E+02  0.40659138869E+02  0.00000000000E+00 0.  1.
         11    1    4    4    0    0  0.16068765695E+01 -0.40483634041E+01  0.17076104223E+02  0.17622844102E+02  0.51100000000E-03 0. -1.
        -11    1    4    4    0    0  0.89928917912E+01  0.13538550965E+02  0.63487555016E+01  0.17449102031E+02  0.51100000000E-03 0.  1.
         12    1    4    4    0    0  0.11104046580E+02  0.93265880272E+01  0.53508061589E+01  0.15456914997E+02  0.00000000000E+00 0. -1.
</event>
<event>
 8    1  0.2031623E-013  0.9118800E+02  0.7816164E-02  0.1184000E+00
        -11   -1    0    0    0    0  0.00000000000E+00  0.00000000000E+00  0.45593999997E+02  0.45594000000E+02  0.51100000000E-03 0. -1.
         11   -1    0    0    0    0 -0.00000000000E+00 -0.00000000000E+00 -0.45593999997E+02  0.45594000000E+02  0.51100000000E-03 0.  1.
         23    2    1    2    0    0  0.00000000000E+00  0.00000000000E+00  0.00000000000E+00  0.91188000000E+02  0.91188000000E+02 0.  0.
    9900012    2    3    3    0    0  0.23864744609E+01 -0.30993883139E+02  0.26207814010E+02  0.50528861205E+02  0.30000004120E+02 0.  0.
        -12    1    3    3    0    0 -0.23864744609E+01  0.30993883139E+02 -0.26207814010E+02  0.40659138795E+02  0.00000000000E+00 0.  1.
         11    1    4    4    0    0  0.15923710979E+01 -0.33316816302E+02  0.25324194887E+02  0.41879120587E+02  0.51100000000E-03 0. -1.
        -11    1    4    4    0    0  0.27137048912E+01 -0.58049519354E+00 -0.25440076002E+01  0.37647236071E+01  0.51100000000E-03 0.  1.
         12    1    4    4    0    0 -0.19196015282E+01  0.29034283569E+01  0.34276267229E+01  0.48850170115E+01  0.00000000000E+00 0. -1.
</event>
<event>
 8    1  0.2031623E-013  0.9118800E+02  0.7816164E-02  0.1184000E+00
        -11   -1    0    0    0    0  0.00000000000E+00  0.00000000000E+00  0.45593999997E+02  0.45594000000E+02  0.51100000000E-03 0.  1.
         11   -1    0    0    0    0 -0.00000000000E+00 -0.00000000000E+00 -0.45593999997E+02  0.45594000000E+02  0.51100000000E-03 0. -1.
         23    2    1    2    0    0  0.35527136788E-14 -0.35527136788E-14  0.00000000000E+00  0.91188000000E+02  0.91188000000E+02 0.  0.
    9900012    2    3    3    0    0  0.30029161333E+02 -0.26745004392E+02  0.60101016318E+01  0.50528842213E+02  0.29999946391E+02 0.  0.
        -12    1    3    3    0    0 -0.30029161333E+02  0.26745004392E+02 -0.60101016318E+01  0.40659157787E+02  0.00000000000E+00 0.  1.
         11    1    4    4    0    0  0.27359732045E+02 -0.28674835202E+02 -0.90743242018E+00  0.39643720124E+02  0.51100000000E-03 0. -1.
        -11    1    4    4    0    0  0.20888528834E+01  0.48664370261E+01  0.35298706847E+01  0.63643933732E+01  0.51100000000E-03 0.  1.
         12    1    4    4    0    0  0.58057640464E+00 -0.29366062164E+01  0.33876633672E+01  0.45207287157E+01  0.00000000000E+00 0. -1.
</event>
<event>
 8    1  0.2031623E-013  0.9118800E+02  0.7816164E-02  0.1184000E+00
        -11   -1    0    0    0    0  0.00000000000E+00  0.00000000000E+00  0.45593999997E+02  0.45594000000E+02  0.51100000000E-03 0. -1.
         11   -1    0    0    0    0 -0.00000000000E+00 -0.00000000000E+00 -0.45593999997E+02  0.45594000000E+02  0.51100000000E-03 0.  1.
         23    2    1    2    0    0  0.00000000000E+00  0.00000000000E+00  0.88817841970E-15  0.91188000000E+02  0.91188000000E+02 0.  0.
    9900012    2    3    3    0    0 -0.27533854190E+02  0.29784073326E+02  0.28220462998E+01  0.50528830115E+02  0.29999909618E+02 0.  0.
        -12    1    3    3    0    0  0.27533854190E+02 -0.29784073326E+02 -0.28220462998E+01  0.40659169885E+02  0.00000000000E+00 0.  1.
         11    1    4    4    0    0 -0.29842995890E+02  0.28864316098E+02  0.89083771539E+01  0.42463070205E+02  0.51100000000E-03 0. -1.
        -11    1    4    4    0    0 -0.11772610282E-01 -0.89735078627E+00 -0.47417759830E+01  0.48259524202E+01  0.51100000000E-03 0.  1.
         12    1    4    4    0    0  0.23209143101E+01  0.18171080143E+01 -0.13445548711E+01  0.32398074899E+01  0.00000000000E+00 0. -1.
</event>
<event>
 8    1  0.2031623E-013  0.9118800E+02  0.7816164E-02  0.1184000E+00
        -11   -1    0    0    0    0  0.00000000000E+00  0.00000000000E+00  0.45593999997E+02  0.45594000000E+02  0.51100000000E-03 0. -1.
         11   -1    0    0    0    0 -0.00000000000E+00 -0.00000000000E+00 -0.45593999997E+02  0.45594000000E+02  0.51100000000E-03 0.  1.
         23    2    1    2    0    0  0.00000000000E+00  0.00000000000E+00  0.00000000000E+00  0.91188000000E+02  0.91188000000E+02 0.  0.
    9900012    2    3    3    0    0  0.14672941483E+02  0.10976176685E+02  0.36295927793E+02  0.50528855386E+02  0.29999986431E+02 0.  0.
        -12    1    3    3    0    0 -0.14672941483E+02 -0.10976176685E+02 -0.36295927793E+02  0.40659144614E+02  0.00000000000E+00 0.  1.
         11    1    4    4    0    0  0.18565130599E+02  0.12822956617E+02  0.17921505313E+02  0.28814451991E+02  0.51100000000E-03 0.  1.
        -11    1    4    4    0    0 -0.30456258083E+01  0.42963395343E+01  0.70052594119E+01  0.87640190351E+01  0.51100000000E-03 0. -1.
         12    1    4    4    0    0 -0.84656330782E+00 -0.61431194663E+01  0.11369163068E+02  0.12950384360E+02  0.00000000000E+00 0. -1.
</event>
<event>
 8    1  0.2031623E-013  0.9118800E+02  0.7816164E-02  0.1184000E+00
        -11   -1    0    0    0    0  0.00000000000E+00  0.00000000000E+00  0.45593999997E+02  0.45594000000E+02  0.51100000000E-03 0.  1.
         11   -1    0    0    0    0 -0.00000000000E+00 -0.00000000000E+00 -0.45593999997E+02  0.45594000000E+02  0.51100000000E-03 0. -1.
         23    2    1    2    0    0  0.00000000000E+00 -0.17763568394E-14  0.00000000000E+00  0.91188000000E+02  0.91188000000E+02 0.  0.
    9900012    2    3    3    0    0  0.36394628623E+02 -0.14771444798E+02 -0.10507176864E+02  0.50528864007E+02  0.30000012635E+02 0.  0.
         12    1    3    3    0    0 -0.36394628623E+02  0.14771444798E+02  0.10507176864E+02  0.40659135993E+02  0.00000000000E+00 0. -1.
         11    1    4    4    0    0  0.14335581424E+02 -0.75844439782E+00  0.78579726233E+01  0.16365569549E+02  0.51100000000E-03 0. -1.
        -11    1    4    4    0    0  0.19688634846E+02 -0.10846818709E+02 -0.94011510889E+01  0.24365497332E+02  0.51100000000E-03 0.  1.
         12    1    4    4    0    0  0.23704123540E+01 -0.31661816910E+01 -0.89639983980E+01  0.97977971252E+01  0.00000000000E+00 0. -1.
</event>
<event>
 8    1  0.2031623E-013  0.9118800E+02  0.7816164E-02  0.1184000E+00
        -11   -1    0    0    0    0  0.00000000000E+00  0.00000000000E+00  0.45593999997E+02  0.45594000000E+02  0.51100000000E-03 0. -1.
         11   -1    0    0    0    0 -0.00000000000E+00 -0.00000000000E+00 -0.45593999997E+02  0.45594000000E+02  0.51100000000E-03 0.  1.
         23    2    1    2    0    0  0.00000000000E+00  0.17763568394E-14  0.00000000000E+00  0.91188000000E+02  0.91188000000E+02 0.  0.
    9900012    2    3    3    0    0  0.25866893735E+02  0.10069089198E+02  0.29709961612E+02  0.50528873500E+02  0.30000041490E+02 0.  0.
        -12    1    3    3    0    0 -0.25866893735E+02 -0.10069089198E+02 -0.29709961612E+02  0.40659126500E+02  0.00000000000E+00 0.  1.
         11    1    4    4    0    0  0.61387254807E+01  0.13005410259E+02  0.91171285649E+01  0.17027820766E+02  0.51100000000E-03 0. -1.
        -11    1    4    4    0    0  0.14605077116E+02 -0.83137772019E+01  0.19892237700E+02  0.26040896489E+02  0.51100000000E-03 0.  1.
         12    1    4    4    0    0  0.51230911377E+01  0.53774561413E+01  0.70059534678E+00  0.74601562448E+01  0.00000000000E+00 0. -1.
</event>
<event>
 8    1  0.2031623E-013  0.9118800E+02  0.7816164E-02  0.1184000E+00
        -11   -1    0    0    0    0  0.00000000000E+00  0.00000000000E+00  0.45593999997E+02  0.45594000000E+02  0.51100000000E-03 0. -1.
         11   -1    0    0    0    0 -0.00000000000E+00 -0.00000000000E+00 -0.45593999997E+02  0.45594000000E+02  0.51100000000E-03 0.  1.
         23    2    1    2    0    0  0.00000000000E+00  0.61062266354E-15  0.00000000000E+00  0.91188000000E+02  0.91188000000E+02 0.  0.
    9900012    2    3    3    0    0  0.30551290892E+02 -0.32959962708E+00  0.26826795860E+02  0.50528843747E+02  0.29999951053E+02 0.  0.
        -12    1    3    3    0    0 -0.30551290892E+02  0.32959962708E+00 -0.26826795860E+02  0.40659156253E+02  0.00000000000E+00 0.  1.
         11    1    4    4    0    0  0.31148842219E+02  0.21353360442E+01  0.11054421074E+02  0.33121145167E+02  0.51100000000E-03 0. -1.
        -11    1    4    4    0    0 -0.67235038312E+00 -0.48378573429E+01  0.91402364171E+01  0.10363437689E+02  0.51100000000E-03 0.  1.
         12    1    4    4    0    0  0.74799055723E-01  0.23729216716E+01  0.66321383690E+01  0.70442608912E+01  0.00000000000E+00 0. -1.
</event>
<event>
 8    1  0.2031623E-013  0.9118800E+02  0.7816164E-02  0.1184000E+00
        -11   -1    0    0    0    0  0.00000000000E+00  0.00000000000E+00  0.45593999997E+02  0.45594000000E+02  0.51100000000E-03 0. -1.
         11   -1    0    0    0    0 -0.00000000000E+00 -0.00000000000E+00 -0.45593999997E+02  0.45594000000E+02  0.51100000000E-03 0.  1.
         23    2    1    2    0    0  0.35527136788E-14 -0.35527136788E-14  0.00000000000E+00  0.91188000000E+02  0.91188000000E+02 0.  0.
    9900012    2    3    3    0    0  0.31979922835E+02 -0.18469791409E+02  0.17009314019E+02  0.50528862988E+02  0.30000009538E+02 0.  0.
        -12    1    3    3    0    0 -0.31979922835E+02  0.18469791409E+02 -0.17009314019E+02  0.40659137012E+02  0.00000000000E+00 0.  1.
         11    1    4    4    0    0  0.74619330069E+01 -0.53610716131E+01  0.19553076381E+02  0.21604266459E+02  0.51100000000E-03 0. -1.
        -11    1    4    4    0    0  0.37046709626E+01 -0.46329147788E+01 -0.25367761860E+01  0.64516447491E+01  0.51100000000E-03 0.  1.
         12    1    4    4    0    0  0.20813318865E+02 -0.84758050171E+01 -0.69861760839E-02  0.22472951779E+02  0.00000000000E+00 0. -1.
</event>
<event>
 8    1  0.2031623E-013  0.9118800E+02  0.7816164E-02  0.1184000E+00
        -11   -1    0    0    0    0  0.00000000000E+00  0.00000000000E+00  0.45593999997E+02  0.45594000000E+02  0.51100000000E-03 0. -1.
         11   -1    0    0    0    0 -0.00000000000E+00 -0.00000000000E+00 -0.45593999997E+02  0.45594000000E+02  0.51100000000E-03 0.  1.
         23    2    1    2    0    0  0.00000000000E+00  0.35527136788E-14 -0.71054273576E-14  0.91188000000E+02  0.91188000000E+02 0.  0.
    9900012    2    3    3    0    0  0.88603404690E+01  0.16748224625E+02 -0.35974397888E+02  0.50528856320E+02  0.29999989271E+02 0.  0.
         12    1    3    3    0    0 -0.88603404690E+01 -0.16748224625E+02  0.35974397888E+02  0.40659143680E+02  0.00000000000E+00 0. -1.
         11    1    4    4    0    0  0.95154448878E+01  0.17818888359E+02 -0.90664473275E+01  0.22141746570E+02  0.51100000000E-03 0. -1.
        -11    1    4    4    0    0  0.22726445783E+01 -0.13644937991E+01 -0.24333319456E+02  0.24477279112E+02  0.51100000000E-03 0.  1.
         12    1    4    4    0    0 -0.29277489972E+01  0.29383006560E+00 -0.25746311049E+01  0.39098306388E+01  0.00000000000E+00 0. -1.
</event>
<event>
 8    1  0.2031623E-013  0.9118800E+02  0.7816164E-02  0.1184000E+00
        -11   -1    0    0    0    0  0.00000000000E+00  0.00000000000E+00  0.45593999997E+02  0.45594000000E+02  0.51100000000E-03 0. -1.
         11   -1    0    0    0    0 -0.00000000000E+00 -0.00000000000E+00 -0.45593999997E+02  0.45594000000E+02  0.51100000000E-03 0.  1.
         23    2    1    2    0    0  0.17763568394E-14  0.00000000000E+00  0.71054273576E-14  0.91188000000E+02  0.91188000000E+02 0.  0.
    9900012    2    3    3    0    0 -0.13885266471E+02  0.11553958317E+02 -0.36426248531E+02  0.50528853922E+02  0.29999981980E+02 0.  0.
         12    1    3    3    0    0  0.13885266471E+02 -0.11553958317E+02  0.36426248531E+02  0.40659146078E+02  0.00000000000E+00 0. -1.
         11    1    4    4    0    0  0.60164489534E+01 -0.15647664547E+01 -0.68482935226E+01  0.92490689531E+01  0.51100000000E-03 0. -1.
        -11    1    4    4    0    0 -0.85497198894E+01  0.75545777222E+01 -0.25598571779E+02  0.28025992081E+02  0.51100000000E-03 0.  1.
        -12    1    4    4    0    0 -0.11351995535E+02  0.55641470494E+01 -0.39793832301E+01  0.13253792888E+02  0.00000000000E+00 0.  1.
</event>
<event>
 8    1  0.2031623E-013  0.9118800E+02  0.7816164E-02  0.1184000E+00
        -11   -1    0    0    0    0  0.00000000000E+00  0.00000000000E+00  0.45593999997E+02  0.45594000000E+02  0.51100000000E-03 0. -1.
         11   -1    0    0    0    0 -0.00000000000E+00 -0.00000000000E+00 -0.45593999997E+02  0.45594000000E+02  0.51100000000E-03 0.  1.
         23    2    1    2    0    0  0.00000000000E+00  0.35527136788E-14 -0.35527136788E-14  0.91188000000E+02  0.91188000000E+02 0.  0.
    9900012    2    3    3    0    0 -0.22356690482E+02  0.16126544610E+02 -0.29887770664E+02  0.50528857294E+02  0.29999992232E+02 0.  0.
         12    1    3    3    0    0  0.22356690482E+02 -0.16126544610E+02  0.29887770664E+02  0.40659142706E+02  0.00000000000E+00 0. -1.
         11    1    4    4    0    0 -0.13065982719E+02  0.71830701028E+00 -0.25908088273E+02  0.29025246038E+02  0.51100000000E-03 0.  1.
        -11    1    4    4    0    0 -0.69519654320E+01  0.23910193985E+01  0.89988650203E+00  0.74065236859E+01  0.51100000000E-03 0. -1.
         12    1    4    4    0    0 -0.23387423307E+01  0.13017218201E+02 -0.48795688926E+01  0.14097087570E+02  0.00000000000E+00 0. -1.
</event>
<event>
 8    1  0.2031623E-013  0.9118800E+02  0.7816164E-02  0.1184000E+00
        -11   -1    0    0    0    0  0.00000000000E+00  0.00000000000E+00  0.45593999997E+02  0.45594000000E+02  0.51100000000E-03 0. -1.
         11   -1    0    0    0    0 -0.00000000000E+00 -0.00000000000E+00 -0.45593999997E+02  0.45594000000E+02  0.51100000000E-03 0.  1.
         23    2    1    2    0    0 -0.17763568394E-14 -0.83266726847E-15  0.00000000000E+00  0.91188000000E+02  0.91188000000E+02 0.  0.
    9900012    2    3    3    0    0  0.14199525014E+02 -0.35626126027E+00  0.38097396057E+02  0.50528867951E+02  0.30000024622E+02 0.  0.
        -12    1    3    3    0    0 -0.14199525014E+02  0.35626126027E+00 -0.38097396057E+02  0.40659132049E+02  0.00000000000E+00 0.  1.
         11    1    4    4    0    0 -0.60176187578E+01  0.86924244834E+01  0.13283588659E+02  0.16977152495E+02  0.51100000000E-03 0. -1.
        -11    1    4    4    0    0  0.14593840919E+02 -0.59320988679E+01  0.20303137586E+02  0.25698003538E+02  0.51100000000E-03 0.  1.
         12    1    4    4    0    0  0.56233028535E+01 -0.31165868757E+01  0.45106698113E+01  0.78537119175E+01  0.00000000000E+00 0. -1.
</event>
<event>
 8    1  0.2031623E-013  0.9118800E+02  0.7816164E-02  0.1184000E+00
        -11   -1    0    0    0    0  0.00000000000E+00  0.00000000000E+00  0.45593999997E+02  0.45594000000E+02  0.51100000000E-03 0. -1.
         11   -1    0    0    0    0 -0.00000000000E+00 -0.00000000000E+00 -0.45593999997E+02  0.45594000000E+02  0.51100000000E-03 0.  1.
         23    2    1    2    0    0  0.00000000000E+00  0.35527136788E-14 -0.35527136788E-14  0.91188000000E+02  0.91188000000E+02 0.  0.
    9900012    2    3    3    0    0  0.13911447862E+02 -0.24312312680E+02 -0.29471126976E+02  0.50528877349E+02  0.30000053191E+02 0.  0.
         12    1    3    3    0    0 -0.13911447862E+02  0.24312312680E+02  0.29471126976E+02  0.40659122651E+02  0.00000000000E+00 0. -1.
         11    1    4    4    0    0  0.13291926735E+02 -0.16625385039E+02 -0.11983656888E+02  0.24427172916E+02  0.51100000000E-03 0. -1.
        -11    1    4    4    0    0 -0.59826519711E+01 -0.97652547911E+01 -0.14713185640E+02  0.18644842656E+02  0.51100000000E-03 0.  1.
         12    1    4    4    0    0  0.66021730979E+01  0.20783271501E+01 -0.27742844491E+01  0.74568617770E+01  0.00000000000E+00 0. -1.
</event>
<event>
 8    1  0.2031623E-013  0.9118800E+02  0.7816164E-02  0.1184000E+00
        -11   -1    0    0    0    0  0.00000000000E+00  0.00000000000E+00  0.45593999997E+02  0.45594000000E+02  0.51100000000E-03 0.  1.
         11   -1    0    0    0    0 -0.00000000000E+00 -0.00000000000E+00 -0.45593999997E+02  0.45594000000E+02  0.51100000000E-03 0. -1.
         23    2    1    2    0    0  0.35527136788E-14 -0.71054273576E-14 -0.17763568394E-14  0.91188000000E+02  0.91188000000E+02 0.  0.
    9900012    2    3    3    0    0  0.21489963565E+02  0.33825196760E+02  0.68704769366E+01  0.50528856832E+02  0.29999990825E+02 0.  0.
        -12    1    3    3    0    0 -0.21489963565E+02 -0.33825196760E+02 -0.68704769366E+01  0.40659143168E+02  0.00000000000E+00 0.  1.
         11    1    4    4    0    0  0.98754357374E+01  0.38774219485E+01 -0.35760707971E+01  0.11195843630E+02  0.51100000000E-03 0. -1.
        -11    1    4    4    0    0 -0.41483722272E+01  0.15274566168E+02  0.11280677385E+01  0.15868015025E+02  0.51100000000E-03 0.  1.
        -12    1    4    4    0    0  0.15762900055E+02  0.14673208643E+02  0.93184799952E+01  0.23464998177E+02  0.00000000000E+00 0.  1.
</event>
<event>
 8    1  0.2031623E-013  0.9118800E+02  0.7816164E-02  0.1184000E+00
        -11   -1    0    0    0    0  0.00000000000E+00  0.00000000000E+00  0.45593999997E+02  0.45594000000E+02  0.51100000000E-03 0. -1.
         11   -1    0    0    0    0 -0.00000000000E+00 -0.00000000000E+00 -0.45593999997E+02  0.45594000000E+02  0.51100000000E-03 0.  1.
         23    2    1    2    0    0  0.55511151231E-16 -0.71054273576E-14  0.35527136788E-14  0.91188000000E+02  0.91188000000E+02 0.  0.
    9900012    2    3    3    0    0  0.41719508143E+00 -0.33367965917E+02  0.23228658507E+02  0.50528858627E+02  0.29999996282E+02 0.  0.
        -12    1    3    3    0    0 -0.41719508143E+00  0.33367965917E+02 -0.23228658507E+02  0.40659141373E+02  0.00000000000E+00 0.  1.
         11    1    4    4    0    0  0.32942674703E+01 -0.20277519176E+02  0.16099967384E+02  0.26100554250E+02  0.51100000000E-03 0. -1.
        -11    1    4    4    0    0 -0.57372559672E+01  0.22322625883E+01  0.63157673894E+01  0.88197517127E+01  0.51100000000E-03 0.  1.
        -12    1    4    4    0    0  0.28601835783E+01 -0.15322709329E+02  0.81292373354E+00  0.15608552664E+02  0.00000000000E+00 0.  1.
</event>
<event>
 8    1  0.2031623E-013  0.9118800E+02  0.7816164E-02  0.1184000E+00
        -11   -1    0    0    0    0  0.00000000000E+00  0.00000000000E+00  0.45593999997E+02  0.45594000000E+02  0.51100000000E-03 0. -1.
         11   -1    0    0    0    0 -0.00000000000E+00 -0.00000000000E+00 -0.45593999997E+02  0.45594000000E+02  0.51100000000E-03 0.  1.
         23    2    1    2    0    0  0.00000000000E+00  0.35527136788E-14  0.00000000000E+00  0.91188000000E+02  0.91188000000E+02 0.  0.
    9900012    2    3    3    0    0  0.36449867293E+01  0.16449102501E+02  0.37004121870E+02  0.50528881260E+02  0.30000065079E+02 0.  0.
        -12    1    3    3    0    0 -0.36449867293E+01 -0.16449102501E+02 -0.37004121870E+02  0.40659118740E+02  0.00000000000E+00 0.  1.
         11    1    4    4    0    0  0.71337732863E+01  0.21735222032E+02  0.22573987412E+02  0.32138691728E+02  0.51100000000E-03 0. -1.
        -11    1    4    4    0    0  0.19905500131E+00 -0.71756254872E+01  0.10159756928E+02  0.12439850687E+02  0.51100000000E-03 0.  1.
        -12    1    4    4    0    0 -0.36878415583E+01  0.18895059567E+01  0.42703775303E+01  0.59503388451E+01  0.00000000000E+00 0.  1.
</event>
<event>
 8    1  0.2031623E-013  0.9118800E+02  0.7816164E-02  0.1184000E+00
        -11   -1    0    0    0    0  0.00000000000E+00  0.00000000000E+00  0.45593999997E+02  0.45594000000E+02  0.51100000000E-03 0. -1.
         11   -1    0    0    0    0 -0.00000000000E+00 -0.00000000000E+00 -0.45593999997E+02  0.45594000000E+02  0.51100000000E-03 0.  1.
         23    2    1    2    0    0 -0.17763568394E-14  0.17763568394E-14 -0.71054273576E-14  0.91188000000E+02  0.91188000000E+02 0.  0.
    9900012    2    3    3    0    0  0.83845798525E+01 -0.11959269253E+02  0.37945103017E+02  0.50528977098E+02  0.30000356386E+02 0.  0.
        -12    1    3    3    0    0 -0.83845798525E+01  0.11959269253E+02 -0.37945103017E+02  0.40659022902E+02  0.00000000000E+00 0.  1.
         11    1    4    4    0    0  0.15057630170E+02 -0.16529417544E+02  0.33326284125E+02  0.40132220029E+02  0.51100000000E-03 0. -1.
        -11    1    4    4    0    0 -0.31042446202E+01  0.23542998273E+01  0.48120996654E+01  0.61915560072E+01  0.51100000000E-03 0.  1.
         12    1    4    4    0    0 -0.35688056969E+01  0.22158484634E+01 -0.19328077333E+00  0.42052010621E+01  0.00000000000E+00 0. -1.
</event>
<event>
 8    1  0.2031623E-013  0.9118800E+02  0.7816164E-02  0.1184000E+00
        -11   -1    0    0    0    0  0.00000000000E+00  0.00000000000E+00  0.45593999997E+02  0.45594000000E+02  0.51100000000E-03 0.  1.
         11   -1    0    0    0    0 -0.00000000000E+00 -0.00000000000E+00 -0.45593999997E+02  0.45594000000E+02  0.51100000000E-03 0. -1.
         23    2    1    2    0    0 -0.35527136788E-14  0.88817841970E-15  0.00000000000E+00  0.91188000000E+02  0.91188000000E+02 0.  0.
    9900012    2    3    3    0    0 -0.31466233957E+02  0.79408845659E+01  0.24494581280E+02  0.50528855405E+02  0.29999986489E+02 0.  0.
        -12    1    3    3    0    0  0.31466233957E+02 -0.79408845659E+01 -0.24494581280E+02  0.40659144595E+02  0.00000000000E+00 0.  1.
         11    1    4    4    0    0 -0.23944186630E+02  0.63052868755E+01  0.20131080072E+01  0.24842168184E+02  0.51100000000E-03 0. -1.
        -11    1    4    4    0    0  0.65001225575E+00 -0.28596901083E+01  0.73266469919E+01  0.78917741892E+01  0.51100000000E-03 0.  1.
         12    1    4    4    0    0 -0.81720595827E+01  0.44952877987E+01  0.15154826281E+02  0.17794913032E+02  0.00000000000E+00 0. -1.
</event>
<event>
 8    1  0.2031623E-013  0.9118800E+02  0.7816164E-02  0.1184000E+00
        -11   -1    0    0    0    0  0.00000000000E+00  0.00000000000E+00  0.45593999997E+02  0.45594000000E+02  0.51100000000E-03 0. -1.
         11   -1    0    0    0    0 -0.00000000000E+00 -0.00000000000E+00 -0.45593999997E+02  0.45594000000E+02  0.51100000000E-03 0.  1.
         23    2    1    2    0    0  0.11102230246E-15 -0.35527136788E-14  0.71054273576E-14  0.91188000000E+02  0.91188000000E+02 0.  0.
    9900012    2    3    3    0    0  0.71735124099E+00 -0.14370398333E+02 -0.38028183418E+02  0.50528859882E+02  0.30000000098E+02 0.  0.
         12    1    3    3    0    0 -0.71735124099E+00  0.14370398333E+02  0.38028183418E+02  0.40659140118E+02  0.00000000000E+00 0. -1.
         11    1    4    4    0    0 -0.16450647384E+01  0.10056066126E-01 -0.37854531839E+00  0.16880864721E+01  0.51100000000E-03 0. -1.
        -11    1    4    4    0    0  0.87978652480E+01  0.41727053570E+01 -0.55420707634E+01  0.11203948033E+02  0.51100000000E-03 0.  1.
        -12    1    4    4    0    0 -0.64354492686E+01 -0.18553159756E+02 -0.32107567336E+02  0.37636825377E+02  0.00000000000E+00 0.  1.
</event>
<event>
 8    1  0.2031623E-013  0.9118800E+02  0.7816164E-02  0.1184000E+00
        -11   -1    0    0    0    0  0.00000000000E+00  0.00000000000E+00  0.45593999997E+02  0.45594000000E+02  0.51100000000E-03 0. -1.
         11   -1    0    0    0    0 -0.00000000000E+00 -0.00000000000E+00 -0.45593999997E+02  0.45594000000E+02  0.51100000000E-03 0.  1.
         23    2    1    2    0    0 -0.88817841970E-15  0.00000000000E+00  0.00000000000E+00  0.91188000000E+02  0.91188000000E+02 0.  0.
    9900012    2    3    3    0    0 -0.66505202157E+01  0.37654395105E+02  0.13823271325E+02  0.50528859331E+02  0.29999998421E+02 0.  0.
        -12    1    3    3    0    0  0.66505202157E+01 -0.37654395105E+02 -0.13823271325E+02  0.40659140669E+02  0.00000000000E+00 0.  1.
         11    1    4    4    0    0 -0.16797091715E+01  0.21549252796E+02  0.98388161584E+01  0.23748558328E+02  0.51100000000E-03 0. -1.
        -11    1    4    4    0    0 -0.56085222283E+01  0.59916987567E+01 -0.77416430147E+01  0.11282243235E+02  0.51100000000E-03 0.  1.
        -12    1    4    4    0    0  0.63771118405E+00  0.10113443552E+02  0.11726098182E+02  0.15498057768E+02  0.00000000000E+00 0.  1.
</event>
<event>
 8    1  0.2031623E-013  0.9118800E+02  0.7816164E-02  0.1184000E+00
        -11   -1    0    0    0    0  0.00000000000E+00  0.00000000000E+00  0.45593999997E+02  0.45594000000E+02  0.51100000000E-03 0. -1.
         11   -1    0    0    0    0 -0.00000000000E+00 -0.00000000000E+00 -0.45593999997E+02  0.45594000000E+02  0.51100000000E-03 0.  1.
         23    2    1    2    0    0  0.00000000000E+00  0.00000000000E+00  0.00000000000E+00  0.91188000000E+02  0.91188000000E+02 0.  0.
    9900012    2    3    3    0    0 -0.17148304674E+02  0.24266983612E+02 -0.27752741701E+02  0.50528861805E+02  0.30000005944E+02 0.  0.
         12    1    3    3    0    0  0.17148304674E+02 -0.24266983612E+02  0.27752741701E+02  0.40659138195E+02  0.00000000000E+00 0. -1.
         11    1    4    4    0    0 -0.23276099966E+02  0.18524325746E+02 -0.11656279407E+02  0.31949903346E+02  0.51100000000E-03 0. -1.
        -11    1    4    4    0    0  0.19991978758E+01  0.42827111566E+01 -0.65619168939E+01  0.80868510918E+01  0.51100000000E-03 0.  1.
         12    1    4    4    0    0  0.41285974164E+01  0.14599467099E+01 -0.95345454004E+01  0.10492107368E+02  0.00000000000E+00 0. -1.
</event>
<event>
 8    1  0.2031623E-013  0.9118800E+02  0.7816164E-02  0.1184000E+00
        -11   -1    0    0    0    0  0.00000000000E+00  0.00000000000E+00  0.45593999997E+02  0.45594000000E+02  0.51100000000E-03 0. -1.
         11   -1    0    0    0    0 -0.00000000000E+00 -0.00000000000E+00 -0.45593999997E+02  0.45594000000E+02  0.51100000000E-03 0.  1.
         23    2    1    2    0    0 -0.35527136788E-14  0.00000000000E+00  0.00000000000E+00  0.91188000000E+02  0.91188000000E+02 0.  0.
    9900012    2    3    3    0    0  0.20887432582E+02 -0.32102637344E+02 -0.13649267429E+02  0.50528847701E+02  0.29999963071E+02 0.  0.
         12    1    3    3    0    0 -0.20887432582E+02  0.32102637344E+02  0.13649267429E+02  0.40659152299E+02  0.00000000000E+00 0. -1.
         11    1    4    4    0    0  0.92472701649E+01 -0.32673496241E+01 -0.69620379207E+01  0.12027366767E+02  0.51100000000E-03 0. -1.
        -11    1    4    4    0    0 -0.15805903025E+01 -0.20019633020E+02 -0.97419374178E+01  0.22320154947E+02  0.51100000000E-03 0.  1.
        -12    1    4    4    0    0  0.13220752720E+02 -0.88156547007E+01  0.30547079093E+01  0.16181325987E+02  0.00000000000E+00 0.  1.
</event>
<event>
 8    1  0.3555351E-013  0.9118800E+02  0.7816164E-02  0.1184000E+00
        -11   -1    0    0    0    0  0.00000000000E+00  0.00000000000E+00  0.45593999997E+02  0.45594000000E+02  0.51100000000E-03 0. -1.
         11   -1    0    0    0    0 -0.00000000000E+00 -0.00000000000E+00 -0.45593999997E+02  0.45594000000E+02  0.51100000000E-03 0.  1.
         23    2    1    2    0    0  0.00000000000E+00 -0.17763568394E-14  0.00000000000E+00  0.91188000000E+02  0.91188000000E+02 0.  0.
    9900012    2    3    3    0    0  0.69362616089E+01 -0.11372661693E+02 -0.38415052821E+02  0.50528862745E+02  0.30000008800E+02 0.  0.
         12    1    3    3    0    0 -0.69362616089E+01  0.11372661693E+02  0.38415052821E+02  0.40659137255E+02  0.00000000000E+00 0. -1.
         11    1    4    4    0    0  0.10272831381E+02 -0.33515220866E+01 -0.39881390944E+01  0.11518203792E+02  0.51100000000E-03 0. -1.
        -11    1    4    4    0    0  0.41705133520E+01 -0.66336891779E+01 -0.27858937735E+02  0.28939927881E+02  0.51100000000E-03 0.  1.
         12    1    4    4    0    0 -0.75070831244E+01 -0.13874504289E+01 -0.65679759908E+01  0.10070731073E+02  0.00000000000E+00 0. -1.
</event>
<event>
 8    1  0.2031623E-013  0.9118800E+02  0.7816164E-02  0.1184000E+00
        -11   -1    0    0    0    0  0.00000000000E+00  0.00000000000E+00  0.45593999997E+02  0.45594000000E+02  0.51100000000E-03 0. -1.
         11   -1    0    0    0    0 -0.00000000000E+00 -0.00000000000E+00 -0.45593999997E+02  0.45594000000E+02  0.51100000000E-03 0.  1.
         23    2    1    2    0    0  0.00000000000E+00  0.35527136788E-14  0.00000000000E+00  0.91188000000E+02  0.91188000000E+02 0.  0.
    9900012    2    3    3    0    0  0.23651910772E+02 -0.18812904967E+02  0.27199771916E+02  0.50528857501E+02  0.29999992860E+02 0.  0.
        -12    1    3    3    0    0 -0.23651910772E+02  0.18812904967E+02 -0.27199771916E+02  0.40659142499E+02  0.00000000000E+00 0.  1.
         11    1    4    4    0    0  0.14067368563E+02 -0.20986904039E+02  0.23405751920E+02  0.34440822037E+02  0.51100000000E-03 0. -1.
        -11    1    4    4    0    0 -0.75982705158E+00 -0.26000412415E+01 -0.19416759078E+01  0.33328152061E+01  0.51100000000E-03 0.  1.
         12    1    4    4    0    0  0.10344369260E+02  0.47740403138E+01  0.57356959046E+01  0.12755220258E+02  0.00000000000E+00 0. -1.
</event>
<event>
 8    1  0.2031623E-013  0.9118800E+02  0.7816164E-02  0.1184000E+00
        -11   -1    0    0    0    0  0.00000000000E+00  0.00000000000E+00  0.45593999997E+02  0.45594000000E+02  0.51100000000E-03 0. -1.
         11   -1    0    0    0    0 -0.00000000000E+00 -0.00000000000E+00 -0.45593999997E+02  0.45594000000E+02  0.51100000000E-03 0.  1.
         23    2    1    2    0    0 -0.17763568394E-14  0.17763568394E-14 -0.71054273576E-14  0.91188000000E+02  0.91188000000E+02 0.  0.
    9900012    2    3    3    0    0  0.30780567600E+01 -0.14583236360E+02  0.37828829882E+02  0.50528860974E+02  0.30000003415E+02 0.  0.
        -12    1    3    3    0    0 -0.30780567600E+01  0.14583236360E+02 -0.37828829882E+02  0.40659139026E+02  0.00000000000E+00 0.  1.
         11    1    4    4    0    0 -0.69057835107E+01  0.12966776017E+01  0.85560335998E+00  0.70783667658E+01  0.51100000000E-03 0. -1.
        -11    1    4    4    0    0  0.82479112542E+01 -0.10323921407E+02  0.12139728051E+02  0.17943923503E+02  0.51100000000E-03 0.  1.
         12    1    4    4    0    0  0.17359290166E+01 -0.55559925548E+01  0.24833498470E+02  0.25506570704E+02  0.00000000000E+00 0. -1.
</event>
<event>
 8    1  0.2031623E-013  0.9118800E+02  0.7816164E-02  0.1184000E+00
        -11   -1    0    0    0    0  0.00000000000E+00  0.00000000000E+00  0.45593999997E+02  0.45594000000E+02  0.51100000000E-03 0. -1.
         11   -1    0    0    0    0 -0.00000000000E+00 -0.00000000000E+00 -0.45593999997E+02  0.45594000000E+02  0.51100000000E-03 0.  1.
         23    2    1    2    0    0  0.13322676296E-14  0.00000000000E+00  0.00000000000E+00  0.91188000000E+02  0.91188000000E+02 0.  0.
    9900012    2    3    3    0    0 -0.21673834847E+01 -0.29558145362E+02  0.27834906352E+02  0.50528886383E+02  0.30000080651E+02 0.  0.
        -12    1    3    3    0    0  0.21673834847E+01  0.29558145362E+02 -0.27834906352E+02  0.40659113617E+02  0.00000000000E+00 0.  1.
         11    1    4    4    0    0 -0.73288317954E+01  0.72719672931E+00  0.48878839649E+01  0.88392307631E+01  0.51100000000E-03 0. -1.
        -11    1    4    4    0    0  0.96710167189E+01 -0.11208036776E+02  0.13028005491E+02  0.19719979211E+02  0.51100000000E-03 0.  1.
         12    1    4    4    0    0 -0.45095684082E+01 -0.19077305315E+02  0.99190168964E+01  0.21969676409E+02  0.00000000000E+00 0. -1.
</event>
<event>
 8    1  0.2031623E-013  0.9118800E+02  0.7816164E-02  0.1184000E+00
        -11   -1    0    0    0    0  0.00000000000E+00  0.00000000000E+00  0.45593999997E+02  0.45594000000E+02  0.51100000000E-03 0. -1.
         11   -1    0    0    0    0 -0.00000000000E+00 -0.00000000000E+00 -0.45593999997E+02  0.45594000000E+02  0.51100000000E-03 0.  1.
         23    2    1    2    0    0  0.35527136788E-14 -0.35527136788E-14 -0.35527136788E-14  0.91188000000E+02  0.91188000000E+02 0.  0.
    9900012    2    3    3    0    0  0.22153883761E+02 -0.19281019763E+02 -0.28117865692E+02  0.50528847772E+02  0.29999963288E+02 0.  0.
         12    1    3    3    0    0 -0.22153883761E+02  0.19281019763E+02  0.28117865692E+02  0.40659152228E+02  0.00000000000E+00 0. -1.
         11    1    4    4    0    0  0.78083956585E+01 -0.14062847225E+02 -0.22319117454E+01  0.16239339431E+02  0.51100000000E-03 0. -1.
        -11    1    4    4    0    0  0.14943056990E+02 -0.91496072114E+00 -0.25933673980E+02  0.29944741637E+02  0.51100000000E-03 0.  1.
        -12    1    4    4    0    0 -0.59756888727E+00 -0.43032118165E+01  0.47720033433E-01  0.43447667043E+01  0.00000000000E+00 0.  1.
</event>
<event>
 8    1  0.2031623E-013  0.9118800E+02  0.7816164E-02  0.1184000E+00
        -11   -1    0    0    0    0  0.00000000000E+00  0.00000000000E+00  0.45593999997E+02  0.45594000000E+02  0.51100000000E-03 0. -1.
         11   -1    0    0    0    0 -0.00000000000E+00 -0.00000000000E+00 -0.45593999997E+02  0.45594000000E+02  0.51100000000E-03 0.  1.
         23    2    1    2    0    0  0.00000000000E+00  0.00000000000E+00  0.71054273576E-14  0.91188000000E+02  0.91188000000E+02 0.  0.
    9900012    2    3    3    0    0 -0.90560266083E+01 -0.21886329059E+02  0.33047570455E+02  0.50528869038E+02  0.30000027927E+02 0.  0.
        -12    1    3    3    0    0  0.90560266083E+01  0.21886329059E+02 -0.33047570455E+02  0.40659130962E+02  0.00000000000E+00 0.  1.
         11    1    4    4    0    0 -0.29018042729E+01 -0.20424538515E+02  0.24572106278E+02  0.32083806644E+02  0.51100000000E-03 0. -1.
        -11    1    4    4    0    0  0.34370870862E+01  0.36712229083E+01  0.70915429803E+00  0.50788133810E+01  0.51100000000E-03 0.  1.
        -12    1    4    4    0    0 -0.95913094216E+01 -0.51330134527E+01  0.77663098796E+01  0.13366249013E+02  0.00000000000E+00 0.  1.
</event>
<event>
 8    1  0.2031623E-013  0.9118800E+02  0.7816164E-02  0.1184000E+00
        -11   -1    0    0    0    0  0.00000000000E+00  0.00000000000E+00  0.45593999997E+02  0.45594000000E+02  0.51100000000E-03 0. -1.
         11   -1    0    0    0    0 -0.00000000000E+00 -0.00000000000E+00 -0.45593999997E+02  0.45594000000E+02  0.51100000000E-03 0.  1.
         23    2    1    2    0    0  0.17763568394E-14  0.00000000000E+00  0.71054273576E-14  0.91188000000E+02  0.91188000000E+02 0.  0.
    9900012    2    3    3    0    0 -0.77578928937E+01 -0.16497247980E+02 -0.36343107169E+02  0.50528861645E+02  0.30000005455E+02 0.  0.
         12    1    3    3    0    0  0.77578928937E+01  0.16497247980E+02  0.36343107169E+02  0.40659138355E+02  0.00000000000E+00 0. -1.
         11    1    4    4    0    0 -0.27178544440E+01  0.36051867469E+01  0.76239918130E+00  0.45787942770E+01  0.51100000000E-03 0. -1.
        -11    1    4    4    0    0  0.23059240633E+01 -0.12772801061E+02 -0.84858325513E+01  0.15507130202E+02  0.51100000000E-03 0.  1.
        -12    1    4    4    0    0 -0.73459625131E+01 -0.73296336658E+01 -0.28619673799E+02  0.30442937166E+02  0.00000000000E+00 0.  1.
</event>
<event>
 8    1  0.2031623E-013  0.9118800E+02  0.7816164E-02  0.1184000E+00
        -11   -1    0    0    0    0  0.00000000000E+00  0.00000000000E+00  0.45593999997E+02  0.45594000000E+02  0.51100000000E-03 0. -1.
         11   -1    0    0    0    0 -0.00000000000E+00 -0.00000000000E+00 -0.45593999997E+02  0.45594000000E+02  0.51100000000E-03 0.  1.
         23    2    1    2    0    0  0.00000000000E+00  0.35527136788E-14  0.35527136788E-14  0.91188000000E+02  0.91188000000E+02 0.  0.
    9900012    2    3    3    0    0 -0.19369482596E+02  0.16589246341E+02  0.31666799538E+02  0.50528854126E+02  0.29999982602E+02 0.  0.
        -12    1    3    3    0    0  0.19369482596E+02 -0.16589246341E+02 -0.31666799538E+02  0.40659145874E+02  0.00000000000E+00 0.  1.
         11    1    4    4    0    0 -0.14956756451E+02  0.16262800135E+02  0.18222017811E+02  0.28639573410E+02  0.51100000000E-03 0. -1.
        -11    1    4    4    0    0 -0.85031897288E+01 -0.51081875404E+01  0.51970699612E+01  0.11198542403E+02  0.51100000000E-03 0.  1.
        -12    1    4    4    0    0  0.40904635844E+01  0.54346337466E+01  0.82477117663E+01  0.10690738313E+02  0.00000000000E+00 0.  1.
</event>
<event>
 8    1  0.2031623E-013  0.9118800E+02  0.7816164E-02  0.1184000E+00
        -11   -1    0    0    0    0  0.00000000000E+00  0.00000000000E+00  0.45593999997E+02  0.45594000000E+02  0.51100000000E-03 0. -1.
         11   -1    0    0    0    0 -0.00000000000E+00 -0.00000000000E+00 -0.45593999997E+02  0.45594000000E+02  0.51100000000E-03 0.  1.
         23    2    1    2    0    0 -0.88817841970E-15  0.35527136788E-14  0.71054273576E-14  0.91188000000E+02  0.91188000000E+02 0.  0.
    9900012    2    3    3    0    0 -0.64442444365E+01  0.16939264499E+02  0.36396409063E+02  0.50528861288E+02  0.30000004370E+02 0.  0.
        -12    1    3    3    0    0  0.64442444365E+01 -0.16939264499E+02 -0.36396409063E+02  0.40659138712E+02  0.00000000000E+00 0.  1.
         11    1    4    4    0    0 -0.88217237933E+01  0.10189286278E+02  0.15622264805E+02  0.20632487088E+02  0.51100000000E-03 0. -1.
        -11    1    4    4    0    0  0.41843953687E+00 -0.32152370485E+01 -0.27640794802E+01  0.42606310046E+01  0.51100000000E-03 0.  1.
        -12    1    4    4    0    0  0.19590398199E+01  0.99652152697E+01  0.23538223738E+02  0.25635743194E+02  0.00000000000E+00 0.  1.
</event>
<event>
 8    1  0.2031623E-013  0.9118800E+02  0.7816164E-02  0.1184000E+00
        -11   -1    0    0    0    0  0.00000000000E+00  0.00000000000E+00  0.45593999997E+02  0.45594000000E+02  0.51100000000E-03 0. -1.
         11   -1    0    0    0    0 -0.00000000000E+00 -0.00000000000E+00 -0.45593999997E+02  0.45594000000E+02  0.51100000000E-03 0.  1.
         23    2    1    2    0    0  0.00000000000E+00  0.00000000000E+00  0.00000000000E+00  0.91188000000E+02  0.91188000000E+02 0.  0.
    9900012    2    3    3    0    0  0.68948680757E+01  0.58351264803E+00 -0.40066019270E+02  0.50528860893E+02  0.30000003169E+02 0.  0.
         12    1    3    3    0    0 -0.68948680757E+01 -0.58351264803E+00  0.40066019270E+02  0.40659139107E+02  0.00000000000E+00 0. -1.
         11    1    4    4    0    0 -0.68571750329E+01  0.37887904187E+01 -0.15472240977E+02  0.17342607168E+02  0.51100000000E-03 0. -1.
        -11    1    4    4    0    0  0.14712357523E+02 -0.50030153666E-01 -0.89987008604E+01  0.17246233918E+02  0.51100000000E-03 0.  1.
         12    1    4    4    0    0 -0.96031441483E+00 -0.31552476170E+01 -0.15595077433E+02  0.15940019806E+02  0.00000000000E+00 0. -1.
</event>
<event>
 8    1  0.2031623E-013  0.9118800E+02  0.7816164E-02  0.1184000E+00
        -11   -1    0    0    0    0  0.00000000000E+00  0.00000000000E+00  0.45593999997E+02  0.45594000000E+02  0.51100000000E-03 0. -1.
         11   -1    0    0    0    0 -0.00000000000E+00 -0.00000000000E+00 -0.45593999997E+02  0.45594000000E+02  0.51100000000E-03 0.  1.
         23    2    1    2    0    0  0.13322676296E-14  0.17763568394E-14  0.00000000000E+00  0.91188000000E+02  0.91188000000E+02 0.  0.
    9900012    2    3    3    0    0 -0.30657400508E+01 -0.12764824726E+02 -0.38481513799E+02  0.50528850763E+02  0.29999972380E+02 0.  0.
         12    1    3    3    0    0  0.30657400508E+01  0.12764824726E+02  0.38481513799E+02  0.40659149237E+02  0.00000000000E+00 0. -1.
         11    1    4    4    0    0 -0.17982868703E+01 -0.24827555662E+01  0.90284559676E+00  0.31957849273E+01  0.51100000000E-03 0. -1.
        -11    1    4    4    0    0  0.38583533156E+01  0.23967125269E+01 -0.30915637801E+02  0.31247524417E+02  0.51100000000E-03 0.  1.
        -12    1    4    4    0    0 -0.51258064961E+01 -0.12678781687E+02 -0.84687215948E+01  0.16085541419E+02  0.00000000000E+00 0.  1.
</event>
<event>
 8    1  0.2031623E-013  0.9118800E+02  0.7816164E-02  0.1184000E+00
        -11   -1    0    0    0    0  0.00000000000E+00  0.00000000000E+00  0.45593999997E+02  0.45594000000E+02  0.51100000000E-03 0. -1.
         11   -1    0    0    0    0 -0.00000000000E+00 -0.00000000000E+00 -0.45593999997E+02  0.45594000000E+02  0.51100000000E-03 0.  1.
         23    2    1    2    0    0  0.00000000000E+00  0.00000000000E+00 -0.35527136788E-14  0.91188000000E+02  0.91188000000E+02 0.  0.
    9900012    2    3    3    0    0  0.33275648245E+02  0.52206805258E+01  0.22773707821E+02  0.50528855405E+02  0.29999986489E+02 0.  0.
        -12    1    3    3    0    0 -0.33275648245E+02 -0.52206805258E+01 -0.22773707821E+02  0.40659144595E+02  0.00000000000E+00 0.  1.
         11    1    4    4    0    0  0.13785516492E+02 -0.11191258196E+01 -0.31432850459E+01  0.14183552048E+02  0.51100000000E-03 0. -1.
        -11    1    4    4    0    0  0.16516184770E+02  0.11014344590E+02  0.21465862334E+02  0.29238389014E+02  0.51100000000E-03 0.  1.
         12    1    4    4    0    0  0.29739469824E+01 -0.46745382450E+01  0.44511305332E+01  0.71069143432E+01  0.00000000000E+00 0. -1.
</event>
<event>
 8    1  0.2031623E-013  0.9118800E+02  0.7816164E-02  0.1184000E+00
        -11   -1    0    0    0    0  0.00000000000E+00  0.00000000000E+00  0.45593999997E+02  0.45594000000E+02  0.51100000000E-03 0. -1.
         11   -1    0    0    0    0 -0.00000000000E+00 -0.00000000000E+00 -0.45593999997E+02  0.45594000000E+02  0.51100000000E-03 0.  1.
         23    2    1    2    0    0  0.00000000000E+00  0.00000000000E+00  0.00000000000E+00  0.91188000000E+02  0.91188000000E+02 0.  0.
    9900012    2    3    3    0    0 -0.22115186893E+02 -0.13855554814E+02 -0.31178651366E+02  0.50528853532E+02  0.29999980796E+02 0.  0.
         12    1    3    3    0    0  0.22115186893E+02  0.13855554814E+02  0.31178651366E+02  0.40659146468E+02  0.00000000000E+00 0. -1.
         11    1    4    4    0    0 -0.38229797126E+01  0.64907897267E+01 -0.17335633704E+01  0.77298620544E+01  0.51100000000E-03 0. -1.
        -11    1    4    4    0    0 -0.16720838495E+02 -0.22420390181E+02 -0.24373780189E+02  0.37099076765E+02  0.51100000000E-03 0.  1.
        -12    1    4    4    0    0 -0.15713686853E+01  0.20740456401E+01 -0.50713078065E+01  0.56999147126E+01  0.00000000000E+00 0.  1.
</event>
<event>
 8    1  0.2031623E-013  0.9118800E+02  0.7816164E-02  0.1184000E+00
        -11   -1    0    0    0    0  0.00000000000E+00  0.00000000000E+00  0.45593999997E+02  0.45594000000E+02  0.51100000000E-03 0. -1.
         11   -1    0    0    0    0 -0.00000000000E+00 -0.00000000000E+00 -0.45593999997E+02  0.45594000000E+02  0.51100000000E-03 0.  1.
         23    2    1    2    0    0  0.17763568394E-14  0.00000000000E+00  0.00000000000E+00  0.91188000000E+02  0.91188000000E+02 0.  0.
    9900012    2    3    3    0    0  0.10052042614E+02  0.94910302976E+01 -0.38236664377E+02  0.50528859336E+02  0.29999998439E+02 0.  0.
         12    1    3    3    0    0 -0.10052042614E+02 -0.94910302976E+01  0.38236664377E+02  0.40659140664E+02  0.00000000000E+00 0. -1.
         11    1    4    4    0    0  0.18120783024E+01  0.17711043267E+02 -0.21460539941E+02  0.27884035867E+02  0.51100000000E-03 0. -1.
        -11    1    4    4    0    0  0.87624773238E+01 -0.50007138371E+01 -0.68450386051E+01  0.12191911314E+02  0.51100000000E-03 0.  1.
         12    1    4    4    0    0 -0.52251301218E+00 -0.32192991325E+01 -0.99310858306E+01  0.10452912155E+02  0.00000000000E+00 0. -1.
</event>
<event>
 8    1  0.2031623E-013  0.9118800E+02  0.7816164E-02  0.1184000E+00
        -11   -1    0    0    0    0  0.00000000000E+00  0.00000000000E+00  0.45593999997E+02  0.45594000000E+02  0.51100000000E-03 0. -1.
         11   -1    0    0    0    0 -0.00000000000E+00 -0.00000000000E+00 -0.45593999997E+02  0.45594000000E+02  0.51100000000E-03 0.  1.
         23    2    1    2    0    0 -0.35527136788E-14 -0.35527136788E-14 -0.35527136788E-14  0.91188000000E+02  0.91188000000E+02 0.  0.
    9900012    2    3    3    0    0  0.26282065905E+02  0.19687487642E+02  0.23975433377E+02  0.50528861255E+02  0.30000004270E+02 0.  0.
        -12    1    3    3    0    0 -0.26282065905E+02 -0.19687487642E+02 -0.23975433377E+02  0.40659138745E+02  0.00000000000E+00 0.  1.
         11    1    4    4    0    0  0.13045343532E+02  0.19743667629E+02  0.13402289098E+01  0.23702101449E+02  0.51100000000E-03 0. -1.
        -11    1    4    4    0    0  0.10065238838E+02  0.15341124020E+01  0.12701715213E+02  0.16278700911E+02  0.51100000000E-03 0.  1.
         12    1    4    4    0    0  0.31714835346E+01 -0.15902923883E+01  0.99334892543E+01  0.10548058895E+02  0.00000000000E+00 0. -1.
</event>
<event>
 8    1  0.2031623E-013  0.9118800E+02  0.7816164E-02  0.1184000E+00
        -11   -1    0    0    0    0  0.00000000000E+00  0.00000000000E+00  0.45593999997E+02  0.45594000000E+02  0.51100000000E-03 0. -1.
         11   -1    0    0    0    0 -0.00000000000E+00 -0.00000000000E+00 -0.45593999997E+02  0.45594000000E+02  0.51100000000E-03 0.  1.
         23    2    1    2    0    0  0.00000000000E+00  0.00000000000E+00  0.17763568394E-14  0.91188000000E+02  0.91188000000E+02 0.  0.
    9900012    2    3    3    0    0 -0.29363833365E+02 -0.25493730672E+02 -0.11874215403E+02  0.50528905016E+02  0.30000137287E+02 0.  0.
         12    1    3    3    0    0  0.29363833365E+02  0.25493730672E+02  0.11874215403E+02  0.40659094984E+02  0.00000000000E+00 0. -1.
         11    1    4    4    0    0 -0.10222147794E+00 -0.67215809307E-01 -0.58606563534E+01  0.58619331581E+01  0.51100000000E-03 0. -1.
        -11    1    4    4    0    0 -0.30482401281E+02 -0.15721804658E+02 -0.29849785584E+01  0.34427634638E+02  0.51100000000E-03 0.  1.
        -12    1    4    4    0    0  0.12207893939E+01 -0.97047102052E+01 -0.30285804910E+01  0.10239337220E+02  0.00000000000E+00 0.  1.
</event>
<event>
 8    1  0.2031623E-013  0.9118800E+02  0.7816164E-02  0.1184000E+00
        -11   -1    0    0    0    0  0.00000000000E+00  0.00000000000E+00  0.45593999997E+02  0.45594000000E+02  0.51100000000E-03 0. -1.
         11   -1    0    0    0    0 -0.00000000000E+00 -0.00000000000E+00 -0.45593999997E+02  0.45594000000E+02  0.51100000000E-03 0.  1.
         23    2    1    2    0    0  0.00000000000E+00 -0.17763568394E-14  0.00000000000E+00  0.91188000000E+02  0.91188000000E+02 0.  0.
    9900012    2    3    3    0    0  0.34106604131E+02  0.71946033384E+01  0.20931868818E+02  0.50528857181E+02  0.29999991889E+02 0.  0.
        -12    1    3    3    0    0 -0.34106604131E+02 -0.71946033384E+01 -0.20931868818E+02  0.40659142819E+02  0.00000000000E+00 0.  1.
         11    1    4    4    0    0  0.16581954622E+02  0.17302205545E+02  0.61028899028E+01  0.24729998003E+02  0.51100000000E-03 0. -1.
        -11    1    4    4    0    0  0.76036284523E+01 -0.63016611993E+01  0.40828428097E+01  0.10686239057E+02  0.51100000000E-03 0.  1.
         12    1    4    4    0    0  0.99210210564E+01 -0.38059410068E+01  0.10746136105E+02  0.15112620122E+02  0.00000000000E+00 0. -1.
</event>
<event>
 8    1  0.2031623E-013  0.9118800E+02  0.7816164E-02  0.1184000E+00
        -11   -1    0    0    0    0  0.00000000000E+00  0.00000000000E+00  0.45593999997E+02  0.45594000000E+02  0.51100000000E-03 0. -1.
         11   -1    0    0    0    0 -0.00000000000E+00 -0.00000000000E+00 -0.45593999997E+02  0.45594000000E+02  0.51100000000E-03 0.  1.
         23    2    1    2    0    0  0.00000000000E+00  0.00000000000E+00 -0.35527136788E-14  0.91188000000E+02  0.91188000000E+02 0.  0.
    9900012    2    3    3    0    0 -0.65609718411E+01 -0.31960658698E+02 -0.24261812095E+02  0.50528861026E+02  0.30000003576E+02 0.  0.
         12    1    3    3    0    0  0.65609718411E+01  0.31960658698E+02  0.24261812095E+02  0.40659138974E+02  0.00000000000E+00 0. -1.
         11    1    4    4    0    0 -0.68317252351E+01 -0.23919321522E+02 -0.18707865968E+00  0.24876523278E+02  0.51100000000E-03 0. -1.
        -11    1    4    4    0    0 -0.14680613171E+01 -0.43129858462E+01 -0.10005000231E+02  0.10993501754E+02  0.51100000000E-03 0.  1.
         12    1    4    4    0    0  0.17388147111E+01 -0.37283513307E+01 -0.14069733205E+02  0.14658835994E+02  0.00000000000E+00 0. -1.
</event>
<event>
 8    1  0.2031623E-013  0.9118800E+02  0.7816164E-02  0.1184000E+00
        -11   -1    0    0    0    0  0.00000000000E+00  0.00000000000E+00  0.45593999997E+02  0.45594000000E+02  0.51100000000E-03 0.  1.
         11   -1    0    0    0    0 -0.00000000000E+00 -0.00000000000E+00 -0.45593999997E+02  0.45594000000E+02  0.51100000000E-03 0. -1.
         23    2    1    2    0    0  0.00000000000E+00  0.00000000000E+00 -0.11102230246E-15  0.91188000000E+02  0.91188000000E+02 0.  0.
    9900012    2    3    3    0    0 -0.35305354544E+02  0.20147171028E+02 -0.88839125074E+00  0.50528858360E+02  0.29999995471E+02 0.  0.
         12    1    3    3    0    0  0.35305354544E+02 -0.20147171028E+02  0.88839125074E+00  0.40659141640E+02  0.00000000000E+00 0. -1.
         11    1    4    4    0    0 -0.11166385088E+02 -0.53638688227E+01 -0.52071534854E+01  0.13437771109E+02  0.51100000000E-03 0. -1.
        -11    1    4    4    0    0 -0.18184022238E+02  0.12795293759E+02  0.57816397674E+01  0.22974019365E+02  0.51100000000E-03 0.  1.
        -12    1    4    4    0    0 -0.59549472173E+01  0.12715746092E+02 -0.14628775327E+01  0.14117067886E+02  0.00000000000E+00 0.  1.
</event>
<event>
 8    1  0.2031623E-013  0.9118800E+02  0.7816164E-02  0.1184000E+00
        -11   -1    0    0    0    0  0.00000000000E+00  0.00000000000E+00  0.45593999997E+02  0.45594000000E+02  0.51100000000E-03 0. -1.
         11   -1    0    0    0    0 -0.00000000000E+00 -0.00000000000E+00 -0.45593999997E+02  0.45594000000E+02  0.51100000000E-03 0.  1.
         23    2    1    2    0    0 -0.71054273576E-14  0.00000000000E+00 -0.17763568394E-14  0.91188000000E+02  0.91188000000E+02 0.  0.
    9900012    2    3    3    0    0 -0.35932550053E+02 -0.14481153436E+02 -0.12341641034E+02  0.50528830535E+02  0.29999910895E+02 0.  0.
         12    1    3    3    0    0  0.35932550053E+02  0.14481153436E+02  0.12341641034E+02  0.40659169465E+02  0.00000000000E+00 0. -1.
         11    1    4    4    0    0 -0.30700041346E+01 -0.11397061761E+02 -0.54870635403E+00  0.11816049301E+02  0.51100000000E-03 0. -1.
        -11    1    4    4    0    0 -0.30289853820E+02 -0.25314463097E+01 -0.15537230250E+02  0.34136329459E+02  0.51100000000E-03 0.  1.
        -12    1    4    4    0    0 -0.25726920984E+01 -0.55264536491E+00  0.37442955697E+01  0.45764517747E+01  0.00000000000E+00 0.  1.
</event>
<event>
 8    1  0.2031623E-013  0.9118800E+02  0.7816164E-02  0.1184000E+00
        -11   -1    0    0    0    0  0.00000000000E+00  0.00000000000E+00  0.45593999997E+02  0.45594000000E+02  0.51100000000E-03 0.  1.
         11   -1    0    0    0    0 -0.00000000000E+00 -0.00000000000E+00 -0.45593999997E+02  0.45594000000E+02  0.51100000000E-03 0. -1.
         23    2    1    2    0    0  0.00000000000E+00  0.00000000000E+00  0.00000000000E+00  0.91188000000E+02  0.91188000000E+02 0.  0.
    9900012    2    3    3    0    0  0.37947755556E+02 -0.49444709651E+01  0.13736180298E+02  0.50528897771E+02  0.30000115265E+02 0.  0.
        -12    1    3    3    0    0 -0.37947755556E+02  0.49444709651E+01 -0.13736180298E+02  0.40659102229E+02  0.00000000000E+00 0.  1.
         11    1    4    4    0    0  0.10949579557E+01 -0.63235573650E+01 -0.35760823666E+01  0.73467459481E+01  0.51100000000E-03 0. -1.
        -11    1    4    4    0    0  0.35342111604E+02 -0.78317479897E+00  0.18917617134E+02  0.40094319469E+02  0.51100000000E-03 0.  1.
        -12    1    4    4    0    0  0.15106859962E+01  0.21622611988E+01 -0.16053544698E+01  0.30878323537E+01  0.00000000000E+00 0.  1.
</event>
<event>
 8    1  0.2031623E-013  0.9118800E+02  0.7816164E-02  0.1184000E+00
        -11   -1    0    0    0    0  0.00000000000E+00  0.00000000000E+00  0.45593999997E+02  0.45594000000E+02  0.51100000000E-03 0. -1.
         11   -1    0    0    0    0 -0.00000000000E+00 -0.00000000000E+00 -0.45593999997E+02  0.45594000000E+02  0.51100000000E-03 0.  1.
         23    2    1    2    0    0  0.00000000000E+00  0.00000000000E+00 -0.35527136788E-14  0.91188000000E+02  0.91188000000E+02 0.  0.
    9900012    2    3    3    0    0  0.21903616731E+02 -0.20719761589E+02  0.27277949585E+02  0.50528886879E+02  0.30000082157E+02 0.  0.
        -12    1    3    3    0    0 -0.21903616731E+02  0.20719761589E+02 -0.27277949585E+02  0.40659113121E+02  0.00000000000E+00 0.  1.
         11    1    4    4    0    0  0.17311821367E+02  0.75897810095E+00  0.29614042134E+01  0.17579679234E+02  0.51100000000E-03 0. -1.
        -11    1    4    4    0    0 -0.32137014403E+00 -0.56541990239E+01  0.60530361741E+01  0.82892998834E+01  0.51100000000E-03 0.  1.
         12    1    4    4    0    0  0.49131655088E+01 -0.15824540666E+02  0.18263509197E+02  0.24659907762E+02  0.00000000000E+00 0. -1.
</event>
<event>
 8    1  0.2031623E-013  0.9118800E+02  0.7816164E-02  0.1184000E+00
        -11   -1    0    0    0    0  0.00000000000E+00  0.00000000000E+00  0.45593999997E+02  0.45594000000E+02  0.51100000000E-03 0. -1.
         11   -1    0    0    0    0 -0.00000000000E+00 -0.00000000000E+00 -0.45593999997E+02  0.45594000000E+02  0.51100000000E-03 0.  1.
         23    2    1    2    0    0  0.88817841970E-15  0.17763568394E-14 -0.71054273576E-14  0.91188000000E+02  0.91188000000E+02 0.  0.
    9900012    2    3    3    0    0  0.56864811178E+01  0.12899508931E+02  0.38137021960E+02  0.50528857829E+02  0.29999993856E+02 0.  0.
        -12    1    3    3    0    0 -0.56864811178E+01 -0.12899508931E+02 -0.38137021960E+02  0.40659142171E+02  0.00000000000E+00 0.  1.
         11    1    4    4    0    0  0.13409009946E+02  0.70689350338E+01  0.57362316118E+01  0.16207274404E+02  0.51100000000E-03 0.  1.
        -11    1    4    4    0    0 -0.49912773149E+01  0.56332114534E+00  0.19245448302E+02  0.19890134755E+02  0.51100000000E-03 0. -1.
        -12    1    4    4    0    0 -0.27312515129E+01  0.52672527522E+01  0.13155342046E+02  0.14431448670E+02  0.00000000000E+00 0.  1.
</event>
<event>
 8    1  0.2031623E-013  0.9118800E+02  0.7816164E-02  0.1184000E+00
        -11   -1    0    0    0    0  0.00000000000E+00  0.00000000000E+00  0.45593999997E+02  0.45594000000E+02  0.51100000000E-03 0. -1.
         11   -1    0    0    0    0 -0.00000000000E+00 -0.00000000000E+00 -0.45593999997E+02  0.45594000000E+02  0.51100000000E-03 0.  1.
         23    2    1    2    0    0  0.00000000000E+00 -0.44408920985E-15  0.00000000000E+00  0.91188000000E+02  0.91188000000E+02 0.  0.
    9900012    2    3    3    0    0 -0.20349196876E+02  0.33192312005E+01  0.35043681893E+02  0.50528846666E+02  0.29999959926E+02 0.  0.
        -12    1    3    3    0    0  0.20349196876E+02 -0.33192312005E+01 -0.35043681893E+02  0.40659153334E+02  0.00000000000E+00 0.  1.
         11    1    4    4    0    0 -0.24572277007E+02  0.70180664803E+01  0.26339087216E+02  0.36698740715E+02  0.51100000000E-03 0. -1.
        -11    1    4    4    0    0  0.30254369480E+01 -0.62916713871E+01  0.33102507601E+01  0.77263288776E+01  0.51100000000E-03 0.  1.
         12    1    4    4    0    0  0.11976431827E+01  0.25928361073E+01  0.53943439168E+01  0.61037770737E+01  0.00000000000E+00 0. -1.
</event>
<event>
 8    1  0.2031623E-013  0.9118800E+02  0.7816164E-02  0.1184000E+00
        -11   -1    0    0    0    0  0.00000000000E+00  0.00000000000E+00  0.45593999997E+02  0.45594000000E+02  0.51100000000E-03 0. -1.
         11   -1    0    0    0    0 -0.00000000000E+00 -0.00000000000E+00 -0.45593999997E+02  0.45594000000E+02  0.51100000000E-03 0.  1.
         23    2    1    2    0    0  0.44408920985E-15  0.00000000000E+00  0.00000000000E+00  0.91188000000E+02  0.91188000000E+02 0.  0.
    9900012    2    3    3    0    0 -0.26251651444E+01 -0.40178615360E+02 -0.56529092341E+01  0.50528831206E+02  0.29999912932E+02 0.  0.
         12    1    3    3    0    0  0.26251651444E+01  0.40178615360E+02  0.56529092341E+01  0.40659168794E+02  0.00000000000E+00 0. -1.
         11    1    4    4    0    0  0.29842086053E+01 -0.10297609906E+02  0.40424127079E+01  0.11458070149E+02  0.51100000000E-03 0. -1.
        -11    1    4    4    0    0 -0.11642633942E+02 -0.27072178416E+02 -0.29856535549E+01  0.29620396633E+02  0.51100000000E-03 0.  1.
        -12    1    4    4    0    0  0.60332601920E+01 -0.28088270372E+01 -0.67096683871E+01  0.94503644234E+01  0.00000000000E+00 0.  1.
</event>
<event>
 8    1  0.2031623E-013  0.9118800E+02  0.7816164E-02  0.1184000E+00
        -11   -1    0    0    0    0  0.00000000000E+00  0.00000000000E+00  0.45593999997E+02  0.45594000000E+02  0.51100000000E-03 0.  1.
         11   -1    0    0    0    0 -0.00000000000E+00 -0.00000000000E+00 -0.45593999997E+02  0.45594000000E+02  0.51100000000E-03 0. -1.
         23    2    1    2    0    0 -0.71054273576E-14  0.22204460493E-15  0.00000000000E+00  0.91188000000E+02  0.91188000000E+02 0.  0.
    9900012    2    3    3    0    0  0.40547358811E+02  0.18388065257E+01  0.23865631923E+01  0.50528865727E+02  0.30000017863E+02 0.  0.
        -12    1    3    3    0    0 -0.40547358811E+02 -0.18388065257E+01 -0.23865631923E+01  0.40659134273E+02  0.00000000000E+00 0.  1.
         11    1    4    4    0    0  0.27756632607E+02  0.71497358794E+01 -0.11215408622E+01  0.28684616626E+02  0.51100000000E-03 0. -1.
        -11    1    4    4    0    0  0.85053809969E+01 -0.11269893240E+02  0.33086097621E+01  0.14501686053E+02  0.51100000000E-03 0.  1.
        -12    1    4    4    0    0  0.42853452072E+01  0.59589638865E+01  0.19949429237E+00  0.73425630483E+01  0.00000000000E+00 0.  1.
</event>
<event>
 8    1  0.2031623E-013  0.9118800E+02  0.7816164E-02  0.1184000E+00
        -11   -1    0    0    0    0  0.00000000000E+00  0.00000000000E+00  0.45593999997E+02  0.45594000000E+02  0.51100000000E-03 0. -1.
         11   -1    0    0    0    0 -0.00000000000E+00 -0.00000000000E+00 -0.45593999997E+02  0.45594000000E+02  0.51100000000E-03 0.  1.
         23    2    1    2    0    0  0.00000000000E+00 -0.17763568394E-14  0.00000000000E+00  0.91188000000E+02  0.91188000000E+02 0.  0.
    9900012    2    3    3    0    0 -0.77996293070E+01  0.99162738486E+01  0.38652280988E+02  0.50528861667E+02  0.30000005523E+02 0.  0.
        -12    1    3    3    0    0  0.77996293070E+01 -0.99162738486E+01 -0.38652280988E+02  0.40659138333E+02  0.00000000000E+00 0.  1.
         11    1    4    4    0    0 -0.96402697477E-01 -0.14444595186E+01  0.16303199112E+02  0.16367347321E+02  0.51100000000E-03 0. -1.
        -11    1    4    4    0    0 -0.67901666921E+01 -0.12455497497E+01 -0.15958172214E+01  0.70855056807E+01  0.51100000000E-03 0.  1.
        -12    1    4    4    0    0 -0.91305991740E+00  0.12606283117E+02  0.23944899098E+02  0.27076008665E+02  0.00000000000E+00 0.  1.
</event>
<event>
 8    1  0.2031623E-013  0.9118800E+02  0.7816164E-02  0.1184000E+00
        -11   -1    0    0    0    0  0.00000000000E+00  0.00000000000E+00  0.45593999997E+02  0.45594000000E+02  0.51100000000E-03 0. -1.
         11   -1    0    0    0    0 -0.00000000000E+00 -0.00000000000E+00 -0.45593999997E+02  0.45594000000E+02  0.51100000000E-03 0.  1.
         23    2    1    2    0    0  0.35527136788E-14  0.00000000000E+00 -0.35527136788E-14  0.91188000000E+02  0.91188000000E+02 0.  0.
    9900012    2    3    3    0    0  0.28601556759E+02  0.67621290608E+01 -0.28096066058E+02  0.50528875976E+02  0.30000049016E+02 0.  0.
         12    1    3    3    0    0 -0.28601556759E+02 -0.67621290608E+01  0.28096066058E+02  0.40659124024E+02  0.00000000000E+00 0. -1.
         11    1    4    4    0    0  0.16056385128E+02  0.14589421342E+01  0.25806007999E+01  0.16327752946E+02  0.51100000000E-03 0. -1.
        -11    1    4    4    0    0  0.69396874144E+01  0.62791219918E+01 -0.20668911517E+02  0.22688995966E+02  0.51100000000E-03 0.  1.
        -12    1    4    4    0    0  0.56054842170E+01 -0.97593506519E+00 -0.10007755341E+02  0.11512127064E+02  0.00000000000E+00 0.  1.
</event>
<event>
 8    1  0.2031623E-013  0.9118800E+02  0.7816164E-02  0.1184000E+00
        -11   -1    0    0    0    0  0.00000000000E+00  0.00000000000E+00  0.45593999997E+02  0.45594000000E+02  0.51100000000E-03 0. -1.
         11   -1    0    0    0    0 -0.00000000000E+00 -0.00000000000E+00 -0.45593999997E+02  0.45594000000E+02  0.51100000000E-03 0.  1.
         23    2    1    2    0    0  0.35527136788E-14  0.88817841970E-15  0.00000000000E+00  0.91188000000E+02  0.91188000000E+02 0.  0.
    9900012    2    3    3    0    0  0.11424514146E+02  0.64901300772E+01 -0.38477570449E+02  0.50528871387E+02  0.30000035067E+02 0.  0.
         12    1    3    3    0    0 -0.11424514146E+02 -0.64901300772E+01  0.38477570449E+02  0.40659128613E+02  0.00000000000E+00 0. -1.
         11    1    4    4    0    0 -0.11329705840E+01  0.39504710696E+01 -0.20437781705E+01  0.45898663909E+01  0.51100000000E-03 0. -1.
        -11    1    4    4    0    0 -0.72297734856E+00 -0.87850188523E+01 -0.20465249996E+02  0.22282856867E+02  0.51100000000E-03 0.  1.
        -12    1    4    4    0    0  0.13280462079E+02  0.11324677860E+02 -0.15968542282E+02  0.23656148129E+02  0.00000000000E+00 0.  1.
</event>
<event>
 8    1  0.2031623E-013  0.9118800E+02  0.7816164E-02  0.1184000E+00
        -11   -1    0    0    0    0  0.00000000000E+00  0.00000000000E+00  0.45593999997E+02  0.45594000000E+02  0.51100000000E-03 0. -1.
         11   -1    0    0    0    0 -0.00000000000E+00 -0.00000000000E+00 -0.45593999997E+02  0.45594000000E+02  0.51100000000E-03 0.  1.
         23    2    1    2    0    0  0.00000000000E+00  0.00000000000E+00  0.00000000000E+00  0.91188000000E+02  0.91188000000E+02 0.  0.
    9900012    2    3    3    0    0 -0.35487473094E+02  0.10709297872E+02  0.16706803760E+02  0.50528842368E+02  0.29999946861E+02 0.  0.
        -12    1    3    3    0    0  0.35487473094E+02 -0.10709297872E+02 -0.16706803760E+02  0.40659157632E+02  0.00000000000E+00 0.  1.
         11    1    4    4    0    0 -0.31496975771E+02  0.19195594221E+02  0.12171344845E+02  0.38841626586E+02  0.51100000000E-03 0. -1.
        -11    1    4    4    0    0 -0.49378852224E+01 -0.67585690417E+01  0.22455118017E+01  0.86662154066E+01  0.51100000000E-03 0.  1.
         12    1    4    4    0    0  0.94738789942E+00 -0.17277273083E+01  0.22899471138E+01  0.30210003753E+01  0.00000000000E+00 0. -1.
</event>
<event>
 8    1  0.2031623E-013  0.9118800E+02  0.7816164E-02  0.1184000E+00
        -11   -1    0    0    0    0  0.00000000000E+00  0.00000000000E+00  0.45593999997E+02  0.45594000000E+02  0.51100000000E-03 0. -1.
         11   -1    0    0    0    0 -0.00000000000E+00 -0.00000000000E+00 -0.45593999997E+02  0.45594000000E+02  0.51100000000E-03 0.  1.
         23    2    1    2    0    0  0.00000000000E+00  0.17763568394E-14  0.00000000000E+00  0.91188000000E+02  0.91188000000E+02 0.  0.
    9900012    2    3    3    0    0 -0.36469450023E+02 -0.15257875790E+02 -0.95048195702E+01  0.50528866295E+02  0.30000019590E+02 0.  0.
         12    1    3    3    0    0  0.36469450023E+02  0.15257875790E+02  0.95048195702E+01  0.40659133705E+02  0.00000000000E+00 0. -1.
         11    1    4    4    0    0 -0.13973383671E+02 -0.24623961321E+01  0.78023259248E+01  0.16192440706E+02  0.51100000000E-03 0. -1.
        -11    1    4    4    0    0 -0.99158749369E+01 -0.13842003418E+02 -0.96353829250E+01  0.19564412559E+02  0.51100000000E-03 0.  1.
        -12    1    4    4    0    0 -0.12580191415E+02  0.10465237604E+01 -0.76717625700E+01  0.14772013030E+02  0.00000000000E+00 0.  1.
</event>
<event>
 8    1  0.2031623E-013  0.9118800E+02  0.7816164E-02  0.1184000E+00
        -11   -1    0    0    0    0  0.00000000000E+00  0.00000000000E+00  0.45593999997E+02  0.45594000000E+02  0.51100000000E-03 0. -1.
         11   -1    0    0    0    0 -0.00000000000E+00 -0.00000000000E+00 -0.45593999997E+02  0.45594000000E+02  0.51100000000E-03 0.  1.
         23    2    1    2    0    0  0.00000000000E+00  0.00000000000E+00 -0.35527136788E-14  0.91188000000E+02  0.91188000000E+02 0.  0.
    9900012    2    3    3    0    0  0.22615362560E+02 -0.18296074374E+02 -0.28407149662E+02  0.50528842199E+02  0.29999946347E+02 0.  0.
         12    1    3    3    0    0 -0.22615362560E+02  0.18296074374E+02  0.28407149662E+02  0.40659157801E+02  0.00000000000E+00 0. -1.
         11    1    4    4    0    0  0.64181880195E+01 -0.18550591107E+02 -0.40352947963E+01  0.20039989327E+02  0.51100000000E-03 0. -1.
        -11    1    4    4    0    0  0.97689418691E+01  0.42670400036E+01 -0.15638515002E+02  0.18926251805E+02  0.51100000000E-03 0.  1.
        -12    1    4    4    0    0  0.64282326716E+01 -0.40125232708E+01 -0.87333398630E+01  0.11562601067E+02  0.00000000000E+00 0.  1.
</event>
<event>
 8    1  0.2031623E-013  0.9118800E+02  0.7816164E-02  0.1184000E+00
        -11   -1    0    0    0    0  0.00000000000E+00  0.00000000000E+00  0.45593999997E+02  0.45594000000E+02  0.51100000000E-03 0. -1.
         11   -1    0    0    0    0 -0.00000000000E+00 -0.00000000000E+00 -0.45593999997E+02  0.45594000000E+02  0.51100000000E-03 0.  1.
         23    2    1    2    0    0  0.53290705182E-14  0.00000000000E+00  0.00000000000E+00  0.91188000000E+02  0.91188000000E+02 0.  0.
    9900012    2    3    3    0    0  0.97193614637E+01 -0.26427262571E+02 -0.29330862153E+02  0.50528859959E+02  0.30000000330E+02 0.  0.
         12    1    3    3    0    0 -0.97193614637E+01  0.26427262571E+02  0.29330862153E+02  0.40659140041E+02  0.00000000000E+00 0. -1.
         11    1    4    4    0    0 -0.99183451070E+01 -0.62260134624E+01 -0.59948817119E+01  0.13155813175E+02  0.51100000000E-03 0. -1.
        -11    1    4    4    0    0  0.16889256265E+02 -0.12496162282E+02 -0.16603317026E+02  0.26778184880E+02  0.51100000000E-03 0.  1.
         12    1    4    4    0    0  0.27484503061E+01 -0.77050868271E+01 -0.67326634150E+01  0.10594861904E+02  0.00000000000E+00 0. -1.
</event>
<event>
 8    1  0.2031623E-013  0.9118800E+02  0.7816164E-02  0.1184000E+00
        -11   -1    0    0    0    0  0.00000000000E+00  0.00000000000E+00  0.45593999997E+02  0.45594000000E+02  0.51100000000E-03 0. -1.
         11   -1    0    0    0    0 -0.00000000000E+00 -0.00000000000E+00 -0.45593999997E+02  0.45594000000E+02  0.51100000000E-03 0.  1.
         23    2    1    2    0    0  0.00000000000E+00  0.17763568394E-14  0.71054273576E-14  0.91188000000E+02  0.91188000000E+02 0.  0.
    9900012    2    3    3    0    0 -0.10499481488E+02 -0.15820156872E+02 -0.35953418945E+02  0.50528870535E+02  0.30000032478E+02 0.  0.
         12    1    3    3    0    0  0.10499481488E+02  0.15820156872E+02  0.35953418945E+02  0.40659129465E+02  0.00000000000E+00 0. -1.
         11    1    4    4    0    0  0.22488290163E+01 -0.15801648686E+02 -0.29721608362E+02  0.33736083605E+02  0.51100000000E-03 0. -1.
        -11    1    4    4    0    0 -0.55937841653E+01 -0.44494874623E+01 -0.33865220275E+01  0.79092914770E+01  0.51100000000E-03 0.  1.
         12    1    4    4    0    0 -0.71545263394E+01  0.44309792762E+01 -0.28452885562E+01  0.88834954525E+01  0.00000000000E+00 0. -1.
</event>
<event>
 8    1  0.2031623E-013  0.9118800E+02  0.7816164E-02  0.1184000E+00
        -11   -1    0    0    0    0  0.00000000000E+00  0.00000000000E+00  0.45593999997E+02  0.45594000000E+02  0.51100000000E-03 0. -1.
         11   -1    0    0    0    0 -0.00000000000E+00 -0.00000000000E+00 -0.45593999997E+02  0.45594000000E+02  0.51100000000E-03 0.  1.
         23    2    1    2    0    0  0.00000000000E+00 -0.44408920985E-15  0.00000000000E+00  0.91188000000E+02  0.91188000000E+02 0.  0.
    9900012    2    3    3    0    0 -0.84486289661E+01 -0.35075358530E+01 -0.39616712535E+02  0.50528855257E+02  0.29999986039E+02 0.  0.
         12    1    3    3    0    0  0.84486289661E+01  0.35075358530E+01  0.39616712535E+02  0.40659144743E+02  0.00000000000E+00 0. -1.
         11    1    4    4    0    0 -0.51944520354E+01 -0.78321270275E+01 -0.15140762184E+01  0.95192947628E+01  0.51100000000E-03 0. -1.
        -11    1    4    4    0    0 -0.70147496632E+01  0.74796144837E+01 -0.26058154204E+02  0.28003191719E+02  0.51100000000E-03 0.  1.
        -12    1    4    4    0    0  0.37605727326E+01 -0.31550233092E+01 -0.12044482112E+02  0.13006368775E+02  0.00000000000E+00 0.  1.
</event>
<event>
 8    1  0.2031623E-013  0.9118800E+02  0.7816164E-02  0.1184000E+00
        -11   -1    0    0    0    0  0.00000000000E+00  0.00000000000E+00  0.45593999997E+02  0.45594000000E+02  0.51100000000E-03 0. -1.
         11   -1    0    0    0    0 -0.00000000000E+00 -0.00000000000E+00 -0.45593999997E+02  0.45594000000E+02  0.51100000000E-03 0.  1.
         23    2    1    2    0    0  0.00000000000E+00  0.00000000000E+00  0.00000000000E+00  0.91188000000E+02  0.91188000000E+02 0.  0.
    9900012    2    3    3    0    0 -0.53546365983E+01 -0.20615694012E+02  0.34633601961E+02  0.50528863788E+02  0.30000011970E+02 0.  0.
        -12    1    3    3    0    0  0.53546365983E+01  0.20615694012E+02 -0.34633601961E+02  0.40659136212E+02  0.00000000000E+00 0.  1.
         11    1    4    4    0    0 -0.94216171994E+01 -0.17546541669E+02  0.76091842804E+01  0.21320123847E+02  0.51100000000E-03 0.  1.
        -11    1    4    4    0    0  0.15346176866E+01 -0.32709917252E+01  0.26327800443E+02  0.26574565185E+02  0.51100000000E-03 0. -1.
        -12    1    4    4    0    0  0.25323629145E+01  0.20183938217E+00  0.69661723748E+00  0.26341747555E+01  0.00000000000E+00 0.  1.
</event>
<event>
 8    1  0.2031623E-013  0.9118800E+02  0.7816164E-02  0.1184000E+00
        -11   -1    0    0    0    0  0.00000000000E+00  0.00000000000E+00  0.45593999997E+02  0.45594000000E+02  0.51100000000E-03 0. -1.
         11   -1    0    0    0    0 -0.00000000000E+00 -0.00000000000E+00 -0.45593999997E+02  0.45594000000E+02  0.51100000000E-03 0.  1.
         23    2    1    2    0    0  0.00000000000E+00 -0.17763568394E-14  0.00000000000E+00  0.91188000000E+02  0.91188000000E+02 0.  0.
    9900012    2    3    3    0    0 -0.56837052366E+01  0.14655035987E+02  0.37497884259E+02  0.50528857008E+02  0.29999991361E+02 0.  0.
        -12    1    3    3    0    0  0.56837052366E+01 -0.14655035987E+02 -0.37497884259E+02  0.40659142992E+02  0.00000000000E+00 0.  1.
         11    1    4    4    0    0  0.76205468901E+01  0.32763780616E+01  0.21404802976E+02  0.22955892028E+02  0.51100000000E-03 0. -1.
        -11    1    4    4    0    0 -0.14672605832E+02  0.81382688482E+01  0.76769426702E+01  0.18451347668E+02  0.51100000000E-03 0.  1.
        -12    1    4    4    0    0  0.13683537053E+01  0.32403890771E+01  0.84161386120E+01  0.91216173112E+01  0.00000000000E+00 0.  1.
</event>
<event>
 8    1  0.2031623E-013  0.9118800E+02  0.7816164E-02  0.1184000E+00
        -11   -1    0    0    0    0  0.00000000000E+00  0.00000000000E+00  0.45593999997E+02  0.45594000000E+02  0.51100000000E-03 0. -1.
         11   -1    0    0    0    0 -0.00000000000E+00 -0.00000000000E+00 -0.45593999997E+02  0.45594000000E+02  0.51100000000E-03 0.  1.
         23    2    1    2    0    0  0.00000000000E+00  0.00000000000E+00  0.17763568394E-14  0.91188000000E+02  0.91188000000E+02 0.  0.
    9900012    2    3    3    0    0 -0.33941829454E+02  0.19486738918E+02  0.11017485042E+02  0.50528858875E+02  0.29999997037E+02 0.  0.
        -12    1    3    3    0    0  0.33941829454E+02 -0.19486738918E+02 -0.11017485042E+02  0.40659141125E+02  0.00000000000E+00 0.  1.
         11    1    4    4    0    0 -0.29791938296E+02  0.80018153645E+01  0.15470662360E+02  0.34509854109E+02  0.51100000000E-03 0. -1.
        -11    1    4    4    0    0  0.29943245587E+01  0.32765857967E+01 -0.19760669895E+01  0.48586865565E+01  0.51100000000E-03 0.  1.
         12    1    4    4    0    0 -0.71442157172E+01  0.82083377573E+01 -0.24771103282E+01  0.11160318209E+02  0.00000000000E+00 0. -1.
</event>
<event>
 8    1  0.2031623E-013  0.9118800E+02  0.7816164E-02  0.1184000E+00
        -11   -1    0    0    0    0  0.00000000000E+00  0.00000000000E+00  0.45593999997E+02  0.45594000000E+02  0.51100000000E-03 0. -1.
         11   -1    0    0    0    0 -0.00000000000E+00 -0.00000000000E+00 -0.45593999997E+02  0.45594000000E+02  0.51100000000E-03 0.  1.
         23    2    1    2    0    0  0.00000000000E+00  0.00000000000E+00  0.00000000000E+00  0.91188000000E+02  0.91188000000E+02 0.  0.
    9900012    2    3    3    0    0  0.95073270794E+01  0.33809695347E+01  0.39387123051E+02  0.50528859755E+02  0.29999999712E+02 0.  0.
        -12    1    3    3    0    0 -0.95073270794E+01 -0.33809695347E+01 -0.39387123051E+02  0.40659140245E+02  0.00000000000E+00 0.  1.
         11    1    4    4    0    0 -0.18028169410E+01 -0.27364093960E+01  0.13444823388E+02  0.13838401696E+02  0.51100000000E-03 0. -1.
        -11    1    4    4    0    0  0.18202659519E+02  0.39250908048E+01  0.20031487110E+02  0.27349654980E+02  0.51100000000E-03 0.  1.
        -12    1    4    4    0    0 -0.68925154990E+01  0.21922881259E+01  0.59108125531E+01  0.93408030794E+01  0.00000000000E+00 0.  1.
</event>
<event>
 8    1  0.2031623E-013  0.9118800E+02  0.7816164E-02  0.1184000E+00
        -11   -1    0    0    0    0  0.00000000000E+00  0.00000000000E+00  0.45593999997E+02  0.45594000000E+02  0.51100000000E-03 0. -1.
         11   -1    0    0    0    0 -0.00000000000E+00 -0.00000000000E+00 -0.45593999997E+02  0.45594000000E+02  0.51100000000E-03 0.  1.
         23    2    1    2    0    0  0.16653345369E-15  0.00000000000E+00  0.00000000000E+00  0.91188000000E+02  0.91188000000E+02 0.  0.
    9900012    2    3    3    0    0 -0.41395111952E+00 -0.73233115289E+01 -0.39992043288E+02  0.50528858671E+02  0.29999996415E+02 0.  0.
         12    1    3    3    0    0  0.41395111952E+00  0.73233115289E+01  0.39992043288E+02  0.40659141329E+02  0.00000000000E+00 0. -1.
         11    1    4    4    0    0 -0.34533384413E+01 -0.19758467171E+01  0.28489204594E+01  0.48934512039E+01  0.51100000000E-03 0. -1.
        -11    1    4    4    0    0  0.21306798423E+01  0.29688898288E+01 -0.30548158820E+02  0.30765957014E+02  0.51100000000E-03 0.  1.
         12    1    4    4    0    0  0.90870747941E+00 -0.83163546406E+01 -0.12292804927E+02  0.14869450453E+02  0.00000000000E+00 0. -1.
</event>
<event>
 8    1  0.2031623E-013  0.9118800E+02  0.7816164E-02  0.1184000E+00
        -11   -1    0    0    0    0  0.00000000000E+00  0.00000000000E+00  0.45593999997E+02  0.45594000000E+02  0.51100000000E-03 0. -1.
         11   -1    0    0    0    0 -0.00000000000E+00 -0.00000000000E+00 -0.45593999997E+02  0.45594000000E+02  0.51100000000E-03 0.  1.
         23    2    1    2    0    0  0.00000000000E+00  0.35527136788E-14  0.00000000000E+00  0.91188000000E+02  0.91188000000E+02 0.  0.
    9900012    2    3    3    0    0  0.43937415674E+01 -0.31175370913E+02 -0.25728510369E+02  0.50528868647E+02  0.30000026741E+02 0.  0.
         12    1    3    3    0    0 -0.43937415674E+01  0.31175370913E+02  0.25728510369E+02  0.40659131353E+02  0.00000000000E+00 0. -1.
         11    1    4    4    0    0  0.51302565148E+01  0.20638463142E+01 -0.10647975223E+02  0.11998265297E+02  0.51100000000E-03 0. -1.
        -11    1    4    4    0    0 -0.50595687568E+01 -0.27540995905E+02 -0.99054941141E+01  0.29702264314E+02  0.51100000000E-03 0.  1.
         12    1    4    4    0    0  0.43230538094E+01 -0.56982213223E+01 -0.51750410320E+01  0.88283390374E+01  0.00000000000E+00 0. -1.
</event>
<event>
 8    1  0.2031623E-013  0.9118800E+02  0.7816164E-02  0.1184000E+00
        -11   -1    0    0    0    0  0.00000000000E+00  0.00000000000E+00  0.45593999997E+02  0.45594000000E+02  0.51100000000E-03 0. -1.
         11   -1    0    0    0    0 -0.00000000000E+00 -0.00000000000E+00 -0.45593999997E+02  0.45594000000E+02  0.51100000000E-03 0.  1.
         23    2    1    2    0    0  0.00000000000E+00  0.00000000000E+00 -0.35527136788E-14  0.91188000000E+02  0.91188000000E+02 0.  0.
    9900012    2    3    3    0    0  0.34025159987E+02 -0.40965718719E+01  0.21878578626E+02  0.50528860610E+02  0.30000002310E+02 0.  0.
        -12    1    3    3    0    0 -0.34025159987E+02  0.40965718719E+01 -0.21878578626E+02  0.40659139390E+02  0.00000000000E+00 0.  1.
         11    1    4    4    0    0  0.25682834672E+02 -0.63811952039E+01  0.15272005472E+02  0.30554243574E+02  0.51100000000E-03 0. -1.
        -11    1    4    4    0    0 -0.47873591776E+01 -0.22486796357E+00  0.42408319000E+01  0.63995334956E+01  0.51100000000E-03 0.  1.
        -12    1    4    4    0    0  0.13129684493E+02  0.25094912956E+01  0.23657412542E+01  0.13575083540E+02  0.00000000000E+00 0.  1.
</event>
<event>
 8    1  0.2031623E-013  0.9118800E+02  0.7816164E-02  0.1184000E+00
        -11   -1    0    0    0    0  0.00000000000E+00  0.00000000000E+00  0.45593999997E+02  0.45594000000E+02  0.51100000000E-03 0. -1.
         11   -1    0    0    0    0 -0.00000000000E+00 -0.00000000000E+00 -0.45593999997E+02  0.45594000000E+02  0.51100000000E-03 0.  1.
         23    2    1    2    0    0  0.71054273576E-14  0.00000000000E+00  0.00000000000E+00  0.91188000000E+02  0.91188000000E+02 0.  0.
    9900012    2    3    3    0    0  0.34593363254E+02  0.19395576371E+02 -0.89597201040E+01  0.50528858982E+02  0.29999997360E+02 0.  0.
         12    1    3    3    0    0 -0.34593363254E+02 -0.19395576371E+02  0.89597201040E+01  0.40659141018E+02  0.00000000000E+00 0. -1.
         11    1    4    4    0    0  0.37759195765E+01  0.77289217734E+01 -0.75665879632E+01  0.11456310667E+02  0.51100000000E-03 0. -1.
        -11    1    4    4    0    0  0.82219078562E+01 -0.53775529256E+01  0.33397394262E+01  0.10376497673E+02  0.51100000000E-03 0.  1.
        -12    1    4    4    0    0  0.22595535822E+02  0.17044207523E+02 -0.47328715670E+01  0.28696050642E+02  0.00000000000E+00 0.  1.
</event>
<event>
 8    1  0.2031623E-013  0.9118800E+02  0.7816164E-02  0.1184000E+00
        -11   -1    0    0    0    0  0.00000000000E+00  0.00000000000E+00  0.45593999997E+02  0.45594000000E+02  0.51100000000E-03 0. -1.
         11   -1    0    0    0    0 -0.00000000000E+00 -0.00000000000E+00 -0.45593999997E+02  0.45594000000E+02  0.51100000000E-03 0.  1.
         23    2    1    2    0    0 -0.88817841970E-15  0.44408920985E-15  0.00000000000E+00  0.91188000000E+02  0.91188000000E+02 0.  0.
    9900012    2    3    3    0    0  0.15389296025E+01  0.31534992691E+01  0.40507436344E+02  0.50528864973E+02  0.30000015573E+02 0.  0.
        -12    1    3    3    0    0 -0.15389296025E+01 -0.31534992691E+01 -0.40507436344E+02  0.40659135027E+02  0.00000000000E+00 0.  1.
         11    1    4    4    0    0  0.62998953163E+01 -0.22045988472E+01  0.23470457723E+02  0.24401051679E+02  0.51100000000E-03 0. -1.
        -11    1    4    4    0    0 -0.98969645027E+01  0.55313102496E+01  0.38479142982E+01  0.11972958872E+02  0.51100000000E-03 0.  1.
        -12    1    4    4    0    0  0.51359987889E+01 -0.17321213335E+00  0.13189064323E+02  0.14154854422E+02  0.00000000000E+00 0.  1.
</event>
<event>
 8    1  0.2031623E-013  0.9118800E+02  0.7816164E-02  0.1184000E+00
        -11   -1    0    0    0    0  0.00000000000E+00  0.00000000000E+00  0.45593999997E+02  0.45594000000E+02  0.51100000000E-03 0.  1.
         11   -1    0    0    0    0 -0.00000000000E+00 -0.00000000000E+00 -0.45593999997E+02  0.45594000000E+02  0.51100000000E-03 0. -1.
         23    2    1    2    0    0  0.35527136788E-14  0.00000000000E+00  0.17763568394E-14  0.91188000000E+02  0.91188000000E+02 0.  0.
    9900012    2    3    3    0    0 -0.26612731701E+02 -0.29063926422E+02  0.10010791605E+02  0.50528865034E+02  0.30000015757E+02 0.  0.
        -12    1    3    3    0    0  0.26612731701E+02  0.29063926422E+02 -0.10010791605E+02  0.40659134966E+02  0.00000000000E+00 0.  1.
         11    1    4    4    0    0  0.18060929982E+01 -0.32096674122E+01 -0.33702817410E+01  0.49922676300E+01  0.51100000000E-03 0. -1.
        -11    1    4    4    0    0 -0.14594271809E+02 -0.20344222926E+02  0.16946253253E+02  0.30233353695E+02  0.51100000000E-03 0.  1.
        -12    1    4    4    0    0 -0.13824552890E+02 -0.55100360838E+01 -0.35651799067E+01  0.15303243709E+02  0.00000000000E+00 0.  1.
</event>
<event>
 8    1  0.2031623E-013  0.9118800E+02  0.7816164E-02  0.1184000E+00
        -11   -1    0    0    0    0  0.00000000000E+00  0.00000000000E+00  0.45593999997E+02  0.45594000000E+02  0.51100000000E-03 0. -1.
         11   -1    0    0    0    0 -0.00000000000E+00 -0.00000000000E+00 -0.45593999997E+02  0.45594000000E+02  0.51100000000E-03 0.  1.
         23    2    1    2    0    0  0.00000000000E+00  0.00000000000E+00  0.00000000000E+00  0.91188000000E+02  0.91188000000E+02 0.  0.
    9900012    2    3    3    0    0 -0.53334095300E+01  0.23804656966E+02  0.32527831030E+02  0.50528846762E+02  0.29999960218E+02 0.  0.
        -12    1    3    3    0    0  0.53334095300E+01 -0.23804656966E+02 -0.32527831030E+02  0.40659153238E+02  0.00000000000E+00 0.  1.
         11    1    4    4    0    0  0.13713255886E+01  0.22573556056E+02  0.15189703727E+02  0.27242853493E+02  0.51100000000E-03 0. -1.
        -11    1    4    4    0    0 -0.27355498619E+01  0.21984910692E+01 -0.16395276474E+01  0.38735832501E+01  0.51100000000E-03 0.  1.
         12    1    4    4    0    0 -0.39691852568E+01 -0.96739015865E+00  0.18977654951E+02  0.19412410019E+02  0.00000000000E+00 0. -1.
</event>
<event>
 8    1  0.2031623E-013  0.9118800E+02  0.7816164E-02  0.1184000E+00
        -11   -1    0    0    0    0  0.00000000000E+00  0.00000000000E+00  0.45593999997E+02  0.45594000000E+02  0.51100000000E-03 0. -1.
         11   -1    0    0    0    0 -0.00000000000E+00 -0.00000000000E+00 -0.45593999997E+02  0.45594000000E+02  0.51100000000E-03 0.  1.
         23    2    1    2    0    0  0.00000000000E+00  0.00000000000E+00  0.00000000000E+00  0.91188000000E+02  0.91188000000E+02 0.  0.
    9900012    2    3    3    0    0  0.91808795516E+01 -0.25302399325E+02 -0.30473993494E+02  0.50528877525E+02  0.30000053726E+02 0.  0.
         12    1    3    3    0    0 -0.91808795516E+01  0.25302399325E+02  0.30473993494E+02  0.40659122475E+02  0.00000000000E+00 0. -1.
         11    1    4    4    0    0  0.12010170012E+02 -0.26883182521E+02 -0.29343676270E+02  0.41569231692E+02  0.51100000000E-03 0. -1.
        -11    1    4    4    0    0  0.58551501348E+00  0.22596843649E+01 -0.38766638145E+01  0.45252098130E+01  0.51100000000E-03 0.  1.
         12    1    4    4    0    0 -0.34148054740E+01 -0.67890116892E+00  0.27463465905E+01  0.44344360202E+01  0.00000000000E+00 0. -1.
</event>
<event>
 8    1  0.2148523E-013  0.9118800E+02  0.7816164E-02  0.1184000E+00
        -11   -1    0    0    0    0  0.00000000000E+00  0.00000000000E+00  0.45593999997E+02  0.45594000000E+02  0.51100000000E-03 0. -1.
         11   -1    0    0    0    0 -0.00000000000E+00 -0.00000000000E+00 -0.45593999997E+02  0.45594000000E+02  0.51100000000E-03 0.  1.
         23    2    1    2    0    0  0.00000000000E+00  0.71054273576E-14  0.35527136788E-14  0.91188000000E+02  0.91188000000E+02 0.  0.
    9900012    2    3    3    0    0  0.93500439877E+01 -0.32467860341E+02 -0.22618144893E+02  0.50528858886E+02  0.29999997070E+02 0.  0.
         12    1    3    3    0    0 -0.93500439877E+01  0.32467860341E+02  0.22618144893E+02  0.40659141114E+02  0.00000000000E+00 0. -1.
         11    1    4    4    0    0  0.10311958822E+02 -0.80312240163E+01  0.48851402412E+00  0.13079590978E+02  0.51100000000E-03 0. -1.
        -11    1    4    4    0    0  0.36115373700E+01 -0.11221012045E+02 -0.19856603031E+02  0.23091968251E+02  0.51100000000E-03 0.  1.
         12    1    4    4    0    0 -0.45734522046E+01 -0.13215624280E+02 -0.32500558862E+01  0.14357299657E+02  0.00000000000E+00 0. -1.
</event>
<event>
 8    1  0.2379047E-013  0.9118800E+02  0.7816164E-02  0.1184000E+00
        -11   -1    0    0    0    0  0.00000000000E+00  0.00000000000E+00  0.45593999997E+02  0.45594000000E+02  0.51100000000E-03 0. -1.
         11   -1    0    0    0    0 -0.00000000000E+00 -0.00000000000E+00 -0.45593999997E+02  0.45594000000E+02  0.51100000000E-03 0.  1.
         23    2    1    2    0    0  0.00000000000E+00  0.30531133177E-15  0.00000000000E+00  0.91188000000E+02  0.91188000000E+02 0.  0.
    9900012    2    3    3    0    0 -0.84352333951E+01 -0.47714032152E-01 -0.39774519346E+02  0.50528833405E+02  0.29999919616E+02 0.  0.
         12    1    3    3    0    0  0.84352333951E+01  0.47714032152E-01  0.39774519346E+02  0.40659166595E+02  0.00000000000E+00 0. -1.
         11    1    4    4    0    0 -0.32379802334E+01 -0.40277079654E+01 -0.16338982680E+00  0.51704587749E+01  0.51100000000E-03 0. -1.
        -11    1    4    4    0    0 -0.94669875363E+01  0.10600421431E+02 -0.26070868148E+02  0.29693146579E+02  0.51100000000E-03 0.  1.
        -12    1    4    4    0    0  0.42697343747E+01 -0.66204274975E+01 -0.13540261371E+02  0.15665228051E+02  0.00000000000E+00 0.  1.
</event>
<event>
 8    1  0.2031623E-013  0.9118800E+02  0.7816164E-02  0.1184000E+00
        -11   -1    0    0    0    0  0.00000000000E+00  0.00000000000E+00  0.45593999997E+02  0.45594000000E+02  0.51100000000E-03 0. -1.
         11   -1    0    0    0    0 -0.00000000000E+00 -0.00000000000E+00 -0.45593999997E+02  0.45594000000E+02  0.51100000000E-03 0.  1.
         23    2    1    2    0    0  0.66613381478E-15  0.00000000000E+00  0.00000000000E+00  0.91188000000E+02  0.91188000000E+02 0.  0.
    9900012    2    3    3    0    0 -0.14560175706E+01 -0.19257299103E+02  0.35779913519E+02  0.50528858748E+02  0.29999996652E+02 0.  0.
        -12    1    3    3    0    0  0.14560175706E+01  0.19257299103E+02 -0.35779913519E+02  0.40659141252E+02  0.00000000000E+00 0.  1.
         11    1    4    4    0    0  0.49909358569E+01 -0.10680337735E+02  0.10025390134E+01  0.11831489323E+02  0.51100000000E-03 0. -1.
        -11    1    4    4    0    0 -0.80577015387E+01 -0.10744479764E+02  0.23178774094E+02  0.26788541735E+02  0.51100000000E-03 0.  1.
        -12    1    4    4    0    0  0.16107481112E+01  0.21675183965E+01  0.11598600411E+02  0.11908827691E+02  0.00000000000E+00 0.  1.
</event>
<event>
 8    1  0.2031623E-013  0.9118800E+02  0.7816164E-02  0.1184000E+00
        -11   -1    0    0    0    0  0.00000000000E+00  0.00000000000E+00  0.45593999997E+02  0.45594000000E+02  0.51100000000E-03 0.  1.
         11   -1    0    0    0    0 -0.00000000000E+00 -0.00000000000E+00 -0.45593999997E+02  0.45594000000E+02  0.51100000000E-03 0. -1.
         23    2    1    2    0    0  0.00000000000E+00  0.00000000000E+00 -0.17763568394E-14  0.91188000000E+02  0.91188000000E+02 0.  0.
    9900012    2    3    3    0    0 -0.32739278918E+02 -0.21098090970E+02 -0.11669434264E+02  0.50528861757E+02  0.30000005796E+02 0.  0.
         12    1    3    3    0    0  0.32739278918E+02  0.21098090970E+02  0.11669434264E+02  0.40659138243E+02  0.00000000000E+00 0. -1.
         11    1    4    4    0    0  0.32544093565E+01 -0.27986148353E+01 -0.72038693106E+00  0.43522847848E+01  0.51100000000E-03 0. -1.
        -11    1    4    4    0    0 -0.29988878133E+02 -0.16097534595E+02 -0.16392421951E+02  0.37777968836E+02  0.51100000000E-03 0.  1.
        -12    1    4    4    0    0 -0.60048101413E+01 -0.22019415400E+01  0.54433746188E+01  0.83986081358E+01  0.00000000000E+00 0.  1.
</event>
<event>
 8    1  0.2031623E-013  0.9118800E+02  0.7816164E-02  0.1184000E+00
        -11   -1    0    0    0    0  0.00000000000E+00  0.00000000000E+00  0.45593999997E+02  0.45594000000E+02  0.51100000000E-03 0. -1.
         11   -1    0    0    0    0 -0.00000000000E+00 -0.00000000000E+00 -0.45593999997E+02  0.45594000000E+02  0.51100000000E-03 0.  1.
         23    2    1    2    0    0  0.00000000000E+00  0.00000000000E+00 -0.17763568394E-14  0.91188000000E+02  0.91188000000E+02 0.  0.
    9900012    2    3    3    0    0 -0.39474640873E+02 -0.95276226954E+01  0.20354076612E+01  0.50528858953E+02  0.29999997275E+02 0.  0.
         12    1    3    3    0    0  0.39474640873E+02  0.95276226954E+01 -0.20354076612E+01  0.40659141047E+02  0.00000000000E+00 0. -1.
         11    1    4    4    0    0 -0.16509144166E+02 -0.37899515215E+01  0.12515664646E+02  0.21060803295E+02  0.51100000000E-03 0. -1.
        -11    1    4    4    0    0 -0.24824382796E+02 -0.58792161638E+01 -0.10540417185E+02  0.27602817946E+02  0.51100000000E-03 0.  1.
        -12    1    4    4    0    0  0.18588860885E+01  0.14154498992E+00  0.60160200010E-01  0.18652377125E+01  0.00000000000E+00 0.  1.
</event>
<event>
 8    1  0.2031623E-013  0.9118800E+02  0.7816164E-02  0.1184000E+00
        -11   -1    0    0    0    0  0.00000000000E+00  0.00000000000E+00  0.45593999997E+02  0.45594000000E+02  0.51100000000E-03 0. -1.
         11   -1    0    0    0    0 -0.00000000000E+00 -0.00000000000E+00 -0.45593999997E+02  0.45594000000E+02  0.51100000000E-03 0.  1.
         23    2    1    2    0    0  0.44408920985E-15 -0.35527136788E-14  0.00000000000E+00  0.91188000000E+02  0.91188000000E+02 0.  0.
    9900012    2    3    3    0    0 -0.26644423200E+01 -0.28228484547E+02 -0.29141433026E+02  0.50528810246E+02  0.29999849222E+02 0.  0.
         12    1    3    3    0    0  0.26644423200E+01  0.28228484547E+02  0.29141433026E+02  0.40659189754E+02  0.00000000000E+00 0. -1.
         11    1    4    4    0    0  0.29126084249E+01 -0.27909424375E+02 -0.20894693867E+02  0.34985818396E+02  0.51100000000E-03 0. -1.
        -11    1    4    4    0    0 -0.68643872439E+01  0.68931220019E+00  0.23710959771E+00  0.69029837582E+01  0.51100000000E-03 0.  1.
         12    1    4    4    0    0  0.12873364990E+01 -0.10083723725E+01 -0.84838487565E+01  0.86400080918E+01  0.00000000000E+00 0. -1.
</event>
<event>
 8    1  0.2031623E-013  0.9118800E+02  0.7816164E-02  0.1184000E+00
        -11   -1    0    0    0    0  0.00000000000E+00  0.00000000000E+00  0.45593999997E+02  0.45594000000E+02  0.51100000000E-03 0. -1.
         11   -1    0    0    0    0 -0.00000000000E+00 -0.00000000000E+00 -0.45593999997E+02  0.45594000000E+02  0.51100000000E-03 0.  1.
         23    2    1    2    0    0  0.00000000000E+00  0.00000000000E+00  0.00000000000E+00  0.91188000000E+02  0.91188000000E+02 0.  0.
    9900012    2    3    3    0    0 -0.17035587156E+02  0.34051711793E+02 -0.14263087292E+02  0.50528856319E+02  0.29999989266E+02 0.  0.
         12    1    3    3    0    0  0.17035587156E+02 -0.34051711793E+02  0.14263087292E+02  0.40659143681E+02  0.00000000000E+00 0. -1.
         11    1    4    4    0    0 -0.17891266410E+02  0.84240410567E+01 -0.88799341559E+01  0.21677525513E+02  0.51100000000E-03 0. -1.
        -11    1    4    4    0    0  0.21142043371E+01  0.96308227090E+01 -0.78669717001E+01  0.12613954575E+02  0.51100000000E-03 0.  1.
         12    1    4    4    0    0 -0.12585250827E+01  0.15996848028E+02  0.24838185637E+01  0.16237376231E+02  0.00000000000E+00 0. -1.
</event>
<event>
 8    1  0.2031623E-013  0.9118800E+02  0.7816164E-02  0.1184000E+00
        -11   -1    0    0    0    0  0.00000000000E+00  0.00000000000E+00  0.45593999997E+02  0.45594000000E+02  0.51100000000E-03 0. -1.
         11   -1    0    0    0    0 -0.00000000000E+00 -0.00000000000E+00 -0.45593999997E+02  0.45594000000E+02  0.51100000000E-03 0.  1.
         23    2    1    2    0    0  0.00000000000E+00 -0.12212453271E-14  0.00000000000E+00  0.91188000000E+02  0.91188000000E+02 0.  0.
    9900012    2    3    3    0    0  0.13601218439E+02  0.68951674847E+00 -0.38310528419E+02  0.50528866166E+02  0.30000019199E+02 0.  0.
         12    1    3    3    0    0 -0.13601218439E+02 -0.68951674847E+00  0.38310528419E+02  0.40659133834E+02  0.00000000000E+00 0. -1.
         11    1    4    4    0    0 -0.43604626845E+01 -0.17452159818E+01 -0.22931709038E+02  0.23407748574E+02  0.51100000000E-03 0.  1.
        -11    1    4    4    0    0  0.14110131038E+02 -0.33395767049E+01 -0.66041447537E+01  0.15933088171E+02  0.51100000000E-03 0. -1.
        -12    1    4    4    0    0  0.38515500855E+01  0.57743094352E+01 -0.87746746268E+01  0.11188029421E+02  0.00000000000E+00 0.  1.
</event>
<event>
 8    1  0.2031623E-013  0.9118800E+02  0.7816164E-02  0.1184000E+00
        -11   -1    0    0    0    0  0.00000000000E+00  0.00000000000E+00  0.45593999997E+02  0.45594000000E+02  0.51100000000E-03 0. -1.
         11   -1    0    0    0    0 -0.00000000000E+00 -0.00000000000E+00 -0.45593999997E+02  0.45594000000E+02  0.51100000000E-03 0.  1.
         23    2    1    2    0    0  0.00000000000E+00 -0.44408920985E-15  0.00000000000E+00  0.91188000000E+02  0.91188000000E+02 0.  0.
    9900012    2    3    3    0    0 -0.16773450379E+02  0.39632446118E+01  0.36825409722E+02  0.50528846705E+02  0.29999960045E+02 0.  0.
        -12    1    3    3    0    0  0.16773450379E+02 -0.39632446118E+01 -0.36825409722E+02  0.40659153295E+02  0.00000000000E+00 0.  1.
         11    1    4    4    0    0 -0.20330726928E+01  0.21673425767E+01 -0.11265310531E+01  0.31780231110E+01  0.51100000000E-03 0. -1.
        -11    1    4    4    0    0  0.41453948026E+01 -0.34953482968E+01  0.20138645264E+02  0.20855857477E+02  0.51100000000E-03 0.  1.
        -12    1    4    4    0    0 -0.18885772488E+02  0.52912503319E+01  0.17813295512E+02  0.26494966117E+02  0.00000000000E+00 0.  1.
</event>
<event>
 8    1  0.2031623E-013  0.9118800E+02  0.7816164E-02  0.1184000E+00
        -11   -1    0    0    0    0  0.00000000000E+00  0.00000000000E+00  0.45593999997E+02  0.45594000000E+02  0.51100000000E-03 0. -1.
         11   -1    0    0    0    0 -0.00000000000E+00 -0.00000000000E+00 -0.45593999997E+02  0.45594000000E+02  0.51100000000E-03 0.  1.
         23    2    1    2    0    0  0.17763568394E-14  0.00000000000E+00 -0.35527136788E-14  0.91188000000E+02  0.91188000000E+02 0.  0.
    9900012    2    3    3    0    0 -0.15231853902E+02 -0.20818965911E+02 -0.31428131549E+02  0.50528853826E+02  0.29999981691E+02 0.  0.
         12    1    3    3    0    0  0.15231853902E+02  0.20818965911E+02  0.31428131549E+02  0.40659146174E+02  0.00000000000E+00 0. -1.
         11    1    4    4    0    0 -0.13545891236E+02 -0.15159094399E+01 -0.19000060605E+01  0.13762237249E+02  0.51100000000E-03 0. -1.
        -11    1    4    4    0    0  0.26242203664E+01 -0.14708954506E+02 -0.24543083154E+02  0.28733304825E+02  0.51100000000E-03 0.  1.
        -12    1    4    4    0    0 -0.43101830333E+01 -0.45941019649E+01 -0.49850423346E+01  0.80333117531E+01  0.00000000000E+00 0.  1.
</event>
<event>
 8    1  0.2031623E-013  0.9118800E+02  0.7816164E-02  0.1184000E+00
        -11   -1    0    0    0    0  0.00000000000E+00  0.00000000000E+00  0.45593999997E+02  0.45594000000E+02  0.51100000000E-03 0.  1.
         11   -1    0    0    0    0 -0.00000000000E+00 -0.00000000000E+00 -0.45593999997E+02  0.45594000000E+02  0.51100000000E-03 0. -1.
         23    2    1    2    0    0  0.35527136788E-14 -0.35527136788E-14  0.00000000000E+00  0.91188000000E+02  0.91188000000E+02 0.  0.
    9900012    2    3    3    0    0 -0.16457405585E+02  0.31187303993E+02  0.20240343200E+02  0.50528860538E+02  0.30000002091E+02 0.  0.
        -12    1    3    3    0    0  0.16457405585E+02 -0.31187303993E+02 -0.20240343200E+02  0.40659139462E+02  0.00000000000E+00 0.  1.
         11    1    4    4    0    0 -0.17488290691E+02  0.32809259874E+02  0.12781142851E+02  0.39314697730E+02  0.51100000000E-03 0. -1.
        -11    1    4    4    0    0  0.13874775182E+01  0.10404545848E+01 -0.12254829232E+01  0.21235461527E+01  0.51100000000E-03 0.  1.
         12    1    4    4    0    0 -0.35659241177E+00 -0.26624104653E+01  0.86846832720E+01  0.90906166551E+01  0.00000000000E+00 0. -1.
</event>
<event>
 8    1  0.2031623E-013  0.9118800E+02  0.7816164E-02  0.1184000E+00
        -11   -1    0    0    0    0  0.00000000000E+00  0.00000000000E+00  0.45593999997E+02  0.45594000000E+02  0.51100000000E-03 0. -1.
         11   -1    0    0    0    0 -0.00000000000E+00 -0.00000000000E+00 -0.45593999997E+02  0.45594000000E+02  0.51100000000E-03 0.  1.
         23    2    1    2    0    0  0.00000000000E+00  0.00000000000E+00  0.00000000000E+00  0.91188000000E+02  0.91188000000E+02 0.  0.
    9900012    2    3    3    0    0  0.21023740448E+02 -0.20368293492E+02 -0.28218800745E+02  0.50528858867E+02  0.29999997013E+02 0.  0.
         12    1    3    3    0    0 -0.21023740448E+02  0.20368293492E+02  0.28218800745E+02  0.40659141133E+02  0.00000000000E+00 0. -1.
         11    1    4    4    0    0  0.22574047071E+01  0.70865998421E+01 -0.37367947405E+01  0.83234252882E+01  0.51100000000E-03 0. -1.
        -11    1    4    4    0    0  0.50542639498E+01 -0.14075268750E+02 -0.13355566971E+02  0.20050684373E+02  0.51100000000E-03 0.  1.
         12    1    4    4    0    0  0.13712071791E+02 -0.13379624585E+02 -0.11126439033E+02  0.22154749206E+02  0.00000000000E+00 0. -1.
</event>
<event>
 8    1  0.2031623E-013  0.9118800E+02  0.7816164E-02  0.1184000E+00
        -11   -1    0    0    0    0  0.00000000000E+00  0.00000000000E+00  0.45593999997E+02  0.45594000000E+02  0.51100000000E-03 0. -1.
         11   -1    0    0    0    0 -0.00000000000E+00 -0.00000000000E+00 -0.45593999997E+02  0.45594000000E+02  0.51100000000E-03 0.  1.
         23    2    1    2    0    0  0.44408920985E-15  0.00000000000E+00  0.00000000000E+00  0.91188000000E+02  0.91188000000E+02 0.  0.
    9900012    2    3    3    0    0 -0.35556954785E+01  0.35538708640E+02 -0.19429947259E+02  0.50528860404E+02  0.30000001685E+02 0.  0.
         12    1    3    3    0    0  0.35556954785E+01 -0.35538708640E+02  0.19429947259E+02  0.40659139596E+02  0.00000000000E+00 0. -1.
         11    1    4    4    0    0 -0.93778147292E+01  0.25399838299E+01  0.22803867709E+01  0.99797340163E+01  0.51100000000E-03 0. -1.
        -11    1    4    4    0    0  0.68560181578E+01  0.18948031930E+02 -0.13222813456E+02  0.24101362927E+02  0.51100000000E-03 0.  1.
         12    1    4    4    0    0 -0.10338989071E+01  0.14050692880E+02 -0.84875205741E+01  0.16447763461E+02  0.00000000000E+00 0. -1.
</event>
<event>
 8    1  0.2031623E-013  0.9118800E+02  0.7816164E-02  0.1184000E+00
        -11   -1    0    0    0    0  0.00000000000E+00  0.00000000000E+00  0.45593999997E+02  0.45594000000E+02  0.51100000000E-03 0. -1.
         11   -1    0    0    0    0 -0.00000000000E+00 -0.00000000000E+00 -0.45593999997E+02  0.45594000000E+02  0.51100000000E-03 0.  1.
         23    2    1    2    0    0 -0.17763568394E-14 -0.17763568394E-14  0.00000000000E+00  0.91188000000E+02  0.91188000000E+02 0.  0.
    9900012    2    3    3    0    0 -0.12412394153E+02  0.43312113851E+01 -0.38475186535E+02  0.50528844825E+02  0.29999954330E+02 0.  0.
         12    1    3    3    0    0  0.12412394153E+02 -0.43312113851E+01  0.38475186535E+02  0.40659155175E+02  0.00000000000E+00 0. -1.
         11    1    4    4    0    0 -0.26424314490E+01 -0.50321641492E+01 -0.13558713733E+02  0.14701831122E+02  0.51100000000E-03 0. -1.
        -11    1    4    4    0    0 -0.22323409380E+01  0.12859664481E+02 -0.45358024423E+01  0.13817663358E+02  0.51100000000E-03 0.  1.
        -12    1    4    4    0    0 -0.75376217663E+01 -0.34962889466E+01 -0.20380670360E+02  0.22009350345E+02  0.00000000000E+00 0.  1.
</event>
<event>
 8    1  0.2031623E-013  0.9118800E+02  0.7816164E-02  0.1184000E+00
        -11   -1    0    0    0    0  0.00000000000E+00  0.00000000000E+00  0.45593999997E+02  0.45594000000E+02  0.51100000000E-03 0. -1.
         11   -1    0    0    0    0 -0.00000000000E+00 -0.00000000000E+00 -0.45593999997E+02  0.45594000000E+02  0.51100000000E-03 0.  1.
         23    2    1    2    0    0 -0.35527136788E-14  0.00000000000E+00  0.35527136788E-14  0.91188000000E+02  0.91188000000E+02 0.  0.
    9900012    2    3    3    0    0  0.26974775538E+02 -0.71763312403E+01  0.29563935182E+02  0.50528874224E+02  0.30000043692E+02 0.  0.
        -12    1    3    3    0    0 -0.26974775538E+02  0.71763312403E+01 -0.29563935182E+02  0.40659125776E+02  0.00000000000E+00 0.  1.
         11    1    4    4    0    0  0.33188634257E+02 -0.54616118401E+01  0.24803032769E+02  0.41791208196E+02  0.51100000000E-03 0. -1.
        -11    1    4    4    0    0 -0.32055553420E+01 -0.23921891002E+01  0.15604877756E+01  0.42933991313E+01  0.51100000000E-03 0.  1.
         12    1    4    4    0    0 -0.30083033764E+01  0.67746969999E+00  0.32004146374E+01  0.44442668968E+01  0.00000000000E+00 0. -1.
</event>
<event>
 8    1  0.2031623E-013  0.9118800E+02  0.7816164E-02  0.1184000E+00
        -11   -1    0    0    0    0  0.00000000000E+00  0.00000000000E+00  0.45593999997E+02  0.45594000000E+02  0.51100000000E-03 0. -1.
         11   -1    0    0    0    0 -0.00000000000E+00 -0.00000000000E+00 -0.45593999997E+02  0.45594000000E+02  0.51100000000E-03 0.  1.
         23    2    1    2    0    0  0.00000000000E+00  0.00000000000E+00  0.00000000000E+00  0.91188000000E+02  0.91188000000E+02 0.  0.
    9900012    2    3    3    0    0  0.26008186670E+02 -0.96676237194E+01  0.29719980166E+02  0.50528856585E+02  0.29999990075E+02 0.  0.
        -12    1    3    3    0    0 -0.26008186670E+02  0.96676237194E+01 -0.29719980166E+02  0.40659143415E+02  0.00000000000E+00 0.  1.
         11    1    4    4    0    0  0.69023364791E+00  0.22517899301E+01  0.13493595015E+02  0.13697594207E+02  0.51100000000E-03 0. -1.
        -11    1    4    4    0    0  0.22891940524E+02 -0.12028266048E+02  0.63052239399E+01  0.26617211993E+02  0.51100000000E-03 0.  1.
        -12    1    4    4    0    0  0.24260124977E+01  0.10885239888E+00  0.99211612112E+01  0.10214050385E+02  0.00000000000E+00 0.  1.
</event>
<event>
 8    1  0.2031623E-013  0.9118800E+02  0.7816164E-02  0.1184000E+00
        -11   -1    0    0    0    0  0.00000000000E+00  0.00000000000E+00  0.45593999997E+02  0.45594000000E+02  0.51100000000E-03 0. -1.
         11   -1    0    0    0    0 -0.00000000000E+00 -0.00000000000E+00 -0.45593999997E+02  0.45594000000E+02  0.51100000000E-03 0.  1.
         23    2    1    2    0    0 -0.17763568394E-14  0.00000000000E+00  0.00000000000E+00  0.91188000000E+02  0.91188000000E+02 0.  0.
    9900012    2    3    3    0    0 -0.15183269606E+02 -0.16061581060E+02 -0.34127121607E+02  0.50528849846E+02  0.29999969592E+02 0.  0.
         12    1    3    3    0    0  0.15183269606E+02  0.16061581060E+02  0.34127121607E+02  0.40659150154E+02  0.00000000000E+00 0. -1.
         11    1    4    4    0    0 -0.20581452686E+01 -0.16244642391E+02 -0.28755724920E+02  0.33091027248E+02  0.51100000000E-03 0. -1.
        -11    1    4    4    0    0 -0.11773659196E+02 -0.35779597560E+01 -0.54078426618E+01  0.13441190773E+02  0.51100000000E-03 0.  1.
         12    1    4    4    0    0 -0.13514651418E+01  0.37610210863E+01  0.36445975452E-01  0.39966318257E+01  0.00000000000E+00 0. -1.
</event>
<event>
 8    1  0.2031623E-013  0.9118800E+02  0.7816164E-02  0.1184000E+00
        -11   -1    0    0    0    0  0.00000000000E+00  0.00000000000E+00  0.45593999997E+02  0.45594000000E+02  0.51100000000E-03 0. -1.
         11   -1    0    0    0    0 -0.00000000000E+00 -0.00000000000E+00 -0.45593999997E+02  0.45594000000E+02  0.51100000000E-03 0.  1.
         23    2    1    2    0    0 -0.44408920985E-15  0.00000000000E+00  0.00000000000E+00  0.91188000000E+02  0.91188000000E+02 0.  0.
    9900012    2    3    3    0    0 -0.98762025025E+00 -0.15803577386E+01 -0.40616409308E+02  0.50528860444E+02  0.30000001806E+02 0.  0.
         12    1    3    3    0    0  0.98762025025E+00  0.15803577386E+01  0.40616409308E+02  0.40659139556E+02  0.00000000000E+00 0. -1.
         11    1    4    4    0    0  0.49911986466E+01 -0.85855596267E+01 -0.17146144395E+02  0.19814493834E+02  0.51100000000E-03 0.  1.
        -11    1    4    4    0    0 -0.11791496700E+02  0.20930865845E+01 -0.16547606850E+02  0.20426543970E+02  0.51100000000E-03 0. -1.
        -12    1    4    4    0    0  0.58126778028E+01  0.49121153036E+01 -0.69226580640E+01  0.10287822640E+02  0.00000000000E+00 0.  1.
</event>
<event>
 8    1  0.2031623E-013  0.9118800E+02  0.7816164E-02  0.1184000E+00
        -11   -1    0    0    0    0  0.00000000000E+00  0.00000000000E+00  0.45593999997E+02  0.45594000000E+02  0.51100000000E-03 0. -1.
         11   -1    0    0    0    0 -0.00000000000E+00 -0.00000000000E+00 -0.45593999997E+02  0.45594000000E+02  0.51100000000E-03 0.  1.
         23    2    1    2    0    0  0.00000000000E+00  0.00000000000E+00  0.00000000000E+00  0.91188000000E+02  0.91188000000E+02 0.  0.
    9900012    2    3    3    0    0 -0.91477569860E+01 -0.35575296646E+02 -0.17432219729E+02  0.50528862356E+02  0.30000007616E+02 0.  0.
         12    1    3    3    0    0  0.91477569860E+01  0.35575296646E+02  0.17432219729E+02  0.40659137644E+02  0.00000000000E+00 0. -1.
         11    1    4    4    0    0  0.21137998205E+01 -0.27629277103E+02  0.23947902972E+00  0.27711052910E+02  0.51100000000E-03 0. -1.
        -11    1    4    4    0    0 -0.50404778945E+01 -0.11908233218E+01 -0.53022576999E+01  0.74120452350E+01  0.51100000000E-03 0.  1.
         12    1    4    4    0    0 -0.62210789120E+01 -0.67551962214E+01 -0.12369441059E+02  0.15405764211E+02  0.00000000000E+00 0. -1.
</event>
<event>
 8    1  0.2031623E-013  0.9118800E+02  0.7816164E-02  0.1184000E+00
        -11   -1    0    0    0    0  0.00000000000E+00  0.00000000000E+00  0.45593999997E+02  0.45594000000E+02  0.51100000000E-03 0. -1.
         11   -1    0    0    0    0 -0.00000000000E+00 -0.00000000000E+00 -0.45593999997E+02  0.45594000000E+02  0.51100000000E-03 0.  1.
         23    2    1    2    0    0  0.35527136788E-14 -0.17763568394E-14 -0.71054273576E-14  0.91188000000E+02  0.91188000000E+02 0.  0.
    9900012    2    3    3    0    0  0.16475910226E+02 -0.99532206140E+01 -0.35814011487E+02  0.50528860349E+02  0.30000001517E+02 0.  0.
         12    1    3    3    0    0 -0.16475910226E+02  0.99532206140E+01  0.35814011487E+02  0.40659139651E+02  0.00000000000E+00 0. -1.
         11    1    4    4    0    0 -0.33158723441E+01 -0.11027989198E+02 -0.66259185776E+01  0.13285870405E+02  0.51100000000E-03 0.  1.
        -11    1    4    4    0    0  0.20058099458E+02 -0.18711485258E+01 -0.26047907776E+02  0.32929045695E+02  0.51100000000E-03 0. -1.
        -12    1    4    4    0    0 -0.26631688782E+00  0.29459171103E+01 -0.31401851338E+01  0.43139442485E+01  0.00000000000E+00 0.  1.
</event>
<event>
 8    1  0.2031623E-013  0.9118800E+02  0.7816164E-02  0.1184000E+00
        -11   -1    0    0    0    0  0.00000000000E+00  0.00000000000E+00  0.45593999997E+02  0.45594000000E+02  0.51100000000E-03 0. -1.
         11   -1    0    0    0    0 -0.00000000000E+00 -0.00000000000E+00 -0.45593999997E+02  0.45594000000E+02  0.51100000000E-03 0.  1.
         23    2    1    2    0    0  0.00000000000E+00  0.00000000000E+00 -0.35527136788E-14  0.91188000000E+02  0.91188000000E+02 0.  0.
    9900012    2    3    3    0    0 -0.42688494715E+01 -0.26321038324E+02  0.30694383109E+02  0.50528864634E+02  0.30000014541E+02 0.  0.
        -12    1    3    3    0    0  0.42688494715E+01  0.26321038324E+02 -0.30694383109E+02  0.40659135366E+02  0.00000000000E+00 0.  1.
         11    1    4    4    0    0  0.83878164227E+00 -0.13136624609E+02  0.30847327277E+02  0.33538516084E+02  0.51100000000E-03 0. -1.
        -11    1    4    4    0    0 -0.61165887729E+01 -0.63728053209E+01  0.31175729661E+01  0.93672070189E+01  0.51100000000E-03 0.  1.
         12    1    4    4    0    0  0.10089576591E+01 -0.68116083944E+01 -0.32705171335E+01  0.76231415307E+01  0.00000000000E+00 0. -1.
</event>
<event>
 8    1  0.2031623E-013  0.9118800E+02  0.7816164E-02  0.1184000E+00
        -11   -1    0    0    0    0  0.00000000000E+00  0.00000000000E+00  0.45593999997E+02  0.45594000000E+02  0.51100000000E-03 0. -1.
         11   -1    0    0    0    0 -0.00000000000E+00 -0.00000000000E+00 -0.45593999997E+02  0.45594000000E+02  0.51100000000E-03 0.  1.
         23    2    1    2    0    0  0.00000000000E+00  0.00000000000E+00  0.00000000000E+00  0.91188000000E+02  0.91188000000E+02 0.  0.
    9900012    2    3    3    0    0 -0.32291451271E+02  0.21259601798E+02 -0.12588228114E+02  0.50528782339E+02  0.29999764396E+02 0.  0.
        -12    1    3    3    0    0  0.32291451271E+02 -0.21259601798E+02  0.12588228114E+02  0.40659217661E+02  0.00000000000E+00 0.  1.
         11    1    4    4    0    0 -0.23917288110E+02  0.22759961732E+02 -0.30740277028E+01  0.33158742063E+02  0.51100000000E-03 0. -1.
        -11    1    4    4    0    0 -0.86170316269E+01 -0.71414780301E+00 -0.87387657019E+00  0.86906214774E+01  0.51100000000E-03 0.  1.
         12    1    4    4    0    0  0.24286846634E+00 -0.78621213146E+00 -0.86403238407E+01  0.86794187985E+01  0.00000000000E+00 0. -1.
</event>
<event>
 8    1  0.2031623E-013  0.9118800E+02  0.7816164E-02  0.1184000E+00
        -11   -1    0    0    0    0  0.00000000000E+00  0.00000000000E+00  0.45593999997E+02  0.45594000000E+02  0.51100000000E-03 0.  1.
         11   -1    0    0    0    0 -0.00000000000E+00 -0.00000000000E+00 -0.45593999997E+02  0.45594000000E+02  0.51100000000E-03 0. -1.
         23    2    1    2    0    0  0.00000000000E+00  0.22204460493E-15  0.00000000000E+00  0.91188000000E+02  0.91188000000E+02 0.  0.
    9900012    2    3    3    0    0 -0.38986902589E+02 -0.10048499775E+01 -0.11496838679E+02  0.50528860848E+02  0.30000003035E+02 0.  0.
         12    1    3    3    0    0  0.38986902589E+02  0.10048499775E+01  0.11496838679E+02  0.40659139152E+02  0.00000000000E+00 0. -1.
         11    1    4    4    0    0 -0.87520603225E+01  0.25405934053E+01 -0.16978682889E+02  0.19269894853E+02  0.51100000000E-03 0. -1.
        -11    1    4    4    0    0 -0.83499040585E+01 -0.49158949872E+00 -0.46015498013E+00  0.83770102596E+01  0.51100000000E-03 0.  1.
         12    1    4    4    0    0 -0.21884938208E+02 -0.30538538841E+01  0.59419991904E+01  0.22881955736E+02  0.00000000000E+00 0. -1.
</event>
<event>
 8    1  0.2031623E-013  0.9118800E+02  0.7816164E-02  0.1184000E+00
        -11   -1    0    0    0    0  0.00000000000E+00  0.00000000000E+00  0.45593999997E+02  0.45594000000E+02  0.51100000000E-03 0. -1.
         11   -1    0    0    0    0 -0.00000000000E+00 -0.00000000000E+00 -0.45593999997E+02  0.45594000000E+02  0.51100000000E-03 0.  1.
         23    2    1    2    0    0  0.17763568394E-14 -0.71054273576E-14  0.00000000000E+00  0.91188000000E+02  0.91188000000E+02 0.  0.
    9900012    2    3    3    0    0  0.83479259775E+01  0.36172078884E+02 -0.16585051934E+02  0.50528793090E+02  0.29999797076E+02 0.  0.
         12    1    3    3    0    0 -0.83479259775E+01 -0.36172078884E+02  0.16585051934E+02  0.40659206910E+02  0.00000000000E+00 0. -1.
         11    1    4    4    0    0  0.15650617343E+02  0.19423548867E+02 -0.76996587830E+01  0.26105570660E+02  0.51100000000E-03 0. -1.
        -11    1    4    4    0    0 -0.70178041604E+01  0.13365423659E+01 -0.43122132262E+01  0.83445253849E+01  0.51100000000E-03 0.  1.
         12    1    4    4    0    0 -0.28488720534E+00  0.15411987650E+02 -0.45731799253E+01  0.16078697045E+02  0.00000000000E+00 0. -1.
</event>
<event>
 8    1  0.2031623E-013  0.9118800E+02  0.7816164E-02  0.1184000E+00
        -11   -1    0    0    0    0  0.00000000000E+00  0.00000000000E+00  0.45593999997E+02  0.45594000000E+02  0.51100000000E-03 0. -1.
         11   -1    0    0    0    0 -0.00000000000E+00 -0.00000000000E+00 -0.45593999997E+02  0.45594000000E+02  0.51100000000E-03 0.  1.
         23    2    1    2    0    0 -0.33306690739E-15 -0.22204460493E-15  0.00000000000E+00  0.91188000000E+02  0.91188000000E+02 0.  0.
    9900012    2    3    3    0    0  0.99048829144E+00 -0.18252343731E+01 -0.40605945054E+02  0.50528987207E+02  0.30000387113E+02 0.  0.
         12    1    3    3    0    0 -0.99048829144E+00  0.18252343731E+01  0.40605945054E+02  0.40659012793E+02  0.00000000000E+00 0. -1.
         11    1    4    4    0    0  0.41100866108E+01 -0.67061830740E+01 -0.33946504395E+02  0.34845815592E+02  0.51100000000E-03 0. -1.
        -11    1    4    4    0    0  0.39574408958E+01  0.41274044010E+01 -0.63703389100E+01  0.85602583853E+01  0.51100000000E-03 0.  1.
         12    1    4    4    0    0 -0.70770392151E+01  0.75354429993E+00 -0.28910174881E+00  0.71229132303E+01  0.00000000000E+00 0. -1.
</event>
<event>
 8    1  0.2031623E-013  0.9118800E+02  0.7816164E-02  0.1184000E+00
        -11   -1    0    0    0    0  0.00000000000E+00  0.00000000000E+00  0.45593999997E+02  0.45594000000E+02  0.51100000000E-03 0. -1.
         11   -1    0    0    0    0 -0.00000000000E+00 -0.00000000000E+00 -0.45593999997E+02  0.45594000000E+02  0.51100000000E-03 0.  1.
         23    2    1    2    0    0  0.35527136788E-14 -0.44408920985E-15  0.35527136788E-14  0.91188000000E+02  0.91188000000E+02 0.  0.
    9900012    2    3    3    0    0  0.30042948326E+02  0.16965197268E+01  0.27344262348E+02  0.50528860724E+02  0.30000002656E+02 0.  0.
        -12    1    3    3    0    0 -0.30042948326E+02 -0.16965197268E+01 -0.27344262348E+02  0.40659139276E+02  0.00000000000E+00 0.  1.
         11    1    4    4    0    0  0.16146902424E+02 -0.32361027002E+01  0.11792332494E+01  0.16510160808E+02  0.51100000000E-03 0. -1.
        -11    1    4    4    0    0 -0.28355894430E+01 -0.47766168565E+00  0.89881216823E+01  0.94368988451E+01  0.51100000000E-03 0.  1.
        -12    1    4    4    0    0  0.16731635345E+02  0.54102841127E+01  0.17176907416E+02  0.24581801071E+02  0.00000000000E+00 0.  1.
</event>
<event>
 8    1  0.2031623E-013  0.9118800E+02  0.7816164E-02  0.1184000E+00
        -11   -1    0    0    0    0  0.00000000000E+00  0.00000000000E+00  0.45593999997E+02  0.45594000000E+02  0.51100000000E-03 0. -1.
         11   -1    0    0    0    0 -0.00000000000E+00 -0.00000000000E+00 -0.45593999997E+02  0.45594000000E+02  0.51100000000E-03 0.  1.
         23    2    1    2    0    0  0.00000000000E+00  0.00000000000E+00  0.00000000000E+00  0.91188000000E+02  0.91188000000E+02 0.  0.
    9900012    2    3    3    0    0 -0.10158027181E+02  0.17662947691E+02  0.35185244163E+02  0.50528847966E+02  0.29999963878E+02 0.  0.
        -12    1    3    3    0    0  0.10158027181E+02 -0.17662947691E+02 -0.35185244163E+02  0.40659152034E+02  0.00000000000E+00 0.  1.
         11    1    4    4    0    0 -0.80056996979E+01  0.21637233199E+02  0.24250503696E+02  0.33471600169E+02  0.51100000000E-03 0. -1.
        -11    1    4    4    0    0 -0.25286778142E+01 -0.39568840193E+01  0.13588430757E+02  0.14376946593E+02  0.51100000000E-03 0.  1.
         12    1    4    4    0    0  0.37635033130E+00 -0.17401488780E-01 -0.26536902905E+01  0.26803012036E+01  0.00000000000E+00 0. -1.
</event>
<event>
 8    1  0.2031623E-013  0.9118800E+02  0.7816164E-02  0.1184000E+00
        -11   -1    0    0    0    0  0.00000000000E+00  0.00000000000E+00  0.45593999997E+02  0.45594000000E+02  0.51100000000E-03 0. -1.
         11   -1    0    0    0    0 -0.00000000000E+00 -0.00000000000E+00 -0.45593999997E+02  0.45594000000E+02  0.51100000000E-03 0.  1.
         23    2    1    2    0    0  0.00000000000E+00 -0.35527136788E-14  0.00000000000E+00  0.91188000000E+02  0.91188000000E+02 0.  0.
    9900012    2    3    3    0    0  0.14261265608E+02 -0.95901972674E+01  0.36848468281E+02  0.50528865786E+02  0.30000018043E+02 0.  0.
        -12    1    3    3    0    0 -0.14261265608E+02  0.95901972674E+01 -0.36848468281E+02  0.40659134214E+02  0.00000000000E+00 0.  1.
         11    1    4    4    0    0  0.17489735161E+01  0.46538321520E+00  0.76379440665E+00  0.19644011947E+01  0.51100000000E-03 0. -1.
        -11    1    4    4    0    0  0.86865570260E+01  0.44369924946E+01  0.29032545850E+00  0.97584560508E+01  0.51100000000E-03 0.  1.
        -12    1    4    4    0    0  0.38257350658E+01 -0.14492572977E+02  0.35794348416E+02  0.38806008540E+02  0.00000000000E+00 0.  1.
</event>
<event>
 8    1  0.2031623E-013  0.9118800E+02  0.7816164E-02  0.1184000E+00
        -11   -1    0    0    0    0  0.00000000000E+00  0.00000000000E+00  0.45593999997E+02  0.45594000000E+02  0.51100000000E-03 0. -1.
         11   -1    0    0    0    0 -0.00000000000E+00 -0.00000000000E+00 -0.45593999997E+02  0.45594000000E+02  0.51100000000E-03 0.  1.
         23    2    1    2    0    0  0.00000000000E+00  0.00000000000E+00  0.00000000000E+00  0.91188000000E+02  0.91188000000E+02 0.  0.
    9900012    2    3    3    0    0  0.42653380057E+01 -0.65153862465E+01 -0.39906417086E+02  0.50528862147E+02  0.30000006983E+02 0.  0.
         12    1    3    3    0    0 -0.42653380057E+01  0.65153862465E+01  0.39906417086E+02  0.40659137853E+02  0.00000000000E+00 0. -1.
         11    1    4    4    0    0  0.30900385320E+01 -0.14060467268E+02 -0.92477345536E+01  0.17110396622E+02  0.51100000000E-03 0. -1.
        -11    1    4    4    0    0  0.54869994450E+01  0.66952038654E+01 -0.23187477264E+02  0.24750596353E+02  0.51100000000E-03 0.  1.
        -12    1    4    4    0    0 -0.43116999713E+01  0.84987715593E+00 -0.74712052685E+01  0.86678691722E+01  0.00000000000E+00 0.  1.
</event>
<event>
 8    1  0.2031623E-013  0.9118800E+02  0.7816164E-02  0.1184000E+00
        -11   -1    0    0    0    0  0.00000000000E+00  0.00000000000E+00  0.45593999997E+02  0.45594000000E+02  0.51100000000E-03 0. -1.
         11   -1    0    0    0    0 -0.00000000000E+00 -0.00000000000E+00 -0.45593999997E+02  0.45594000000E+02  0.51100000000E-03 0.  1.
         23    2    1    2    0    0  0.00000000000E+00  0.35527136788E-14  0.00000000000E+00  0.91188000000E+02  0.91188000000E+02 0.  0.
    9900012    2    3    3    0    0 -0.22818015386E+02  0.18066555636E+02 -0.28391954640E+02  0.50528863917E+02  0.30000012362E+02 0.  0.
         12    1    3    3    0    0  0.22818015386E+02 -0.18066555636E+02  0.28391954640E+02  0.40659136083E+02  0.00000000000E+00 0. -1.
         11    1    4    4    0    0 -0.56504659766E+01 -0.71624951810E+01 -0.13624348956E+02  0.16396706612E+02  0.51100000000E-03 0. -1.
        -11    1    4    4    0    0 -0.81813984805E+01  0.15241929270E+02 -0.91556052056E+01  0.19572347737E+02  0.51100000000E-03 0.  1.
         12    1    4    4    0    0 -0.89861509292E+01  0.99871215464E+01 -0.56120004787E+01  0.14559809569E+02  0.00000000000E+00 0. -1.
</event>
<event>
 8    1  0.2031623E-013  0.9118800E+02  0.7816164E-02  0.1184000E+00
        -11   -1    0    0    0    0  0.00000000000E+00  0.00000000000E+00  0.45593999997E+02  0.45594000000E+02  0.51100000000E-03 0. -1.
         11   -1    0    0    0    0 -0.00000000000E+00 -0.00000000000E+00 -0.45593999997E+02  0.45594000000E+02  0.51100000000E-03 0.  1.
         23    2    1    2    0    0 -0.88817841970E-15  0.44408920985E-15  0.71054273576E-14  0.91188000000E+02  0.91188000000E+02 0.  0.
    9900012    2    3    3    0    0  0.61405544444E+01 -0.17613165526E+01 -0.40154165001E+02  0.50528860661E+02  0.30000002465E+02 0.  0.
         12    1    3    3    0    0 -0.61405544444E+01  0.17613165526E+01  0.40154165001E+02  0.40659139339E+02  0.00000000000E+00 0. -1.
         11    1    4    4    0    0 -0.17903425235E+01 -0.51729654004E+01 -0.15729498931E+02  0.16654790130E+02  0.51100000000E-03 0. -1.
        -11    1    4    4    0    0  0.15102398529E+02  0.36946093987E-01 -0.18993298079E+02  0.24265802655E+02  0.51100000000E-03 0.  1.
        -12    1    4    4    0    0 -0.71715015612E+01  0.33747027539E+01 -0.54313679911E+01  0.96082678759E+01  0.00000000000E+00 0.  1.
</event>
<event>
 8    1  0.2031623E-013  0.9118800E+02  0.7816164E-02  0.1184000E+00
        -11   -1    0    0    0    0  0.00000000000E+00  0.00000000000E+00  0.45593999997E+02  0.45594000000E+02  0.51100000000E-03 0. -1.
         11   -1    0    0    0    0 -0.00000000000E+00 -0.00000000000E+00 -0.45593999997E+02  0.45594000000E+02  0.51100000000E-03 0.  1.
         23    2    1    2    0    0  0.11379786002E-14 -0.35527136788E-14  0.00000000000E+00  0.91188000000E+02  0.91188000000E+02 0.  0.
    9900012    2    3    3    0    0 -0.23308374140E+00 -0.26796978987E+02 -0.30578295776E+02  0.50528873307E+02  0.30000040904E+02 0.  0.
         12    1    3    3    0    0  0.23308374140E+00  0.26796978987E+02  0.30578295776E+02  0.40659126693E+02  0.00000000000E+00 0. -1.
         11    1    4    4    0    0 -0.17307307879E+01  0.26565250387E+01 -0.42540276792E-01  0.31708617563E+01  0.51100000000E-03 0. -1.
        -11    1    4    4    0    0 -0.51436629316E+01 -0.16990457555E+02 -0.27782977974E+02  0.32970089197E+02  0.51100000000E-03 0.  1.
        -12    1    4    4    0    0  0.66413099782E+01 -0.12463046471E+02 -0.27527775252E+01  0.14387922354E+02  0.00000000000E+00 0.  1.
</event>
<event>
 8    1  0.2031623E-013  0.9118800E+02  0.7816164E-02  0.1184000E+00
        -11   -1    0    0    0    0  0.00000000000E+00  0.00000000000E+00  0.45593999997E+02  0.45594000000E+02  0.51100000000E-03 0. -1.
         11   -1    0    0    0    0 -0.00000000000E+00 -0.00000000000E+00 -0.45593999997E+02  0.45594000000E+02  0.51100000000E-03 0.  1.
         23    2    1    2    0    0 -0.16653345369E-15  0.00000000000E+00  0.00000000000E+00  0.91188000000E+02  0.91188000000E+02 0.  0.
    9900012    2    3    3    0    0 -0.59958196797E-02  0.63861310334E+01 -0.40154487736E+02  0.50528860918E+02  0.30000003246E+02 0.  0.
         12    1    3    3    0    0  0.59958196797E-02 -0.63861310334E+01  0.40154487736E+02  0.40659139082E+02  0.00000000000E+00 0. -1.
         11    1    4    4    0    0  0.40107725006E+01  0.57984669511E+01  0.87777326018E+00  0.71048575772E+01  0.51100000000E-03 0. -1.
        -11    1    4    4    0    0 -0.58830216222E+01 -0.53308405758E+01 -0.20903564963E+02  0.22360385352E+02  0.51100000000E-03 0.  1.
        -12    1    4    4    0    0  0.18662533020E+01  0.59185046581E+01 -0.20128696033E+02  0.21063617989E+02  0.00000000000E+00 0.  1.
</event>
<event>
 8    1  0.2031623E-013  0.9118800E+02  0.7816164E-02  0.1184000E+00
        -11   -1    0    0    0    0  0.00000000000E+00  0.00000000000E+00  0.45593999997E+02  0.45594000000E+02  0.51100000000E-03 0. -1.
         11   -1    0    0    0    0 -0.00000000000E+00 -0.00000000000E+00 -0.45593999997E+02  0.45594000000E+02  0.51100000000E-03 0.  1.
         23    2    1    2    0    0  0.00000000000E+00 -0.35527136788E-14  0.00000000000E+00  0.91188000000E+02  0.91188000000E+02 0.  0.
    9900012    2    3    3    0    0  0.40582816660E+01  0.29415061809E+02 -0.27774986776E+02  0.50528863245E+02  0.30000010318E+02 0.  0.
         12    1    3    3    0    0 -0.40582816660E+01 -0.29415061809E+02  0.27774986776E+02  0.40659136755E+02  0.00000000000E+00 0. -1.
         11    1    4    4    0    0  0.86936615517E+01  0.18958369529E+01 -0.46470416049E+01  0.10038373617E+02  0.51100000000E-03 0. -1.
        -11    1    4    4    0    0 -0.10524524390E+02  0.92625512893E+01 -0.88895201929E+01  0.16600724067E+02  0.51100000000E-03 0.  1.
        -12    1    4    4    0    0  0.58891445045E+01  0.18256673566E+02 -0.14238424978E+02  0.23889765561E+02  0.00000000000E+00 0.  1.
</event>
<event>
 8    1  0.2031623E-013  0.9118800E+02  0.7816164E-02  0.1184000E+00
        -11   -1    0    0    0    0  0.00000000000E+00  0.00000000000E+00  0.45593999997E+02  0.45594000000E+02  0.51100000000E-03 0. -1.
         11   -1    0    0    0    0 -0.00000000000E+00 -0.00000000000E+00 -0.45593999997E+02  0.45594000000E+02  0.51100000000E-03 0.  1.
         23    2    1    2    0    0  0.44408920985E-15  0.00000000000E+00  0.00000000000E+00  0.91188000000E+02  0.91188000000E+02 0.  0.
    9900012    2    3    3    0    0 -0.28380168732E+01  0.25818091697E+02  0.31281577981E+02  0.50528864254E+02  0.30000013385E+02 0.  0.
        -12    1    3    3    0    0  0.28380168732E+01 -0.25818091697E+02 -0.31281577981E+02  0.40659135746E+02  0.00000000000E+00 0.  1.
         11    1    4    4    0    0 -0.18077236331E+01  0.23518426968E+02  0.61264382311E+01  0.24370423005E+02  0.51100000000E-03 0. -1.
        -11    1    4    4    0    0  0.22689025190E+01 -0.97824756232E+00  0.10305343698E+02  0.10597405151E+02  0.51100000000E-03 0.  1.
         12    1    4    4    0    0 -0.32991957591E+01  0.32779122916E+01  0.14849796052E+02  0.15561036097E+02  0.00000000000E+00 0. -1.
</event>
<event>
 8    1  0.2031623E-013  0.9118800E+02  0.7816164E-02  0.1184000E+00
        -11   -1    0    0    0    0  0.00000000000E+00  0.00000000000E+00  0.45593999997E+02  0.45594000000E+02  0.51100000000E-03 0. -1.
         11   -1    0    0    0    0 -0.00000000000E+00 -0.00000000000E+00 -0.45593999997E+02  0.45594000000E+02  0.51100000000E-03 0.  1.
         23    2    1    2    0    0 -0.88817841970E-15  0.11102230246E-15  0.00000000000E+00  0.91188000000E+02  0.91188000000E+02 0.  0.
    9900012    2    3    3    0    0 -0.63463261917E+01  0.67592399355E+00 -0.40155105401E+02  0.50528865489E+02  0.30000017141E+02 0.  0.
         12    1    3    3    0    0  0.63463261917E+01 -0.67592399355E+00  0.40155105401E+02  0.40659134511E+02  0.00000000000E+00 0. -1.
         11    1    4    4    0    0  0.68459366630E+01  0.18821427778E+01 -0.59433723703E+01  0.92592108532E+01  0.51100000000E-03 0. -1.
        -11    1    4    4    0    0 -0.13496323004E+02 -0.18969545255E+01 -0.96574054380E+01  0.16703731654E+02  0.51100000000E-03 0.  1.
        -12    1    4    4    0    0  0.30406014940E+00  0.69073574120E+00 -0.24554327593E+02  0.24565922982E+02  0.00000000000E+00 0.  1.
</event>
<event>
 8    1  0.2031623E-013  0.9118800E+02  0.7816164E-02  0.1184000E+00
        -11   -1    0    0    0    0  0.00000000000E+00  0.00000000000E+00  0.45593999997E+02  0.45594000000E+02  0.51100000000E-03 0.  1.
         11   -1    0    0    0    0 -0.00000000000E+00 -0.00000000000E+00 -0.45593999997E+02  0.45594000000E+02  0.51100000000E-03 0. -1.
         23    2    1    2    0    0  0.00000000000E+00  0.00000000000E+00  0.00000000000E+00  0.91188000000E+02  0.91188000000E+02 0.  0.
    9900012    2    3    3    0    0  0.12310112930E+02 -0.37920539767E+02  0.79787101693E+01  0.50528855487E+02  0.29999986738E+02 0.  0.
        -12    1    3    3    0    0 -0.12310112930E+02  0.37920539767E+02 -0.79787101693E+01  0.40659144513E+02  0.00000000000E+00 0.  1.
         11    1    4    4    0    0  0.91669019840E+01 -0.30591508479E+02 -0.31659671682E+01  0.32091990143E+02  0.51100000000E-03 0. -1.
        -11    1    4    4    0    0  0.29002764536E+01  0.29913055769E+01  0.46359437695E+01  0.62330961373E+01  0.51100000000E-03 0.  1.
        -12    1    4    4    0    0  0.24293449190E+00 -0.10320336865E+02  0.65087335680E+01  0.12203769206E+02  0.00000000000E+00 0.  1.
</event>
<event>
 8    1  0.2031623E-013  0.9118800E+02  0.7816164E-02  0.1184000E+00
        -11   -1    0    0    0    0  0.00000000000E+00  0.00000000000E+00  0.45593999997E+02  0.45594000000E+02  0.51100000000E-03 0. -1.
         11   -1    0    0    0    0 -0.00000000000E+00 -0.00000000000E+00 -0.45593999997E+02  0.45594000000E+02  0.51100000000E-03 0.  1.
         23    2    1    2    0    0  0.00000000000E+00 -0.90205620751E-16  0.00000000000E+00  0.91188000000E+02  0.91188000000E+02 0.  0.
    9900012    2    3    3    0    0 -0.32565646397E+02  0.35870488733E-01 -0.24344262107E+02  0.50528859459E+02  0.29999998813E+02 0.  0.
         12    1    3    3    0    0  0.32565646397E+02 -0.35870488733E-01  0.24344262107E+02  0.40659140541E+02  0.00000000000E+00 0. -1.
         11    1    4    4    0    0 -0.67358831348E+01  0.52412583043E+01  0.32285921024E+01  0.91250598597E+01  0.51100000000E-03 0. -1.
        -11    1    4    4    0    0 -0.27140834408E+02 -0.75574036707E+01 -0.25582992129E+02  0.38055600496E+02  0.51100000000E-03 0.  1.
        -12    1    4    4    0    0  0.13110711462E+01  0.23520158552E+01 -0.19898620810E+01  0.33481991033E+01  0.00000000000E+00 0.  1.
</event>
<event>
 8    1  0.2031623E-013  0.9118800E+02  0.7816164E-02  0.1184000E+00
        -11   -1    0    0    0    0  0.00000000000E+00  0.00000000000E+00  0.45593999997E+02  0.45594000000E+02  0.51100000000E-03 0. -1.
         11   -1    0    0    0    0 -0.00000000000E+00 -0.00000000000E+00 -0.45593999997E+02  0.45594000000E+02  0.51100000000E-03 0.  1.
         23    2    1    2    0    0  0.00000000000E+00  0.00000000000E+00  0.00000000000E+00  0.91188000000E+02  0.91188000000E+02 0.  0.
    9900012    2    3    3    0    0 -0.14671286365E+02 -0.21719249485E+02 -0.31083643501E+02  0.50528864064E+02  0.30000012808E+02 0.  0.
         12    1    3    3    0    0  0.14671286365E+02  0.21719249485E+02  0.31083643501E+02  0.40659135936E+02  0.00000000000E+00 0. -1.
         11    1    4    4    0    0 -0.17416964003E+02 -0.91982280521E+01 -0.30681030218E+02  0.36459342423E+02  0.51100000000E-03 0. -1.
        -11    1    4    4    0    0 -0.14155550697E+01 -0.58390439209E+01 -0.12986362344E+01  0.61469249545E+01  0.51100000000E-03 0.  1.
         12    1    4    4    0    0  0.41612327081E+01 -0.66819775125E+01  0.89602295185E+00  0.79225966866E+01  0.00000000000E+00 0. -1.
</event>
<event>
 8    1  0.2031623E-013  0.9118800E+02  0.7816164E-02  0.1184000E+00
        -11   -1    0    0    0    0  0.00000000000E+00  0.00000000000E+00  0.45593999997E+02  0.45594000000E+02  0.51100000000E-03 0. -1.
         11   -1    0    0    0    0 -0.00000000000E+00 -0.00000000000E+00 -0.45593999997E+02  0.45594000000E+02  0.51100000000E-03 0.  1.
         23    2    1    2    0    0 -0.44408920985E-15  0.00000000000E+00 -0.35527136788E-14  0.91188000000E+02  0.91188000000E+02 0.  0.
    9900012    2    3    3    0    0  0.57791572947E+00 -0.34704000651E+02 -0.21176960860E+02  0.50528864260E+02  0.30000013406E+02 0.  0.
         12    1    3    3    0    0 -0.57791572947E+00  0.34704000651E+02  0.21176960860E+02  0.40659135740E+02  0.00000000000E+00 0. -1.
         11    1    4    4    0    0 -0.93781382047E+01 -0.21059132313E+02 -0.12521292209E+02  0.26233933918E+02  0.51100000000E-03 0.  1.
        -11    1    4    4    0    0  0.11630560607E+02 -0.11381445900E+02 -0.11779975993E+02  0.20089178317E+02  0.51100000000E-03 0. -1.
         12    1    4    4    0    0 -0.16745066726E+01 -0.22634224386E+01  0.31243073419E+01  0.42057520254E+01  0.00000000000E+00 0. -1.
</event>
<event>
 8    1  0.2031623E-013  0.9118800E+02  0.7816164E-02  0.1184000E+00
        -11   -1    0    0    0    0  0.00000000000E+00  0.00000000000E+00  0.45593999997E+02  0.45594000000E+02  0.51100000000E-03 0. -1.
         11   -1    0    0    0    0 -0.00000000000E+00 -0.00000000000E+00 -0.45593999997E+02  0.45594000000E+02  0.51100000000E-03 0.  1.
         23    2    1    2    0    0 -0.44408920985E-15  0.00000000000E+00  0.00000000000E+00  0.91188000000E+02  0.91188000000E+02 0.  0.
    9900012    2    3    3    0    0 -0.22344302941E+01 -0.35647451684E+02  0.19427614196E+02  0.50528859778E+02  0.29999999780E+02 0.  0.
        -12    1    3    3    0    0  0.22344302941E+01  0.35647451684E+02 -0.19427614196E+02  0.40659140222E+02  0.00000000000E+00 0.  1.
         11    1    4    4    0    0  0.89992245991E+01 -0.22385090547E+02  0.10776052780E+01  0.24150353115E+02  0.51100000000E-03 0. -1.
        -11    1    4    4    0    0 -0.49227002572E-01 -0.41528402081E+01  0.21138522916E+01  0.46601370006E+01  0.51100000000E-03 0.  1.
         12    1    4    4    0    0 -0.11184427891E+02 -0.91095209288E+01  0.16236156627E+02  0.21718369662E+02  0.00000000000E+00 0. -1.
</event>
<event>
 8    1  0.2031623E-013  0.9118800E+02  0.7816164E-02  0.1184000E+00
        -11   -1    0    0    0    0  0.00000000000E+00  0.00000000000E+00  0.45593999997E+02  0.45594000000E+02  0.51100000000E-03 0. -1.
         11   -1    0    0    0    0 -0.00000000000E+00 -0.00000000000E+00 -0.45593999997E+02  0.45594000000E+02  0.51100000000E-03 0.  1.
         23    2    1    2    0    0  0.00000000000E+00  0.35527136788E-14  0.00000000000E+00  0.91188000000E+02  0.91188000000E+02 0.  0.
    9900012    2    3    3    0    0 -0.17991115842E+02  0.19811194440E+02 -0.30610474143E+02  0.50528870624E+02  0.30000032749E+02 0.  0.
         12    1    3    3    0    0  0.17991115842E+02 -0.19811194440E+02  0.30610474143E+02  0.40659129376E+02  0.00000000000E+00 0. -1.
         11    1    4    4    0    0  0.57937592301E+01  0.81143931534E+01 -0.83700968739E+01  0.13018046866E+02  0.51100000000E-03 0. -1.
        -11    1    4    4    0    0 -0.15277705470E+02  0.13640282263E+02 -0.10897346006E+02  0.23199520143E+02  0.51100000000E-03 0.  1.
        -12    1    4    4    0    0 -0.85071696017E+01 -0.19434809758E+01 -0.11343031262E+02  0.14311303615E+02  0.00000000000E+00 0.  1.
</event>
<event>
 8    1  0.2031623E-013  0.9118800E+02  0.7816164E-02  0.1184000E+00
        -11   -1    0    0    0    0  0.00000000000E+00  0.00000000000E+00  0.45593999997E+02  0.45594000000E+02  0.51100000000E-03 0. -1.
         11   -1    0    0    0    0 -0.00000000000E+00 -0.00000000000E+00 -0.45593999997E+02  0.45594000000E+02  0.51100000000E-03 0.  1.
         23    2    1    2    0    0  0.00000000000E+00  0.00000000000E+00  0.00000000000E+00  0.91188000000E+02  0.91188000000E+02 0.  0.
    9900012    2    3    3    0    0 -0.22273259782E+02 -0.23287153063E+02  0.24794631698E+02  0.50528888350E+02  0.30000086628E+02 0.  0.
        -12    1    3    3    0    0  0.22273259782E+02  0.23287153063E+02 -0.24794631698E+02  0.40659111650E+02  0.00000000000E+00 0.  1.
         11    1    4    4    0    0 -0.14651605849E+02 -0.57986813707E+01  0.13738965822E+02  0.20905823153E+02  0.51100000000E-03 0. -1.
        -11    1    4    4    0    0 -0.23013477718E+01 -0.24066221789E-01 -0.48762932937E+01  0.53921254897E+01  0.51100000000E-03 0.  1.
        -12    1    4    4    0    0 -0.53203061615E+01 -0.17464405471E+02  0.15931959169E+02  0.24230939707E+02  0.00000000000E+00 0.  1.
</event>
<event>
 8    1  0.2031623E-013  0.9118800E+02  0.7816164E-02  0.1184000E+00
        -11   -1    0    0    0    0  0.00000000000E+00  0.00000000000E+00  0.45593999997E+02  0.45594000000E+02  0.51100000000E-03 0. -1.
         11   -1    0    0    0    0 -0.00000000000E+00 -0.00000000000E+00 -0.45593999997E+02  0.45594000000E+02  0.51100000000E-03 0.  1.
         23    2    1    2    0    0  0.00000000000E+00 -0.35527136788E-14  0.00000000000E+00  0.91188000000E+02  0.91188000000E+02 0.  0.
    9900012    2    3    3    0    0 -0.28673941323E+02 -0.21305791832E+02  0.19417358155E+02  0.50528862352E+02  0.30000007605E+02 0.  0.
        -12    1    3    3    0    0  0.28673941323E+02  0.21305791832E+02 -0.19417358155E+02  0.40659137648E+02  0.00000000000E+00 0.  1.
         11    1    4    4    0    0 -0.22856246644E+01 -0.17619488112E+02  0.65530732504E+01  0.18937085592E+02  0.51100000000E-03 0. -1.
        -11    1    4    4    0    0 -0.12866381196E+02  0.22251715983E+01  0.18735464548E+01  0.13191108001E+02  0.51100000000E-03 0.  1.
         12    1    4    4    0    0 -0.13521935463E+02 -0.59114753182E+01  0.10990738450E+02  0.18400668759E+02  0.00000000000E+00 0. -1.
</event>
<event>
 8    1  0.2031623E-013  0.9118800E+02  0.7816164E-02  0.1184000E+00
        -11   -1    0    0    0    0  0.00000000000E+00  0.00000000000E+00  0.45593999997E+02  0.45594000000E+02  0.51100000000E-03 0. -1.
         11   -1    0    0    0    0 -0.00000000000E+00 -0.00000000000E+00 -0.45593999997E+02  0.45594000000E+02  0.51100000000E-03 0.  1.
         23    2    1    2    0    0  0.00000000000E+00 -0.35527136788E-14 -0.35527136788E-14  0.91188000000E+02  0.91188000000E+02 0.  0.
    9900012    2    3    3    0    0  0.20550861265E+01  0.25407815788E+02  0.31676250560E+02  0.50528864106E+02  0.30000012935E+02 0.  0.
        -12    1    3    3    0    0 -0.20550861265E+01 -0.25407815788E+02 -0.31676250560E+02  0.40659135894E+02  0.00000000000E+00 0.  1.
         11    1    4    4    0    0  0.49087807112E+01  0.30674270901E+02  0.26699890773E+02  0.40962070149E+02  0.51100000000E-03 0.  1.
        -11    1    4    4    0    0 -0.19173945274E+01 -0.58390362408E+01  0.55914062631E+01  0.83087044872E+01  0.51100000000E-03 0. -1.
        -12    1    4    4    0    0 -0.93630005733E+00  0.57258112770E+00 -0.61504647538E+00  0.12580894690E+01  0.00000000000E+00 0.  1.
</event>
<event>
 8    1  0.2031623E-013  0.9118800E+02  0.7816164E-02  0.1184000E+00
        -11   -1    0    0    0    0  0.00000000000E+00  0.00000000000E+00  0.45593999997E+02  0.45594000000E+02  0.51100000000E-03 0. -1.
         11   -1    0    0    0    0 -0.00000000000E+00 -0.00000000000E+00 -0.45593999997E+02  0.45594000000E+02  0.51100000000E-03 0.  1.
         23    2    1    2    0    0  0.00000000000E+00  0.00000000000E+00  0.00000000000E+00  0.91188000000E+02  0.91188000000E+02 0.  0.
    9900012    2    3    3    0    0 -0.24198501548E+02  0.20325911034E+02  0.25582303181E+02  0.50528875900E+02  0.30000048785E+02 0.  0.
        -12    1    3    3    0    0  0.24198501548E+02 -0.20325911034E+02 -0.25582303181E+02  0.40659124100E+02  0.00000000000E+00 0.  1.
         11    1    4    4    0    0 -0.30766568323E+01  0.12551405144E+02  0.19204236151E+02  0.23147489600E+02  0.51100000000E-03 0. -1.
        -11    1    4    4    0    0 -0.23157661476E+02  0.79770054530E+01  0.52657887055E+01  0.25052713067E+02  0.51100000000E-03 0.  1.
        -12    1    4    4    0    0  0.20358167607E+01 -0.20249956288E+00  0.11122783243E+01  0.23286732331E+01  0.00000000000E+00 0.  1.
</event>
<event>
 8    1  0.2031623E-013  0.9118800E+02  0.7816164E-02  0.1184000E+00
        -11   -1    0    0    0    0  0.00000000000E+00  0.00000000000E+00  0.45593999997E+02  0.45594000000E+02  0.51100000000E-03 0. -1.
         11   -1    0    0    0    0 -0.00000000000E+00 -0.00000000000E+00 -0.45593999997E+02  0.45594000000E+02  0.51100000000E-03 0.  1.
         23    2    1    2    0    0  0.00000000000E+00 -0.17763568394E-14 -0.71054273576E-14  0.91188000000E+02  0.91188000000E+02 0.  0.
    9900012    2    3    3    0    0  0.34131476093E+02  0.96544198743E+01  0.19874542642E+02  0.50528893657E+02  0.30000102760E+02 0.  0.
        -12    1    3    3    0    0 -0.34131476093E+02 -0.96544198743E+01 -0.19874542642E+02  0.40659106343E+02  0.00000000000E+00 0.  1.
         11    1    4    4    0    0  0.16919035024E+02  0.52957653833E+01  0.23389134886E+02  0.29348773536E+02  0.51100000000E-03 0.  1.
        -11    1    4    4    0    0  0.10763049493E+02  0.64250178888E+00 -0.71083929831E+01  0.12914538087E+02  0.51100000000E-03 0. -1.
        -12    1    4    4    0    0  0.64493915763E+01  0.37161527021E+01  0.35938007392E+01  0.82655820341E+01  0.00000000000E+00 0.  1.
</event>
<event>
 8    1  0.2031623E-013  0.9118800E+02  0.7816164E-02  0.1184000E+00
        -11   -1    0    0    0    0  0.00000000000E+00  0.00000000000E+00  0.45593999997E+02  0.45594000000E+02  0.51100000000E-03 0. -1.
         11   -1    0    0    0    0 -0.00000000000E+00 -0.00000000000E+00 -0.45593999997E+02  0.45594000000E+02  0.51100000000E-03 0.  1.
         23    2    1    2    0    0 -0.17763568394E-14  0.00000000000E+00  0.71054273576E-14  0.91188000000E+02  0.91188000000E+02 0.  0.
    9900012    2    3    3    0    0 -0.15414496465E+02 -0.10844371917E+02  0.36027211884E+02  0.50528842364E+02  0.29999946850E+02 0.  0.
        -12    1    3    3    0    0  0.15414496465E+02  0.10844371917E+02 -0.36027211884E+02  0.40659157636E+02  0.00000000000E+00 0.  1.
         11    1    4    4    0    0 -0.11113698106E+02 -0.48414742459E+00  0.30013324326E+02  0.32008566380E+02  0.51100000000E-03 0. -1.
        -11    1    4    4    0    0 -0.26839578804E+01 -0.11952532563E+02  0.86841316364E+01  0.15016018351E+02  0.51100000000E-03 0.  1.
         12    1    4    4    0    0 -0.16168404779E+01  0.15923080706E+01 -0.26702440785E+01  0.35042576334E+01  0.00000000000E+00 0. -1.
</event>
<event>
 8    1  0.2031623E-013  0.9118800E+02  0.7816164E-02  0.1184000E+00
        -11   -1    0    0    0    0  0.00000000000E+00  0.00000000000E+00  0.45593999997E+02  0.45594000000E+02  0.51100000000E-03 0. -1.
         11   -1    0    0    0    0 -0.00000000000E+00 -0.00000000000E+00 -0.45593999997E+02  0.45594000000E+02  0.51100000000E-03 0.  1.
         23    2    1    2    0    0 -0.71054273576E-14  0.88817841970E-15  0.00000000000E+00  0.91188000000E+02  0.91188000000E+02 0.  0.
    9900012    2    3    3    0    0 -0.34979257165E+02  0.55384122247E+01 -0.19973620455E+02  0.50528831835E+02  0.29999914845E+02 0.  0.
         12    1    3    3    0    0  0.34979257165E+02 -0.55384122247E+01  0.19973620455E+02  0.40659168165E+02  0.00000000000E+00 0. -1.
         11    1    4    4    0    0 -0.25396995243E+01 -0.86565432881E+01 -0.86186526058E+00  0.90624846130E+01  0.51100000000E-03 0. -1.
        -11    1    4    4    0    0 -0.71955749975E+01  0.49917481692E+01 -0.48270778892E+00  0.87707956538E+01  0.51100000000E-03 0.  1.
         12    1    4    4    0    0 -0.25243982644E+02  0.92032073436E+01 -0.18629047405E+02  0.32695551568E+02  0.00000000000E+00 0. -1.
</event>
<event>
 8    1  0.2031623E-013  0.9118800E+02  0.7816164E-02  0.1184000E+00
        -11   -1    0    0    0    0  0.00000000000E+00  0.00000000000E+00  0.45593999997E+02  0.45594000000E+02  0.51100000000E-03 0.  1.
         11   -1    0    0    0    0 -0.00000000000E+00 -0.00000000000E+00 -0.45593999997E+02  0.45594000000E+02  0.51100000000E-03 0. -1.
         23    2    1    2    0    0  0.00000000000E+00 -0.44408920985E-15 -0.71054273576E-14  0.91188000000E+02  0.91188000000E+02 0.  0.
    9900012    2    3    3    0    0 -0.17217035422E+02 -0.22888836594E+01 -0.36762758996E+02  0.50528859009E+02  0.29999997444E+02 0.  0.
         12    1    3    3    0    0  0.17217035422E+02  0.22888836594E+01  0.36762758996E+02  0.40659140991E+02  0.00000000000E+00 0. -1.
         11    1    4    4    0    0 -0.12470316727E+02 -0.34918629695E+00 -0.51449886864E+01  0.13494504037E+02  0.51100000000E-03 0.  1.
        -11    1    4    4    0    0 -0.72979013640E+01 -0.85273500368E+01 -0.24777028277E+02  0.27200665313E+02  0.51100000000E-03 0. -1.
        -12    1    4    4    0    0  0.25511826689E+01  0.65876526744E+01 -0.68407420318E+01  0.98336896592E+01  0.00000000000E+00 0.  1.
</event>
<event>
 8    1  0.2031623E-013  0.9118800E+02  0.7816164E-02  0.1184000E+00
        -11   -1    0    0    0    0  0.00000000000E+00  0.00000000000E+00  0.45593999997E+02  0.45594000000E+02  0.51100000000E-03 0. -1.
         11   -1    0    0    0    0 -0.00000000000E+00 -0.00000000000E+00 -0.45593999997E+02  0.45594000000E+02  0.51100000000E-03 0.  1.
         23    2    1    2    0    0  0.00000000000E+00  0.00000000000E+00  0.00000000000E+00  0.91188000000E+02  0.91188000000E+02 0.  0.
    9900012    2    3    3    0    0  0.13194760545E+01  0.35413618109E+02 -0.19932392962E+02  0.50528860144E+02  0.30000000893E+02 0.  0.
         12    1    3    3    0    0 -0.13194760545E+01 -0.35413618109E+02  0.19932392962E+02  0.40659139856E+02  0.00000000000E+00 0. -1.
         11    1    4    4    0    0  0.57231609332E+01  0.29337184076E+02 -0.18638295648E+02  0.35225147345E+02  0.51100000000E-03 0. -1.
        -11    1    4    4    0    0 -0.34269547615E+01 -0.19444871801E+01 -0.50400719781E+01  0.63974506748E+01  0.51100000000E-03 0.  1.
         12    1    4    4    0    0 -0.97673011727E+00  0.80209212136E+01  0.37459746638E+01  0.89062621238E+01  0.00000000000E+00 0. -1.
</event>
<event>
 8    1  0.2031623E-013  0.9118800E+02  0.7816164E-02  0.1184000E+00
        -11   -1    0    0    0    0  0.00000000000E+00  0.00000000000E+00  0.45593999997E+02  0.45594000000E+02  0.51100000000E-03 0. -1.
         11   -1    0    0    0    0 -0.00000000000E+00 -0.00000000000E+00 -0.45593999997E+02  0.45594000000E+02  0.51100000000E-03 0.  1.
         23    2    1    2    0    0  0.00000000000E+00 -0.35527136788E-14  0.00000000000E+00  0.91188000000E+02  0.91188000000E+02 0.  0.
    9900012    2    3    3    0    0 -0.76474635127E+01  0.22509879723E+02  0.32984649255E+02  0.50528862407E+02  0.30000007773E+02 0.  0.
        -12    1    3    3    0    0  0.76474635127E+01 -0.22509879723E+02 -0.32984649255E+02  0.40659137593E+02  0.00000000000E+00 0.  1.
         11    1    4    4    0    0 -0.78136246522E+01  0.14468047339E+00 -0.24712690717E+01  0.81963915066E+01  0.51100000000E-03 0.  1.
        -11    1    4    4    0    0 -0.17100191319E+00  0.12068689805E+02  0.13685847981E+02  0.18247875232E+02  0.51100000000E-03 0. -1.
         12    1    4    4    0    0  0.33716305268E+00  0.10296509445E+02  0.21770070346E+02  0.24084595669E+02  0.00000000000E+00 0. -1.
</event>
<event>
 8    1  0.2031623E-013  0.9118800E+02  0.7816164E-02  0.1184000E+00
        -11   -1    0    0    0    0  0.00000000000E+00  0.00000000000E+00  0.45593999997E+02  0.45594000000E+02  0.51100000000E-03 0. -1.
         11   -1    0    0    0    0 -0.00000000000E+00 -0.00000000000E+00 -0.45593999997E+02  0.45594000000E+02  0.51100000000E-03 0.  1.
         23    2    1    2    0    0  0.17763568394E-14  0.44408920985E-15  0.00000000000E+00  0.91188000000E+02  0.91188000000E+02 0.  0.
    9900012    2    3    3    0    0 -0.13596518731E+02 -0.34150400411E+01 -0.38165923051E+02  0.50528862006E+02  0.30000006553E+02 0.  0.
         12    1    3    3    0    0  0.13596518731E+02  0.34150400411E+01  0.38165923051E+02  0.40659137994E+02  0.00000000000E+00 0. -1.
         11    1    4    4    0    0 -0.15288881426E+02 -0.13755892300E+02 -0.17758845672E+02  0.27172616144E+02  0.51100000000E-03 0. -1.
        -11    1    4    4    0    0 -0.94403433575E+00  0.58863101824E+01 -0.85984395207E+01  0.10462935097E+02  0.51100000000E-03 0.  1.
         12    1    4    4    0    0  0.26363970310E+01  0.44545420767E+01 -0.11808637858E+02  0.12893310765E+02  0.00000000000E+00 0. -1.
</event>
<event>
 8    1  0.2031623E-013  0.9118800E+02  0.7816164E-02  0.1184000E+00
        -11   -1    0    0    0    0  0.00000000000E+00  0.00000000000E+00  0.45593999997E+02  0.45594000000E+02  0.51100000000E-03 0. -1.
         11   -1    0    0    0    0 -0.00000000000E+00 -0.00000000000E+00 -0.45593999997E+02  0.45594000000E+02  0.51100000000E-03 0.  1.
         23    2    1    2    0    0  0.00000000000E+00  0.00000000000E+00  0.71054273576E-14  0.91188000000E+02  0.91188000000E+02 0.  0.
    9900012    2    3    3    0    0 -0.16659241638E+02 -0.88176477795E+01 -0.36026164271E+02  0.50528858882E+02  0.29999997059E+02 0.  0.
         12    1    3    3    0    0  0.16659241638E+02  0.88176477795E+01  0.36026164271E+02  0.40659141118E+02  0.00000000000E+00 0. -1.
         11    1    4    4    0    0 -0.49021227015E+00  0.46248916539E+01 -0.20777618132E+02  0.21291767104E+02  0.51100000000E-03 0. -1.
        -11    1    4    4    0    0 -0.16437429231E+02 -0.70096169980E+01 -0.81098672619E+01  0.19623805886E+02  0.51100000000E-03 0.  1.
        -12    1    4    4    0    0  0.26839986285E+00 -0.64329224354E+01 -0.71386788771E+01  0.96132858928E+01  0.00000000000E+00 0.  1.
</event>
<event>
 8    1  0.2031623E-013  0.9118800E+02  0.7816164E-02  0.1184000E+00
        -11   -1    0    0    0    0  0.00000000000E+00  0.00000000000E+00  0.45593999997E+02  0.45594000000E+02  0.51100000000E-03 0. -1.
         11   -1    0    0    0    0 -0.00000000000E+00 -0.00000000000E+00 -0.45593999997E+02  0.45594000000E+02  0.51100000000E-03 0.  1.
         23    2    1    2    0    0  0.00000000000E+00  0.35527136788E-14  0.88817841970E-15  0.91188000000E+02  0.91188000000E+02 0.  0.
    9900012    2    3    3    0    0  0.25946545730E+02  0.30446575012E+02 -0.72765660078E+01  0.50528861075E+02  0.30000003724E+02 0.  0.
         12    1    3    3    0    0 -0.25946545730E+02 -0.30446575012E+02  0.72765660078E+01  0.40659138925E+02  0.00000000000E+00 0. -1.
         11    1    4    4    0    0 -0.22840937972E+01  0.14276017318E+01  0.54147378856E+01  0.60476869802E+01  0.51100000000E-03 0. -1.
        -11    1    4    4    0    0  0.23729825737E+02  0.29755092923E+02 -0.11667676353E+02  0.39807095550E+02  0.51100000000E-03 0.  1.
        -12    1    4    4    0    0  0.45008137900E+01 -0.73611964350E+00 -0.10236275401E+01  0.46740785447E+01  0.00000000000E+00 0.  1.
</event>
<event>
 8    1  0.2031623E-013  0.9118800E+02  0.7816164E-02  0.1184000E+00
        -11   -1    0    0    0    0  0.00000000000E+00  0.00000000000E+00  0.45593999997E+02  0.45594000000E+02  0.51100000000E-03 0. -1.
         11   -1    0    0    0    0 -0.00000000000E+00 -0.00000000000E+00 -0.45593999997E+02  0.45594000000E+02  0.51100000000E-03 0.  1.
         23    2    1    2    0    0  0.00000000000E+00 -0.17763568394E-14  0.00000000000E+00  0.91188000000E+02  0.91188000000E+02 0.  0.
    9900012    2    3    3    0    0  0.79323891528E+01  0.96959675473E+01 -0.38681142808E+02  0.50528863348E+02  0.30000010632E+02 0.  0.
         12    1    3    3    0    0 -0.79323891528E+01 -0.96959675473E+01  0.38681142808E+02  0.40659136652E+02  0.00000000000E+00 0. -1.
         11    1    4    4    0    0  0.25189449693E+01 -0.44669735932E+01  0.31351341876E+01  0.60106574911E+01  0.51100000000E-03 0. -1.
        -11    1    4    4    0    0  0.19708800321E+01  0.42362030588E+01 -0.15251489997E+02  0.15951104408E+02  0.51100000000E-03 0.  1.
         12    1    4    4    0    0  0.34425641515E+01  0.99267380817E+01 -0.26564786999E+02  0.28567101448E+02  0.00000000000E+00 0. -1.
</event>
<event>
 8    1  0.2031623E-013  0.9118800E+02  0.7816164E-02  0.1184000E+00
        -11   -1    0    0    0    0  0.00000000000E+00  0.00000000000E+00  0.45593999997E+02  0.45594000000E+02  0.51100000000E-03 0. -1.
         11   -1    0    0    0    0 -0.00000000000E+00 -0.00000000000E+00 -0.45593999997E+02  0.45594000000E+02  0.51100000000E-03 0.  1.
         23    2    1    2    0    0  0.00000000000E+00 -0.35527136788E-14 -0.35527136788E-14  0.91188000000E+02  0.91188000000E+02 0.  0.
    9900012    2    3    3    0    0 -0.24263559510E+01  0.29217410396E+02  0.28171277867E+02  0.50528866093E+02  0.30000018975E+02 0.  0.
        -12    1    3    3    0    0  0.24263559510E+01 -0.29217410396E+02 -0.28171277867E+02  0.40659133907E+02  0.00000000000E+00 0.  1.
         11    1    4    4    0    0  0.41364515649E+01  0.18410729303E+02  0.16566619597E+02  0.25110118879E+02  0.51100000000E-03 0. -1.
        -11    1    4    4    0    0 -0.39424575397E+00 -0.26118200031E+01 -0.34397768304E+01  0.43369457395E+01  0.51100000000E-03 0.  1.
        -12    1    4    4    0    0 -0.61685617619E+01  0.13418501096E+02  0.15044435100E+02  0.21081801474E+02  0.00000000000E+00 0.  1.
</event>
<event>
 8    1  0.2031623E-013  0.9118800E+02  0.7816164E-02  0.1184000E+00
        -11   -1    0    0    0    0  0.00000000000E+00  0.00000000000E+00  0.45593999997E+02  0.45594000000E+02  0.51100000000E-03 0. -1.
         11   -1    0    0    0    0 -0.00000000000E+00 -0.00000000000E+00 -0.45593999997E+02  0.45594000000E+02  0.51100000000E-03 0.  1.
         23    2    1    2    0    0 -0.17763568394E-14 -0.27755575616E-14  0.71054273576E-14  0.91188000000E+02  0.91188000000E+02 0.  0.
    9900012    2    3    3    0    0  0.14665688311E+02 -0.49372163366E+00 -0.37918851387E+02  0.50528862464E+02  0.30000007946E+02 0.  0.
         12    1    3    3    0    0 -0.14665688311E+02  0.49372163366E+00  0.37918851387E+02  0.40659137536E+02  0.00000000000E+00 0. -1.
         11    1    4    4    0    0 -0.24415605870E+01  0.10907026249E+02 -0.10048660982E+02  0.15029970974E+02  0.51100000000E-03 0. -1.
        -11    1    4    4    0    0  0.13497442403E+02 -0.12295516368E+02 -0.22750627832E+02  0.29171077135E+02  0.51100000000E-03 0.  1.
        -12    1    4    4    0    0  0.36098064945E+01  0.89476848541E+00 -0.51195625726E+01  0.63278143545E+01  0.00000000000E+00 0.  1.
</event>
<event>
 8    1  0.2031623E-013  0.9118800E+02  0.7816164E-02  0.1184000E+00
        -11   -1    0    0    0    0  0.00000000000E+00  0.00000000000E+00  0.45593999997E+02  0.45594000000E+02  0.51100000000E-03 0. -1.
         11   -1    0    0    0    0 -0.00000000000E+00 -0.00000000000E+00 -0.45593999997E+02  0.45594000000E+02  0.51100000000E-03 0.  1.
         23    2    1    2    0    0 -0.44408920985E-15  0.00000000000E+00  0.00000000000E+00  0.91188000000E+02  0.91188000000E+02 0.  0.
    9900012    2    3    3    0    0 -0.29868424033E+01 -0.10671065438E+02  0.39119925838E+02  0.50528911684E+02  0.30000157553E+02 0.  0.
        -12    1    3    3    0    0  0.29868424033E+01  0.10671065438E+02 -0.39119925838E+02  0.40659088316E+02  0.00000000000E+00 0.  1.
         11    1    4    4    0    0 -0.87786352506E+01 -0.12524526826E+02  0.25601682899E+02  0.29822380465E+02  0.51100000000E-03 0. -1.
        -11    1    4    4    0    0  0.10204104105E+02  0.11068720408E+01  0.12394388536E+02  0.16092537828E+02  0.51100000000E-03 0.  1.
        -12    1    4    4    0    0 -0.44123112579E+01  0.74658934675E+00  0.11238544032E+01  0.46139933906E+01  0.00000000000E+00 0.  1.
</event>
<event>
 8    1  0.2031623E-013  0.9118800E+02  0.7816164E-02  0.1184000E+00
        -11   -1    0    0    0    0  0.00000000000E+00  0.00000000000E+00  0.45593999997E+02  0.45594000000E+02  0.51100000000E-03 0. -1.
         11   -1    0    0    0    0 -0.00000000000E+00 -0.00000000000E+00 -0.45593999997E+02  0.45594000000E+02  0.51100000000E-03 0.  1.
         23    2    1    2    0    0  0.00000000000E+00  0.00000000000E+00  0.00000000000E+00  0.91188000000E+02  0.91188000000E+02 0.  0.
    9900012    2    3    3    0    0 -0.46568339963E+01  0.27531397319E+02 -0.29555074080E+02  0.50528851643E+02  0.29999975055E+02 0.  0.
         12    1    3    3    0    0  0.46568339963E+01 -0.27531397319E+02  0.29555074080E+02  0.40659148357E+02  0.00000000000E+00 0. -1.
         11    1    4    4    0    0 -0.15564776160E+01  0.23315964688E+02 -0.23071390815E+02  0.32838177573E+02  0.51100000000E-03 0.  1.
        -11    1    4    4    0    0  0.32898616433E+01 -0.13234586685E+01  0.32405014081E+01  0.48037050405E+01  0.51100000000E-03 0. -1.
         12    1    4    4    0    0 -0.63902180236E+01  0.55388912993E+01 -0.97241846735E+01  0.12886969030E+02  0.00000000000E+00 0. -1.
</event>
<event>
 8    1  0.2031623E-013  0.9118800E+02  0.7816164E-02  0.1184000E+00
        -11   -1    0    0    0    0  0.00000000000E+00  0.00000000000E+00  0.45593999997E+02  0.45594000000E+02  0.51100000000E-03 0. -1.
         11   -1    0    0    0    0 -0.00000000000E+00 -0.00000000000E+00 -0.45593999997E+02  0.45594000000E+02  0.51100000000E-03 0.  1.
         23    2    1    2    0    0  0.88817841970E-15  0.00000000000E+00  0.00000000000E+00  0.91188000000E+02  0.91188000000E+02 0.  0.
    9900012    2    3    3    0    0  0.63372703731E+01 -0.59683706353E+01 -0.39716352890E+02  0.50528792793E+02  0.29999796174E+02 0.  0.
         12    1    3    3    0    0 -0.63372703731E+01  0.59683706353E+01  0.39716352890E+02  0.40659207207E+02  0.00000000000E+00 0. -1.
         11    1    4    4    0    0 -0.72074671449E+01 -0.14954093820E+01 -0.39327594749E+01  0.83456832681E+01  0.51100000000E-03 0.  1.
        -11    1    4    4    0    0  0.13671610355E+02 -0.57230797607E+01 -0.14079183790E+02  0.20442357694E+02  0.51100000000E-03 0. -1.
        -12    1    4    4    0    0 -0.12687283727E+00  0.12501185073E+01 -0.21704409625E+02  0.21740751831E+02  0.00000000000E+00 0.  1.
</event>
<event>
 8    1  0.2031623E-013  0.9118800E+02  0.7816164E-02  0.1184000E+00
        -11   -1    0    0    0    0  0.00000000000E+00  0.00000000000E+00  0.45593999997E+02  0.45594000000E+02  0.51100000000E-03 0. -1.
         11   -1    0    0    0    0 -0.00000000000E+00 -0.00000000000E+00 -0.45593999997E+02  0.45594000000E+02  0.51100000000E-03 0.  1.
         23    2    1    2    0    0  0.00000000000E+00  0.00000000000E+00  0.00000000000E+00  0.91188000000E+02  0.91188000000E+02 0.  0.
    9900012    2    3    3    0    0  0.34173824043E+02  0.10144131974E+02 -0.19555351729E+02  0.50528862718E+02  0.30000008719E+02 0.  0.
         12    1    3    3    0    0 -0.34173824043E+02 -0.10144131974E+02  0.19555351729E+02  0.40659137282E+02  0.00000000000E+00 0. -1.
         11    1    4    4    0    0  0.11159517793E+02  0.12338677541E+02 -0.14834921385E+02  0.22290192767E+02  0.51100000000E-03 0. -1.
        -11    1    4    4    0    0  0.14148702659E+02 -0.42155206646E+01 -0.98985414036E+01  0.17774631461E+02  0.51100000000E-03 0.  1.
         12    1    4    4    0    0  0.88656035913E+01  0.20209750976E+01  0.51781110591E+01  0.10464038490E+02  0.00000000000E+00 0. -1.
</event>
<event>
 8    1  0.2031623E-013  0.9118800E+02  0.7816164E-02  0.1184000E+00
        -11   -1    0    0    0    0  0.00000000000E+00  0.00000000000E+00  0.45593999997E+02  0.45594000000E+02  0.51100000000E-03 0. -1.
         11   -1    0    0    0    0 -0.00000000000E+00 -0.00000000000E+00 -0.45593999997E+02  0.45594000000E+02  0.51100000000E-03 0.  1.
         23    2    1    2    0    0 -0.35527136788E-14  0.00000000000E+00  0.71054273576E-14  0.91188000000E+02  0.91188000000E+02 0.  0.
    9900012    2    3    3    0    0  0.20517575206E+02  0.29144843061E+01 -0.34981460182E+02  0.50528835380E+02  0.29999925622E+02 0.  0.
         12    1    3    3    0    0 -0.20517575206E+02 -0.29144843061E+01  0.34981460182E+02  0.40659164620E+02  0.00000000000E+00 0. -1.
         11    1    4    4    0    0  0.72200555078E+01  0.12679993056E+01 -0.42425630342E+01  0.84697322942E+01  0.51100000000E-03 0. -1.
        -11    1    4    4    0    0  0.67724279687E+01  0.44983474119E+01 -0.33461679066E+02  0.34435227256E+02  0.51100000000E-03 0.  1.
        -12    1    4    4    0    0  0.65250917296E+01 -0.28518624114E+01  0.27227819180E+01  0.76238758297E+01  0.00000000000E+00 0.  1.
</event>
<event>
 8    1  0.2031623E-013  0.9118800E+02  0.7816164E-02  0.1184000E+00
        -11   -1    0    0    0    0  0.00000000000E+00  0.00000000000E+00  0.45593999997E+02  0.45594000000E+02  0.51100000000E-03 0. -1.
         11   -1    0    0    0    0 -0.00000000000E+00 -0.00000000000E+00 -0.45593999997E+02  0.45594000000E+02  0.51100000000E-03 0.  1.
         23    2    1    2    0    0  0.35527136788E-14  0.35527136788E-14  0.00000000000E+00  0.91188000000E+02  0.91188000000E+02 0.  0.
    9900012    2    3    3    0    0 -0.16760981592E+02 -0.30691578260E+02  0.20742763328E+02  0.50528859447E+02  0.29999998776E+02 0.  0.
        -12    1    3    3    0    0  0.16760981592E+02  0.30691578260E+02 -0.20742763328E+02  0.40659140553E+02  0.00000000000E+00 0.  1.
         11    1    4    4    0    0 -0.91580935664E+01 -0.35023846956E+01  0.32438477395E+01  0.10327629193E+02  0.51100000000E-03 0. -1.
        -11    1    4    4    0    0 -0.32167771244E+00 -0.26031310832E+02  0.62857436845E+01  0.26781396418E+02  0.51100000000E-03 0.  1.
        -12    1    4    4    0    0 -0.72812103126E+01 -0.11578827323E+01  0.11213171904E+02  0.13419833836E+02  0.00000000000E+00 0.  1.
</event>
<event>
 8    1  0.2031623E-013  0.9118800E+02  0.7816164E-02  0.1184000E+00
        -11   -1    0    0    0    0  0.00000000000E+00  0.00000000000E+00  0.45593999997E+02  0.45594000000E+02  0.51100000000E-03 0. -1.
         11   -1    0    0    0    0 -0.00000000000E+00 -0.00000000000E+00 -0.45593999997E+02  0.45594000000E+02  0.51100000000E-03 0.  1.
         23    2    1    2    0    0  0.00000000000E+00  0.00000000000E+00  0.00000000000E+00  0.91188000000E+02  0.91188000000E+02 0.  0.
    9900012    2    3    3    0    0  0.22061221627E+02 -0.18681982667E+02  0.28591114373E+02  0.50528858382E+02  0.29999995537E+02 0.  0.
        -12    1    3    3    0    0 -0.22061221627E+02  0.18681982667E+02 -0.28591114373E+02  0.40659141618E+02  0.00000000000E+00 0.  1.
         11    1    4    4    0    0  0.11922912426E+02 -0.14717140292E+02  0.22572416348E+02  0.29466320421E+02  0.51100000000E-03 0. -1.
        -11    1    4    4    0    0  0.46785854872E+01  0.63792598057E+01  0.49162392054E+01  0.93141572896E+01  0.51100000000E-03 0.  1.
         12    1    4    4    0    0  0.54597237138E+01 -0.10344102180E+02  0.11024588202E+01  0.11748380671E+02  0.00000000000E+00 0. -1.
</event>
<event>
 8    1  0.2031623E-013  0.9118800E+02  0.7816164E-02  0.1184000E+00
        -11   -1    0    0    0    0  0.00000000000E+00  0.00000000000E+00  0.45593999997E+02  0.45594000000E+02  0.51100000000E-03 0. -1.
         11   -1    0    0    0    0 -0.00000000000E+00 -0.00000000000E+00 -0.45593999997E+02  0.45594000000E+02  0.51100000000E-03 0.  1.
         23    2    1    2    0    0  0.00000000000E+00  0.17763568394E-14  0.35527136788E-14  0.91188000000E+02  0.91188000000E+02 0.  0.
    9900012    2    3    3    0    0 -0.31403586756E+02  0.74376271929E+01  0.24731775673E+02  0.50528876948E+02  0.30000051972E+02 0.  0.
        -12    1    3    3    0    0  0.31403586756E+02 -0.74376271929E+01 -0.24731775673E+02  0.40659123052E+02  0.00000000000E+00 0.  1.
         11    1    4    4    0    0 -0.23800751098E+02  0.12285815556E+02  0.15016525817E+02  0.30706889529E+02  0.51100000000E-03 0. -1.
        -11    1    4    4    0    0 -0.34348987606E+01 -0.88399738866E+01  0.10323956496E+02  0.14018835394E+02  0.51100000000E-03 0.  1.
        -12    1    4    4    0    0 -0.41679368978E+01  0.39917855235E+01 -0.60870664085E+00  0.58031520249E+01  0.00000000000E+00 0.  1.
</event>
<event>
 8    1  0.2031623E-013  0.9118800E+02  0.7816164E-02  0.1184000E+00
        -11   -1    0    0    0    0  0.00000000000E+00  0.00000000000E+00  0.45593999997E+02  0.45594000000E+02  0.51100000000E-03 0. -1.
         11   -1    0    0    0    0 -0.00000000000E+00 -0.00000000000E+00 -0.45593999997E+02  0.45594000000E+02  0.51100000000E-03 0.  1.
         23    2    1    2    0    0  0.00000000000E+00 -0.17763568394E-14  0.00000000000E+00  0.91188000000E+02  0.91188000000E+02 0.  0.
    9900012    2    3    3    0    0 -0.18738636847E+02 -0.84271086543E+01  0.35085765663E+02  0.50528885114E+02  0.30000076791E+02 0.  0.
        -12    1    3    3    0    0  0.18738636847E+02  0.84271086543E+01 -0.35085765663E+02  0.40659114886E+02  0.00000000000E+00 0.  1.
         11    1    4    4    0    0 -0.22517866148E+01  0.38322289628E+01  0.15639559251E+02  0.16258915573E+02  0.51100000000E-03 0. -1.
        -11    1    4    4    0    0 -0.71181954876E+01  0.13490291476E+01 -0.16933197499E+01  0.74401558234E+01  0.51100000000E-03 0.  1.
        -12    1    4    4    0    0 -0.93686547449E+01 -0.13608366765E+02  0.21139526162E+02  0.26829813717E+02  0.00000000000E+00 0.  1.
</event>
<event>
 8    1  0.2031623E-013  0.9118800E+02  0.7816164E-02  0.1184000E+00
        -11   -1    0    0    0    0  0.00000000000E+00  0.00000000000E+00  0.45593999997E+02  0.45594000000E+02  0.51100000000E-03 0. -1.
         11   -1    0    0    0    0 -0.00000000000E+00 -0.00000000000E+00 -0.45593999997E+02  0.45594000000E+02  0.51100000000E-03 0.  1.
         23    2    1    2    0    0  0.71054273576E-14 -0.35527136788E-14  0.35527136788E-14  0.91188000000E+02  0.91188000000E+02 0.  0.
    9900012    2    3    3    0    0  0.27138513794E+02 -0.12685051575E+02  0.27490979653E+02  0.50528887532E+02  0.30000084142E+02 0.  0.
        -12    1    3    3    0    0 -0.27138513794E+02  0.12685051575E+02 -0.27490979653E+02  0.40659112468E+02  0.00000000000E+00 0.  1.
         11    1    4    4    0    0  0.27304367054E+01  0.70958932155E+00  0.86041210949E+01  0.90548164909E+01  0.51100000000E-03 0. -1.
        -11    1    4    4    0    0  0.29361564079E+02 -0.10551221412E+02  0.15567380269E+02  0.34867937237E+02  0.51100000000E-03 0.  1.
        -12    1    4    4    0    0 -0.49534869902E+01 -0.28434194845E+01  0.33194782891E+01  0.66061338042E+01  0.00000000000E+00 0.  1.
</event>
<event>
 8    1  0.2031623E-013  0.9118800E+02  0.7816164E-02  0.1184000E+00
        -11   -1    0    0    0    0  0.00000000000E+00  0.00000000000E+00  0.45593999997E+02  0.45594000000E+02  0.51100000000E-03 0. -1.
         11   -1    0    0    0    0 -0.00000000000E+00 -0.00000000000E+00 -0.45593999997E+02  0.45594000000E+02  0.51100000000E-03 0.  1.
         23    2    1    2    0    0  0.00000000000E+00  0.00000000000E+00 -0.35527136788E-14  0.91188000000E+02  0.91188000000E+02 0.  0.
    9900012    2    3    3    0    0 -0.14947436933E+02 -0.27774078599E+02  0.25658134869E+02  0.50528865752E+02  0.30000017938E+02 0.  0.
        -12    1    3    3    0    0  0.14947436933E+02  0.27774078599E+02 -0.25658134869E+02  0.40659134248E+02  0.00000000000E+00 0.  1.
         11    1    4    4    0    0 -0.28689470194E+01  0.31646516663E+01  0.15823435326E+01  0.45551825962E+01  0.51100000000E-03 0.  1.
        -11    1    4    4    0    0 -0.17410369622E+02 -0.27982580230E+02  0.21535544285E+02  0.39369092377E+02  0.51100000000E-03 0. -1.
        -12    1    4    4    0    0  0.53318797089E+01 -0.29561500351E+01  0.25402470520E+01  0.66045907780E+01  0.00000000000E+00 0.  1.
</event>
<event>
 8    1 -0.2031623E-013  0.9118800E+02  0.7816164E-02  0.1184000E+00
        -11   -1    0    0    0    0  0.00000000000E+00  0.00000000000E+00  0.45593999997E+02  0.45594000000E+02  0.51100000000E-03 0. -1.
         11   -1    0    0    0    0 -0.00000000000E+00 -0.00000000000E+00 -0.45593999997E+02  0.45594000000E+02  0.51100000000E-03 0.  1.
         23    2    1    2    0    0  0.00000000000E+00  0.00000000000E+00  0.00000000000E+00  0.91188000000E+02  0.91188000000E+02 0.  0.
    9900012    2    3    3    0    0 -0.65604379681E+01 -0.23469204251E+02  0.32547256517E+02  0.50528846033E+02  0.29999958002E+02 0.  0.
        -12    1    3    3    0    0  0.65604379681E+01  0.23469204251E+02 -0.32547256517E+02  0.40659153967E+02  0.00000000000E+00 0.  1.
         11    1    4    4    0    0 -0.67651707166E+00 -0.28269142830E+01 -0.16094398619E+00  0.29111892655E+01  0.51100000000E-03 0. -1.
        -11    1    4    4    0    0  0.10785400433E+02 -0.64049725912E+01  0.14006035106E+02  0.18802062547E+02  0.51100000000E-03 0.  1.
        -12    1    4    4    0    0 -0.16669321330E+02 -0.14237317377E+02  0.18702165398E+02  0.28815594220E+02  0.00000000000E+00 0.  1.
</event>
<event>
 8    1  0.2031623E-013  0.9118800E+02  0.7816164E-02  0.1184000E+00
        -11   -1    0    0    0    0  0.00000000000E+00  0.00000000000E+00  0.45593999997E+02  0.45594000000E+02  0.51100000000E-03 0.  1.
         11   -1    0    0    0    0 -0.00000000000E+00 -0.00000000000E+00 -0.45593999997E+02  0.45594000000E+02  0.51100000000E-03 0. -1.
         23    2    1    2    0    0 -0.35527136788E-14  0.00000000000E+00  0.35527136788E-14  0.91188000000E+02  0.91188000000E+02 0.  0.
    9900012    2    3    3    0    0 -0.30232625146E+02 -0.17567725962E+02 -0.20749196552E+02  0.50528858639E+02  0.29999996319E+02 0.  0.
         12    1    3    3    0    0  0.30232625146E+02  0.17567725962E+02  0.20749196552E+02  0.40659141361E+02  0.00000000000E+00 0. -1.
         11    1    4    4    0    0 -0.42551030625E+01 -0.53213819318E+00  0.60754932546E+01  0.74364434831E+01  0.51100000000E-03 0. -1.
        -11    1    4    4    0    0 -0.27211490421E+02 -0.17557310941E+02 -0.25678436858E+02  0.41329245071E+02  0.51100000000E-03 0.  1.
        -12    1    4    4    0    0  0.12339683377E+01  0.52172317213E+00 -0.11462529485E+01  0.17631700851E+01  0.00000000000E+00 0.  1.
</event>
<event>
 8    1  0.2031623E-013  0.9118800E+02  0.7816164E-02  0.1184000E+00
        -11   -1    0    0    0    0  0.00000000000E+00  0.00000000000E+00  0.45593999997E+02  0.45594000000E+02  0.51100000000E-03 0. -1.
         11   -1    0    0    0    0 -0.00000000000E+00 -0.00000000000E+00 -0.45593999997E+02  0.45594000000E+02  0.51100000000E-03 0.  1.
         23    2    1    2    0    0 -0.35527136788E-14  0.00000000000E+00  0.35527136788E-14  0.91188000000E+02  0.91188000000E+02 0.  0.
    9900012    2    3    3    0    0 -0.27349122735E+02  0.47345914229E+01  0.29711531490E+02  0.50528856209E+02  0.29999988933E+02 0.  0.
        -12    1    3    3    0    0  0.27349122735E+02 -0.47345914229E+01 -0.29711531490E+02  0.40659143791E+02  0.00000000000E+00 0.  1.
         11    1    4    4    0    0 -0.66861754588E+01 -0.50147586202E+00  0.14032907559E+02  0.15552456884E+02  0.51100000000E-03 0. -1.
        -11    1    4    4    0    0 -0.43934535681E+01  0.71911520882E+01 -0.40335798865E+01  0.93426371851E+01  0.51100000000E-03 0.  1.
        -12    1    4    4    0    0 -0.16269493708E+02 -0.19550848032E+01  0.19712203818E+02  0.25633762140E+02  0.00000000000E+00 0.  1.
</event>
<event>
 8    1  0.2031623E-013  0.9118800E+02  0.7816164E-02  0.1184000E+00
        -11   -1    0    0    0    0  0.00000000000E+00  0.00000000000E+00  0.45593999997E+02  0.45594000000E+02  0.51100000000E-03 0. -1.
         11   -1    0    0    0    0 -0.00000000000E+00 -0.00000000000E+00 -0.45593999997E+02  0.45594000000E+02  0.51100000000E-03 0.  1.
         23    2    1    2    0    0 -0.35527136788E-14  0.35527136788E-14  0.00000000000E+00  0.91188000000E+02  0.91188000000E+02 0.  0.
    9900012    2    3    3    0    0 -0.21762864696E+02  0.31826558999E+02 -0.12907894144E+02  0.50528857502E+02  0.29999992862E+02 0.  0.
         12    1    3    3    0    0  0.21762864696E+02 -0.31826558999E+02  0.12907894144E+02  0.40659142498E+02  0.00000000000E+00 0. -1.
         11    1    4    4    0    0 -0.13145472062E+02  0.20118116761E+02  0.22342651783E+01  0.24135741109E+02  0.51100000000E-03 0. -1.
        -11    1    4    4    0    0 -0.44252225102E+01 -0.35096396130E+01 -0.25318252925E+01  0.61895318119E+01  0.51100000000E-03 0.  1.
        -12    1    4    4    0    0 -0.41921701235E+01  0.15218081851E+02 -0.12610334030E+02  0.20203584580E+02  0.00000000000E+00 0.  1.
</event>
<event>
 8    1  0.2340965E-013  0.9118800E+02  0.7816164E-02  0.1184000E+00
        -11   -1    0    0    0    0  0.00000000000E+00  0.00000000000E+00  0.45593999997E+02  0.45594000000E+02  0.51100000000E-03 0. -1.
         11   -1    0    0    0    0 -0.00000000000E+00 -0.00000000000E+00 -0.45593999997E+02  0.45594000000E+02  0.51100000000E-03 0.  1.
         23    2    1    2    0    0  0.00000000000E+00 -0.44408920985E-15  0.00000000000E+00  0.91188000000E+02  0.91188000000E+02 0.  0.
    9900012    2    3    3    0    0 -0.12485457783E+02 -0.35838977454E+01 -0.38528352165E+02  0.50528869418E+02  0.30000029084E+02 0.  0.
         12    1    3    3    0    0  0.12485457783E+02  0.35838977454E+01  0.38528352165E+02  0.40659130582E+02  0.00000000000E+00 0. -1.
         11    1    4    4    0    0 -0.40711505113E+01  0.40696652371E+01  0.16396050784E+01  0.59853777410E+01  0.51100000000E-03 0.  1.
        -11    1    4    4    0    0 -0.91249781643E+01 -0.36411735988E+01 -0.39121709647E+02  0.40336478994E+02  0.51100000000E-03 0. -1.
         12    1    4    4    0    0  0.71067089267E+00 -0.40123893838E+01 -0.10462475962E+01  0.42070126833E+01  0.00000000000E+00 0. -1.
</event>
<event>
 8    1  0.2031623E-013  0.9118800E+02  0.7816164E-02  0.1184000E+00
        -11   -1    0    0    0    0  0.00000000000E+00  0.00000000000E+00  0.45593999997E+02  0.45594000000E+02  0.51100000000E-03 0. -1.
         11   -1    0    0    0    0 -0.00000000000E+00 -0.00000000000E+00 -0.45593999997E+02  0.45594000000E+02  0.51100000000E-03 0.  1.
         23    2    1    2    0    0 -0.17763568394E-14  0.00000000000E+00  0.00000000000E+00  0.91188000000E+02  0.91188000000E+02 0.  0.
    9900012    2    3    3    0    0 -0.76466834310E+01 -0.63137397341E+01 -0.39431341369E+02  0.50528858850E+02  0.29999996959E+02 0.  0.
         12    1    3    3    0    0  0.76466834310E+01  0.63137397341E+01  0.39431341369E+02  0.40659141150E+02  0.00000000000E+00 0. -1.
         11    1    4    4    0    0 -0.60783954464E+01 -0.56698989156E+01  0.21369344830E+01  0.85826064900E+01  0.51100000000E-03 0. -1.
        -11    1    4    4    0    0 -0.31658119141E+01  0.96782529290E+00 -0.27024158286E+02  0.27226167233E+02  0.51100000000E-03 0.  1.
         12    1    4    4    0    0  0.15975239295E+01 -0.16116661114E+01 -0.14544117566E+02  0.14720085127E+02  0.00000000000E+00 0. -1.
</event>
<event>
 8    1  0.2031623E-013  0.9118800E+02  0.7816164E-02  0.1184000E+00
        -11   -1    0    0    0    0  0.00000000000E+00  0.00000000000E+00  0.45593999997E+02  0.45594000000E+02  0.51100000000E-03 0. -1.
         11   -1    0    0    0    0 -0.00000000000E+00 -0.00000000000E+00 -0.45593999997E+02  0.45594000000E+02  0.51100000000E-03 0.  1.
         23    2    1    2    0    0  0.88817841970E-15  0.00000000000E+00  0.00000000000E+00  0.91188000000E+02  0.91188000000E+02 0.  0.
    9900012    2    3    3    0    0  0.16989017832E+01 -0.95603113729E+01  0.39482652996E+02  0.50528859473E+02  0.29999998855E+02 0.  0.
        -12    1    3    3    0    0 -0.16989017832E+01  0.95603113729E+01 -0.39482652996E+02  0.40659140527E+02  0.00000000000E+00 0.  1.
         11    1    4    4    0    0  0.13673433747E+02  0.13052743344E+01  0.12605538340E+02  0.18643125506E+02  0.51100000000E-03 0. -1.
        -11    1    4    4    0    0 -0.69119643620E+01 -0.24493950669E+01  0.11306886634E+02  0.13476664022E+02  0.51100000000E-03 0.  1.
        -12    1    4    4    0    0 -0.50625676020E+01 -0.84161906404E+01  0.15570228022E+02  0.18409069946E+02  0.00000000000E+00 0.  1.
</event>
<event>
 8    1  0.2031623E-013  0.9118800E+02  0.7816164E-02  0.1184000E+00
        -11   -1    0    0    0    0  0.00000000000E+00  0.00000000000E+00  0.45593999997E+02  0.45594000000E+02  0.51100000000E-03 0. -1.
         11   -1    0    0    0    0 -0.00000000000E+00 -0.00000000000E+00 -0.45593999997E+02  0.45594000000E+02  0.51100000000E-03 0.  1.
         23    2    1    2    0    0  0.00000000000E+00 -0.13322676296E-14  0.00000000000E+00  0.91188000000E+02  0.91188000000E+02 0.  0.
    9900012    2    3    3    0    0  0.32535804391E+02  0.11009561783E+01 -0.24359276876E+02  0.50528867670E+02  0.30000023771E+02 0.  0.
         12    1    3    3    0    0 -0.32535804391E+02 -0.11009561783E+01  0.24359276876E+02  0.40659132330E+02  0.00000000000E+00 0. -1.
         11    1    4    4    0    0 -0.60247032591E+00 -0.44666244238E+01 -0.57102911925E+01  0.72746910588E+01  0.51100000000E-03 0. -1.
        -11    1    4    4    0    0  0.23362253266E+02  0.11794029197E+02 -0.17764017830E+02  0.31629959407E+02  0.51100000000E-03 0.  1.
        -12    1    4    4    0    0  0.97760214511E+01 -0.62264485947E+01 -0.88496785288E+00  0.11624217204E+02  0.00000000000E+00 0.  1.
</event>
<event>
 8    1  0.2031623E-013  0.9118800E+02  0.7816164E-02  0.1184000E+00
        -11   -1    0    0    0    0  0.00000000000E+00  0.00000000000E+00  0.45593999997E+02  0.45594000000E+02  0.51100000000E-03 0. -1.
         11   -1    0    0    0    0 -0.00000000000E+00 -0.00000000000E+00 -0.45593999997E+02  0.45594000000E+02  0.51100000000E-03 0.  1.
         23    2    1    2    0    0  0.17763568394E-14  0.00000000000E+00  0.00000000000E+00  0.91188000000E+02  0.91188000000E+02 0.  0.
    9900012    2    3    3    0    0  0.13626571341E+02  0.33365331056E+02 -0.18821163144E+02  0.50528868860E+02  0.30000027388E+02 0.  0.
         12    1    3    3    0    0 -0.13626571341E+02 -0.33365331056E+02  0.18821163144E+02  0.40659131140E+02  0.00000000000E+00 0. -1.
         11    1    4    4    0    0  0.10130313654E+02 -0.21093844012E+01 -0.74025108309E+01  0.12722811173E+02  0.51100000000E-03 0. -1.
        -11    1    4    4    0    0  0.44385300306E+01  0.20658862201E+02 -0.55912991972E+01  0.21857533329E+02  0.51100000000E-03 0.  1.
         12    1    4    4    0    0 -0.94227234386E+00  0.14815853256E+02 -0.58273531157E+01  0.15948524358E+02  0.00000000000E+00 0. -1.
</event>
<event>
 8    1  0.2031623E-013  0.9118800E+02  0.7816164E-02  0.1184000E+00
        -11   -1    0    0    0    0  0.00000000000E+00  0.00000000000E+00  0.45593999997E+02  0.45594000000E+02  0.51100000000E-03 0.  1.
         11   -1    0    0    0    0 -0.00000000000E+00 -0.00000000000E+00 -0.45593999997E+02  0.45594000000E+02  0.51100000000E-03 0. -1.
         23    2    1    2    0    0  0.00000000000E+00  0.00000000000E+00  0.00000000000E+00  0.91188000000E+02  0.91188000000E+02 0.  0.
    9900012    2    3    3    0    0  0.38600994965E+02  0.12086541274E+02  0.41285358594E+01  0.50528854649E+02  0.29999984192E+02 0.  0.
        -12    1    3    3    0    0 -0.38600994965E+02 -0.12086541274E+02 -0.41285358594E+01  0.40659145351E+02  0.00000000000E+00 0.  1.
         11    1    4    4    0    0  0.31487001789E+02  0.13289031555E+02  0.26712643889E+01  0.34280683993E+02  0.51100000000E-03 0. -1.
        -11    1    4    4    0    0  0.55416472519E+01 -0.64534025548E+01  0.48598646810E+01  0.97966598276E+01  0.51100000000E-03 0.  1.
         12    1    4    4    0    0  0.15723459242E+01  0.52509122739E+01 -0.34025932106E+01  0.64515108285E+01  0.00000000000E+00 0. -1.
</event>
<event>
 8    1  0.2031623E-013  0.9118800E+02  0.7816164E-02  0.1184000E+00
        -11   -1    0    0    0    0  0.00000000000E+00  0.00000000000E+00  0.45593999997E+02  0.45594000000E+02  0.51100000000E-03 0. -1.
         11   -1    0    0    0    0 -0.00000000000E+00 -0.00000000000E+00 -0.45593999997E+02  0.45594000000E+02  0.51100000000E-03 0.  1.
         23    2    1    2    0    0  0.00000000000E+00  0.00000000000E+00  0.00000000000E+00  0.91188000000E+02  0.91188000000E+02 0.  0.
    9900012    2    3    3    0    0  0.13204970288E+02 -0.18596730295E+02  0.33659423176E+02  0.50528851134E+02  0.29999973506E+02 0.  0.
        -12    1    3    3    0    0 -0.13204970288E+02  0.18596730295E+02 -0.33659423176E+02  0.40659148866E+02  0.00000000000E+00 0.  1.
         11    1    4    4    0    0 -0.15495551784E+01  0.32315494765E+01  0.15494001136E+02  0.15903084755E+02  0.51100000000E-03 0. -1.
        -11    1    4    4    0    0  0.57903544224E+01 -0.15869341400E+02  0.49940573259E+01  0.17615470747E+02  0.51100000000E-03 0.  1.
        -12    1    4    4    0    0  0.89641710438E+01 -0.59589383713E+01  0.13171364715E+02  0.17010295631E+02  0.00000000000E+00 0.  1.
</event>
<event>
 8    1  0.2031623E-013  0.9118800E+02  0.7816164E-02  0.1184000E+00
        -11   -1    0    0    0    0  0.00000000000E+00  0.00000000000E+00  0.45593999997E+02  0.45594000000E+02  0.51100000000E-03 0. -1.
         11   -1    0    0    0    0 -0.00000000000E+00 -0.00000000000E+00 -0.45593999997E+02  0.45594000000E+02  0.51100000000E-03 0.  1.
         23    2    1    2    0    0  0.00000000000E+00  0.11102230246E-15 -0.35527136788E-14  0.91188000000E+02  0.91188000000E+02 0.  0.
    9900012    2    3    3    0    0  0.32329449220E+02 -0.73565479031E+00  0.24646113558E+02  0.50528863408E+02  0.30000010815E+02 0.  0.
        -12    1    3    3    0    0 -0.32329449220E+02  0.73565479031E+00 -0.24646113558E+02  0.40659136592E+02  0.00000000000E+00 0.  1.
         11    1    4    4    0    0 -0.51497503477E+01  0.31538577252E+01  0.34419474312E+01  0.69508092748E+01  0.51100000000E-03 0.  1.
        -11    1    4    4    0    0  0.25035475523E+02 -0.50615619930E+01  0.13411259066E+02  0.28848852914E+02  0.51100000000E-03 0. -1.
         12    1    4    4    0    0  0.12443724045E+02  0.11720494775E+01  0.77929070617E+01  0.14729201220E+02  0.00000000000E+00 0. -1.
</event>
<event>
 8    1  0.2031623E-013  0.9118800E+02  0.7816164E-02  0.1184000E+00
        -11   -1    0    0    0    0  0.00000000000E+00  0.00000000000E+00  0.45593999997E+02  0.45594000000E+02  0.51100000000E-03 0.  1.
         11   -1    0    0    0    0 -0.00000000000E+00 -0.00000000000E+00 -0.45593999997E+02  0.45594000000E+02  0.51100000000E-03 0. -1.
         23    2    1    2    0    0  0.00000000000E+00 -0.35527136788E-14  0.00000000000E+00  0.91188000000E+02  0.91188000000E+02 0.  0.
    9900012    2    3    3    0    0 -0.93814301593E+01  0.29382349454E+02 -0.26492146058E+02  0.50528837514E+02  0.29999932108E+02 0.  0.
         12    1    3    3    0    0  0.93814301593E+01 -0.29382349454E+02  0.26492146058E+02  0.40659162486E+02  0.00000000000E+00 0. -1.
         11    1    4    4    0    0 -0.37415878141E+01 -0.25165524167E+01  0.16063056945E+01  0.47867247343E+01  0.51100000000E-03 0. -1.
        -11    1    4    4    0    0 -0.66287884736E+01  0.33400955222E+02 -0.25327562588E+02  0.42438780299E+02  0.51100000000E-03 0.  1.
         12    1    4    4    0    0  0.98894612837E+00 -0.15020533513E+01 -0.27708891645E+01  0.33033324806E+01  0.00000000000E+00 0. -1.
</event>
<event>
 8    1  0.2031623E-013  0.9118800E+02  0.7816164E-02  0.1184000E+00
        -11   -1    0    0    0    0  0.00000000000E+00  0.00000000000E+00  0.45593999997E+02  0.45594000000E+02  0.51100000000E-03 0. -1.
         11   -1    0    0    0    0 -0.00000000000E+00 -0.00000000000E+00 -0.45593999997E+02  0.45594000000E+02  0.51100000000E-03 0.  1.
         23    2    1    2    0    0 -0.35527136788E-14  0.88817841970E-15  0.00000000000E+00  0.91188000000E+02  0.91188000000E+02 0.  0.
    9900012    2    3    3    0    0 -0.18045410694E+02  0.45463303891E+01  0.36150515481E+02  0.50528859126E+02  0.29999997799E+02 0.  0.
        -12    1    3    3    0    0  0.18045410694E+02 -0.45463303891E+01 -0.36150515481E+02  0.40659140874E+02  0.00000000000E+00 0.  1.
         11    1    4    4    0    0 -0.43192857161E+01 -0.99555312436E+01  0.12584378685E+02  0.16617322847E+02  0.51100000000E-03 0. -1.
        -11    1    4    4    0    0 -0.25808018778E+01  0.91095395857E+01  0.17996662015E+02  0.20335291828E+02  0.51100000000E-03 0.  1.
        -12    1    4    4    0    0 -0.11145323100E+02  0.53923220471E+01  0.55694747801E+01  0.13576244451E+02  0.00000000000E+00 0.  1.
</event>
<event>
 8    1  0.2031623E-013  0.9118800E+02  0.7816164E-02  0.1184000E+00
        -11   -1    0    0    0    0  0.00000000000E+00  0.00000000000E+00  0.45593999997E+02  0.45594000000E+02  0.51100000000E-03 0. -1.
         11   -1    0    0    0    0 -0.00000000000E+00 -0.00000000000E+00 -0.45593999997E+02  0.45594000000E+02  0.51100000000E-03 0.  1.
         23    2    1    2    0    0  0.00000000000E+00  0.00000000000E+00  0.00000000000E+00  0.91188000000E+02  0.91188000000E+02 0.  0.
    9900012    2    3    3    0    0 -0.11833327075E+02 -0.11310817703E+02  0.37218318342E+02  0.50528862688E+02  0.30000008625E+02 0.  0.
        -12    1    3    3    0    0  0.11833327075E+02  0.11310817703E+02 -0.37218318342E+02  0.40659137312E+02  0.00000000000E+00 0.  1.
         11    1    4    4    0    0  0.60403631518E+01 -0.10728251478E+02  0.20183159637E+02  0.23641939429E+02  0.51100000000E-03 0. -1.
        -11    1    4    4    0    0 -0.80838715518E+01 -0.24159913985E+01  0.17087109085E+01  0.86084660035E+01  0.51100000000E-03 0.  1.
         12    1    4    4    0    0 -0.97898186746E+01  0.18334251738E+01  0.15326447797E+02  0.18278457255E+02  0.00000000000E+00 0. -1.
</event>
<event>
 8    1  0.2031623E-013  0.9118800E+02  0.7816164E-02  0.1184000E+00
        -11   -1    0    0    0    0  0.00000000000E+00  0.00000000000E+00  0.45593999997E+02  0.45594000000E+02  0.51100000000E-03 0. -1.
         11   -1    0    0    0    0 -0.00000000000E+00 -0.00000000000E+00 -0.45593999997E+02  0.45594000000E+02  0.51100000000E-03 0.  1.
         23    2    1    2    0    0 -0.22204460493E-15 -0.35527136788E-14  0.00000000000E+00  0.91188000000E+02  0.91188000000E+02 0.  0.
    9900012    2    3    3    0    0 -0.10258893478E+01  0.10477378040E+02  0.39272610154E+02  0.50528858250E+02  0.29999995137E+02 0.  0.
        -12    1    3    3    0    0  0.10258893478E+01 -0.10477378040E+02 -0.39272610154E+02  0.40659141750E+02  0.00000000000E+00 0.  1.
         11    1    4    4    0    0 -0.23877058937E+01  0.15308346007E+02  0.17867535608E+02  0.23649427601E+02  0.51100000000E-03 0. -1.
        -11    1    4    4    0    0 -0.41223914092E+01 -0.84099402029E+01  0.15224242763E+02  0.17874528612E+02  0.51100000000E-03 0.  1.
        -12    1    4    4    0    0  0.54842079551E+01  0.35789722359E+01  0.61808317828E+01  0.90049020365E+01  0.00000000000E+00 0.  1.
</event>
<event>
 8    1  0.2031623E-013  0.9118800E+02  0.7816164E-02  0.1184000E+00
        -11   -1    0    0    0    0  0.00000000000E+00  0.00000000000E+00  0.45593999997E+02  0.45594000000E+02  0.51100000000E-03 0.  1.
         11   -1    0    0    0    0 -0.00000000000E+00 -0.00000000000E+00 -0.45593999997E+02  0.45594000000E+02  0.51100000000E-03 0. -1.
         23    2    1    2    0    0  0.00000000000E+00  0.88817841970E-15  0.00000000000E+00  0.91188000000E+02  0.91188000000E+02 0.  0.
    9900012    2    3    3    0    0 -0.35741366353E+02 -0.63914345009E+01  0.18299451764E+02  0.50528860331E+02  0.30000001462E+02 0.  0.
        -12    1    3    3    0    0  0.35741366353E+02  0.63914345009E+01 -0.18299451764E+02  0.40659139669E+02  0.00000000000E+00 0.  1.
         11    1    4    4    0    0 -0.20951463625E+02 -0.11542892041E+02  0.60136084169E+01  0.24665069859E+02  0.51100000000E-03 0. -1.
        -11    1    4    4    0    0 -0.69859978994E+01 -0.31121721428E+01  0.12316318802E+02  0.14497637435E+02  0.51100000000E-03 0.  1.
         12    1    4    4    0    0 -0.78039048286E+01  0.82636296830E+01 -0.30475454837E-01  0.11366153037E+02  0.00000000000E+00 0. -1.
</event>
<event>
 8    1  0.2031623E-013  0.9118800E+02  0.7816164E-02  0.1184000E+00
        -11   -1    0    0    0    0  0.00000000000E+00  0.00000000000E+00  0.45593999997E+02  0.45594000000E+02  0.51100000000E-03 0. -1.
         11   -1    0    0    0    0 -0.00000000000E+00 -0.00000000000E+00 -0.45593999997E+02  0.45594000000E+02  0.51100000000E-03 0.  1.
         23    2    1    2    0    0  0.00000000000E+00  0.00000000000E+00  0.00000000000E+00  0.91188000000E+02  0.91188000000E+02 0.  0.
    9900012    2    3    3    0    0 -0.20860040381E+02  0.24529132604E+02 -0.24826341503E+02  0.50528845269E+02  0.29999955679E+02 0.  0.
         12    1    3    3    0    0  0.20860040381E+02 -0.24529132604E+02  0.24826341503E+02  0.40659154731E+02  0.00000000000E+00 0. -1.
         11    1    4    4    0    0 -0.42454695295E+01 -0.55934258007E+01 -0.32108308491E+01  0.77213896882E+01  0.51100000000E-03 0. -1.
        -11    1    4    4    0    0 -0.79393521166E+01  0.14731784375E+02 -0.18360347402E+02  0.24842728109E+02  0.51100000000E-03 0.  1.
        -12    1    4    4    0    0 -0.86752187352E+01  0.15390774030E+02 -0.32551632521E+01  0.17964727472E+02  0.00000000000E+00 0.  1.
</event>
<event>
 8    1  0.2031623E-013  0.9118800E+02  0.7816164E-02  0.1184000E+00
        -11   -1    0    0    0    0  0.00000000000E+00  0.00000000000E+00  0.45593999997E+02  0.45594000000E+02  0.51100000000E-03 0. -1.
         11   -1    0    0    0    0 -0.00000000000E+00 -0.00000000000E+00 -0.45593999997E+02  0.45594000000E+02  0.51100000000E-03 0.  1.
         23    2    1    2    0    0 -0.88817841970E-15 -0.88817841970E-15 -0.71054273576E-14  0.91188000000E+02  0.91188000000E+02 0.  0.
    9900012    2    3    3    0    0  0.22801916181E+01  0.62235710686E+01 -0.40115273636E+02  0.50528840029E+02  0.29999939752E+02 0.  0.
         12    1    3    3    0    0 -0.22801916181E+01 -0.62235710686E+01  0.40115273636E+02  0.40659159971E+02  0.00000000000E+00 0. -1.
         11    1    4    4    0    0  0.63208125395E+01 -0.71297818915E+01 -0.17784456665E+02  0.20176059083E+02  0.51100000000E-03 0. -1.
        -11    1    4    4    0    0 -0.91580027933E+01  0.45798678167E+01 -0.13109407800E+02  0.16634325279E+02  0.51100000000E-03 0.  1.
        -12    1    4    4    0    0  0.51173818719E+01  0.87734851434E+01 -0.92214091714E+01  0.13718455667E+02  0.00000000000E+00 0.  1.
</event>
<event>
 8    1  0.2031623E-013  0.9118800E+02  0.7816164E-02  0.1184000E+00
        -11   -1    0    0    0    0  0.00000000000E+00  0.00000000000E+00  0.45593999997E+02  0.45594000000E+02  0.51100000000E-03 0. -1.
         11   -1    0    0    0    0 -0.00000000000E+00 -0.00000000000E+00 -0.45593999997E+02  0.45594000000E+02  0.51100000000E-03 0.  1.
         23    2    1    2    0    0  0.00000000000E+00  0.00000000000E+00  0.00000000000E+00  0.91188000000E+02  0.91188000000E+02 0.  0.
    9900012    2    3    3    0    0 -0.36409879735E+02 -0.15090239687E+02  0.99885112842E+01  0.50528867768E+02  0.30000024069E+02 0.  0.
         12    1    3    3    0    0  0.36409879735E+02  0.15090239687E+02 -0.99885112842E+01  0.40659132232E+02  0.00000000000E+00 0. -1.
         11    1    4    4    0    0 -0.11816754149E+02 -0.10229776826E+02  0.17087565413E+02  0.23157480531E+02  0.51100000000E-03 0. -1.
        -11    1    4    4    0    0 -0.20222334569E+02 -0.41499372027E+01 -0.21890161505E+01  0.20759493880E+02  0.51100000000E-03 0.  1.
         12    1    4    4    0    0 -0.43707910174E+01 -0.71052565788E+00 -0.49100379779E+01  0.66118933576E+01  0.00000000000E+00 0. -1.
</event>
<event>
 8    1  0.2031623E-013  0.9118800E+02  0.7816164E-02  0.1184000E+00
        -11   -1    0    0    0    0  0.00000000000E+00  0.00000000000E+00  0.45593999997E+02  0.45594000000E+02  0.51100000000E-03 0. -1.
         11   -1    0    0    0    0 -0.00000000000E+00 -0.00000000000E+00 -0.45593999997E+02  0.45594000000E+02  0.51100000000E-03 0.  1.
         23    2    1    2    0    0  0.00000000000E+00 -0.71054273576E-14  0.17763568394E-14  0.91188000000E+02  0.91188000000E+02 0.  0.
    9900012    2    3    3    0    0  0.21785750120E+02 -0.33247936797E+02  0.85511055432E+01  0.50528860615E+02  0.30000002326E+02 0.  0.
        -12    1    3    3    0    0 -0.21785750120E+02  0.33247936797E+02 -0.85511055432E+01  0.40659139385E+02  0.00000000000E+00 0.  1.
         11    1    4    4    0    0  0.22907239195E+02 -0.24941771083E+02  0.15178998649E+02  0.37111124378E+02  0.51100000000E-03 0. -1.
        -11    1    4    4    0    0 -0.39984040373E+00 -0.72786378022E+01 -0.84784892919E+01  0.11181378338E+02  0.51100000000E-03 0.  1.
        -12    1    4    4    0    0 -0.72164867151E+00 -0.10275279111E+01  0.18505961857E+01  0.22363578997E+01  0.00000000000E+00 0.  1.
</event>
<event>
 8    1  0.2031623E-013  0.9118800E+02  0.7816164E-02  0.1184000E+00
        -11   -1    0    0    0    0  0.00000000000E+00  0.00000000000E+00  0.45593999997E+02  0.45594000000E+02  0.51100000000E-03 0. -1.
         11   -1    0    0    0    0 -0.00000000000E+00 -0.00000000000E+00 -0.45593999997E+02  0.45594000000E+02  0.51100000000E-03 0.  1.
         23    2    1    2    0    0  0.35527136788E-14  0.00000000000E+00  0.00000000000E+00  0.91188000000E+02  0.91188000000E+02 0.  0.
    9900012    2    3    3    0    0  0.18356045025E+02 -0.33688097159E+02  0.13466012360E+02  0.50528858739E+02  0.29999996624E+02 0.  0.
        -12    1    3    3    0    0 -0.18356045025E+02  0.33688097159E+02 -0.13466012360E+02  0.40659141261E+02  0.00000000000E+00 0.  1.
         11    1    4    4    0    0  0.62983073381E+01 -0.27045160991E+02 -0.35486556775E+01  0.27994684598E+02  0.51100000000E-03 0. -1.
        -11    1    4    4    0    0  0.84107538838E+01 -0.54774448434E+01  0.83316844035E+01  0.13044544767E+02  0.51100000000E-03 0.  1.
         12    1    4    4    0    0  0.36469838034E+01 -0.11654913250E+01  0.86829836338E+01  0.94896293751E+01  0.00000000000E+00 0. -1.
</event>
<event>
 8    1  0.2031623E-013  0.9118800E+02  0.7816164E-02  0.1184000E+00
        -11   -1    0    0    0    0  0.00000000000E+00  0.00000000000E+00  0.45593999997E+02  0.45594000000E+02  0.51100000000E-03 0. -1.
         11   -1    0    0    0    0 -0.00000000000E+00 -0.00000000000E+00 -0.45593999997E+02  0.45594000000E+02  0.51100000000E-03 0.  1.
         23    2    1    2    0    0  0.17763568394E-14 -0.65485811218E-15  0.00000000000E+00  0.91188000000E+02  0.91188000000E+02 0.  0.
    9900012    2    3    3    0    0 -0.15294627122E+02  0.73725770508E-02  0.37672817350E+02  0.50528845555E+02  0.29999956548E+02 0.  0.
        -12    1    3    3    0    0  0.15294627122E+02 -0.73725770508E-02 -0.37672817350E+02  0.40659154445E+02  0.00000000000E+00 0.  1.
         11    1    4    4    0    0  0.40697107792E+01  0.18220228816E+01  0.13484425924E+02  0.14202536955E+02  0.51100000000E-03 0.  1.
        -11    1    4    4    0    0 -0.86655419598E+01 -0.70071158988E+01  0.22456158441E+01  0.11368116883E+02  0.51100000000E-03 0. -1.
         12    1    4    4    0    0 -0.10698795941E+02  0.51924655943E+01  0.21942775581E+02  0.24958191717E+02  0.00000000000E+00 0. -1.
</event>
<event>
 8    1  0.2031623E-013  0.9118800E+02  0.7816164E-02  0.1184000E+00
        -11   -1    0    0    0    0  0.00000000000E+00  0.00000000000E+00  0.45593999997E+02  0.45594000000E+02  0.51100000000E-03 0. -1.
         11   -1    0    0    0    0 -0.00000000000E+00 -0.00000000000E+00 -0.45593999997E+02  0.45594000000E+02  0.51100000000E-03 0.  1.
         23    2    1    2    0    0 -0.44408920985E-15  0.12767564783E-14  0.00000000000E+00  0.91188000000E+02  0.91188000000E+02 0.  0.
    9900012    2    3    3    0    0 -0.16423924045E+01  0.47461681827E+00 -0.40623180498E+02  0.50528861941E+02  0.30000006355E+02 0.  0.
         12    1    3    3    0    0  0.16423924045E+01 -0.47461681827E+00  0.40623180498E+02  0.40659138059E+02  0.00000000000E+00 0. -1.
         11    1    4    4    0    0  0.10222557084E+02  0.90974008221E+01 -0.13024669399E+02  0.18891939769E+02  0.51100000000E-03 0. -1.
        -11    1    4    4    0    0 -0.44836668410E+01 -0.82608995739E+00 -0.10499570867E+02  0.11446688674E+02  0.51100000000E-03 0.  1.
         12    1    4    4    0    0 -0.73812826472E+01 -0.77966940464E+01 -0.17098940233E+02  0.20190233497E+02  0.00000000000E+00 0. -1.
</event>
<event>
 8    1  0.2031623E-013  0.9118800E+02  0.7816164E-02  0.1184000E+00
        -11   -1    0    0    0    0  0.00000000000E+00  0.00000000000E+00  0.45593999997E+02  0.45594000000E+02  0.51100000000E-03 0. -1.
         11   -1    0    0    0    0 -0.00000000000E+00 -0.00000000000E+00 -0.45593999997E+02  0.45594000000E+02  0.51100000000E-03 0.  1.
         23    2    1    2    0    0  0.00000000000E+00  0.00000000000E+00  0.00000000000E+00  0.91188000000E+02  0.91188000000E+02 0.  0.
    9900012    2    3    3    0    0 -0.10040449797E+02  0.30002171283E+02  0.25538689141E+02  0.50528861337E+02  0.30000004520E+02 0.  0.
        -12    1    3    3    0    0  0.10040449797E+02 -0.30002171283E+02 -0.25538689141E+02  0.40659138663E+02  0.00000000000E+00 0.  1.
         11    1    4    4    0    0 -0.11137020565E+02  0.26090645853E+02  0.20569873725E+02  0.35041043555E+02  0.51100000000E-03 0. -1.
        -11    1    4    4    0    0 -0.38777172455E+01 -0.11003170322E+00 -0.32586488732E+01  0.50663192509E+01  0.51100000000E-03 0.  1.
         12    1    4    4    0    0  0.49742880139E+01  0.40215571333E+01  0.82274642888E+01  0.10421498532E+02  0.00000000000E+00 0. -1.
</event>
<event>
 8    1  0.2031623E-013  0.9118800E+02  0.7816164E-02  0.1184000E+00
        -11   -1    0    0    0    0  0.00000000000E+00  0.00000000000E+00  0.45593999997E+02  0.45594000000E+02  0.51100000000E-03 0. -1.
         11   -1    0    0    0    0 -0.00000000000E+00 -0.00000000000E+00 -0.45593999997E+02  0.45594000000E+02  0.51100000000E-03 0.  1.
         23    2    1    2    0    0  0.17763568394E-14  0.35527136788E-14  0.71054273576E-14  0.91188000000E+02  0.91188000000E+02 0.  0.
    9900012    2    3    3    0    0 -0.40625790938E+01 -0.18677460954E+02 -0.35886123148E+02  0.50528856733E+02  0.29999990526E+02 0.  0.
         12    1    3    3    0    0  0.40625790938E+01  0.18677460954E+02  0.35886123148E+02  0.40659143267E+02  0.00000000000E+00 0. -1.
         11    1    4    4    0    0  0.34479770642E+01 -0.19009912747E+02 -0.22564212974E+02  0.29705370489E+02  0.51100000000E-03 0. -1.
        -11    1    4    4    0    0 -0.11443223214E+02 -0.55643318819E+00 -0.11974479595E+02  0.16572420984E+02  0.51100000000E-03 0.  1.
        -12    1    4    4    0    0  0.39326670559E+01  0.88888498182E+00 -0.13474305789E+01  0.42510652604E+01  0.00000000000E+00 0.  1.
</event>
<event>
 8    1  0.2031623E-013  0.9118800E+02  0.7816164E-02  0.1184000E+00
        -11   -1    0    0    0    0  0.00000000000E+00  0.00000000000E+00  0.45593999997E+02  0.45594000000E+02  0.51100000000E-03 0. -1.
         11   -1    0    0    0    0 -0.00000000000E+00 -0.00000000000E+00 -0.45593999997E+02  0.45594000000E+02  0.51100000000E-03 0.  1.
         23    2    1    2    0    0 -0.35527136788E-14  0.00000000000E+00  0.00000000000E+00  0.91188000000E+02  0.91188000000E+02 0.  0.
    9900012    2    3    3    0    0  0.26691182529E+02 -0.14581683609E+02  0.26983714755E+02  0.50528861007E+02  0.30000003517E+02 0.  0.
        -12    1    3    3    0    0 -0.26691182529E+02  0.14581683609E+02 -0.26983714755E+02  0.40659138993E+02  0.00000000000E+00 0.  1.
         11    1    4    4    0    0  0.64550382149E+01 -0.19723519166E+01  0.14205032252E+02  0.15727066858E+02  0.51100000000E-03 0. -1.
        -11    1    4    4    0    0  0.23806162559E+02 -0.13871622090E+02  0.79722560572E+01  0.28682959088E+02  0.51100000000E-03 0.  1.
        -12    1    4    4    0    0 -0.35700182446E+01  0.12622903972E+01  0.48064264462E+01  0.61188350604E+01  0.00000000000E+00 0.  1.
</event>
<event>
 8    1  0.2031623E-013  0.9118800E+02  0.7816164E-02  0.1184000E+00
        -11   -1    0    0    0    0  0.00000000000E+00  0.00000000000E+00  0.45593999997E+02  0.45594000000E+02  0.51100000000E-03 0. -1.
         11   -1    0    0    0    0 -0.00000000000E+00 -0.00000000000E+00 -0.45593999997E+02  0.45594000000E+02  0.51100000000E-03 0.  1.
         23    2    1    2    0    0  0.00000000000E+00  0.00000000000E+00  0.00000000000E+00  0.91188000000E+02  0.91188000000E+02 0.  0.
    9900012    2    3    3    0    0 -0.11391579430E+02  0.30712261625E+02  0.24086396391E+02  0.50528860964E+02  0.30000003387E+02 0.  0.
        -12    1    3    3    0    0  0.11391579430E+02 -0.30712261625E+02 -0.24086396391E+02  0.40659139036E+02  0.00000000000E+00 0.  1.
         11    1    4    4    0    0 -0.57179682352E+01 -0.13397578868E+01  0.14991802499E+02  0.16101063765E+02  0.51100000000E-03 0. -1.
        -11    1    4    4    0    0 -0.50684992408E+01  0.11443642441E+02  0.23435585854E+01  0.12733377556E+02  0.51100000000E-03 0.  1.
         12    1    4    4    0    0 -0.60511195446E+00  0.20608377071E+02  0.67510353060E+01  0.21694419644E+02  0.00000000000E+00 0. -1.
</event>
<event>
 8    1  0.2031623E-013  0.9118800E+02  0.7816164E-02  0.1184000E+00
        -11   -1    0    0    0    0  0.00000000000E+00  0.00000000000E+00  0.45593999997E+02  0.45594000000E+02  0.51100000000E-03 0. -1.
         11   -1    0    0    0    0 -0.00000000000E+00 -0.00000000000E+00 -0.45593999997E+02  0.45594000000E+02  0.51100000000E-03 0.  1.
         23    2    1    2    0    0  0.00000000000E+00  0.00000000000E+00  0.00000000000E+00  0.91188000000E+02  0.91188000000E+02 0.  0.
    9900012    2    3    3    0    0 -0.17545286348E+02 -0.25322756533E+02 -0.26534630194E+02  0.50528859933E+02  0.30000000251E+02 0.  0.
         12    1    3    3    0    0  0.17545286348E+02  0.25322756533E+02  0.26534630194E+02  0.40659140067E+02  0.00000000000E+00 0. -1.
         11    1    4    4    0    0 -0.32070795915E+01 -0.12314933038E+01  0.50410070614E+01  0.61003022644E+01  0.51100000000E-03 0. -1.
        -11    1    4    4    0    0 -0.10077806492E+02 -0.20926980115E+02 -0.31479054888E+02  0.39120730787E+02  0.51100000000E-03 0.  1.
        -12    1    4    4    0    0 -0.42604002643E+01 -0.31642831149E+01 -0.96582367087E-01  0.53078268808E+01  0.00000000000E+00 0.  1.
</event>
<event>
 8    1  0.2031623E-013  0.9118800E+02  0.7816164E-02  0.1184000E+00
        -11   -1    0    0    0    0  0.00000000000E+00  0.00000000000E+00  0.45593999997E+02  0.45594000000E+02  0.51100000000E-03 0. -1.
         11   -1    0    0    0    0 -0.00000000000E+00 -0.00000000000E+00 -0.45593999997E+02  0.45594000000E+02  0.51100000000E-03 0.  1.
         23    2    1    2    0    0  0.00000000000E+00  0.00000000000E+00 -0.35527136788E-14  0.91188000000E+02  0.91188000000E+02 0.  0.
    9900012    2    3    3    0    0  0.28244251860E+02  0.10859217678E+02 -0.27157044477E+02  0.50528862818E+02  0.30000009021E+02 0.  0.
         12    1    3    3    0    0 -0.28244251860E+02 -0.10859217678E+02  0.27157044477E+02  0.40659137182E+02  0.00000000000E+00 0. -1.
         11    1    4    4    0    0  0.20016334957E+01  0.49147675186E+00  0.43461782164E+01  0.48101300812E+01  0.51100000000E-03 0. -1.
        -11    1    4    4    0    0  0.93371678702E+00  0.60891125388E+01 -0.11975021797E+02  0.13466635283E+02  0.51100000000E-03 0.  1.
         12    1    4    4    0    0  0.25308901577E+02  0.42786283870E+01 -0.19528200896E+02  0.32252097453E+02  0.00000000000E+00 0. -1.
</event>
<event>
 8    1  0.2031623E-013  0.9118800E+02  0.7816164E-02  0.1184000E+00
        -11   -1    0    0    0    0  0.00000000000E+00  0.00000000000E+00  0.45593999997E+02  0.45594000000E+02  0.51100000000E-03 0. -1.
         11   -1    0    0    0    0 -0.00000000000E+00 -0.00000000000E+00 -0.45593999997E+02  0.45594000000E+02  0.51100000000E-03 0.  1.
         23    2    1    2    0    0  0.35527136788E-14  0.00000000000E+00  0.00000000000E+00  0.91188000000E+02  0.91188000000E+02 0.  0.
    9900012    2    3    3    0    0  0.21118223606E+02 -0.13426342557E+02  0.32045588840E+02  0.50528858263E+02  0.29999995176E+02 0.  0.
        -12    1    3    3    0    0 -0.21118223606E+02  0.13426342557E+02 -0.32045588840E+02  0.40659141737E+02  0.00000000000E+00 0.  1.
         11    1    4    4    0    0  0.14567833853E+02 -0.17794200151E+02  0.12224191448E+02  0.26043928256E+02  0.51100000000E-03 0. -1.
        -11    1    4    4    0    0  0.88950916718E+01  0.42449690108E+01  0.19821826073E+02  0.22137009890E+02  0.51100000000E-03 0.  1.
        -12    1    4    4    0    0 -0.23447019190E+01  0.12288858339E+00 -0.42868117234E-03  0.23479201172E+01  0.00000000000E+00 0.  1.
</event>
<event>
 8    1  0.2031623E-013  0.9118800E+02  0.7816164E-02  0.1184000E+00
        -11   -1    0    0    0    0  0.00000000000E+00  0.00000000000E+00  0.45593999997E+02  0.45594000000E+02  0.51100000000E-03 0. -1.
         11   -1    0    0    0    0 -0.00000000000E+00 -0.00000000000E+00 -0.45593999997E+02  0.45594000000E+02  0.51100000000E-03 0.  1.
         23    2    1    2    0    0  0.00000000000E+00  0.00000000000E+00  0.00000000000E+00  0.91188000000E+02  0.91188000000E+02 0.  0.
    9900012    2    3    3    0    0  0.11377409666E+02  0.28740799909E+02  0.26413751221E+02  0.50528864696E+02  0.30000014729E+02 0.  0.
        -12    1    3    3    0    0 -0.11377409666E+02 -0.28740799909E+02 -0.26413751221E+02  0.40659135304E+02  0.00000000000E+00 0.  1.
         11    1    4    4    0    0  0.10819938732E+02 -0.11308172198E+01  0.40744573961E+01  0.11616842303E+02  0.51100000000E-03 0. -1.
        -11    1    4    4    0    0 -0.76951893382E+00  0.20438540127E+02  0.85864513722E+01  0.22182272862E+02  0.51100000000E-03 0.  1.
         12    1    4    4    0    0  0.13269898680E+01  0.94330770017E+01  0.13752842453E+02  0.16729749531E+02  0.00000000000E+00 0. -1.
</event>
<event>
 8    1  0.2031623E-013  0.9118800E+02  0.7816164E-02  0.1184000E+00
        -11   -1    0    0    0    0  0.00000000000E+00  0.00000000000E+00  0.45593999997E+02  0.45594000000E+02  0.51100000000E-03 0. -1.
         11   -1    0    0    0    0 -0.00000000000E+00 -0.00000000000E+00 -0.45593999997E+02  0.45594000000E+02  0.51100000000E-03 0.  1.
         23    2    1    2    0    0  0.00000000000E+00  0.17763568394E-14  0.00000000000E+00  0.91188000000E+02  0.91188000000E+02 0.  0.
    9900012    2    3    3    0    0 -0.29163187451E+02 -0.15061870721E+02  0.23996120122E+02  0.50528865321E+02  0.30000016629E+02 0.  0.
        -12    1    3    3    0    0  0.29163187451E+02  0.15061870721E+02 -0.23996120122E+02  0.40659134679E+02  0.00000000000E+00 0.  1.
         11    1    4    4    0    0 -0.13897359598E+02  0.31445894509E+00  0.24942380181E+02  0.28554471061E+02  0.51100000000E-03 0. -1.
        -11    1    4    4    0    0 -0.66056349898E+01 -0.69304201535E+01 -0.21663770366E+01  0.98162277301E+01  0.51100000000E-03 0.  1.
         12    1    4    4    0    0 -0.86601928641E+01 -0.84459095125E+01  0.12201169779E+01  0.12158166530E+02  0.00000000000E+00 0. -1.
</event>
<event>
 8    1  0.2031623E-013  0.9118800E+02  0.7816164E-02  0.1184000E+00
        -11   -1    0    0    0    0  0.00000000000E+00  0.00000000000E+00  0.45593999997E+02  0.45594000000E+02  0.51100000000E-03 0. -1.
         11   -1    0    0    0    0 -0.00000000000E+00 -0.00000000000E+00 -0.45593999997E+02  0.45594000000E+02  0.51100000000E-03 0.  1.
         23    2    1    2    0    0 -0.35527136788E-14  0.00000000000E+00  0.00000000000E+00  0.91188000000E+02  0.91188000000E+02 0.  0.
    9900012    2    3    3    0    0 -0.29532048334E+02 -0.10395304826E+02  0.25941495068E+02  0.50528863173E+02  0.30000010100E+02 0.  0.
        -12    1    3    3    0    0  0.29532048334E+02  0.10395304826E+02 -0.25941495068E+02  0.40659136827E+02  0.00000000000E+00 0.  1.
         11    1    4    4    0    0 -0.84608625518E+01  0.21463542050E+01  0.18305339169E+01  0.89187379251E+01  0.51100000000E-03 0. -1.
        -11    1    4    4    0    0 -0.39973982078E+01 -0.62282088448E+00  0.19975444562E+02  0.20381007924E+02  0.51100000000E-03 0.  1.
        -12    1    4    4    0    0 -0.17073787574E+02 -0.11918838146E+02  0.41355165885E+01  0.21229117323E+02  0.00000000000E+00 0.  1.
</event>
<event>
 8    1  0.2031623E-013  0.9118800E+02  0.7816164E-02  0.1184000E+00
        -11   -1    0    0    0    0  0.00000000000E+00  0.00000000000E+00  0.45593999997E+02  0.45594000000E+02  0.51100000000E-03 0. -1.
         11   -1    0    0    0    0 -0.00000000000E+00 -0.00000000000E+00 -0.45593999997E+02  0.45594000000E+02  0.51100000000E-03 0.  1.
         23    2    1    2    0    0  0.00000000000E+00 -0.35527136788E-14  0.00000000000E+00  0.91188000000E+02  0.91188000000E+02 0.  0.
    9900012    2    3    3    0    0  0.24878950334E+02 -0.26739903649E+02 -0.17865642881E+02  0.50528858193E+02  0.29999994965E+02 0.  0.
         12    1    3    3    0    0 -0.24878950334E+02  0.26739903649E+02  0.17865642881E+02  0.40659141807E+02  0.00000000000E+00 0. -1.
         11    1    4    4    0    0 -0.34872778543E+01 -0.28923082097E+01  0.38119204283E+01  0.59209197956E+01  0.51100000000E-03 0. -1.
        -11    1    4    4    0    0  0.17780884054E+02 -0.14767460601E+02 -0.19992210692E+02  0.30560206461E+02  0.51100000000E-03 0.  1.
         12    1    4    4    0    0  0.10585344134E+02 -0.90801348386E+01 -0.16853526180E+01  0.14047731937E+02  0.00000000000E+00 0. -1.
</event>
<event>
 8    1  0.2031623E-013  0.9118800E+02  0.7816164E-02  0.1184000E+00
        -11   -1    0    0    0    0  0.00000000000E+00  0.00000000000E+00  0.45593999997E+02  0.45594000000E+02  0.51100000000E-03 0. -1.
         11   -1    0    0    0    0 -0.00000000000E+00 -0.00000000000E+00 -0.45593999997E+02  0.45594000000E+02  0.51100000000E-03 0.  1.
         23    2    1    2    0    0 -0.71054273576E-14  0.00000000000E+00  0.00000000000E+00  0.91188000000E+02  0.91188000000E+02 0.  0.
    9900012    2    3    3    0    0  0.22736632972E+02  0.92837001059E+01  0.32404073832E+02  0.50528861206E+02  0.30000004121E+02 0.  0.
        -12    1    3    3    0    0 -0.22736632972E+02 -0.92837001059E+01 -0.32404073832E+02  0.40659138794E+02  0.00000000000E+00 0.  1.
         11    1    4    4    0    0 -0.43285073171E+01 -0.13328823862E+01  0.10082419352E+02  0.11052951248E+02  0.51100000000E-03 0. -1.
        -11    1    4    4    0    0  0.85224858912E+01  0.56901767964E+01  0.27662517173E+00  0.10251214537E+02  0.51100000000E-03 0.  1.
         12    1    4    4    0    0  0.18542654398E+02  0.49264056957E+01  0.22045029309E+02  0.29224695421E+02  0.00000000000E+00 0. -1.
</event>
<event>
 8    1  0.2031623E-013  0.9118800E+02  0.7816164E-02  0.1184000E+00
        -11   -1    0    0    0    0  0.00000000000E+00  0.00000000000E+00  0.45593999997E+02  0.45594000000E+02  0.51100000000E-03 0. -1.
         11   -1    0    0    0    0 -0.00000000000E+00 -0.00000000000E+00 -0.45593999997E+02  0.45594000000E+02  0.51100000000E-03 0.  1.
         23    2    1    2    0    0  0.00000000000E+00  0.00000000000E+00  0.00000000000E+00  0.91188000000E+02  0.91188000000E+02 0.  0.
    9900012    2    3    3    0    0  0.32160944395E+02  0.24071860197E+02 -0.62754554246E+01  0.50528903373E+02  0.30000132291E+02 0.  0.
         12    1    3    3    0    0 -0.32160944395E+02 -0.24071860197E+02  0.62754554246E+01  0.40659096627E+02  0.00000000000E+00 0. -1.
         11    1    4    4    0    0 -0.14956103004E+01 -0.12028718758E+01  0.39527464425E+00  0.19595900658E+01  0.51100000000E-03 0. -1.
        -11    1    4    4    0    0  0.10884189600E+02  0.10220404203E+02  0.86601583558E+01  0.17260376251E+02  0.51100000000E-03 0.  1.
        -12    1    4    4    0    0  0.22772365095E+02  0.15054327870E+02 -0.15330888425E+02  0.31308937056E+02  0.00000000000E+00 0.  1.
</event>
<event>
 8    1  0.2031623E-013  0.9118800E+02  0.7816164E-02  0.1184000E+00
        -11   -1    0    0    0    0  0.00000000000E+00  0.00000000000E+00  0.45593999997E+02  0.45594000000E+02  0.51100000000E-03 0. -1.
         11   -1    0    0    0    0 -0.00000000000E+00 -0.00000000000E+00 -0.45593999997E+02  0.45594000000E+02  0.51100000000E-03 0.  1.
         23    2    1    2    0    0  0.00000000000E+00  0.00000000000E+00 -0.71054273576E-14  0.91188000000E+02  0.91188000000E+02 0.  0.
    9900012    2    3    3    0    0 -0.23432570321E+02 -0.19762457636E+02  0.26711902248E+02  0.50528858280E+02  0.29999995228E+02 0.  0.
        -12    1    3    3    0    0  0.23432570321E+02  0.19762457636E+02 -0.26711902248E+02  0.40659141720E+02  0.00000000000E+00 0.  1.
         11    1    4    4    0    0 -0.16560024755E+02 -0.11753438209E+02  0.29059768413E+02  0.35452050294E+02  0.51100000000E-03 0. -1.
        -11    1    4    4    0    0  0.21343038655E+01 -0.43438686153E+01 -0.22859849784E+01  0.53525858349E+01  0.51100000000E-03 0.  1.
        -12    1    4    4    0    0 -0.90068494318E+01 -0.36651508123E+01 -0.61881185949E-01  0.97242221512E+01  0.00000000000E+00 0.  1.
</event>
<event>
 8    1  0.2031623E-013  0.9118800E+02  0.7816164E-02  0.1184000E+00
        -11   -1    0    0    0    0  0.00000000000E+00  0.00000000000E+00  0.45593999997E+02  0.45594000000E+02  0.51100000000E-03 0. -1.
         11   -1    0    0    0    0 -0.00000000000E+00 -0.00000000000E+00 -0.45593999997E+02  0.45594000000E+02  0.51100000000E-03 0.  1.
         23    2    1    2    0    0  0.00000000000E+00  0.17763568394E-14  0.00000000000E+00  0.91188000000E+02  0.91188000000E+02 0.  0.
    9900012    2    3    3    0    0 -0.21459174125E+01 -0.94921766630E+01  0.39477326334E+02  0.50528859898E+02  0.30000000147E+02 0.  0.
        -12    1    3    3    0    0  0.21459174125E+01  0.94921766630E+01 -0.39477326334E+02  0.40659140102E+02  0.00000000000E+00 0.  1.
         11    1    4    4    0    0  0.53224966088E+01 -0.14797899595E+02  0.32545016903E+02  0.36145330654E+02  0.51100000000E-03 0. -1.
        -11    1    4    4    0    0  0.92700316508E+00  0.18794071840E+00 -0.12669523023E+01  0.15810834827E+01  0.51100000000E-03 0.  1.
         12    1    4    4    0    0 -0.83954171864E+01  0.51177822137E+01  0.81992617328E+01  0.12802445762E+02  0.00000000000E+00 0. -1.
</event>
<event>
 8    1  0.2031623E-013  0.9118800E+02  0.7816164E-02  0.1184000E+00
        -11   -1    0    0    0    0  0.00000000000E+00  0.00000000000E+00  0.45593999997E+02  0.45594000000E+02  0.51100000000E-03 0. -1.
         11   -1    0    0    0    0 -0.00000000000E+00 -0.00000000000E+00 -0.45593999997E+02  0.45594000000E+02  0.51100000000E-03 0.  1.
         23    2    1    2    0    0 -0.17763568394E-14 -0.35527136788E-14  0.00000000000E+00  0.91188000000E+02  0.91188000000E+02 0.  0.
    9900012    2    3    3    0    0 -0.10629814559E+02 -0.20572602393E+02  0.33420665101E+02  0.50528858560E+02  0.29999996079E+02 0.  0.
        -12    1    3    3    0    0  0.10629814559E+02  0.20572602393E+02 -0.33420665101E+02  0.40659141440E+02  0.00000000000E+00 0.  1.
         11    1    4    4    0    0  0.18080679802E+00 -0.49356101812E+01  0.23744157784E+02  0.24252380668E+02  0.51100000000E-03 0. -1.
        -11    1    4    4    0    0 -0.51821073191E+01 -0.16417907419E+02  0.11015051665E+02  0.20438524500E+02  0.51100000000E-03 0.  1.
         12    1    4    4    0    0 -0.56285140384E+01  0.78091520678E+00 -0.13385443471E+01  0.58379533922E+01  0.00000000000E+00 0. -1.
</event>
<event>
 8    1  0.2031623E-013  0.9118800E+02  0.7816164E-02  0.1184000E+00
        -11   -1    0    0    0    0  0.00000000000E+00  0.00000000000E+00  0.45593999997E+02  0.45594000000E+02  0.51100000000E-03 0. -1.
         11   -1    0    0    0    0 -0.00000000000E+00 -0.00000000000E+00 -0.45593999997E+02  0.45594000000E+02  0.51100000000E-03 0.  1.
         23    2    1    2    0    0  0.00000000000E+00  0.00000000000E+00  0.00000000000E+00  0.91188000000E+02  0.91188000000E+02 0.  0.
    9900012    2    3    3    0    0 -0.10587073245E+02 -0.27363664552E+02  0.28147984821E+02  0.50528864407E+02  0.30000013853E+02 0.  0.
        -12    1    3    3    0    0  0.10587073245E+02  0.27363664552E+02 -0.28147984821E+02  0.40659135593E+02  0.00000000000E+00 0.  1.
         11    1    4    4    0    0 -0.16556871511E+02 -0.22171790021E+02  0.15421581468E+02  0.31678753798E+02  0.51100000000E-03 0. -1.
        -11    1    4    4    0    0 -0.60445366186E+00  0.30191660596E+01  0.13679671192E+01  0.33692821528E+01  0.51100000000E-03 0.  1.
         12    1    4    4    0    0  0.65742519284E+01 -0.82110405909E+01  0.11358436235E+02  0.15480828457E+02  0.00000000000E+00 0. -1.
</event>
<event>
 8    1  0.2031623E-013  0.9118800E+02  0.7816164E-02  0.1184000E+00
        -11   -1    0    0    0    0  0.00000000000E+00  0.00000000000E+00  0.45593999997E+02  0.45594000000E+02  0.51100000000E-03 0.  1.
         11   -1    0    0    0    0 -0.00000000000E+00 -0.00000000000E+00 -0.45593999997E+02  0.45594000000E+02  0.51100000000E-03 0. -1.
         23    2    1    2    0    0  0.71054273576E-14  0.22204460493E-15 -0.35527136788E-14  0.91188000000E+02  0.91188000000E+02 0.  0.
    9900012    2    3    3    0    0 -0.33936983616E+02 -0.64699216557E+00  0.22383662072E+02  0.50528858548E+02  0.29999996044E+02 0.  0.
        -12    1    3    3    0    0  0.33936983616E+02  0.64699216557E+00 -0.22383662072E+02  0.40659141452E+02  0.00000000000E+00 0.  1.
         11    1    4    4    0    0  0.42704557104E+01  0.40751591577E+01  0.22269369036E+01  0.63089588974E+01  0.51100000000E-03 0. -1.
        -11    1    4    4    0    0 -0.62659953855E+01 -0.23562312749E+01  0.66774981269E+00  0.67275860504E+01  0.51100000000E-03 0.  1.
         12    1    4    4    0    0 -0.31941443941E+02 -0.23659200483E+01  0.19488975356E+02  0.37492313601E+02  0.00000000000E+00 0. -1.
</event>
<event>
 8    1  0.2031623E-013  0.9118800E+02  0.7816164E-02  0.1184000E+00
        -11   -1    0    0    0    0  0.00000000000E+00  0.00000000000E+00  0.45593999997E+02  0.45594000000E+02  0.51100000000E-03 0. -1.
         11   -1    0    0    0    0 -0.00000000000E+00 -0.00000000000E+00 -0.45593999997E+02  0.45594000000E+02  0.51100000000E-03 0.  1.
         23    2    1    2    0    0  0.17763568394E-14  0.00000000000E+00  0.17763568394E-14  0.91188000000E+02  0.91188000000E+02 0.  0.
    9900012    2    3    3    0    0 -0.15917372936E+02  0.34210868005E+02  0.15146734803E+02  0.50528808837E+02  0.29999844940E+02 0.  0.
        -12    1    3    3    0    0  0.15917372936E+02 -0.34210868005E+02 -0.15146734803E+02  0.40659191163E+02  0.00000000000E+00 0.  1.
         11    1    4    4    0    0 -0.11388723835E+02  0.18839064694E+02  0.11714381864E+02  0.24936722557E+02  0.51100000000E-03 0. -1.
        -11    1    4    4    0    0 -0.15068171593E+01  0.85021697370E+01 -0.80957623144E+01  0.11836332029E+02  0.51100000000E-03 0.  1.
        -12    1    4    4    0    0 -0.30218319415E+01  0.68696335739E+01  0.11528115253E+02  0.13755754251E+02  0.00000000000E+00 0.  1.
</event>
<event>
 8    1  0.2031623E-013  0.9118800E+02  0.7816164E-02  0.1184000E+00
        -11   -1    0    0    0    0  0.00000000000E+00  0.00000000000E+00  0.45593999997E+02  0.45594000000E+02  0.51100000000E-03 0. -1.
         11   -1    0    0    0    0 -0.00000000000E+00 -0.00000000000E+00 -0.45593999997E+02  0.45594000000E+02  0.51100000000E-03 0.  1.
         23    2    1    2    0    0 -0.44408920985E-15  0.00000000000E+00  0.00000000000E+00  0.91188000000E+02  0.91188000000E+02 0.  0.
    9900012    2    3    3    0    0  0.24061674999E+01 -0.39251468101E+02  0.10329452368E+02  0.50528868475E+02  0.30000026216E+02 0.  0.
        -12    1    3    3    0    0 -0.24061674999E+01  0.39251468101E+02 -0.10329452368E+02  0.40659131525E+02  0.00000000000E+00 0.  1.
         11    1    4    4    0    0 -0.70431620998E+00 -0.34901523422E+02 -0.13566772964E+01  0.34934982067E+02  0.51100000000E-03 0. -1.
        -11    1    4    4    0    0  0.59738978386E+01 -0.18061475668E+01  0.88444707574E+01  0.10824707278E+02  0.51100000000E-03 0.  1.
         12    1    4    4    0    0 -0.28634141287E+01 -0.25437971128E+01  0.28416589073E+01  0.47691791295E+01  0.00000000000E+00 0. -1.
</event>
<event>
 8    1  0.2031623E-013  0.9118800E+02  0.7816164E-02  0.1184000E+00
        -11   -1    0    0    0    0  0.00000000000E+00  0.00000000000E+00  0.45593999997E+02  0.45594000000E+02  0.51100000000E-03 0. -1.
         11   -1    0    0    0    0 -0.00000000000E+00 -0.00000000000E+00 -0.45593999997E+02  0.45594000000E+02  0.51100000000E-03 0.  1.
         23    2    1    2    0    0  0.22204460493E-15 -0.17763568394E-14  0.71054273576E-14  0.91188000000E+02  0.91188000000E+02 0.  0.
    9900012    2    3    3    0    0  0.17650148748E+01 -0.62530307130E+01 -0.40136683805E+02  0.50528818288E+02  0.29999873667E+02 0.  0.
         12    1    3    3    0    0 -0.17650148748E+01  0.62530307130E+01  0.40136683805E+02  0.40659181712E+02  0.00000000000E+00 0. -1.
         11    1    4    4    0    0 -0.73081134033E+01  0.58598528391E+01 -0.23435180233E+02  0.25237948998E+02  0.51100000000E-03 0.  1.
        -11    1    4    4    0    0  0.50510398779E+01 -0.38630017984E+01 -0.14497544660E+00  0.63605663964E+01  0.51100000000E-03 0. -1.
         12    1    4    4    0    0  0.40220884002E+01 -0.82498817537E+01 -0.16556528126E+02  0.18930302893E+02  0.00000000000E+00 0. -1.
</event>
<event>
 8    1  0.2031623E-013  0.9118800E+02  0.7816164E-02  0.1184000E+00
        -11   -1    0    0    0    0  0.00000000000E+00  0.00000000000E+00  0.45593999997E+02  0.45594000000E+02  0.51100000000E-03 0. -1.
         11   -1    0    0    0    0 -0.00000000000E+00 -0.00000000000E+00 -0.45593999997E+02  0.45594000000E+02  0.51100000000E-03 0.  1.
         23    2    1    2    0    0  0.00000000000E+00  0.00000000000E+00  0.00000000000E+00  0.91188000000E+02  0.91188000000E+02 0.  0.
    9900012    2    3    3    0    0  0.20043891401E+02 -0.65493401116E+01  0.34763691641E+02  0.50528859639E+02  0.29999999358E+02 0.  0.
        -12    1    3    3    0    0 -0.20043891401E+02  0.65493401116E+01 -0.34763691641E+02  0.40659140361E+02  0.00000000000E+00 0.  1.
         11    1    4    4    0    0  0.15251827583E+02  0.11362770972E+01  0.25446959417E+02  0.29689343443E+02  0.51100000000E-03 0. -1.
        -11    1    4    4    0    0 -0.45625008298E+01 -0.75311471700E+01  0.21767347365E+01  0.90704336111E+01  0.51100000000E-03 0.  1.
        -12    1    4    4    0    0  0.93545646485E+01 -0.15447003881E+00  0.71399974874E+01  0.11769082584E+02  0.00000000000E+00 0.  1.
</event>
<event>
 8    1  0.2031623E-013  0.9118800E+02  0.7816164E-02  0.1184000E+00
        -11   -1    0    0    0    0  0.00000000000E+00  0.00000000000E+00  0.45593999997E+02  0.45594000000E+02  0.51100000000E-03 0. -1.
         11   -1    0    0    0    0 -0.00000000000E+00 -0.00000000000E+00 -0.45593999997E+02  0.45594000000E+02  0.51100000000E-03 0.  1.
         23    2    1    2    0    0  0.00000000000E+00  0.00000000000E+00  0.00000000000E+00  0.91188000000E+02  0.91188000000E+02 0.  0.
    9900012    2    3    3    0    0  0.12882609236E+02  0.34806830181E+02 -0.16603873103E+02  0.50528860191E+02  0.30000001038E+02 0.  0.
         12    1    3    3    0    0 -0.12882609236E+02 -0.34806830181E+02  0.16603873103E+02  0.40659139809E+02  0.00000000000E+00 0. -1.
         11    1    4    4    0    0  0.13491489329E+01  0.19486057459E+02  0.12897380189E+01  0.19575241060E+02  0.51100000000E-03 0. -1.
        -11    1    4    4    0    0  0.12959722865E+02  0.17970232297E+02 -0.14840107609E+02  0.26666691952E+02  0.51100000000E-03 0.  1.
        -12    1    4    4    0    0 -0.14262625627E+01 -0.26494595751E+01 -0.30535035126E+01  0.42869271792E+01  0.00000000000E+00 0.  1.
</event>
<event>
 8    1  0.2031623E-013  0.9118800E+02  0.7816164E-02  0.1184000E+00
        -11   -1    0    0    0    0  0.00000000000E+00  0.00000000000E+00  0.45593999997E+02  0.45594000000E+02  0.51100000000E-03 0.  1.
         11   -1    0    0    0    0 -0.00000000000E+00 -0.00000000000E+00 -0.45593999997E+02  0.45594000000E+02  0.51100000000E-03 0. -1.
         23    2    1    2    0    0  0.17763568394E-14 -0.71054273576E-14 -0.17763568394E-14  0.91188000000E+02  0.91188000000E+02 0.  0.
    9900012    2    3    3    0    0 -0.13969330134E+02  0.35374518318E+02 -0.14375889100E+02  0.50528869192E+02  0.30000028397E+02 0.  0.
         12    1    3    3    0    0  0.13969330134E+02 -0.35374518318E+02  0.14375889100E+02  0.40659130808E+02  0.00000000000E+00 0. -1.
         11    1    4    4    0    0 -0.34575148561E+01 -0.40957716801E+01 -0.65973977228E+01  0.85003183240E+01  0.51100000000E-03 0. -1.
        -11    1    4    4    0    0 -0.99565726860E+01  0.26317317278E+02 -0.52878504711E+01  0.28630331664E+02  0.51100000000E-03 0.  1.
         12    1    4    4    0    0 -0.55524259186E+00  0.13152972720E+02 -0.24906409061E+01  0.13398219204E+02  0.00000000000E+00 0. -1.
</event>
<event>
 8    1  0.2031623E-013  0.9118800E+02  0.7816164E-02  0.1184000E+00
        -11   -1    0    0    0    0  0.00000000000E+00  0.00000000000E+00  0.45593999997E+02  0.45594000000E+02  0.51100000000E-03 0. -1.
         11   -1    0    0    0    0 -0.00000000000E+00 -0.00000000000E+00 -0.45593999997E+02  0.45594000000E+02  0.51100000000E-03 0.  1.
         23    2    1    2    0    0  0.00000000000E+00  0.00000000000E+00  0.00000000000E+00  0.91188000000E+02  0.91188000000E+02 0.  0.
    9900012    2    3    3    0    0 -0.23495870831E+02  0.14526535691E+02  0.29834349142E+02  0.50528873423E+02  0.30000041257E+02 0.  0.
        -12    1    3    3    0    0  0.23495870831E+02 -0.14526535691E+02 -0.29834349142E+02  0.40659126577E+02  0.00000000000E+00 0.  1.
         11    1    4    4    0    0 -0.84539283051E+01  0.14538717912E+02  0.97825306567E+01  0.19456133445E+02  0.51100000000E-03 0. -1.
        -11    1    4    4    0    0 -0.17259460429E+00 -0.51970678524E+01  0.12640929773E+02  0.13668665221E+02  0.51100000000E-03 0.  1.
        -12    1    4    4    0    0 -0.14869347922E+02  0.51848856308E+01  0.74108887128E+01  0.17404074757E+02  0.00000000000E+00 0.  1.
</event>
<event>
 8    1  0.2031623E-013  0.9118800E+02  0.7816164E-02  0.1184000E+00
        -11   -1    0    0    0    0  0.00000000000E+00  0.00000000000E+00  0.45593999997E+02  0.45594000000E+02  0.51100000000E-03 0.  1.
         11   -1    0    0    0    0 -0.00000000000E+00 -0.00000000000E+00 -0.45593999997E+02  0.45594000000E+02  0.51100000000E-03 0. -1.
         23    2    1    2    0    0  0.35527136788E-14  0.00000000000E+00 -0.17763568394E-14  0.91188000000E+02  0.91188000000E+02 0.  0.
    9900012    2    3    3    0    0  0.26610624404E+02  0.26493089027E+02 -0.15593476855E+02  0.50528860587E+02  0.30000002241E+02 0.  0.
         12    1    3    3    0    0 -0.26610624404E+02 -0.26493089027E+02  0.15593476855E+02  0.40659139413E+02  0.00000000000E+00 0. -1.
         11    1    4    4    0    0  0.53148790704E+01 -0.32446800060E+01 -0.68270331789E+01  0.92403609324E+01  0.51100000000E-03 0. -1.
        -11    1    4    4    0    0  0.65469184924E+01  0.14018357136E+02  0.43303941621E+01  0.16066387036E+02  0.51100000000E-03 0.  1.
         12    1    4    4    0    0  0.14748826841E+02  0.15719411897E+02 -0.13096837838E+02  0.25222112618E+02  0.00000000000E+00 0. -1.
</event>
<event>
 8    1  0.2031623E-013  0.9118800E+02  0.7816164E-02  0.1184000E+00
        -11   -1    0    0    0    0  0.00000000000E+00  0.00000000000E+00  0.45593999997E+02  0.45594000000E+02  0.51100000000E-03 0. -1.
         11   -1    0    0    0    0 -0.00000000000E+00 -0.00000000000E+00 -0.45593999997E+02  0.45594000000E+02  0.51100000000E-03 0.  1.
         23    2    1    2    0    0 -0.71054273576E-14  0.35527136788E-14  0.00000000000E+00  0.91188000000E+02  0.91188000000E+02 0.  0.
    9900012    2    3    3    0    0  0.33436286979E+02 -0.14476153450E+02 -0.18044991472E+02  0.50528855606E+02  0.29999987099E+02 0.  0.
         12    1    3    3    0    0 -0.33436286979E+02  0.14476153450E+02  0.18044991472E+02  0.40659144394E+02  0.00000000000E+00 0. -1.
         11    1    4    4    0    0  0.45773874410E+01  0.13090346904E+01  0.12350107684E+01  0.49184651533E+01  0.51100000000E-03 0. -1.
        -11    1    4    4    0    0  0.13432542202E+02 -0.19537160065E+02 -0.17835333583E+02  0.29668719853E+02  0.51100000000E-03 0.  1.
        -12    1    4    4    0    0  0.15426357336E+02  0.37519719243E+01 -0.14446686572E+01  0.15941670600E+02  0.00000000000E+00 0.  1.
</event>
<event>
 8    1  0.2031623E-013  0.9118800E+02  0.7816164E-02  0.1184000E+00
        -11   -1    0    0    0    0  0.00000000000E+00  0.00000000000E+00  0.45593999997E+02  0.45594000000E+02  0.51100000000E-03 0. -1.
         11   -1    0    0    0    0 -0.00000000000E+00 -0.00000000000E+00 -0.45593999997E+02  0.45594000000E+02  0.51100000000E-03 0.  1.
         23    2    1    2    0    0  0.00000000000E+00  0.00000000000E+00  0.00000000000E+00  0.91188000000E+02  0.91188000000E+02 0.  0.
    9900012    2    3    3    0    0  0.33916503454E+02  0.90779970688E+01 -0.20504316414E+02  0.50528853072E+02  0.29999979398E+02 0.  0.
         12    1    3    3    0    0 -0.33916503454E+02 -0.90779970688E+01  0.20504316414E+02  0.40659146928E+02  0.00000000000E+00 0. -1.
         11    1    4    4    0    0  0.47060452890E+00 -0.25588373255E+01 -0.12559641403E+02  0.12826289779E+02  0.51100000000E-03 0. -1.
        -11    1    4    4    0    0  0.15317066716E+02  0.10622116096E+02 -0.50904854101E+01  0.19322394393E+02  0.51100000000E-03 0.  1.
         12    1    4    4    0    0  0.18128832209E+02  0.10147182988E+01 -0.28541896015E+01  0.18380168899E+02  0.00000000000E+00 0. -1.
</event>
<event>
 8    1  0.2031623E-013  0.9118800E+02  0.7816164E-02  0.1184000E+00
        -11   -1    0    0    0    0  0.00000000000E+00  0.00000000000E+00  0.45593999997E+02  0.45594000000E+02  0.51100000000E-03 0. -1.
         11   -1    0    0    0    0 -0.00000000000E+00 -0.00000000000E+00 -0.45593999997E+02  0.45594000000E+02  0.51100000000E-03 0.  1.
         23    2    1    2    0    0  0.00000000000E+00  0.15543122345E-14  0.00000000000E+00  0.91188000000E+02  0.91188000000E+02 0.  0.
    9900012    2    3    3    0    0 -0.76412026646E+01  0.99414190857E+00  0.39922292282E+02  0.50528859363E+02  0.29999998519E+02 0.  0.
        -12    1    3    3    0    0  0.76412026646E+01 -0.99414190857E+00 -0.39922292282E+02  0.40659140637E+02  0.00000000000E+00 0.  1.
         11    1    4    4    0    0 -0.51311363962E+01  0.86600017487E+01  0.34692711396E+01  0.10647066897E+02  0.51100000000E-03 0. -1.
        -11    1    4    4    0    0 -0.77768977783E+01 -0.16513145314E+01  0.21551465323E+02  0.22971126150E+02  0.51100000000E-03 0.  1.
         12    1    4    4    0    0  0.52668315100E+01 -0.60145453088E+01  0.14901555819E+02  0.16910666316E+02  0.00000000000E+00 0. -1.
</event>
<event>
 8    1  0.2031623E-013  0.9118800E+02  0.7816164E-02  0.1184000E+00
        -11   -1    0    0    0    0  0.00000000000E+00  0.00000000000E+00  0.45593999997E+02  0.45594000000E+02  0.51100000000E-03 0.  1.
         11   -1    0    0    0    0 -0.00000000000E+00 -0.00000000000E+00 -0.45593999997E+02  0.45594000000E+02  0.51100000000E-03 0. -1.
         23    2    1    2    0    0  0.17763568394E-14  0.00000000000E+00  0.00000000000E+00  0.91188000000E+02  0.91188000000E+02 0.  0.
    9900012    2    3    3    0    0 -0.52500962868E+01  0.40245815694E+02 -0.24241561946E+01  0.50528859267E+02  0.29999998228E+02 0.  0.
        -12    1    3    3    0    0  0.52500962868E+01 -0.40245815694E+02  0.24241561946E+01  0.40659140733E+02  0.00000000000E+00 0.  1.
         11    1    4    4    0    0 -0.43371487326E+01  0.12778790222E+02 -0.51794086648E+01  0.14454570663E+02  0.51100000000E-03 0. -1.
        -11    1    4    4    0    0  0.93199000056E+01  0.49355647833E+01  0.40430365074E+01  0.11294533204E+02  0.51100000000E-03 0.  1.
        -12    1    4    4    0    0 -0.10232847560E+02  0.22531460689E+02 -0.12877840372E+01  0.24779755400E+02  0.00000000000E+00 0.  1.
</event>
<event>
 8    1  0.2031623E-013  0.9118800E+02  0.7816164E-02  0.1184000E+00
        -11   -1    0    0    0    0  0.00000000000E+00  0.00000000000E+00  0.45593999997E+02  0.45594000000E+02  0.51100000000E-03 0. -1.
         11   -1    0    0    0    0 -0.00000000000E+00 -0.00000000000E+00 -0.45593999997E+02  0.45594000000E+02  0.51100000000E-03 0.  1.
         23    2    1    2    0    0 -0.17763568394E-14  0.44408920985E-15  0.00000000000E+00  0.91188000000E+02  0.91188000000E+02 0.  0.
    9900012    2    3    3    0    0 -0.87032390473E+01  0.98870815652E+00  0.39704417868E+02  0.50528871727E+02  0.30000036100E+02 0.  0.
        -12    1    3    3    0    0  0.87032390473E+01 -0.98870815652E+00 -0.39704417868E+02  0.40659128273E+02  0.00000000000E+00 0.  1.
         11    1    4    4    0    0 -0.29589125152E+01 -0.50298466572E+01  0.78666688829E+01  0.97948455956E+01  0.51100000000E-03 0. -1.
        -11    1    4    4    0    0  0.64200109438E+01  0.32166419672E+01  0.73314965347E+00  0.72180907960E+01  0.51100000000E-03 0.  1.
        -12    1    4    4    0    0 -0.12164337476E+02  0.28019128465E+01  0.31104599331E+02  0.33515935335E+02  0.00000000000E+00 0.  1.
</event>
<event>
 8    1  0.2031623E-013  0.9118800E+02  0.7816164E-02  0.1184000E+00
        -11   -1    0    0    0    0  0.00000000000E+00  0.00000000000E+00  0.45593999997E+02  0.45594000000E+02  0.51100000000E-03 0. -1.
         11   -1    0    0    0    0 -0.00000000000E+00 -0.00000000000E+00 -0.45593999997E+02  0.45594000000E+02  0.51100000000E-03 0.  1.
         23    2    1    2    0    0 -0.17763568394E-14 -0.71054273576E-14  0.00000000000E+00  0.91188000000E+02  0.91188000000E+02 0.  0.
    9900012    2    3    3    0    0  0.12662307593E+02 -0.33159284233E+02  0.19831626679E+02  0.50528861038E+02  0.30000003610E+02 0.  0.
        -12    1    3    3    0    0 -0.12662307593E+02  0.33159284233E+02 -0.19831626679E+02  0.40659138962E+02  0.00000000000E+00 0.  1.
         11    1    4    4    0    0 -0.15032342081E+01 -0.25477801723E+02  0.13617790124E+01  0.25558414193E+02  0.51100000000E-03 0. -1.
        -11    1    4    4    0    0  0.54919031089E+01 -0.53949712516E+00  0.51936941691E+01  0.75780285226E+01  0.51100000000E-03 0.  1.
         12    1    4    4    0    0  0.86736386921E+01 -0.71419853851E+01  0.13276153498E+02  0.17392418322E+02  0.00000000000E+00 0. -1.
</event>
<event>
 8    1  0.2031623E-013  0.9118800E+02  0.7816164E-02  0.1184000E+00
        -11   -1    0    0    0    0  0.00000000000E+00  0.00000000000E+00  0.45593999997E+02  0.45594000000E+02  0.51100000000E-03 0. -1.
         11   -1    0    0    0    0 -0.00000000000E+00 -0.00000000000E+00 -0.45593999997E+02  0.45594000000E+02  0.51100000000E-03 0.  1.
         23    2    1    2    0    0 -0.35527136788E-14  0.00000000000E+00  0.00000000000E+00  0.91188000000E+02  0.91188000000E+02 0.  0.
    9900012    2    3    3    0    0 -0.26046397390E+02 -0.11481991024E+01  0.31199888061E+02  0.50528853511E+02  0.29999980731E+02 0.  0.
        -12    1    3    3    0    0  0.26046397390E+02  0.11481991024E+01 -0.31199888061E+02  0.40659146489E+02  0.00000000000E+00 0.  1.
         11    1    4    4    0    0  0.13480422954E+01  0.27323226737E+01  0.58314588649E+01  0.65794162338E+01  0.51100000000E-03 0. -1.
        -11    1    4    4    0    0 -0.13061727421E+02 -0.13066410487E+02  0.16418006582E+02  0.24716204130E+02  0.51100000000E-03 0.  1.
        -12    1    4    4    0    0 -0.14332712265E+02  0.91858887111E+01  0.89504226149E+01  0.19233233147E+02  0.00000000000E+00 0.  1.
</event>
<event>
 8    1  0.2031623E-013  0.9118800E+02  0.7816164E-02  0.1184000E+00
        -11   -1    0    0    0    0  0.00000000000E+00  0.00000000000E+00  0.45593999997E+02  0.45594000000E+02  0.51100000000E-03 0. -1.
         11   -1    0    0    0    0 -0.00000000000E+00 -0.00000000000E+00 -0.45593999997E+02  0.45594000000E+02  0.51100000000E-03 0.  1.
         23    2    1    2    0    0  0.35527136788E-14  0.00000000000E+00  0.00000000000E+00  0.91188000000E+02  0.91188000000E+02 0.  0.
    9900012    2    3    3    0    0 -0.24743689660E+02  0.27006253768E+02  0.17651718589E+02  0.50528793297E+02  0.29999797704E+02 0.  0.
        -12    1    3    3    0    0  0.24743689660E+02 -0.27006253768E+02 -0.17651718589E+02  0.40659206703E+02  0.00000000000E+00 0.  1.
         11    1    4    4    0    0  0.39272236573E+01  0.24367407918E+01  0.82394612921E+01  0.94471960912E+01  0.51100000000E-03 0. -1.
        -11    1    4    4    0    0 -0.21041313547E+02  0.12651346179E+02  0.90154466384E+00  0.24568398787E+02  0.51100000000E-03 0.  1.
         12    1    4    4    0    0 -0.76295997699E+01  0.11918166798E+02  0.85107126334E+01  0.16513198418E+02  0.00000000000E+00 0. -1.
</event>
<event>
 8    1  0.2031623E-013  0.9118800E+02  0.7816164E-02  0.1184000E+00
        -11   -1    0    0    0    0  0.00000000000E+00  0.00000000000E+00  0.45593999997E+02  0.45594000000E+02  0.51100000000E-03 0. -1.
         11   -1    0    0    0    0 -0.00000000000E+00 -0.00000000000E+00 -0.45593999997E+02  0.45594000000E+02  0.51100000000E-03 0.  1.
         23    2    1    2    0    0  0.00000000000E+00  0.00000000000E+00  0.00000000000E+00  0.91188000000E+02  0.91188000000E+02 0.  0.
    9900012    2    3    3    0    0  0.17170968612E+02  0.25121456752E+02 -0.26967309693E+02  0.50528861488E+02  0.30000004980E+02 0.  0.
         12    1    3    3    0    0 -0.17170968612E+02 -0.25121456752E+02  0.26967309693E+02  0.40659138512E+02  0.00000000000E+00 0. -1.
         11    1    4    4    0    0  0.22960334551E+01 -0.22935938430E+01 -0.70805223732E+01  0.77888471343E+01  0.51100000000E-03 0. -1.
        -11    1    4    4    0    0  0.11072873993E+02  0.29060089150E+02 -0.11089766964E+02  0.33016363389E+02  0.51100000000E-03 0.  1.
        -12    1    4    4    0    0  0.38020611642E+01 -0.16450385549E+01 -0.87970203561E+01  0.97236509650E+01  0.00000000000E+00 0.  1.
</event>
<event>
 8    1  0.2031623E-013  0.9118800E+02  0.7816164E-02  0.1184000E+00
        -11   -1    0    0    0    0  0.00000000000E+00  0.00000000000E+00  0.45593999997E+02  0.45594000000E+02  0.51100000000E-03 0. -1.
         11   -1    0    0    0    0 -0.00000000000E+00 -0.00000000000E+00 -0.45593999997E+02  0.45594000000E+02  0.51100000000E-03 0.  1.
         23    2    1    2    0    0  0.00000000000E+00 -0.17763568394E-14  0.00000000000E+00  0.91188000000E+02  0.91188000000E+02 0.  0.
    9900012    2    3    3    0    0 -0.32724656564E+02 -0.81614024549E+01  0.22708027712E+02  0.50528853922E+02  0.29999981980E+02 0.  0.
        -12    1    3    3    0    0  0.32724656564E+02  0.81614024549E+01 -0.22708027712E+02  0.40659146078E+02  0.00000000000E+00 0.  1.
         11    1    4    4    0    0 -0.11967376281E+02  0.51855475494E-01  0.47215065634E+01  0.12865201457E+02  0.51100000000E-03 0. -1.
        -11    1    4    4    0    0  0.24033107814E+01  0.43615739835E+01  0.81154842843E+01  0.95215710760E+01  0.51100000000E-03 0.  1.
        -12    1    4    4    0    0 -0.23160591065E+02 -0.12574831914E+02  0.98710368642E+01  0.28142081389E+02  0.00000000000E+00 0.  1.
</event>
<event>
 8    1  0.2031623E-013  0.9118800E+02  0.7816164E-02  0.1184000E+00
        -11   -1    0    0    0    0  0.00000000000E+00  0.00000000000E+00  0.45593999997E+02  0.45594000000E+02  0.51100000000E-03 0. -1.
         11   -1    0    0    0    0 -0.00000000000E+00 -0.00000000000E+00 -0.45593999997E+02  0.45594000000E+02  0.51100000000E-03 0.  1.
         23    2    1    2    0    0  0.17763568394E-14  0.00000000000E+00  0.00000000000E+00  0.91188000000E+02  0.91188000000E+02 0.  0.
    9900012    2    3    3    0    0  0.15177520767E+02  0.29087409605E+02  0.24015221412E+02  0.50528863344E+02  0.30000010619E+02 0.  0.
        -12    1    3    3    0    0 -0.15177520767E+02 -0.29087409605E+02 -0.24015221412E+02  0.40659136656E+02  0.00000000000E+00 0.  1.
         11    1    4    4    0    0  0.14413467155E+02  0.23104601610E+02  0.16420414403E+02  0.31799381448E+02  0.51100000000E-03 0. -1.
        -11    1    4    4    0    0 -0.31692897856E+01 -0.32406793392E+01 -0.19049503427E+01  0.49168319469E+01  0.51100000000E-03 0.  1.
        -12    1    4    4    0    0  0.39333433978E+01  0.92234873339E+01  0.94997573513E+01  0.13812649949E+02  0.00000000000E+00 0.  1.
</event>
<event>
 8    1  0.2031623E-013  0.9118800E+02  0.7816164E-02  0.1184000E+00
        -11   -1    0    0    0    0  0.00000000000E+00  0.00000000000E+00  0.45593999997E+02  0.45594000000E+02  0.51100000000E-03 0. -1.
         11   -1    0    0    0    0 -0.00000000000E+00 -0.00000000000E+00 -0.45593999997E+02  0.45594000000E+02  0.51100000000E-03 0.  1.
         23    2    1    2    0    0  0.00000000000E+00  0.35527136788E-14  0.00000000000E+00  0.91188000000E+02  0.91188000000E+02 0.  0.
    9900012    2    3    3    0    0 -0.12732139361E+02  0.16523815261E+02 -0.34900162302E+02  0.50528866067E+02  0.30000018897E+02 0.  0.
         12    1    3    3    0    0  0.12732139361E+02 -0.16523815261E+02  0.34900162302E+02  0.40659133933E+02  0.00000000000E+00 0. -1.
         11    1    4    4    0    0 -0.97432990784E+01 -0.67439059170E+01 -0.14650985980E+02  0.18843129634E+02  0.51100000000E-03 0. -1.
        -11    1    4    4    0    0  0.10009847811E+01  0.10020331593E+02 -0.11636204739E+02  0.15388641161E+02  0.51100000000E-03 0.  1.
         12    1    4    4    0    0 -0.39898250636E+01  0.13247389584E+02 -0.86129715823E+01  0.16297095272E+02  0.00000000000E+00 0. -1.
</event>
<event>
 8    1  0.2031623E-013  0.9118800E+02  0.7816164E-02  0.1184000E+00
        -11   -1    0    0    0    0  0.00000000000E+00  0.00000000000E+00  0.45593999997E+02  0.45594000000E+02  0.51100000000E-03 0. -1.
         11   -1    0    0    0    0 -0.00000000000E+00 -0.00000000000E+00 -0.45593999997E+02  0.45594000000E+02  0.51100000000E-03 0.  1.
         23    2    1    2    0    0  0.00000000000E+00  0.00000000000E+00 -0.35527136788E-14  0.91188000000E+02  0.91188000000E+02 0.  0.
    9900012    2    3    3    0    0 -0.25028417152E+02  0.53625557669E+01 -0.31590947660E+02  0.50528847973E+02  0.29999963899E+02 0.  0.
         12    1    3    3    0    0  0.25028417152E+02 -0.53625557669E+01  0.31590947660E+02  0.40659152027E+02  0.00000000000E+00 0. -1.
         11    1    4    4    0    0 -0.63130371196E+01  0.21651766535E+01 -0.78682854130E+00  0.67202326618E+01  0.51100000000E-03 0. -1.
        -11    1    4    4    0    0  0.56687520011E+01  0.28246769573E+01 -0.95512643026E+01  0.11460375177E+02  0.51100000000E-03 0.  1.
        -12    1    4    4    0    0 -0.24384132033E+02  0.37270215617E+00 -0.21252854817E+02  0.32348240134E+02  0.00000000000E+00 0.  1.
</event>
<event>
 8    1  0.2031623E-013  0.9118800E+02  0.7816164E-02  0.1184000E+00
        -11   -1    0    0    0    0  0.00000000000E+00  0.00000000000E+00  0.45593999997E+02  0.45594000000E+02  0.51100000000E-03 0.  1.
         11   -1    0    0    0    0 -0.00000000000E+00 -0.00000000000E+00 -0.45593999997E+02  0.45594000000E+02  0.51100000000E-03 0. -1.
         23    2    1    2    0    0 -0.35527136788E-14  0.00000000000E+00  0.35527136788E-14  0.91188000000E+02  0.91188000000E+02 0.  0.
    9900012    2    3    3    0    0  0.19246770000E+02 -0.17456244697E+02 -0.31273151279E+02  0.50528823603E+02  0.29999889824E+02 0.  0.
         12    1    3    3    0    0 -0.19246770000E+02  0.17456244697E+02  0.31273151279E+02  0.40659176397E+02  0.00000000000E+00 0. -1.
         11    1    4    4    0    0  0.16223794779E+02 -0.24227093181E+02 -0.26405230722E+02  0.39337002565E+02  0.51100000000E-03 0. -1.
        -11    1    4    4    0    0  0.47897244649E+01  0.34680248998E+01 -0.44944732209E+01  0.74275801543E+01  0.51100000000E-03 0.  1.
         12    1    4    4    0    0 -0.17667492438E+01  0.33028235844E+01 -0.37344733596E+00  0.37642408840E+01  0.00000000000E+00 0. -1.
</event>
<event>
 8    1  0.2031623E-013  0.9118800E+02  0.7816164E-02  0.1184000E+00
        -11   -1    0    0    0    0  0.00000000000E+00  0.00000000000E+00  0.45593999997E+02  0.45594000000E+02  0.51100000000E-03 0. -1.
         11   -1    0    0    0    0 -0.00000000000E+00 -0.00000000000E+00 -0.45593999997E+02  0.45594000000E+02  0.51100000000E-03 0.  1.
         23    2    1    2    0    0 -0.71054273576E-14 -0.17763568394E-14  0.35527136788E-14  0.91188000000E+02  0.91188000000E+02 0.  0.
    9900012    2    3    3    0    0  0.34812901886E+02  0.10105734526E+02 -0.18414725425E+02  0.50528854405E+02  0.29999983451E+02 0.  0.
         12    1    3    3    0    0 -0.34812901886E+02 -0.10105734526E+02  0.18414725425E+02  0.40659145595E+02  0.00000000000E+00 0. -1.
         11    1    4    4    0    0  0.24802463645E+02 -0.52910014927E+01 -0.14045976422E+02  0.28990452801E+02  0.51100000000E-03 0.  1.
        -11    1    4    4    0    0  0.22845142387E+01  0.12511360533E+02 -0.14990963411E+01  0.12806265568E+02  0.51100000000E-03 0. -1.
        -12    1    4    4    0    0  0.77259240017E+01  0.28853754858E+01 -0.28696526616E+01  0.87321360372E+01  0.00000000000E+00 0.  1.
</event>
<event>
 8    1  0.2031623E-013  0.9118800E+02  0.7816164E-02  0.1184000E+00
        -11   -1    0    0    0    0  0.00000000000E+00  0.00000000000E+00  0.45593999997E+02  0.45594000000E+02  0.51100000000E-03 0. -1.
         11   -1    0    0    0    0 -0.00000000000E+00 -0.00000000000E+00 -0.45593999997E+02  0.45594000000E+02  0.51100000000E-03 0.  1.
         23    2    1    2    0    0  0.00000000000E+00  0.00000000000E+00  0.71054273576E-14  0.91188000000E+02  0.91188000000E+02 0.  0.
    9900012    2    3    3    0    0  0.99402209691E+01 -0.11965358615E+02 -0.37565783425E+02  0.50528857313E+02  0.29999992288E+02 0.  0.
         12    1    3    3    0    0 -0.99402209691E+01  0.11965358615E+02  0.37565783425E+02  0.40659142687E+02  0.00000000000E+00 0. -1.
         11    1    4    4    0    0  0.14864019192E+02  0.38933202223E+01 -0.15974518507E+02  0.22164887788E+02  0.51100000000E-03 0. -1.
        -11    1    4    4    0    0 -0.47511618141E+01 -0.12025350004E+02 -0.20729099628E+02  0.24431089885E+02  0.51100000000E-03 0.  1.
         12    1    4    4    0    0 -0.17263640894E+00 -0.38333288329E+01 -0.86216529042E+00  0.39328796395E+01  0.00000000000E+00 0. -1.
</event>
<event>
 8    1  0.3713940E-013  0.9118800E+02  0.7816164E-02  0.1184000E+00
        -11   -1    0    0    0    0  0.00000000000E+00  0.00000000000E+00  0.45593999997E+02  0.45594000000E+02  0.51100000000E-03 0. -1.
         11   -1    0    0    0    0 -0.00000000000E+00 -0.00000000000E+00 -0.45593999997E+02  0.45594000000E+02  0.51100000000E-03 0.  1.
         23    2    1    2    0    0  0.13322676296E-14 -0.44408920985E-15  0.00000000000E+00  0.91188000000E+02  0.91188000000E+02 0.  0.
    9900012    2    3    3    0    0 -0.34655393206E+01  0.23924093512E+01 -0.40440474694E+02  0.50528861067E+02  0.30000003700E+02 0.  0.
         12    1    3    3    0    0  0.34655393206E+01 -0.23924093512E+01  0.40440474694E+02  0.40659138933E+02  0.00000000000E+00 0. -1.
         11    1    4    4    0    0 -0.11661475558E+02 -0.22886070134E+01 -0.41228771738E+01  0.12578785740E+02  0.51100000000E-03 0. -1.
        -11    1    4    4    0    0  0.29026771222E+01  0.31480464891E+01 -0.24977505495E+02  0.25341892435E+02  0.51100000000E-03 0.  1.
         12    1    4    4    0    0  0.52932591149E+01  0.15329698754E+01 -0.11340092025E+02  0.12608182892E+02  0.00000000000E+00 0. -1.
</event>
<event>
 8    1  0.2031623E-013  0.9118800E+02  0.7816164E-02  0.1184000E+00
        -11   -1    0    0    0    0  0.00000000000E+00  0.00000000000E+00  0.45593999997E+02  0.45594000000E+02  0.51100000000E-03 0. -1.
         11   -1    0    0    0    0 -0.00000000000E+00 -0.00000000000E+00 -0.45593999997E+02  0.45594000000E+02  0.51100000000E-03 0.  1.
         23    2    1    2    0    0  0.00000000000E+00  0.00000000000E+00  0.00000000000E+00  0.91188000000E+02  0.91188000000E+02 0.  0.
    9900012    2    3    3    0    0 -0.22262003547E+02 -0.66072162939E+01 -0.33375356734E+02  0.50528849170E+02  0.29999967537E+02 0.  0.
         12    1    3    3    0    0  0.22262003547E+02  0.66072162939E+01  0.33375356734E+02  0.40659150830E+02  0.00000000000E+00 0. -1.
         11    1    4    4    0    0  0.79787739673E+00 -0.36042234330E+01 -0.20569443371E+02  0.20898062966E+02  0.51100000000E-03 0. -1.
        -11    1    4    4    0    0 -0.18524758823E+02 -0.35796261163E+01 -0.33980869471E+01  0.19171004349E+02  0.51100000000E-03 0.  1.
        -12    1    4    4    0    0 -0.45351221207E+01  0.57663325540E+00 -0.94078264163E+01  0.10459781854E+02  0.00000000000E+00 0.  1.
</event>
<event>
 8    1  0.2031623E-013  0.9118800E+02  0.7816164E-02  0.1184000E+00
        -11   -1    0    0    0    0  0.00000000000E+00  0.00000000000E+00  0.45593999997E+02  0.45594000000E+02  0.51100000000E-03 0. -1.
         11   -1    0    0    0    0 -0.00000000000E+00 -0.00000000000E+00 -0.45593999997E+02  0.45594000000E+02  0.51100000000E-03 0.  1.
         23    2    1    2    0    0  0.22204460493E-15  0.00000000000E+00  0.00000000000E+00  0.91188000000E+02  0.91188000000E+02 0.  0.
    9900012    2    3    3    0    0 -0.11345555551E+01 -0.19756352605E+02 -0.35518493967E+02  0.50528879274E+02  0.30000059041E+02 0.  0.
         12    1    3    3    0    0  0.11345555551E+01  0.19756352605E+02  0.35518493967E+02  0.40659120726E+02  0.00000000000E+00 0. -1.
         11    1    4    4    0    0  0.77882262623E+01  0.46050107050E+00 -0.16979469981E+02  0.18686115986E+02  0.51100000000E-03 0. -1.
        -11    1    4    4    0    0 -0.54580790528E+01 -0.21487547723E+02 -0.16408031705E+02  0.27581313217E+02  0.51100000000E-03 0.  1.
        -12    1    4    4    0    0 -0.34647027646E+01  0.12706940470E+01 -0.21309922807E+01  0.42614500711E+01  0.00000000000E+00 0.  1.
</event>
<event>
 8    1  0.2031623E-013  0.9118800E+02  0.7816164E-02  0.1184000E+00
        -11   -1    0    0    0    0  0.00000000000E+00  0.00000000000E+00  0.45593999997E+02  0.45594000000E+02  0.51100000000E-03 0. -1.
         11   -1    0    0    0    0 -0.00000000000E+00 -0.00000000000E+00 -0.45593999997E+02  0.45594000000E+02  0.51100000000E-03 0.  1.
         23    2    1    2    0    0  0.00000000000E+00 -0.15265566589E-15  0.00000000000E+00  0.91188000000E+02  0.91188000000E+02 0.  0.
    9900012    2    3    3    0    0 -0.20103719628E+02 -0.69787851452E-01  0.35341211181E+02  0.50528860548E+02  0.30000002122E+02 0.  0.
        -12    1    3    3    0    0  0.20103719628E+02  0.69787851452E-01 -0.35341211181E+02  0.40659139452E+02  0.00000000000E+00 0.  1.
         11    1    4    4    0    0  0.30041344231E+01 -0.18481267156E+01  0.13559560913E+02  0.14010784717E+02  0.51100000000E-03 0. -1.
        -11    1    4    4    0    0 -0.10394324067E+02 -0.57208680946E+00 -0.85950729534E+00  0.10445477929E+02  0.51100000000E-03 0.  1.
        -12    1    4    4    0    0 -0.12713529985E+02  0.23504256736E+01  0.22641157563E+02  0.26072597902E+02  0.00000000000E+00 0.  1.
</event>
<event>
 8    1  0.2031623E-013  0.9118800E+02  0.7816164E-02  0.1184000E+00
        -11   -1    0    0    0    0  0.00000000000E+00  0.00000000000E+00  0.45593999997E+02  0.45594000000E+02  0.51100000000E-03 0.  1.
         11   -1    0    0    0    0 -0.00000000000E+00 -0.00000000000E+00 -0.45593999997E+02  0.45594000000E+02  0.51100000000E-03 0. -1.
         23    2    1    2    0    0  0.35527136788E-14  0.00000000000E+00 -0.35527136788E-14  0.91188000000E+02  0.91188000000E+02 0.  0.
    9900012    2    3    3    0    0 -0.16707440024E+02  0.28495337830E+02 -0.23707446018E+02  0.50528858016E+02  0.29999994426E+02 0.  0.
         12    1    3    3    0    0  0.16707440024E+02 -0.28495337830E+02  0.23707446018E+02  0.40659141984E+02  0.00000000000E+00 0. -1.
         11    1    4    4    0    0 -0.20115017630E+02  0.23370811043E+02 -0.17323938075E+02  0.35368454500E+02  0.51100000000E-03 0. -1.
        -11    1    4    4    0    0  0.50891228599E+01  0.85180855190E+01 -0.40875837020E+01  0.10731509361E+02  0.51100000000E-03 0.  1.
         12    1    4    4    0    0 -0.16815452540E+01 -0.33935587324E+01 -0.22959242411E+01  0.44288941546E+01  0.00000000000E+00 0. -1.
</event>
<event>
 8    1  0.2031623E-013  0.9118800E+02  0.7816164E-02  0.1184000E+00
        -11   -1    0    0    0    0  0.00000000000E+00  0.00000000000E+00  0.45593999997E+02  0.45594000000E+02  0.51100000000E-03 0. -1.
         11   -1    0    0    0    0 -0.00000000000E+00 -0.00000000000E+00 -0.45593999997E+02  0.45594000000E+02  0.51100000000E-03 0.  1.
         23    2    1    2    0    0  0.35527136788E-14  0.35527136788E-14 -0.17763568394E-14  0.91188000000E+02  0.91188000000E+02 0.  0.
    9900012    2    3    3    0    0  0.30602029892E+02  0.23374226286E+02 -0.13050941914E+02  0.50528858680E+02  0.29999996445E+02 0.  0.
         12    1    3    3    0    0 -0.30602029892E+02 -0.23374226286E+02  0.13050941914E+02  0.40659141320E+02  0.00000000000E+00 0. -1.
         11    1    4    4    0    0  0.37985121872E+01  0.33468311277E+01 -0.39442452176E+01  0.64177133024E+01  0.51100000000E-03 0.  1.
        -11    1    4    4    0    0  0.93270006102E+01  0.23312527066E+02 -0.28977311098E+01  0.25275753291E+02  0.51100000000E-03 0. -1.
        -12    1    4    4    0    0  0.17476517095E+02 -0.32851319074E+01 -0.62089655866E+01  0.18835392087E+02  0.00000000000E+00 0.  1.
</event>
<event>
 8    1  0.2031623E-013  0.9118800E+02  0.7816164E-02  0.1184000E+00
        -11   -1    0    0    0    0  0.00000000000E+00  0.00000000000E+00  0.45593999997E+02  0.45594000000E+02  0.51100000000E-03 0. -1.
         11   -1    0    0    0    0 -0.00000000000E+00 -0.00000000000E+00 -0.45593999997E+02  0.45594000000E+02  0.51100000000E-03 0.  1.
         23    2    1    2    0    0  0.71054273576E-14  0.00000000000E+00 -0.88817841970E-15  0.91188000000E+02  0.91188000000E+02 0.  0.
    9900012    2    3    3    0    0 -0.40156971106E+02 -0.44629628251E+01  0.45459516745E+01  0.50528855368E+02  0.29999986376E+02 0.  0.
        -12    1    3    3    0    0  0.40156971106E+02  0.44629628251E+01 -0.45459516745E+01  0.40659144632E+02  0.00000000000E+00 0.  1.
         11    1    4    4    0    0 -0.65031287534E+01 -0.57339197377E+01  0.54232616028E+01  0.10226450304E+02  0.51100000000E-03 0. -1.
        -11    1    4    4    0    0 -0.14235892547E+02  0.11511564722E+02 -0.12010381524E+01  0.18347186484E+02  0.51100000000E-03 0.  1.
        -12    1    4    4    0    0 -0.19417949805E+02 -0.10240607809E+02  0.32372822409E+00  0.21955218580E+02  0.00000000000E+00 0.  1.
</event>
<event>
 8    1  0.2031623E-013  0.9118800E+02  0.7816164E-02  0.1184000E+00
        -11   -1    0    0    0    0  0.00000000000E+00  0.00000000000E+00  0.45593999997E+02  0.45594000000E+02  0.51100000000E-03 0. -1.
         11   -1    0    0    0    0 -0.00000000000E+00 -0.00000000000E+00 -0.45593999997E+02  0.45594000000E+02  0.51100000000E-03 0.  1.
         23    2    1    2    0    0 -0.88817841970E-15 -0.71054273576E-14 -0.17763568394E-14  0.91188000000E+02  0.91188000000E+02 0.  0.
    9900012    2    3    3    0    0 -0.76261620453E+01 -0.37730258494E+02 -0.13093321003E+02  0.50528858242E+02  0.29999995113E+02 0.  0.
         12    1    3    3    0    0  0.76261620453E+01  0.37730258494E+02  0.13093321003E+02  0.40659141758E+02  0.00000000000E+00 0. -1.
         11    1    4    4    0    0 -0.55736410166E+01 -0.79613590727E-01 -0.46195004637E+01  0.72395854371E+01  0.51100000000E-03 0. -1.
        -11    1    4    4    0    0 -0.54246994829E+01 -0.30628673756E+02  0.87851227864E+00  0.31117757063E+02  0.51100000000E-03 0.  1.
        -12    1    4    4    0    0  0.33721784542E+01 -0.70219711470E+01 -0.93523328183E+01  0.12171515742E+02  0.00000000000E+00 0.  1.
</event>
<event>
 8    1  0.2031623E-013  0.9118800E+02  0.7816164E-02  0.1184000E+00
        -11   -1    0    0    0    0  0.00000000000E+00  0.00000000000E+00  0.45593999997E+02  0.45594000000E+02  0.51100000000E-03 0. -1.
         11   -1    0    0    0    0 -0.00000000000E+00 -0.00000000000E+00 -0.45593999997E+02  0.45594000000E+02  0.51100000000E-03 0.  1.
         23    2    1    2    0    0 -0.88817841970E-15  0.35527136788E-14  0.35527136788E-14  0.91188000000E+02  0.91188000000E+02 0.  0.
    9900012    2    3    3    0    0 -0.63008225216E+01 -0.24858184734E+02 -0.31552120275E+02  0.50528855806E+02  0.29999987708E+02 0.  0.
         12    1    3    3    0    0  0.63008225216E+01  0.24858184734E+02  0.31552120275E+02  0.40659144194E+02  0.00000000000E+00 0. -1.
         11    1    4    4    0    0 -0.13846274373E+02 -0.16891951120E+02 -0.22503598137E+02  0.31360313392E+02  0.51100000000E-03 0. -1.
        -11    1    4    4    0    0  0.70621365416E+01 -0.11239692102E+02 -0.86307474892E+01  0.15833327306E+02  0.51100000000E-03 0.  1.
         12    1    4    4    0    0  0.48331531025E+00  0.32734584882E+01 -0.41777464933E+00  0.33352151086E+01  0.00000000000E+00 0. -1.
</event>
<event>
 8    1  0.2031623E-013  0.9118800E+02  0.7816164E-02  0.1184000E+00
        -11   -1    0    0    0    0  0.00000000000E+00  0.00000000000E+00  0.45593999997E+02  0.45594000000E+02  0.51100000000E-03 0. -1.
         11   -1    0    0    0    0 -0.00000000000E+00 -0.00000000000E+00 -0.45593999997E+02  0.45594000000E+02  0.51100000000E-03 0.  1.
         23    2    1    2    0    0  0.00000000000E+00  0.44408920985E-15 -0.35527136788E-14  0.91188000000E+02  0.91188000000E+02 0.  0.
    9900012    2    3    3    0    0 -0.31316028915E+02  0.21124402397E+01 -0.25845860779E+02  0.50528873224E+02  0.30000040653E+02 0.  0.
         12    1    3    3    0    0  0.31316028915E+02 -0.21124402397E+01  0.25845860779E+02  0.40659126776E+02  0.00000000000E+00 0. -1.
         11    1    4    4    0    0 -0.18852392773E+01  0.42160355826E+00  0.21540906971E+01  0.28934380390E+01  0.51100000000E-03 0. -1.
        -11    1    4    4    0    0 -0.33731237527E+02  0.25519692953E+00 -0.26374510997E+02  0.42819111868E+02  0.51100000000E-03 0.  1.
        -12    1    4    4    0    0  0.43004478896E+01  0.14356397519E+01 -0.16254404794E+01  0.48163233176E+01  0.00000000000E+00 0.  1.
</event>
<event>
 8    1  0.2031623E-013  0.9118800E+02  0.7816164E-02  0.1184000E+00
        -11   -1    0    0    0    0  0.00000000000E+00  0.00000000000E+00  0.45593999997E+02  0.45594000000E+02  0.51100000000E-03 0. -1.
         11   -1    0    0    0    0 -0.00000000000E+00 -0.00000000000E+00 -0.45593999997E+02  0.45594000000E+02  0.51100000000E-03 0.  1.
         23    2    1    2    0    0 -0.17763568394E-14  0.00000000000E+00  0.00000000000E+00  0.91188000000E+02  0.91188000000E+02 0.  0.
    9900012    2    3    3    0    0  0.11238267873E+02 -0.94148533389E+01 -0.37923971027E+02  0.50528859494E+02  0.29999998919E+02 0.  0.
         12    1    3    3    0    0 -0.11238267873E+02  0.94148533389E+01  0.37923971027E+02  0.40659140506E+02  0.00000000000E+00 0. -1.
         11    1    4    4    0    0  0.14215631085E+02 -0.98277735856E+01 -0.15554427522E+02  0.23251011087E+02  0.51100000000E-03 0.  1.
        -11    1    4    4    0    0 -0.88736315035E+01  0.12038109674E+01 -0.92604384197E+01  0.12882011368E+02  0.51100000000E-03 0. -1.
        -12    1    4    4    0    0  0.58962682915E+01 -0.79089072064E+00 -0.13109105086E+02  0.14395837039E+02  0.00000000000E+00 0.  1.
</event>
<event>
 8    1  0.2031623E-013  0.9118800E+02  0.7816164E-02  0.1184000E+00
        -11   -1    0    0    0    0  0.00000000000E+00  0.00000000000E+00  0.45593999997E+02  0.45594000000E+02  0.51100000000E-03 0. -1.
         11   -1    0    0    0    0 -0.00000000000E+00 -0.00000000000E+00 -0.45593999997E+02  0.45594000000E+02  0.51100000000E-03 0.  1.
         23    2    1    2    0    0 -0.35527136788E-14  0.00000000000E+00  0.35527136788E-14  0.91188000000E+02  0.91188000000E+02 0.  0.
    9900012    2    3    3    0    0  0.16267937406E+02  0.32642616104E+02  0.17971635691E+02  0.50528857572E+02  0.29999993075E+02 0.  0.
        -12    1    3    3    0    0 -0.16267937406E+02 -0.32642616104E+02 -0.17971635691E+02  0.40659142428E+02  0.00000000000E+00 0.  1.
         11    1    4    4    0    0  0.20634248340E+02  0.22831746261E+02  0.72069811713E+01  0.31606983718E+02  0.51100000000E-03 0. -1.
        -11    1    4    4    0    0 -0.62143204572E+01  0.11128442828E+02  0.70420549153E+01  0.14561955783E+02  0.51100000000E-03 0.  1.
        -12    1    4    4    0    0  0.18480095231E+01 -0.13175729847E+01  0.37225996047E+01  0.43599180709E+01  0.00000000000E+00 0.  1.
</event>
<event>
 8    1  0.2031623E-013  0.9118800E+02  0.7816164E-02  0.1184000E+00
        -11   -1    0    0    0    0  0.00000000000E+00  0.00000000000E+00  0.45593999997E+02  0.45594000000E+02  0.51100000000E-03 0. -1.
         11   -1    0    0    0    0 -0.00000000000E+00 -0.00000000000E+00 -0.45593999997E+02  0.45594000000E+02  0.51100000000E-03 0.  1.
         23    2    1    2    0    0  0.00000000000E+00  0.00000000000E+00  0.00000000000E+00  0.91188000000E+02  0.91188000000E+02 0.  0.
    9900012    2    3    3    0    0 -0.88696075853E+01  0.16488757722E+02 -0.36091760081E+02  0.50528877829E+02  0.30000054650E+02 0.  0.
         12    1    3    3    0    0  0.88696075853E+01 -0.16488757722E+02  0.36091760081E+02  0.40659122171E+02  0.00000000000E+00 0. -1.
         11    1    4    4    0    0  0.44488901301E+00 -0.70220082711E+00  0.30382426288E+01  0.31499096444E+01  0.51100000000E-03 0. -1.
        -11    1    4    4    0    0 -0.78805959437E+01  0.20601722553E+02 -0.37091793941E+02  0.43154790494E+02  0.51100000000E-03 0.  1.
        -12    1    4    4    0    0 -0.14339006547E+01 -0.34107640038E+01 -0.20382087688E+01  0.42241776907E+01  0.00000000000E+00 0.  1.
</event>
<event>
 8    1  0.2031623E-013  0.9118800E+02  0.7816164E-02  0.1184000E+00
        -11   -1    0    0    0    0  0.00000000000E+00  0.00000000000E+00  0.45593999997E+02  0.45594000000E+02  0.51100000000E-03 0. -1.
         11   -1    0    0    0    0 -0.00000000000E+00 -0.00000000000E+00 -0.45593999997E+02  0.45594000000E+02  0.51100000000E-03 0.  1.
         23    2    1    2    0    0 -0.44408920985E-15  0.00000000000E+00  0.00000000000E+00  0.91188000000E+02  0.91188000000E+02 0.  0.
    9900012    2    3    3    0    0  0.34288864462E+01  0.12647077361E+02  0.38489732967E+02  0.50528863611E+02  0.30000011431E+02 0.  0.
        -12    1    3    3    0    0 -0.34288864462E+01 -0.12647077361E+02 -0.38489732967E+02  0.40659136389E+02  0.00000000000E+00 0.  1.
         11    1    4    4    0    0  0.63911888823E+01 -0.29052315350E+01  0.56988590198E+01  0.90423813230E+01  0.51100000000E-03 0. -1.
        -11    1    4    4    0    0  0.49531995056E+01  0.14401836134E+02  0.12590893616E+02  0.19760507880E+02  0.51100000000E-03 0.  1.
        -12    1    4    4    0    0 -0.79155019417E+01  0.11504727624E+01  0.20199980331E+02  0.21725974407E+02  0.00000000000E+00 0.  1.
</event>
<event>
 8    1  0.2031623E-013  0.9118800E+02  0.7816164E-02  0.1184000E+00
        -11   -1    0    0    0    0  0.00000000000E+00  0.00000000000E+00  0.45593999997E+02  0.45594000000E+02  0.51100000000E-03 0. -1.
         11   -1    0    0    0    0 -0.00000000000E+00 -0.00000000000E+00 -0.45593999997E+02  0.45594000000E+02  0.51100000000E-03 0.  1.
         23    2    1    2    0    0  0.00000000000E+00  0.00000000000E+00  0.00000000000E+00  0.91188000000E+02  0.91188000000E+02 0.  0.
    9900012    2    3    3    0    0  0.11898031131E+02  0.24436844026E+02  0.30239761735E+02  0.50528859816E+02  0.29999999896E+02 0.  0.
        -12    1    3    3    0    0 -0.11898031131E+02 -0.24436844026E+02 -0.30239761735E+02  0.40659140184E+02  0.00000000000E+00 0.  1.
         11    1    4    4    0    0  0.14336161149E+02  0.16223942959E+02  0.20021169345E+02  0.29488795564E+02  0.51100000000E-03 0. -1.
        -11    1    4    4    0    0 -0.93129415234E+01  0.30703392653E+01  0.53658528830E+01  0.11178114351E+02  0.51100000000E-03 0.  1.
        -12    1    4    4    0    0  0.68748115059E+01  0.51425618018E+01  0.48527395069E+01  0.98619499010E+01  0.00000000000E+00 0.  1.
</event>
<event>
 8    1  0.2031623E-013  0.9118800E+02  0.7816164E-02  0.1184000E+00
        -11   -1    0    0    0    0  0.00000000000E+00  0.00000000000E+00  0.45593999997E+02  0.45594000000E+02  0.51100000000E-03 0. -1.
         11   -1    0    0    0    0 -0.00000000000E+00 -0.00000000000E+00 -0.45593999997E+02  0.45594000000E+02  0.51100000000E-03 0.  1.
         23    2    1    2    0    0 -0.99920072216E-15  0.35527136788E-14  0.35527136788E-14  0.91188000000E+02  0.91188000000E+02 0.  0.
    9900012    2    3    3    0    0 -0.92501660806E+00  0.31179145095E+02  0.26080084200E+02  0.50528861587E+02  0.30000005281E+02 0.  0.
        -12    1    3    3    0    0  0.92501660806E+00 -0.31179145095E+02 -0.26080084200E+02  0.40659138413E+02  0.00000000000E+00 0.  1.
         11    1    4    4    0    0  0.52141584686E+01  0.89614857594E+01  0.20660847474E+02  0.23116364207E+02  0.51100000000E-03 0. -1.
        -11    1    4    4    0    0 -0.14569510337E+00  0.19346912799E+02  0.70117124573E+01  0.20578833149E+02  0.51100000000E-03 0.  1.
         12    1    4    4    0    0 -0.59934799733E+01  0.28707465369E+01 -0.15924757317E+01  0.68336642313E+01  0.00000000000E+00 0. -1.
</event>
<event>
 8    1  0.2031623E-013  0.9118800E+02  0.7816164E-02  0.1184000E+00
        -11   -1    0    0    0    0  0.00000000000E+00  0.00000000000E+00  0.45593999997E+02  0.45594000000E+02  0.51100000000E-03 0. -1.
         11   -1    0    0    0    0 -0.00000000000E+00 -0.00000000000E+00 -0.45593999997E+02  0.45594000000E+02  0.51100000000E-03 0.  1.
         23    2    1    2    0    0  0.00000000000E+00 -0.71054273576E-14 -0.17763568394E-14  0.91188000000E+02  0.91188000000E+02 0.  0.
    9900012    2    3    3    0    0  0.67293958207E+01 -0.37871065993E+02  0.13178204270E+02  0.50528837745E+02  0.29999932808E+02 0.  0.
        -12    1    3    3    0    0 -0.67293958207E+01  0.37871065993E+02 -0.13178204270E+02  0.40659162255E+02  0.00000000000E+00 0.  1.
         11    1    4    4    0    0  0.69994024883E+01 -0.30021836278E+02 -0.41655165536E+01  0.31107134505E+02  0.51100000000E-03 0. -1.
        -11    1    4    4    0    0 -0.70566696932E+00 -0.78009609729E+01  0.17288227899E+02  0.18979878348E+02  0.51100000000E-03 0.  1.
        -12    1    4    4    0    0  0.43566030170E+00 -0.48268741719E-01  0.55492925058E-01  0.44182489137E+00  0.00000000000E+00 0.  1.
</event>
<event>
 8    1  0.2031623E-013  0.9118800E+02  0.7816164E-02  0.1184000E+00
        -11   -1    0    0    0    0  0.00000000000E+00  0.00000000000E+00  0.45593999997E+02  0.45594000000E+02  0.51100000000E-03 0. -1.
         11   -1    0    0    0    0 -0.00000000000E+00 -0.00000000000E+00 -0.45593999997E+02  0.45594000000E+02  0.51100000000E-03 0.  1.
         23    2    1    2    0    0 -0.35527136788E-14 -0.88817841970E-15  0.00000000000E+00  0.91188000000E+02  0.91188000000E+02 0.  0.
    9900012    2    3    3    0    0 -0.20592482643E+02  0.40405854804E+01 -0.34825120137E+02  0.50528860007E+02  0.30000000477E+02 0.  0.
         12    1    3    3    0    0  0.20592482643E+02 -0.40405854804E+01  0.34825120137E+02  0.40659139993E+02  0.00000000000E+00 0. -1.
         11    1    4    4    0    0 -0.19012734087E+01  0.46604718327E+01 -0.54072666241E+01  0.73873791621E+01  0.51100000000E-03 0. -1.
        -11    1    4    4    0    0 -0.12883005769E+02 -0.81440663085E+01 -0.36441539227E+01  0.15670912921E+02  0.51100000000E-03 0.  1.
        -12    1    4    4    0    0 -0.58082034649E+01  0.75241799562E+01 -0.25773699590E+02  0.27470567924E+02  0.00000000000E+00 0.  1.
</event>
<event>
 8    1  0.2031623E-013  0.9118800E+02  0.7816164E-02  0.1184000E+00
        -11   -1    0    0    0    0  0.00000000000E+00  0.00000000000E+00  0.45593999997E+02  0.45594000000E+02  0.51100000000E-03 0. -1.
         11   -1    0    0    0    0 -0.00000000000E+00 -0.00000000000E+00 -0.45593999997E+02  0.45594000000E+02  0.51100000000E-03 0.  1.
         23    2    1    2    0    0 -0.88817841970E-15  0.00000000000E+00  0.71054273576E-14  0.91188000000E+02  0.91188000000E+02 0.  0.
    9900012    2    3    3    0    0 -0.26396993832E+01 -0.83989752793E+01  0.39694505001E+02  0.50528874015E+02  0.30000043056E+02 0.  0.
        -12    1    3    3    0    0  0.26396993832E+01  0.83989752793E+01 -0.39694505001E+02  0.40659125985E+02  0.00000000000E+00 0.  1.
         11    1    4    4    0    0  0.20761966961E+01 -0.14695487852E+02  0.30025354744E+02  0.33493131888E+02  0.51100000000E-03 0. -1.
        -11    1    4    4    0    0  0.21738584886E+01  0.67775258110E+01  0.47751443867E+01  0.85710280027E+01  0.51100000000E-03 0.  1.
        -12    1    4    4    0    0 -0.68897545679E+01 -0.48101323848E+00  0.48940058703E+01  0.84647141239E+01  0.00000000000E+00 0.  1.
</event>
<event>
 8    1  0.2031623E-013  0.9118800E+02  0.7816164E-02  0.1184000E+00
        -11   -1    0    0    0    0  0.00000000000E+00  0.00000000000E+00  0.45593999997E+02  0.45594000000E+02  0.51100000000E-03 0.  1.
         11   -1    0    0    0    0 -0.00000000000E+00 -0.00000000000E+00 -0.45593999997E+02  0.45594000000E+02  0.51100000000E-03 0. -1.
         23    2    1    2    0    0  0.00000000000E+00  0.00000000000E+00  0.00000000000E+00  0.91188000000E+02  0.91188000000E+02 0.  0.
    9900012    2    3    3    0    0 -0.15924088344E+02  0.35612868024E+02 -0.11459177926E+02  0.50528859364E+02  0.29999998523E+02 0.  0.
        -12    1    3    3    0    0  0.15924088344E+02 -0.35612868024E+02  0.11459177926E+02  0.40659140636E+02  0.00000000000E+00 0.  1.
         11    1    4    4    0    0 -0.32367658338E+01  0.17902287776E+02 -0.17178981510E+01  0.18273470798E+02  0.51100000000E-03 0. -1.
        -11    1    4    4    0    0 -0.31482111458E+01  0.14370731929E+02 -0.14873502775E+02  0.20920092128E+02  0.51100000000E-03 0.  1.
        -12    1    4    4    0    0 -0.95391113646E+01  0.33398483194E+01  0.51322230000E+01  0.11335296438E+02  0.00000000000E+00 0.  1.
</event>
<event>
 8    1  0.2031623E-013  0.9118800E+02  0.7816164E-02  0.1184000E+00
        -11   -1    0    0    0    0  0.00000000000E+00  0.00000000000E+00  0.45593999997E+02  0.45594000000E+02  0.51100000000E-03 0. -1.
         11   -1    0    0    0    0 -0.00000000000E+00 -0.00000000000E+00 -0.45593999997E+02  0.45594000000E+02  0.51100000000E-03 0.  1.
         23    2    1    2    0    0  0.00000000000E+00 -0.35527136788E-14  0.00000000000E+00  0.91188000000E+02  0.91188000000E+02 0.  0.
    9900012    2    3    3    0    0  0.30437085785E+02  0.12583559514E+02 -0.23841211796E+02  0.50528861531E+02  0.30000005109E+02 0.  0.
         12    1    3    3    0    0 -0.30437085785E+02 -0.12583559514E+02  0.23841211796E+02  0.40659138469E+02  0.00000000000E+00 0. -1.
         11    1    4    4    0    0  0.14610185663E+01  0.27882401948E+01 -0.18078435328E+01  0.36300354179E+01  0.51100000000E-03 0. -1.
        -11    1    4    4    0    0  0.11912676132E+02  0.16545819838E+02 -0.32605437923E+01  0.20647206901E+02  0.51100000000E-03 0.  1.
        -12    1    4    4    0    0  0.17063391087E+02 -0.67505005179E+01 -0.18772824471E+02  0.26251619212E+02  0.00000000000E+00 0.  1.
</event>
<event>
 8    1  0.2031623E-013  0.9118800E+02  0.7816164E-02  0.1184000E+00
        -11   -1    0    0    0    0  0.00000000000E+00  0.00000000000E+00  0.45593999997E+02  0.45594000000E+02  0.51100000000E-03 0. -1.
         11   -1    0    0    0    0 -0.00000000000E+00 -0.00000000000E+00 -0.45593999997E+02  0.45594000000E+02  0.51100000000E-03 0.  1.
         23    2    1    2    0    0  0.00000000000E+00 -0.35527136788E-14  0.00000000000E+00  0.91188000000E+02  0.91188000000E+02 0.  0.
    9900012    2    3    3    0    0 -0.82719327647E+01  0.17045496634E+02 -0.35974880123E+02  0.50528858014E+02  0.29999994421E+02 0.  0.
         12    1    3    3    0    0  0.82719327647E+01 -0.17045496634E+02  0.35974880123E+02  0.40659141986E+02  0.00000000000E+00 0. -1.
         11    1    4    4    0    0 -0.17992665137E+01 -0.67352936468E+00 -0.25756460962E+02  0.25828013538E+02  0.51100000000E-03 0.  1.
        -11    1    4    4    0    0 -0.89274169211E+01  0.17876077983E+02 -0.85812414908E+01  0.21746048899E+02  0.51100000000E-03 0. -1.
        -12    1    4    4    0    0  0.24547506700E+01 -0.15705198458E+00 -0.16371776701E+01  0.29547955769E+01  0.00000000000E+00 0.  1.
</event>
<event>
 8    1  0.2031623E-013  0.9118800E+02  0.7816164E-02  0.1184000E+00
        -11   -1    0    0    0    0  0.00000000000E+00  0.00000000000E+00  0.45593999997E+02  0.45594000000E+02  0.51100000000E-03 0. -1.
         11   -1    0    0    0    0 -0.00000000000E+00 -0.00000000000E+00 -0.45593999997E+02  0.45594000000E+02  0.51100000000E-03 0.  1.
         23    2    1    2    0    0 -0.17763568394E-14 -0.88817841970E-15  0.00000000000E+00  0.91188000000E+02  0.91188000000E+02 0.  0.
    9900012    2    3    3    0    0  0.15022655307E+02  0.48522792081E+01 -0.37469203933E+02  0.50528855525E+02  0.29999986855E+02 0.  0.
         12    1    3    3    0    0 -0.15022655307E+02 -0.48522792081E+01  0.37469203933E+02  0.40659144475E+02  0.00000000000E+00 0. -1.
         11    1    4    4    0    0 -0.46051109750E+00  0.49061547873E+01 -0.11337626837E+02  0.12362208857E+02  0.51100000000E-03 0. -1.
        -11    1    4    4    0    0  0.10308804888E+02 -0.10543663573E+02 -0.85364908494E+01  0.17038543836E+02  0.51100000000E-03 0.  1.
        -12    1    4    4    0    0  0.51743615169E+01  0.10489787994E+02 -0.17595086247E+02  0.21128102833E+02  0.00000000000E+00 0.  1.
</event>
<event>
 8    1  0.2031623E-013  0.9118800E+02  0.7816164E-02  0.1184000E+00
        -11   -1    0    0    0    0  0.00000000000E+00  0.00000000000E+00  0.45593999997E+02  0.45594000000E+02  0.51100000000E-03 0. -1.
         11   -1    0    0    0    0 -0.00000000000E+00 -0.00000000000E+00 -0.45593999997E+02  0.45594000000E+02  0.51100000000E-03 0.  1.
         23    2    1    2    0    0  0.00000000000E+00  0.17763568394E-14 -0.35527136788E-14  0.91188000000E+02  0.91188000000E+02 0.  0.
    9900012    2    3    3    0    0  0.26321024986E+02  0.76903960760E+01  0.30020383359E+02  0.50528905505E+02  0.30000138772E+02 0.  0.
        -12    1    3    3    0    0 -0.26321024986E+02 -0.76903960760E+01 -0.30020383359E+02  0.40659094495E+02  0.00000000000E+00 0.  1.
         11    1    4    4    0    0 -0.90010293382E+00  0.10436503026E+02  0.64126302426E+01  0.12282206952E+02  0.51100000000E-03 0. -1.
        -11    1    4    4    0    0  0.16863965946E+02 -0.77031546288E+01  0.13308272862E+02  0.22821964541E+02  0.51100000000E-03 0.  1.
        -12    1    4    4    0    0  0.10357161974E+02  0.49570476784E+01  0.10299480254E+02  0.15424734012E+02  0.00000000000E+00 0.  1.
</event>
<event>
 8    1  0.2031623E-013  0.9118800E+02  0.7816164E-02  0.1184000E+00
        -11   -1    0    0    0    0  0.00000000000E+00  0.00000000000E+00  0.45593999997E+02  0.45594000000E+02  0.51100000000E-03 0. -1.
         11   -1    0    0    0    0 -0.00000000000E+00 -0.00000000000E+00 -0.45593999997E+02  0.45594000000E+02  0.51100000000E-03 0.  1.
         23    2    1    2    0    0  0.00000000000E+00  0.00000000000E+00  0.00000000000E+00  0.91188000000E+02  0.91188000000E+02 0.  0.
    9900012    2    3    3    0    0 -0.11956070031E+02  0.17162223807E+02 -0.34866553856E+02  0.50528854481E+02  0.29999983680E+02 0.  0.
         12    1    3    3    0    0  0.11956070031E+02 -0.17162223807E+02  0.34866553856E+02  0.40659145519E+02  0.00000000000E+00 0. -1.
         11    1    4    4    0    0  0.36426210383E+01 -0.26034564102E+01 -0.27424839454E+01  0.52505134759E+01  0.51100000000E-03 0. -1.
        -11    1    4    4    0    0 -0.20309550876E+02  0.16633728969E+02 -0.26440584110E+02  0.37259405316E+02  0.51100000000E-03 0.  1.
        -12    1    4    4    0    0  0.47108598066E+01  0.31319512482E+01 -0.56834858004E+01  0.80189356888E+01  0.00000000000E+00 0.  1.
</event>
<event>
 8    1  0.2076608E-013  0.9118800E+02  0.7816164E-02  0.1184000E+00
        -11   -1    0    0    0    0  0.00000000000E+00  0.00000000000E+00  0.45593999997E+02  0.45594000000E+02  0.51100000000E-03 0. -1.
         11   -1    0    0    0    0 -0.00000000000E+00 -0.00000000000E+00 -0.45593999997E+02  0.45594000000E+02  0.51100000000E-03 0.  1.
         23    2    1    2    0    0 -0.35527136788E-14  0.00000000000E+00  0.00000000000E+00  0.91188000000E+02  0.91188000000E+02 0.  0.
    9900012    2    3    3    0    0 -0.16756549437E+02  0.60345488535E+01  0.36550921789E+02  0.50528836057E+02  0.29999927679E+02 0.  0.
        -12    1    3    3    0    0  0.16756549437E+02 -0.60345488535E+01 -0.36550921789E+02  0.40659163943E+02  0.00000000000E+00 0.  1.
         11    1    4    4    0    0 -0.17993166153E+02  0.70641532883E+01  0.22492537714E+02  0.29657554568E+02  0.51100000000E-03 0. -1.
        -11    1    4    4    0    0  0.29855959894E+01  0.53749381640E+01  0.10098133487E+01  0.62308480112E+01  0.51100000000E-03 0.  1.
         12    1    4    4    0    0 -0.17489792732E+01 -0.64045425988E+01  0.13048570726E+02  0.14640433477E+02  0.00000000000E+00 0. -1.
</event>
<event>
 8    1  0.2031623E-013  0.9118800E+02  0.7816164E-02  0.1184000E+00
        -11   -1    0    0    0    0  0.00000000000E+00  0.00000000000E+00  0.45593999997E+02  0.45594000000E+02  0.51100000000E-03 0. -1.
         11   -1    0    0    0    0 -0.00000000000E+00 -0.00000000000E+00 -0.45593999997E+02  0.45594000000E+02  0.51100000000E-03 0.  1.
         23    2    1    2    0    0  0.00000000000E+00  0.00000000000E+00  0.00000000000E+00  0.91188000000E+02  0.91188000000E+02 0.  0.
    9900012    2    3    3    0    0 -0.31435137006E+02  0.10562193595E+02 -0.23525303016E+02  0.50528835545E+02  0.29999926124E+02 0.  0.
         12    1    3    3    0    0  0.31435137006E+02 -0.10562193595E+02  0.23525303016E+02  0.40659164455E+02  0.00000000000E+00 0. -1.
         11    1    4    4    0    0 -0.59897310100E+01 -0.24368823675E+01 -0.10524652562E+02  0.12352472832E+02  0.51100000000E-03 0. -1.
        -11    1    4    4    0    0 -0.18962034640E+02  0.11048372140E+02  0.16795244813E+01  0.22010136015E+02  0.51100000000E-03 0.  1.
        -12    1    4    4    0    0 -0.64833713559E+01  0.19507038225E+01 -0.14680174935E+02  0.16166226699E+02  0.00000000000E+00 0.  1.
</event>
<event>
 8    1  0.2031623E-013  0.9118800E+02  0.7816164E-02  0.1184000E+00
        -11   -1    0    0    0    0  0.00000000000E+00  0.00000000000E+00  0.45593999997E+02  0.45594000000E+02  0.51100000000E-03 0. -1.
         11   -1    0    0    0    0 -0.00000000000E+00 -0.00000000000E+00 -0.45593999997E+02  0.45594000000E+02  0.51100000000E-03 0.  1.
         23    2    1    2    0    0 -0.17763568394E-14 -0.17763568394E-14  0.00000000000E+00  0.91188000000E+02  0.91188000000E+02 0.  0.
    9900012    2    3    3    0    0  0.69608890159E+01 -0.11906223461E+02  0.38248578693E+02  0.50528857054E+02  0.29999991503E+02 0.  0.
        -12    1    3    3    0    0 -0.69608890159E+01  0.11906223461E+02 -0.38248578693E+02  0.40659142946E+02  0.00000000000E+00 0.  1.
         11    1    4    4    0    0  0.10617065387E+02  0.15782999617E+01  0.27275053721E+02  0.29311118435E+02  0.51100000000E-03 0. -1.
        -11    1    4    4    0    0 -0.78632182424E+01 -0.80674632375E+01  0.74563377423E+01  0.13509668279E+02  0.51100000000E-03 0.  1.
        -12    1    4    4    0    0  0.42070418711E+01 -0.54170601853E+01  0.35171872305E+01  0.77080703403E+01  0.00000000000E+00 0.  1.
</event>
<event>
 8    1  0.2031623E-013  0.9118800E+02  0.7816164E-02  0.1184000E+00
        -11   -1    0    0    0    0  0.00000000000E+00  0.00000000000E+00  0.45593999997E+02  0.45594000000E+02  0.51100000000E-03 0. -1.
         11   -1    0    0    0    0 -0.00000000000E+00 -0.00000000000E+00 -0.45593999997E+02  0.45594000000E+02  0.51100000000E-03 0.  1.
         23    2    1    2    0    0  0.00000000000E+00  0.71054273576E-14  0.35527136788E-14  0.91188000000E+02  0.91188000000E+02 0.  0.
    9900012    2    3    3    0    0  0.16754625642E+02  0.32071279409E+02 -0.18544028312E+02  0.50528862904E+02  0.30000009284E+02 0.  0.
         12    1    3    3    0    0 -0.16754625642E+02 -0.32071279409E+02  0.18544028312E+02  0.40659137096E+02  0.00000000000E+00 0. -1.
         11    1    4    4    0    0  0.10140472715E+01 -0.33106712719E+01  0.51971738269E+00  0.35012772753E+01  0.51100000000E-03 0. -1.
        -11    1    4    4    0    0  0.10716728262E+02  0.23067651442E+02 -0.21741199549E+02  0.33461090326E+02  0.51100000000E-03 0.  1.
        -12    1    4    4    0    0  0.50238501090E+01  0.12314299239E+02  0.26774538550E+01  0.13566495303E+02  0.00000000000E+00 0.  1.
</event>
<event>
 8    1  0.2366036E-013  0.9118800E+02  0.7816164E-02  0.1184000E+00
        -11   -1    0    0    0    0  0.00000000000E+00  0.00000000000E+00  0.45593999997E+02  0.45594000000E+02  0.51100000000E-03 0. -1.
         11   -1    0    0    0    0 -0.00000000000E+00 -0.00000000000E+00 -0.45593999997E+02  0.45594000000E+02  0.51100000000E-03 0.  1.
         23    2    1    2    0    0 -0.17763568394E-14 -0.35527136788E-14  0.00000000000E+00  0.91188000000E+02  0.91188000000E+02 0.  0.
    9900012    2    3    3    0    0  0.99129961991E+01  0.21782792279E+02 -0.32869581310E+02  0.50528844714E+02  0.29999953993E+02 0.  0.
         12    1    3    3    0    0 -0.99129961991E+01 -0.21782792279E+02  0.32869581310E+02  0.40659155286E+02  0.00000000000E+00 0. -1.
         11    1    4    4    0    0  0.42585171187E+01 -0.68605959178E+01 -0.72822043822E+01  0.10873511177E+02  0.51100000000E-03 0. -1.
        -11    1    4    4    0    0  0.54103448343E+01  0.10337473335E+02 -0.12825891112E+02  0.17338935067E+02  0.51100000000E-03 0.  1.
         12    1    4    4    0    0  0.24413424619E+00  0.18305914862E+02 -0.12761485815E+02  0.22316398470E+02  0.00000000000E+00 0. -1.
</event>
<event>
 8    1  0.2031623E-013  0.9118800E+02  0.7816164E-02  0.1184000E+00
        -11   -1    0    0    0    0  0.00000000000E+00  0.00000000000E+00  0.45593999997E+02  0.45594000000E+02  0.51100000000E-03 0.  1.
         11   -1    0    0    0    0 -0.00000000000E+00 -0.00000000000E+00 -0.45593999997E+02  0.45594000000E+02  0.51100000000E-03 0. -1.
         23    2    1    2    0    0 -0.71054273576E-14  0.44408920985E-15  0.17763568394E-14  0.91188000000E+02  0.91188000000E+02 0.  0.
    9900012    2    3    3    0    0 -0.39329092149E+02  0.34593903136E+01  0.97170463345E+01  0.50528857608E+02  0.29999993184E+02 0.  0.
        -12    1    3    3    0    0  0.39329092149E+02 -0.34593903136E+01 -0.97170463345E+01  0.40659142392E+02  0.00000000000E+00 0.  1.
         11    1    4    4    0    0 -0.29993468140E+02  0.13963951915E+02  0.49322162569E+01  0.33450363849E+02  0.51100000000E-03 0. -1.
        -11    1    4    4    0    0 -0.54920366451E+01 -0.10871252418E+02  0.51004200964E+01  0.13204578035E+02  0.51100000000E-03 0.  1.
         12    1    4    4    0    0 -0.38435873640E+01  0.36669081723E+00 -0.31559001876E+00  0.38739157245E+01  0.00000000000E+00 0. -1.
</event>
<event>
 8    1  0.2031623E-013  0.9118800E+02  0.7816164E-02  0.1184000E+00
        -11   -1    0    0    0    0  0.00000000000E+00  0.00000000000E+00  0.45593999997E+02  0.45594000000E+02  0.51100000000E-03 0. -1.
         11   -1    0    0    0    0 -0.00000000000E+00 -0.00000000000E+00 -0.45593999997E+02  0.45594000000E+02  0.51100000000E-03 0.  1.
         23    2    1    2    0    0  0.00000000000E+00  0.00000000000E+00 -0.71054273576E-14  0.91188000000E+02  0.91188000000E+02 0.  0.
    9900012    2    3    3    0    0 -0.11012809526E+02  0.42032790547E+01 -0.38912921860E+02  0.50528867985E+02  0.30000024728E+02 0.  0.
         12    1    3    3    0    0  0.11012809526E+02 -0.42032790547E+01  0.38912921860E+02  0.40659132015E+02  0.00000000000E+00 0. -1.
         11    1    4    4    0    0 -0.13563183901E+02  0.10987084498E+02 -0.13343019599E+02  0.21970711313E+02  0.51100000000E-03 0.  1.
        -11    1    4    4    0    0 -0.21822717196E+01 -0.73286173839E+01 -0.12573042338E+02  0.14715717329E+02  0.51100000000E-03 0. -1.
         12    1    4    4    0    0  0.47326460945E+01  0.54481194012E+00 -0.12996859923E+02  0.13842439343E+02  0.00000000000E+00 0. -1.
</event>
<event>
 8    1  0.2031623E-013  0.9118800E+02  0.7816164E-02  0.1184000E+00
        -11   -1    0    0    0    0  0.00000000000E+00  0.00000000000E+00  0.45593999997E+02  0.45594000000E+02  0.51100000000E-03 0. -1.
         11   -1    0    0    0    0 -0.00000000000E+00 -0.00000000000E+00 -0.45593999997E+02  0.45594000000E+02  0.51100000000E-03 0.  1.
         23    2    1    2    0    0 -0.88817841970E-15  0.22204460493E-15  0.71054273576E-14  0.91188000000E+02  0.91188000000E+02 0.  0.
    9900012    2    3    3    0    0 -0.79560193014E+01  0.18129691549E+01 -0.39831903381E+02  0.50528860471E+02  0.30000001889E+02 0.  0.
         12    1    3    3    0    0  0.79560193014E+01 -0.18129691549E+01  0.39831903381E+02  0.40659139529E+02  0.00000000000E+00 0. -1.
         11    1    4    4    0    0 -0.95413253933E+01 -0.74959979654E+01 -0.19024160380E+02  0.22564253903E+02  0.51100000000E-03 0. -1.
        -11    1    4    4    0    0  0.84801950877E+01  0.78134694663E+01 -0.11502855838E+02  0.16287409447E+02  0.51100000000E-03 0.  1.
        -12    1    4    4    0    0 -0.68948889957E+01  0.14954976540E+01 -0.93048871626E+01  0.11677197121E+02  0.00000000000E+00 0.  1.
</event>
<event>
 8    1  0.2031623E-013  0.9118800E+02  0.7816164E-02  0.1184000E+00
        -11   -1    0    0    0    0  0.00000000000E+00  0.00000000000E+00  0.45593999997E+02  0.45594000000E+02  0.51100000000E-03 0.  1.
         11   -1    0    0    0    0 -0.00000000000E+00 -0.00000000000E+00 -0.45593999997E+02  0.45594000000E+02  0.51100000000E-03 0. -1.
         23    2    1    2    0    0  0.71054273576E-14 -0.35527136788E-14  0.00000000000E+00  0.91188000000E+02  0.91188000000E+02 0.  0.
    9900012    2    3    3    0    0 -0.35488295785E+02  0.19502899908E+02  0.36582892659E+01  0.50528864213E+02  0.30000013262E+02 0.  0.
        -12    1    3    3    0    0  0.35488295785E+02 -0.19502899908E+02 -0.36582892659E+01  0.40659135787E+02  0.00000000000E+00 0.  1.
         11    1    4    4    0    0 -0.22407286346E+02  0.12116984461E+02 -0.18606601460E+01  0.25541531870E+02  0.51100000000E-03 0. -1.
        -11    1    4    4    0    0  0.19568593673E+01  0.86725322509E+01  0.42125963534E+01  0.98380934395E+01  0.51100000000E-03 0.  1.
        -12    1    4    4    0    0 -0.15037868807E+02 -0.12866168040E+01  0.13063530585E+01  0.15149238904E+02  0.00000000000E+00 0.  1.
</event>
<event>
 8    1  0.2031623E-013  0.9118800E+02  0.7816164E-02  0.1184000E+00
        -11   -1    0    0    0    0  0.00000000000E+00  0.00000000000E+00  0.45593999997E+02  0.45594000000E+02  0.51100000000E-03 0. -1.
         11   -1    0    0    0    0 -0.00000000000E+00 -0.00000000000E+00 -0.45593999997E+02  0.45594000000E+02  0.51100000000E-03 0.  1.
         23    2    1    2    0    0  0.35527136788E-14  0.00000000000E+00  0.00000000000E+00  0.91188000000E+02  0.91188000000E+02 0.  0.
    9900012    2    3    3    0    0  0.17102613075E+02 -0.11871704522E+02  0.34924612110E+02  0.50528864824E+02  0.30000015118E+02 0.  0.
        -12    1    3    3    0    0 -0.17102613075E+02  0.11871704522E+02 -0.34924612110E+02  0.40659135176E+02  0.00000000000E+00 0.  1.
         11    1    4    4    0    0 -0.34225688764E+01 -0.27793706726E+01  0.15381781664E+02  0.16001190158E+02  0.51100000000E-03 0. -1.
        -11    1    4    4    0    0  0.22774134063E+02 -0.46531707685E+01  0.17717635576E+02  0.29227175560E+02  0.51100000000E-03 0.  1.
        -12    1    4    4    0    0 -0.22489521119E+01 -0.44391630807E+01  0.18251948700E+01  0.53004991059E+01  0.00000000000E+00 0.  1.
</event>
<event>
 8    1  0.2031623E-013  0.9118800E+02  0.7816164E-02  0.1184000E+00
        -11   -1    0    0    0    0  0.00000000000E+00  0.00000000000E+00  0.45593999997E+02  0.45594000000E+02  0.51100000000E-03 0. -1.
         11   -1    0    0    0    0 -0.00000000000E+00 -0.00000000000E+00 -0.45593999997E+02  0.45594000000E+02  0.51100000000E-03 0.  1.
         23    2    1    2    0    0  0.35527136788E-14 -0.44408920985E-15 -0.71054273576E-14  0.91188000000E+02  0.91188000000E+02 0.  0.
    9900012    2    3    3    0    0 -0.27135920703E+02  0.35171517819E+01  0.30074001188E+02  0.50528756322E+02  0.29999685313E+02 0.  0.
        -12    1    3    3    0    0  0.27135920703E+02 -0.35171517819E+01 -0.30074001188E+02  0.40659243678E+02  0.00000000000E+00 0.  1.
         11    1    4    4    0    0 -0.18490452640E+02  0.61705096953E+01  0.12428302467E+02  0.23117844432E+02  0.51100000000E-03 0. -1.
        -11    1    4    4    0    0  0.46755564044E+01 -0.52830204344E+01  0.37782263895E+01  0.80028824502E+01  0.51100000000E-03 0.  1.
        -12    1    4    4    0    0 -0.13321024467E+02  0.26296625210E+01  0.13867472332E+02  0.19408029439E+02  0.00000000000E+00 0.  1.
</event>
<event>
 8    1  0.2031623E-013  0.9118800E+02  0.7816164E-02  0.1184000E+00
        -11   -1    0    0    0    0  0.00000000000E+00  0.00000000000E+00  0.45593999997E+02  0.45594000000E+02  0.51100000000E-03 0. -1.
         11   -1    0    0    0    0 -0.00000000000E+00 -0.00000000000E+00 -0.45593999997E+02  0.45594000000E+02  0.51100000000E-03 0.  1.
         23    2    1    2    0    0 -0.53290705182E-14  0.00000000000E+00  0.00000000000E+00  0.91188000000E+02  0.91188000000E+02 0.  0.
    9900012    2    3    3    0    0 -0.15586882777E+02 -0.14110385272E+02  0.34801095997E+02  0.50528804610E+02  0.29999832091E+02 0.  0.
        -12    1    3    3    0    0  0.15586882777E+02  0.14110385272E+02 -0.34801095997E+02  0.40659195390E+02  0.00000000000E+00 0.  1.
         11    1    4    4    0    0  0.25909027183E+01 -0.58876061419E+01  0.23639573926E+02  0.24499104854E+02  0.51100000000E-03 0. -1.
        -11    1    4    4    0    0 -0.15140980731E+01 -0.45546342459E+01 -0.12148637504E+01  0.49510686000E+01  0.51100000000E-03 0.  1.
         12    1    4    4    0    0 -0.16663687422E+02 -0.36681448840E+01  0.12376385821E+02  0.21078631155E+02  0.00000000000E+00 0. -1.
</event>
<event>
 8    1  0.2031623E-013  0.9118800E+02  0.7816164E-02  0.1184000E+00
        -11   -1    0    0    0    0  0.00000000000E+00  0.00000000000E+00  0.45593999997E+02  0.45594000000E+02  0.51100000000E-03 0. -1.
         11   -1    0    0    0    0 -0.00000000000E+00 -0.00000000000E+00 -0.45593999997E+02  0.45594000000E+02  0.51100000000E-03 0.  1.
         23    2    1    2    0    0  0.00000000000E+00 -0.71054273576E-14  0.17763568394E-14  0.91188000000E+02  0.91188000000E+02 0.  0.
    9900012    2    3    3    0    0  0.34354937294E+02  0.21006876797E+02 -0.56227598865E+01  0.50528855666E+02  0.29999987283E+02 0.  0.
        -12    1    3    3    0    0 -0.34354937294E+02 -0.21006876797E+02  0.56227598865E+01  0.40659144334E+02  0.00000000000E+00 0.  1.
         11    1    4    4    0    0  0.90745865294E+01  0.12018533028E+02  0.10462575472E+02  0.18337359204E+02  0.51100000000E-03 0. -1.
        -11    1    4    4    0    0  0.14865250994E+02  0.90161522720E+01 -0.11253825610E+02  0.20710269917E+02  0.51100000000E-03 0.  1.
         12    1    4    4    0    0  0.10415099770E+02 -0.27808503122E-01 -0.48315097483E+01  0.11481226545E+02  0.00000000000E+00 0. -1.
</event>
<event>
 8    1  0.2031623E-013  0.9118800E+02  0.7816164E-02  0.1184000E+00
        -11   -1    0    0    0    0  0.00000000000E+00  0.00000000000E+00  0.45593999997E+02  0.45594000000E+02  0.51100000000E-03 0. -1.
         11   -1    0    0    0    0 -0.00000000000E+00 -0.00000000000E+00 -0.45593999997E+02  0.45594000000E+02  0.51100000000E-03 0.  1.
         23    2    1    2    0    0  0.00000000000E+00  0.00000000000E+00 -0.44408920985E-15  0.91188000000E+02  0.91188000000E+02 0.  0.
    9900012    2    3    3    0    0 -0.18115185897E+02 -0.36226473678E+02 -0.35564118424E+01  0.50528863015E+02  0.30000009619E+02 0.  0.
         12    1    3    3    0    0  0.18115185897E+02  0.36226473678E+02  0.35564118424E+01  0.40659136985E+02  0.00000000000E+00 0. -1.
         11    1    4    4    0    0 -0.58602832247E+01 -0.15778785883E+02  0.33291991319E+01  0.17157988534E+02  0.51100000000E-03 0. -1.
        -11    1    4    4    0    0  0.26626816876E+01  0.28462465761E+01  0.19161101897E+01  0.43430947332E+01  0.51100000000E-03 0.  1.
        -12    1    4    4    0    0 -0.14917584359E+02 -0.23293934372E+02 -0.88017211639E+01  0.29027779748E+02  0.00000000000E+00 0.  1.
</event>
<event>
 8    1  0.2031623E-013  0.9118800E+02  0.7816164E-02  0.1184000E+00
        -11   -1    0    0    0    0  0.00000000000E+00  0.00000000000E+00  0.45593999997E+02  0.45594000000E+02  0.51100000000E-03 0. -1.
         11   -1    0    0    0    0 -0.00000000000E+00 -0.00000000000E+00 -0.45593999997E+02  0.45594000000E+02  0.51100000000E-03 0.  1.
         23    2    1    2    0    0 -0.44408920985E-15  0.00000000000E+00  0.00000000000E+00  0.91188000000E+02  0.91188000000E+02 0.  0.
    9900012    2    3    3    0    0  0.27105985833E+01  0.63857937773E+01 -0.40062953410E+02  0.50528856590E+02  0.29999990092E+02 0.  0.
         12    1    3    3    0    0 -0.27105985833E+01 -0.63857937773E+01  0.40062953410E+02  0.40659143410E+02  0.00000000000E+00 0. -1.
         11    1    4    4    0    0 -0.49997360171E+01  0.51604522599E+01 -0.30319274138E+01  0.77987314270E+01  0.51100000000E-03 0. -1.
        -11    1    4    4    0    0  0.35274368991E+01 -0.60617583406E+01 -0.32371110905E+02  0.33122145866E+02  0.51100000000E-03 0.  1.
        -12    1    4    4    0    0  0.41828977013E+01  0.72870998581E+01 -0.46599150910E+01  0.96079792973E+01  0.00000000000E+00 0.  1.
</event>
<event>
 8    1  0.2031623E-013  0.9118800E+02  0.7816164E-02  0.1184000E+00
        -11   -1    0    0    0    0  0.00000000000E+00  0.00000000000E+00  0.45593999997E+02  0.45594000000E+02  0.51100000000E-03 0. -1.
         11   -1    0    0    0    0 -0.00000000000E+00 -0.00000000000E+00 -0.45593999997E+02  0.45594000000E+02  0.51100000000E-03 0.  1.
         23    2    1    2    0    0  0.00000000000E+00  0.00000000000E+00  0.00000000000E+00  0.91188000000E+02  0.91188000000E+02 0.  0.
    9900012    2    3    3    0    0 -0.23403486366E+02 -0.16184825106E+02  0.29042833406E+02  0.50528955372E+02  0.30000290347E+02 0.  0.
        -12    1    3    3    0    0  0.23403486366E+02  0.16184825106E+02 -0.29042833406E+02  0.40659044628E+02  0.00000000000E+00 0.  1.
         11    1    4    4    0    0 -0.26010615212E+02 -0.12349732924E+02  0.28671342234E+02  0.40633900536E+02  0.51100000000E-03 0. -1.
        -11    1    4    4    0    0 -0.15635379524E+01 -0.40871115939E+01 -0.22921627338E+01  0.49399536809E+01  0.51100000000E-03 0.  1.
         12    1    4    4    0    0  0.41706667983E+01  0.25201941166E+00  0.26636539061E+01  0.49551011552E+01  0.00000000000E+00 0. -1.
</event>
<event>
 8    1  0.2031623E-013  0.9118800E+02  0.7816164E-02  0.1184000E+00
        -11   -1    0    0    0    0  0.00000000000E+00  0.00000000000E+00  0.45593999997E+02  0.45594000000E+02  0.51100000000E-03 0.  1.
         11   -1    0    0    0    0 -0.00000000000E+00 -0.00000000000E+00 -0.45593999997E+02  0.45594000000E+02  0.51100000000E-03 0. -1.
         23    2    1    2    0    0  0.71054273576E-14  0.35527136788E-14  0.71054273576E-14  0.91188000000E+02  0.91188000000E+02 0.  0.
    9900012    2    3    3    0    0  0.25428100321E+02  0.18794591200E+02  0.25560522126E+02  0.50528865286E+02  0.30000016524E+02 0.  0.
        -12    1    3    3    0    0 -0.25428100321E+02 -0.18794591200E+02 -0.25560522126E+02  0.40659134714E+02  0.00000000000E+00 0.  1.
         11    1    4    4    0    0  0.90751442064E+01 -0.56758268287E+01  0.14277570394E+02  0.17844390412E+02  0.51100000000E-03 0. -1.
        -11    1    4    4    0    0  0.35209666300E+01  0.87759296220E+01  0.74836022975E+01  0.12058957266E+02  0.51100000000E-03 0.  1.
         12    1    4    4    0    0  0.12831989485E+02  0.15694488407E+02  0.37993494347E+01  0.20625517608E+02  0.00000000000E+00 0. -1.
</event>
<event>
 8    1  0.2031623E-013  0.9118800E+02  0.7816164E-02  0.1184000E+00
        -11   -1    0    0    0    0  0.00000000000E+00  0.00000000000E+00  0.45593999997E+02  0.45594000000E+02  0.51100000000E-03 0. -1.
         11   -1    0    0    0    0 -0.00000000000E+00 -0.00000000000E+00 -0.45593999997E+02  0.45594000000E+02  0.51100000000E-03 0.  1.
         23    2    1    2    0    0  0.00000000000E+00 -0.17763568394E-14  0.00000000000E+00  0.91188000000E+02  0.91188000000E+02 0.  0.
    9900012    2    3    3    0    0  0.29468563755E+02  0.10621464496E+02 -0.25922077570E+02  0.50528857568E+02  0.29999993062E+02 0.  0.
         12    1    3    3    0    0 -0.29468563755E+02 -0.10621464496E+02  0.25922077570E+02  0.40659142432E+02  0.00000000000E+00 0. -1.
         11    1    4    4    0    0  0.15416678536E+02  0.15346498483E+02 -0.16834958763E+02  0.27506450690E+02  0.51100000000E-03 0.  1.
        -11    1    4    4    0    0  0.19706525729E+01 -0.75556590635E+01 -0.29342520733E+00  0.78139333284E+01  0.51100000000E-03 0. -1.
         12    1    4    4    0    0  0.12081232646E+02  0.28306250773E+01 -0.87936935995E+01  0.15208473549E+02  0.00000000000E+00 0. -1.
</event>
<event>
 8    1  0.2031623E-013  0.9118800E+02  0.7816164E-02  0.1184000E+00
        -11   -1    0    0    0    0  0.00000000000E+00  0.00000000000E+00  0.45593999997E+02  0.45594000000E+02  0.51100000000E-03 0.  1.
         11   -1    0    0    0    0 -0.00000000000E+00 -0.00000000000E+00 -0.45593999997E+02  0.45594000000E+02  0.51100000000E-03 0. -1.
         23    2    1    2    0    0 -0.44408920985E-15 -0.71054273576E-14 -0.88817841970E-15  0.91188000000E+02  0.91188000000E+02 0.  0.
    9900012    2    3    3    0    0  0.11767724739E+01  0.40185382658E+02  0.60757706258E+01  0.50528871117E+02  0.30000034247E+02 0.  0.
        -12    1    3    3    0    0 -0.11767724739E+01 -0.40185382658E+02 -0.60757706258E+01  0.40659128883E+02  0.00000000000E+00 0.  1.
         11    1    4    4    0    0 -0.51289511914E+01 -0.10514527611E+01  0.64037261626E+01  0.82716021579E+01  0.51100000000E-03 0.  1.
        -11    1    4    4    0    0  0.70674461917E+01  0.24997556838E+02 -0.85656406576E+00  0.25991543736E+02  0.51100000000E-03 0. -1.
        -12    1    4    4    0    0 -0.76172252637E+00  0.16239278581E+02  0.52860852890E+00  0.16265725223E+02  0.00000000000E+00 0.  1.
</event>
<event>
 8    1  0.2031623E-013  0.9118800E+02  0.7816164E-02  0.1184000E+00
        -11   -1    0    0    0    0  0.00000000000E+00  0.00000000000E+00  0.45593999997E+02  0.45594000000E+02  0.51100000000E-03 0. -1.
         11   -1    0    0    0    0 -0.00000000000E+00 -0.00000000000E+00 -0.45593999997E+02  0.45594000000E+02  0.51100000000E-03 0.  1.
         23    2    1    2    0    0  0.00000000000E+00  0.00000000000E+00 -0.35527136788E-14  0.91188000000E+02  0.91188000000E+02 0.  0.
    9900012    2    3    3    0    0  0.20738624002E+02  0.25088320896E+02 -0.24364964077E+02  0.50528857788E+02  0.29999993734E+02 0.  0.
         12    1    3    3    0    0 -0.20738624002E+02 -0.25088320896E+02  0.24364964077E+02  0.40659142212E+02  0.00000000000E+00 0. -1.
         11    1    4    4    0    0  0.15598994300E+02  0.92753109661E+01  0.28127867410E+01  0.18364960827E+02  0.51100000000E-03 0. -1.
        -11    1    4    4    0    0  0.31928621093E+01  0.11124376819E+02 -0.14817784451E+02  0.18801937782E+02  0.51100000000E-03 0.  1.
         12    1    4    4    0    0  0.19467675934E+01  0.46886331117E+01 -0.12359966367E+02  0.13361959179E+02  0.00000000000E+00 0. -1.
</event>
<event>
 8    1  0.2031623E-013  0.9118800E+02  0.7816164E-02  0.1184000E+00
        -11   -1    0    0    0    0  0.00000000000E+00  0.00000000000E+00  0.45593999997E+02  0.45594000000E+02  0.51100000000E-03 0. -1.
         11   -1    0    0    0    0 -0.00000000000E+00 -0.00000000000E+00 -0.45593999997E+02  0.45594000000E+02  0.51100000000E-03 0.  1.
         23    2    1    2    0    0  0.17763568394E-14  0.00000000000E+00  0.00000000000E+00  0.91188000000E+02  0.91188000000E+02 0.  0.
    9900012    2    3    3    0    0 -0.15506949824E+02  0.30985382655E+02 -0.21274543684E+02  0.50528860313E+02  0.30000001408E+02 0.  0.
         12    1    3    3    0    0  0.15506949824E+02 -0.30985382655E+02  0.21274543684E+02  0.40659139687E+02  0.00000000000E+00 0. -1.
         11    1    4    4    0    0 -0.95489918864E+01 -0.31657418795E+01 -0.80130449965E+01  0.12861339669E+02  0.51100000000E-03 0. -1.
        -11    1    4    4    0    0 -0.22958910386E+01  0.10614855584E+02 -0.73866611901E+01  0.13134269623E+02  0.51100000000E-03 0.  1.
         12    1    4    4    0    0 -0.36620668987E+01  0.23536268950E+02 -0.58748374976E+01  0.24533251022E+02  0.00000000000E+00 0. -1.
</event>
<event>
 8    1  0.2031623E-013  0.9118800E+02  0.7816164E-02  0.1184000E+00
        -11   -1    0    0    0    0  0.00000000000E+00  0.00000000000E+00  0.45593999997E+02  0.45594000000E+02  0.51100000000E-03 0. -1.
         11   -1    0    0    0    0 -0.00000000000E+00 -0.00000000000E+00 -0.45593999997E+02  0.45594000000E+02  0.51100000000E-03 0.  1.
         23    2    1    2    0    0 -0.35527136788E-14  0.00000000000E+00  0.00000000000E+00  0.91188000000E+02  0.91188000000E+02 0.  0.
    9900012    2    3    3    0    0 -0.27543670188E+02  0.14770243140E+02  0.26006778339E+02  0.50528851344E+02  0.29999974146E+02 0.  0.
        -12    1    3    3    0    0  0.27543670188E+02 -0.14770243140E+02 -0.26006778339E+02  0.40659148656E+02  0.00000000000E+00 0.  1.
         11    1    4    4    0    0 -0.14091347605E+02  0.11716894175E+02  0.24862338566E+02  0.30886689134E+02  0.51100000000E-03 0. -1.
        -11    1    4    4    0    0  0.25561568024E+01 -0.46628507923E+00 -0.15585979179E+01  0.30299483666E+01  0.51100000000E-03 0.  1.
         12    1    4    4    0    0 -0.16008479385E+02  0.35196340442E+01  0.27030376906E+01  0.16612213843E+02  0.00000000000E+00 0. -1.
</event>
<event>
 8    1  0.2031623E-013  0.9118800E+02  0.7816164E-02  0.1184000E+00
        -11   -1    0    0    0    0  0.00000000000E+00  0.00000000000E+00  0.45593999997E+02  0.45594000000E+02  0.51100000000E-03 0. -1.
         11   -1    0    0    0    0 -0.00000000000E+00 -0.00000000000E+00 -0.45593999997E+02  0.45594000000E+02  0.51100000000E-03 0.  1.
         23    2    1    2    0    0  0.00000000000E+00  0.00000000000E+00  0.35527136788E-14  0.91188000000E+02  0.91188000000E+02 0.  0.
    9900012    2    3    3    0    0 -0.17499400789E+02  0.20891975893E+02 -0.30173828232E+02  0.50528885464E+02  0.30000077857E+02 0.  0.
         12    1    3    3    0    0  0.17499400789E+02 -0.20891975893E+02  0.30173828232E+02  0.40659114536E+02  0.00000000000E+00 0. -1.
         11    1    4    4    0    0  0.76637148650E+00  0.12010863724E+02  0.23486519459E+00  0.12037580096E+02  0.51100000000E-03 0. -1.
        -11    1    4    4    0    0 -0.19251615550E+02  0.92128859406E+01 -0.24502527038E+02  0.32494242569E+02  0.51100000000E-03 0.  1.
         12    1    4    4    0    0  0.98584327491E+00 -0.33177377198E+00 -0.59061663890E+01  0.59970627988E+01  0.00000000000E+00 0. -1.
</event>
<event>
 8    1  0.2031623E-013  0.9118800E+02  0.7816164E-02  0.1184000E+00
        -11   -1    0    0    0    0  0.00000000000E+00  0.00000000000E+00  0.45593999997E+02  0.45594000000E+02  0.51100000000E-03 0. -1.
         11   -1    0    0    0    0 -0.00000000000E+00 -0.00000000000E+00 -0.45593999997E+02  0.45594000000E+02  0.51100000000E-03 0.  1.
         23    2    1    2    0    0  0.00000000000E+00  0.35527136788E-14 -0.35527136788E-14  0.91188000000E+02  0.91188000000E+02 0.  0.
    9900012    2    3    3    0    0  0.61051038723E+00 -0.25906844382E+02  0.31330953772E+02  0.50528856218E+02  0.29999988961E+02 0.  0.
        -12    1    3    3    0    0 -0.61051038723E+00  0.25906844382E+02 -0.31330953772E+02  0.40659143782E+02  0.00000000000E+00 0.  1.
         11    1    4    4    0    0 -0.17311190996E+01 -0.20008379177E+02  0.25049535506E+02  0.32106249235E+02  0.51100000000E-03 0. -1.
        -11    1    4    4    0    0 -0.40821655541E+00 -0.63368697761E+01 -0.41764628816E+01  0.76003553718E+01  0.51100000000E-03 0.  1.
        -12    1    4    4    0    0  0.27498460422E+01  0.43840457102E+00  0.10457881148E+02  0.10822251611E+02  0.00000000000E+00 0.  1.
</event>
<event>
 8    1  0.2186877E-013  0.9118800E+02  0.7816164E-02  0.1184000E+00
        -11   -1    0    0    0    0  0.00000000000E+00  0.00000000000E+00  0.45593999997E+02  0.45594000000E+02  0.51100000000E-03 0. -1.
         11   -1    0    0    0    0 -0.00000000000E+00 -0.00000000000E+00 -0.45593999997E+02  0.45594000000E+02  0.51100000000E-03 0.  1.
         23    2    1    2    0    0  0.00000000000E+00 -0.35527136788E-14  0.00000000000E+00  0.91188000000E+02  0.91188000000E+02 0.  0.
    9900012    2    3    3    0    0 -0.12309855814E+02  0.14210662523E+02 -0.36051215653E+02  0.50528860443E+02  0.30000001801E+02 0.  0.
         12    1    3    3    0    0  0.12309855814E+02 -0.14210662523E+02  0.36051215653E+02  0.40659139557E+02  0.00000000000E+00 0. -1.
         11    1    4    4    0    0  0.44305065548E+01  0.65998449397E+01 -0.13734500891E+02  0.15868958899E+02  0.51100000000E-03 0. -1.
        -11    1    4    4    0    0 -0.12688317572E+02 -0.37723299139E+01 -0.16769719925E+02  0.21364629237E+02  0.51100000000E-03 0.  1.
         12    1    4    4    0    0 -0.40520447967E+01  0.11383147498E+02 -0.55469948365E+01  0.13295272307E+02  0.00000000000E+00 0. -1.
</event>
<event>
 8    1  0.2031623E-013  0.9118800E+02  0.7816164E-02  0.1184000E+00
        -11   -1    0    0    0    0  0.00000000000E+00  0.00000000000E+00  0.45593999997E+02  0.45594000000E+02  0.51100000000E-03 0. -1.
         11   -1    0    0    0    0 -0.00000000000E+00 -0.00000000000E+00 -0.45593999997E+02  0.45594000000E+02  0.51100000000E-03 0.  1.
         23    2    1    2    0    0  0.00000000000E+00  0.16098233857E-14  0.71054273576E-14  0.91188000000E+02  0.91188000000E+02 0.  0.
    9900012    2    3    3    0    0 -0.14109563746E+02 -0.28329415290E+00 -0.38131423936E+02  0.50528861592E+02  0.30000005295E+02 0.  0.
         12    1    3    3    0    0  0.14109563746E+02  0.28329415290E+00  0.38131423936E+02  0.40659138408E+02  0.00000000000E+00 0. -1.
         11    1    4    4    0    0 -0.30129571337E+01  0.98710533525E+01 -0.43519000964E+01  0.11200653538E+02  0.51100000000E-03 0. -1.
        -11    1    4    4    0    0 -0.12498959029E+02 -0.11386632150E+02 -0.23913472218E+02  0.29287087979E+02  0.51100000000E-03 0.  1.
         12    1    4    4    0    0  0.14023524167E+01  0.12322846446E+01 -0.98660516220E+01  0.10041120075E+02  0.00000000000E+00 0. -1.
</event>
<event>
 8    1  0.2031623E-013  0.9118800E+02  0.7816164E-02  0.1184000E+00
        -11   -1    0    0    0    0  0.00000000000E+00  0.00000000000E+00  0.45593999997E+02  0.45594000000E+02  0.51100000000E-03 0. -1.
         11   -1    0    0    0    0 -0.00000000000E+00 -0.00000000000E+00 -0.45593999997E+02  0.45594000000E+02  0.51100000000E-03 0.  1.
         23    2    1    2    0    0 -0.88817841970E-15  0.17763568394E-14 -0.71054273576E-14  0.91188000000E+02  0.91188000000E+02 0.  0.
    9900012    2    3    3    0    0 -0.47124209643E+01  0.10644287567E+02 -0.38957120719E+02  0.50528867891E+02  0.30000024442E+02 0.  0.
         12    1    3    3    0    0  0.47124209643E+01 -0.10644287567E+02  0.38957120719E+02  0.40659132109E+02  0.00000000000E+00 0. -1.
         11    1    4    4    0    0  0.21772842833E+01 -0.14877127225E+01  0.33424367131E+00  0.26581149501E+01  0.51100000000E-03 0. -1.
        -11    1    4    4    0    0 -0.72588843193E+01  0.16776394833E+02 -0.16554705774E+02  0.24661652595E+02  0.51100000000E-03 0.  1.
        -12    1    4    4    0    0  0.36917907161E+00 -0.46443945437E+01 -0.22736658616E+02  0.23209100346E+02  0.00000000000E+00 0.  1.
</event>
<event>
 8    1  0.2031623E-013  0.9118800E+02  0.7816164E-02  0.1184000E+00
        -11   -1    0    0    0    0  0.00000000000E+00  0.00000000000E+00  0.45593999997E+02  0.45594000000E+02  0.51100000000E-03 0. -1.
         11   -1    0    0    0    0 -0.00000000000E+00 -0.00000000000E+00 -0.45593999997E+02  0.45594000000E+02  0.51100000000E-03 0.  1.
         23    2    1    2    0    0  0.00000000000E+00  0.00000000000E+00 -0.71054273576E-14  0.91188000000E+02  0.91188000000E+02 0.  0.
    9900012    2    3    3    0    0  0.18048860668E+02  0.81169701133E+01  0.35517869392E+02  0.50528860543E+02  0.30000002106E+02 0.  0.
        -12    1    3    3    0    0 -0.18048860668E+02 -0.81169701133E+01 -0.35517869392E+02  0.40659139457E+02  0.00000000000E+00 0.  1.
         11    1    4    4    0    0  0.51650446216E+01  0.67871573537E+01  0.44136652689E+01  0.96033136080E+01  0.51100000000E-03 0. -1.
        -11    1    4    4    0    0 -0.34843955689E+01  0.84168382933E+00  0.21797280925E+02  0.22090063380E+02  0.51100000000E-03 0.  1.
        -12    1    4    4    0    0  0.16368211615E+02  0.48812893029E+00  0.93069231982E+01  0.18835483555E+02  0.00000000000E+00 0.  1.
</event>
<event>
 8    1  0.2031623E-013  0.9118800E+02  0.7816164E-02  0.1184000E+00
        -11   -1    0    0    0    0  0.00000000000E+00  0.00000000000E+00  0.45593999997E+02  0.45594000000E+02  0.51100000000E-03 0. -1.
         11   -1    0    0    0    0 -0.00000000000E+00 -0.00000000000E+00 -0.45593999997E+02  0.45594000000E+02  0.51100000000E-03 0.  1.
         23    2    1    2    0    0 -0.99920072216E-15  0.00000000000E+00  0.71054273576E-14  0.91188000000E+02  0.91188000000E+02 0.  0.
    9900012    2    3    3    0    0 -0.31227909522E+00  0.22719843830E+02  0.33717595619E+02  0.50528867247E+02  0.30000022485E+02 0.  0.
        -12    1    3    3    0    0  0.31227909522E+00 -0.22719843830E+02 -0.33717595619E+02  0.40659132753E+02  0.00000000000E+00 0.  1.
         11    1    4    4    0    0  0.65546136835E+01  0.23711788782E+02  0.35305789907E+02  0.43031508096E+02  0.51100000000E-03 0. -1.
        -11    1    4    4    0    0 -0.14480335970E+01 -0.91431039232E+00  0.33846210392E+00  0.17456579414E+01  0.51100000000E-03 0.  1.
         12    1    4    4    0    0 -0.54188591817E+01 -0.77634559840E-01 -0.19266563920E+01  0.57517012100E+01  0.00000000000E+00 0. -1.
</event>
<event>
 8    1  0.2031623E-013  0.9118800E+02  0.7816164E-02  0.1184000E+00
        -11   -1    0    0    0    0  0.00000000000E+00  0.00000000000E+00  0.45593999997E+02  0.45594000000E+02  0.51100000000E-03 0. -1.
         11   -1    0    0    0    0 -0.00000000000E+00 -0.00000000000E+00 -0.45593999997E+02  0.45594000000E+02  0.51100000000E-03 0.  1.
         23    2    1    2    0    0  0.00000000000E+00  0.17763568394E-14 -0.71054273576E-14  0.91188000000E+02  0.91188000000E+02 0.  0.
    9900012    2    3    3    0    0  0.94618182120E+01  0.13918485898E+02 -0.37012369728E+02  0.50528858759E+02  0.29999996685E+02 0.  0.
         12    1    3    3    0    0 -0.94618182120E+01 -0.13918485898E+02  0.37012369728E+02  0.40659141241E+02  0.00000000000E+00 0. -1.
         11    1    4    4    0    0 -0.78648859542E+00 -0.90375146594E+01 -0.11709887749E+02  0.14812721117E+02  0.51100000000E-03 0. -1.
        -11    1    4    4    0    0  0.80003691030E+01  0.15852492293E+02 -0.17785493824E+02  0.25132274241E+02  0.51100000000E-03 0.  1.
         12    1    4    4    0    0  0.22479377044E+01  0.71035082649E+01 -0.75169881539E+01  0.10583863401E+02  0.00000000000E+00 0. -1.
</event>
<event>
 8    1  0.2031623E-013  0.9118800E+02  0.7816164E-02  0.1184000E+00
        -11   -1    0    0    0    0  0.00000000000E+00  0.00000000000E+00  0.45593999997E+02  0.45594000000E+02  0.51100000000E-03 0. -1.
         11   -1    0    0    0    0 -0.00000000000E+00 -0.00000000000E+00 -0.45593999997E+02  0.45594000000E+02  0.51100000000E-03 0.  1.
         23    2    1    2    0    0 -0.17763568394E-14 -0.35527136788E-14 -0.71054273576E-14  0.91188000000E+02  0.91188000000E+02 0.  0.
    9900012    2    3    3    0    0 -0.12608885852E+02 -0.22060866374E+02 -0.31741126031E+02  0.50528869299E+02  0.30000028721E+02 0.  0.
         12    1    3    3    0    0  0.12608885852E+02  0.22060866374E+02  0.31741126031E+02  0.40659130701E+02  0.00000000000E+00 0. -1.
         11    1    4    4    0    0 -0.10645934002E+01 -0.43986222856E+01 -0.23420789477E+02  0.23854027273E+02  0.51100000000E-03 0. -1.
        -11    1    4    4    0    0 -0.13260361295E+02 -0.15637329210E+02 -0.10685048977E+02  0.23119980934E+02  0.51100000000E-03 0.  1.
         12    1    4    4    0    0  0.17160688427E+01 -0.20249148782E+01  0.23647124234E+01  0.35548610919E+01  0.00000000000E+00 0. -1.
</event>
<event>
 8    1  0.2031623E-013  0.9118800E+02  0.7816164E-02  0.1184000E+00
        -11   -1    0    0    0    0  0.00000000000E+00  0.00000000000E+00  0.45593999997E+02  0.45594000000E+02  0.51100000000E-03 0. -1.
         11   -1    0    0    0    0 -0.00000000000E+00 -0.00000000000E+00 -0.45593999997E+02  0.45594000000E+02  0.51100000000E-03 0.  1.
         23    2    1    2    0    0  0.00000000000E+00  0.00000000000E+00  0.00000000000E+00  0.91188000000E+02  0.91188000000E+02 0.  0.
    9900012    2    3    3    0    0 -0.22780104040E+02  0.58760795923E+01  0.33161789000E+02  0.50528859563E+02  0.29999999127E+02 0.  0.
        -12    1    3    3    0    0  0.22780104040E+02 -0.58760795923E+01 -0.33161789000E+02  0.40659140437E+02  0.00000000000E+00 0.  1.
         11    1    4    4    0    0 -0.11329573531E+02 -0.14142412112E+00  0.34406787990E+02  0.36224388155E+02  0.51100000000E-03 0. -1.
        -11    1    4    4    0    0 -0.58257154444E+01  0.53215586948E+01  0.14600684054E+01  0.80243222387E+01  0.51100000000E-03 0.  1.
         12    1    4    4    0    0 -0.56248150640E+01  0.69594501868E+00 -0.27050673952E+01  0.62801491690E+01  0.00000000000E+00 0. -1.
</event>
<event>
 8    1  0.2031623E-013  0.9118800E+02  0.7816164E-02  0.1184000E+00
        -11   -1    0    0    0    0  0.00000000000E+00  0.00000000000E+00  0.45593999997E+02  0.45594000000E+02  0.51100000000E-03 0. -1.
         11   -1    0    0    0    0 -0.00000000000E+00 -0.00000000000E+00 -0.45593999997E+02  0.45594000000E+02  0.51100000000E-03 0.  1.
         23    2    1    2    0    0  0.44408920985E-15  0.00000000000E+00  0.00000000000E+00  0.91188000000E+02  0.91188000000E+02 0.  0.
    9900012    2    3    3    0    0  0.38551411120E+01 -0.25423164897E+02  0.31495539318E+02  0.50528826087E+02  0.29999897374E+02 0.  0.
        -12    1    3    3    0    0 -0.38551411120E+01  0.25423164897E+02 -0.31495539318E+02  0.40659173913E+02  0.00000000000E+00 0.  1.
         11    1    4    4    0    0 -0.39068588885E+00  0.78060929932E-01  0.21443458088E+01  0.21810429114E+01  0.51100000000E-03 0. -1.
        -11    1    4    4    0    0  0.29281852695E+01  0.57423608942E+01  0.18556862610E+01  0.67076485725E+01  0.51100000000E-03 0.  1.
        -12    1    4    4    0    0  0.13176417313E+01 -0.31243586721E+02  0.27495507248E+02  0.41640134603E+02  0.00000000000E+00 0.  1.
</event>
<event>
 8    1  0.2031623E-013  0.9118800E+02  0.7816164E-02  0.1184000E+00
        -11   -1    0    0    0    0  0.00000000000E+00  0.00000000000E+00  0.45593999997E+02  0.45594000000E+02  0.51100000000E-03 0. -1.
         11   -1    0    0    0    0 -0.00000000000E+00 -0.00000000000E+00 -0.45593999997E+02  0.45594000000E+02  0.51100000000E-03 0.  1.
         23    2    1    2    0    0 -0.35527136788E-14  0.17763568394E-14  0.00000000000E+00  0.91188000000E+02  0.91188000000E+02 0.  0.
    9900012    2    3    3    0    0 -0.18021276718E+02  0.10828387128E+02 -0.34801521266E+02  0.50528852631E+02  0.29999978057E+02 0.  0.
         12    1    3    3    0    0  0.18021276718E+02 -0.10828387128E+02  0.34801521266E+02  0.40659147369E+02  0.00000000000E+00 0. -1.
         11    1    4    4    0    0 -0.56145585956E+01  0.14512992320E+02 -0.69307249162E+01  0.17034822054E+02  0.51100000000E-03 0.  1.
        -11    1    4    4    0    0 -0.52834974009E+01 -0.24829918780E+01 -0.25078942496E+02  0.25749445633E+02  0.51100000000E-03 0. -1.
         12    1    4    4    0    0 -0.71232207215E+01 -0.12016133134E+01 -0.27918538545E+01  0.77445849435E+01  0.00000000000E+00 0. -1.
</event>
<event>
 8    1  0.2031623E-013  0.9118800E+02  0.7816164E-02  0.1184000E+00
        -11   -1    0    0    0    0  0.00000000000E+00  0.00000000000E+00  0.45593999997E+02  0.45594000000E+02  0.51100000000E-03 0. -1.
         11   -1    0    0    0    0 -0.00000000000E+00 -0.00000000000E+00 -0.45593999997E+02  0.45594000000E+02  0.51100000000E-03 0.  1.
         23    2    1    2    0    0  0.00000000000E+00  0.17763568394E-14  0.55511151231E-15  0.91188000000E+02  0.91188000000E+02 0.  0.
    9900012    2    3    3    0    0  0.39213931287E+02 -0.10724605353E+02 -0.64481845785E+00  0.50528863784E+02  0.30000011958E+02 0.  0.
         12    1    3    3    0    0 -0.39213931287E+02  0.10724605353E+02  0.64481845785E+00  0.40659136216E+02  0.00000000000E+00 0. -1.
         11    1    4    4    0    0  0.17315948084E+02  0.15276075777E+01  0.17454093673E+01  0.17470606660E+02  0.51100000000E-03 0. -1.
        -11    1    4    4    0    0  0.21063866527E+02 -0.13653912508E+02 -0.86799750882E+01  0.26560454959E+02  0.51100000000E-03 0.  1.
        -12    1    4    4    0    0  0.83411667662E+00  0.14016995772E+01  0.62897472631E+01  0.64978021645E+01  0.00000000000E+00 0.  1.
</event>
<event>
 8    1  0.2031623E-013  0.9118800E+02  0.7816164E-02  0.1184000E+00
        -11   -1    0    0    0    0  0.00000000000E+00  0.00000000000E+00  0.45593999997E+02  0.45594000000E+02  0.51100000000E-03 0. -1.
         11   -1    0    0    0    0 -0.00000000000E+00 -0.00000000000E+00 -0.45593999997E+02  0.45594000000E+02  0.51100000000E-03 0.  1.
         23    2    1    2    0    0  0.00000000000E+00 -0.35527136788E-14  0.00000000000E+00  0.91188000000E+02  0.91188000000E+02 0.  0.
    9900012    2    3    3    0    0  0.26953671911E+02 -0.27884959216E+02  0.12210444507E+02  0.50528851767E+02  0.29999975431E+02 0.  0.
        -12    1    3    3    0    0 -0.26953671911E+02  0.27884959216E+02 -0.12210444507E+02  0.40659148233E+02  0.00000000000E+00 0.  1.
         11    1    4    4    0    0  0.15518056435E+02 -0.15205366048E+02  0.21363009808E+02  0.30469516250E+02  0.51100000000E-03 0. -1.
        -11    1    4    4    0    0  0.11559582046E+02 -0.13059359209E+02 -0.90407799820E+01  0.19644503124E+02  0.51100000000E-03 0.  1.
        -12    1    4    4    0    0 -0.12396656990E+00  0.37976604202E+00 -0.11178531828E+00  0.41483239327E+00  0.00000000000E+00 0.  1.
</event>
<event>
 8    1  0.2031623E-013  0.9118800E+02  0.7816164E-02  0.1184000E+00
        -11   -1    0    0    0    0  0.00000000000E+00  0.00000000000E+00  0.45593999997E+02  0.45594000000E+02  0.51100000000E-03 0. -1.
         11   -1    0    0    0    0 -0.00000000000E+00 -0.00000000000E+00 -0.45593999997E+02  0.45594000000E+02  0.51100000000E-03 0.  1.
         23    2    1    2    0    0  0.35527136788E-14  0.35527136788E-14  0.35527136788E-14  0.91188000000E+02  0.91188000000E+02 0.  0.
    9900012    2    3    3    0    0 -0.28122341370E+02 -0.20439679659E+02 -0.21083721331E+02  0.50528808002E+02  0.29999842404E+02 0.  0.
         12    1    3    3    0    0  0.28122341370E+02  0.20439679659E+02  0.21083721331E+02  0.40659191998E+02  0.00000000000E+00 0. -1.
         11    1    4    4    0    0 -0.19342245902E+02  0.28667669974E+00 -0.15789183770E+02  0.24970041739E+02  0.51100000000E-03 0. -1.
        -11    1    4    4    0    0  0.59675408261E+00 -0.12339770388E+02 -0.35791324197E+01  0.12862201903E+02  0.51100000000E-03 0.  1.
        -12    1    4    4    0    0 -0.93768495509E+01 -0.83865859714E+01 -0.17154051415E+01  0.12696564360E+02  0.00000000000E+00 0.  1.
</event>
<event>
 8    1  0.2031623E-013  0.9118800E+02  0.7816164E-02  0.1184000E+00
        -11   -1    0    0    0    0  0.00000000000E+00  0.00000000000E+00  0.45593999997E+02  0.45594000000E+02  0.51100000000E-03 0. -1.
         11   -1    0    0    0    0 -0.00000000000E+00 -0.00000000000E+00 -0.45593999997E+02  0.45594000000E+02  0.51100000000E-03 0.  1.
         23    2    1    2    0    0  0.17763568394E-14  0.00000000000E+00  0.35527136788E-14  0.91188000000E+02  0.91188000000E+02 0.  0.
    9900012    2    3    3    0    0 -0.10567769646E+02 -0.25311182720E+02  0.30013861564E+02  0.50528860659E+02  0.30000002459E+02 0.  0.
        -12    1    3    3    0    0  0.10567769646E+02  0.25311182720E+02 -0.30013861564E+02  0.40659139341E+02  0.00000000000E+00 0.  1.
         11    1    4    4    0    0 -0.12495434416E+02 -0.11426002649E+02  0.28499492261E+02  0.33149818659E+02  0.51100000000E-03 0. -1.
        -11    1    4    4    0    0  0.43225325137E+01 -0.13331025128E+02  0.32296159624E+01  0.14381618053E+02  0.51100000000E-03 0.  1.
         12    1    4    4    0    0 -0.23948677442E+01 -0.55415494277E+00 -0.17152466594E+01  0.29974239465E+01  0.00000000000E+00 0. -1.
</event>
<event>
 8    1  0.2031623E-013  0.9118800E+02  0.7816164E-02  0.1184000E+00
        -11   -1    0    0    0    0  0.00000000000E+00  0.00000000000E+00  0.45593999997E+02  0.45594000000E+02  0.51100000000E-03 0. -1.
         11   -1    0    0    0    0 -0.00000000000E+00 -0.00000000000E+00 -0.45593999997E+02  0.45594000000E+02  0.51100000000E-03 0.  1.
         23    2    1    2    0    0  0.88817841970E-15  0.00000000000E+00  0.00000000000E+00  0.91188000000E+02  0.91188000000E+02 0.  0.
    9900012    2    3    3    0    0  0.58939269119E+01 -0.14786281374E+02 -0.37413812422E+02  0.50528857716E+02  0.29999993514E+02 0.  0.
         12    1    3    3    0    0 -0.58939269119E+01  0.14786281374E+02  0.37413812422E+02  0.40659142284E+02  0.00000000000E+00 0. -1.
         11    1    4    4    0    0  0.40775689238E+01  0.25292114057E+00 -0.11266011235E+02  0.11983886967E+02  0.51100000000E-03 0. -1.
        -11    1    4    4    0    0 -0.35119264892E+01 -0.17156497674E+02 -0.75268175480E+01  0.19061270229E+02  0.51100000000E-03 0.  1.
        -12    1    4    4    0    0  0.53282844772E+01  0.21172951589E+01 -0.18620983639E+02  0.19483700520E+02  0.00000000000E+00 0.  1.
</event>
<event>
 8    1  0.2031623E-013  0.9118800E+02  0.7816164E-02  0.1184000E+00
        -11   -1    0    0    0    0  0.00000000000E+00  0.00000000000E+00  0.45593999997E+02  0.45594000000E+02  0.51100000000E-03 0. -1.
         11   -1    0    0    0    0 -0.00000000000E+00 -0.00000000000E+00 -0.45593999997E+02  0.45594000000E+02  0.51100000000E-03 0.  1.
         23    2    1    2    0    0  0.00000000000E+00  0.00000000000E+00  0.00000000000E+00  0.91188000000E+02  0.91188000000E+02 0.  0.
    9900012    2    3    3    0    0 -0.24501651614E+02  0.14120505854E+02  0.29213796464E+02  0.50528861775E+02  0.30000005851E+02 0.  0.
        -12    1    3    3    0    0  0.24501651614E+02 -0.14120505854E+02 -0.29213796464E+02  0.40659138225E+02  0.00000000000E+00 0.  1.
         11    1    4    4    0    0 -0.26682530879E+02  0.39617606287E+01  0.15081972622E+02  0.30904997975E+02  0.51100000000E-03 0. -1.
        -11    1    4    4    0    0 -0.15101714144E+00  0.37926630932E+01 -0.16681424477E+00  0.37993324110E+01  0.51100000000E-03 0.  1.
         12    1    4    4    0    0  0.23318964060E+01  0.63660821316E+01  0.14298638087E+02  0.15824531389E+02  0.00000000000E+00 0. -1.
</event>
<event>
 8    1  0.2031623E-013  0.9118800E+02  0.7816164E-02  0.1184000E+00
        -11   -1    0    0    0    0  0.00000000000E+00  0.00000000000E+00  0.45593999997E+02  0.45594000000E+02  0.51100000000E-03 0. -1.
         11   -1    0    0    0    0 -0.00000000000E+00 -0.00000000000E+00 -0.45593999997E+02  0.45594000000E+02  0.51100000000E-03 0.  1.
         23    2    1    2    0    0  0.00000000000E+00  0.00000000000E+00  0.00000000000E+00  0.91188000000E+02  0.91188000000E+02 0.  0.
    9900012    2    3    3    0    0 -0.46303937029E+01 -0.30972498766E+02  0.25931242357E+02  0.50528861350E+02  0.30000004558E+02 0.  0.
        -12    1    3    3    0    0  0.46303937029E+01  0.30972498766E+02 -0.25931242357E+02  0.40659138650E+02  0.00000000000E+00 0.  1.
         11    1    4    4    0    0 -0.86686296320E+01 -0.60730332449E+01  0.21739435227E+02  0.24179121505E+02  0.51100000000E-03 0. -1.
        -11    1    4    4    0    0  0.50351982253E+01 -0.21573168146E+02  0.51575826204E+01  0.22745449299E+02  0.51100000000E-03 0.  1.
         12    1    4    4    0    0 -0.99696229628E+00 -0.33262973743E+01 -0.96577549097E+00  0.36042905462E+01  0.00000000000E+00 0. -1.
</event>
<event>
 8    1  0.2031623E-013  0.9118800E+02  0.7816164E-02  0.1184000E+00
        -11   -1    0    0    0    0  0.00000000000E+00  0.00000000000E+00  0.45593999997E+02  0.45594000000E+02  0.51100000000E-03 0. -1.
         11   -1    0    0    0    0 -0.00000000000E+00 -0.00000000000E+00 -0.45593999997E+02  0.45594000000E+02  0.51100000000E-03 0.  1.
         23    2    1    2    0    0  0.88817841970E-15  0.00000000000E+00  0.00000000000E+00  0.91188000000E+02  0.91188000000E+02 0.  0.
    9900012    2    3    3    0    0  0.48675711410E+01  0.20223377952E+02  0.34935462234E+02  0.50528870815E+02  0.30000033329E+02 0.  0.
        -12    1    3    3    0    0 -0.48675711410E+01 -0.20223377952E+02 -0.34935462234E+02  0.40659129185E+02  0.00000000000E+00 0.  1.
         11    1    4    4    0    0 -0.72671456423E+01  0.15078265657E+02  0.11367912025E+02  0.20233509954E+02  0.51100000000E-03 0. -1.
        -11    1    4    4    0    0  0.73970614921E+01  0.74427442675E+01  0.62919919741E+01  0.12235200211E+02  0.51100000000E-03 0.  1.
         12    1    4    4    0    0  0.47376552912E+01 -0.22976319727E+01  0.17275558235E+02  0.18060160649E+02  0.00000000000E+00 0. -1.
</event>
<event>
 8    1  0.2031623E-013  0.9118800E+02  0.7816164E-02  0.1184000E+00
        -11   -1    0    0    0    0  0.00000000000E+00  0.00000000000E+00  0.45593999997E+02  0.45594000000E+02  0.51100000000E-03 0. -1.
         11   -1    0    0    0    0 -0.00000000000E+00 -0.00000000000E+00 -0.45593999997E+02  0.45594000000E+02  0.51100000000E-03 0.  1.
         23    2    1    2    0    0  0.00000000000E+00 -0.44408920985E-15  0.00000000000E+00  0.91188000000E+02  0.91188000000E+02 0.  0.
    9900012    2    3    3    0    0  0.63199233232E+01 -0.22284971729E+01 -0.40103090534E+02  0.50528862025E+02  0.30000006612E+02 0.  0.
         12    1    3    3    0    0 -0.63199233232E+01  0.22284971729E+01  0.40103090534E+02  0.40659137975E+02  0.00000000000E+00 0. -1.
         11    1    4    4    0    0 -0.37758731367E+01  0.93498334404E+01 -0.40129507705E+01  0.10852666836E+02  0.51100000000E-03 0. -1.
        -11    1    4    4    0    0  0.26797376383E+01 -0.17551415980E+01 -0.14259400312E+02  0.14614787489E+02  0.51100000000E-03 0.  1.
         12    1    4    4    0    0  0.74160588217E+01 -0.98231890153E+01 -0.21830739452E+02  0.25061407700E+02  0.00000000000E+00 0. -1.
</event>
<event>
 8    1  0.2031623E-013  0.9118800E+02  0.7816164E-02  0.1184000E+00
        -11   -1    0    0    0    0  0.00000000000E+00  0.00000000000E+00  0.45593999997E+02  0.45594000000E+02  0.51100000000E-03 0. -1.
         11   -1    0    0    0    0 -0.00000000000E+00 -0.00000000000E+00 -0.45593999997E+02  0.45594000000E+02  0.51100000000E-03 0.  1.
         23    2    1    2    0    0  0.00000000000E+00  0.00000000000E+00  0.00000000000E+00  0.91188000000E+02  0.91188000000E+02 0.  0.
    9900012    2    3    3    0    0 -0.31725517512E+02 -0.29322538918E+01  0.25259811273E+02  0.50528872613E+02  0.30000038796E+02 0.  0.
        -12    1    3    3    0    0  0.31725517512E+02  0.29322538918E+01 -0.25259811273E+02  0.40659127387E+02  0.00000000000E+00 0.  1.
         11    1    4    4    0    0 -0.11596857325E+02  0.19311921687E+01  0.20412266093E+02  0.23555831768E+02  0.51100000000E-03 0. -1.
        -11    1    4    4    0    0 -0.22756783539E+02 -0.30347793202E+01  0.26970123127E+01  0.23116119014E+02  0.51100000000E-03 0.  1.
        -12    1    4    4    0    0  0.26281233517E+01 -0.18286667403E+01  0.21505328675E+01  0.38569218314E+01  0.00000000000E+00 0.  1.
</event>
<event>
 8    1  0.2031623E-013  0.9118800E+02  0.7816164E-02  0.1184000E+00
        -11   -1    0    0    0    0  0.00000000000E+00  0.00000000000E+00  0.45593999997E+02  0.45594000000E+02  0.51100000000E-03 0. -1.
         11   -1    0    0    0    0 -0.00000000000E+00 -0.00000000000E+00 -0.45593999997E+02  0.45594000000E+02  0.51100000000E-03 0.  1.
         23    2    1    2    0    0  0.35527136788E-14  0.00000000000E+00  0.00000000000E+00  0.91188000000E+02  0.91188000000E+02 0.  0.
    9900012    2    3    3    0    0 -0.27655453162E+02  0.18953391669E+02 -0.23002426569E+02  0.50528846376E+02  0.29999959044E+02 0.  0.
         12    1    3    3    0    0  0.27655453162E+02 -0.18953391669E+02  0.23002426569E+02  0.40659153624E+02  0.00000000000E+00 0. -1.
         11    1    4    4    0    0  0.43011651101E+01  0.35885981808E+01 -0.54570837959E+01  0.78203466690E+01  0.51100000000E-03 0. -1.
        -11    1    4    4    0    0 -0.21341425453E+02  0.14270807131E+02 -0.48559338150E+01  0.26128384374E+02  0.51100000000E-03 0.  1.
         12    1    4    4    0    0 -0.10615192819E+02  0.10939863578E+01 -0.12689408958E+02  0.16580115333E+02  0.00000000000E+00 0. -1.
</event>
<event>
 8    1  0.2031623E-013  0.9118800E+02  0.7816164E-02  0.1184000E+00
        -11   -1    0    0    0    0  0.00000000000E+00  0.00000000000E+00  0.45593999997E+02  0.45594000000E+02  0.51100000000E-03 0.  1.
         11   -1    0    0    0    0 -0.00000000000E+00 -0.00000000000E+00 -0.45593999997E+02  0.45594000000E+02  0.51100000000E-03 0. -1.
         23    2    1    2    0    0  0.35527136788E-14 -0.35527136788E-14  0.00000000000E+00  0.91188000000E+02  0.91188000000E+02 0.  0.
    9900012    2    3    3    0    0  0.23766551571E+02 -0.31982136957E+02 -0.80904758101E+01  0.50528906838E+02  0.30000142823E+02 0.  0.
         12    1    3    3    0    0 -0.23766551571E+02  0.31982136957E+02  0.80904758101E+01  0.40659093162E+02  0.00000000000E+00 0. -1.
         11    1    4    4    0    0 -0.76866926650E+00 -0.16334268819E+02 -0.20887934800E+01  0.16485213033E+02  0.51100000000E-03 0. -1.
        -11    1    4    4    0    0  0.11012550028E+02  0.53481560329E+00 -0.67747673805E+01  0.12940624373E+02  0.51100000000E-03 0.  1.
         12    1    4    4    0    0  0.13522670810E+02 -0.16182683742E+02  0.77308505044E+00  0.21103069431E+02  0.00000000000E+00 0. -1.
</event>
<event>
 8    1  0.2031623E-013  0.9118800E+02  0.7816164E-02  0.1184000E+00
        -11   -1    0    0    0    0  0.00000000000E+00  0.00000000000E+00  0.45593999997E+02  0.45594000000E+02  0.51100000000E-03 0. -1.
         11   -1    0    0    0    0 -0.00000000000E+00 -0.00000000000E+00 -0.45593999997E+02  0.45594000000E+02  0.51100000000E-03 0.  1.
         23    2    1    2    0    0  0.35527136788E-14 -0.71054273576E-14 -0.88817841970E-15  0.91188000000E+02  0.91188000000E+02 0.  0.
    9900012    2    3    3    0    0  0.22355824889E+02 -0.33570958780E+02 -0.51356661670E+01  0.50528840554E+02  0.29999941347E+02 0.  0.
         12    1    3    3    0    0 -0.22355824889E+02  0.33570958780E+02  0.51356661670E+01  0.40659159446E+02  0.00000000000E+00 0. -1.
         11    1    4    4    0    0 -0.69054852105E+01 -0.77052671325E+01 -0.74736464921E+00  0.10373785315E+02  0.51100000000E-03 0. -1.
        -11    1    4    4    0    0  0.13741546933E+02 -0.13318805640E+02  0.18992027251E+01  0.19230903958E+02  0.51100000000E-03 0.  1.
         12    1    4    4    0    0  0.15519763166E+02 -0.12546886008E+02 -0.62875042430E+01  0.20924151281E+02  0.00000000000E+00 0. -1.
</event>
<event>
 8    1  0.2031623E-013  0.9118800E+02  0.7816164E-02  0.1184000E+00
        -11   -1    0    0    0    0  0.00000000000E+00  0.00000000000E+00  0.45593999997E+02  0.45594000000E+02  0.51100000000E-03 0. -1.
         11   -1    0    0    0    0 -0.00000000000E+00 -0.00000000000E+00 -0.45593999997E+02  0.45594000000E+02  0.51100000000E-03 0.  1.
         23    2    1    2    0    0  0.00000000000E+00 -0.35527136788E-14  0.00000000000E+00  0.91188000000E+02  0.91188000000E+02 0.  0.
    9900012    2    3    3    0    0  0.25530396431E+02 -0.25435197045E+02  0.18825935158E+02  0.50528853118E+02  0.29999979538E+02 0.  0.
        -12    1    3    3    0    0 -0.25530396431E+02  0.25435197045E+02 -0.18825935158E+02  0.40659146882E+02  0.00000000000E+00 0.  1.
         11    1    4    4    0    0  0.98799458876E+01 -0.28375102398E+02  0.15134954187E+02  0.33642630774E+02  0.51100000000E-03 0. -1.
        -11    1    4    4    0    0  0.11271150978E+02  0.74976405005E+00  0.11080045220E+01  0.11350271573E+02  0.51100000000E-03 0.  1.
         12    1    4    4    0    0  0.43792995649E+01  0.21901413037E+01  0.25829764488E+01  0.55359507715E+01  0.00000000000E+00 0. -1.
</event>
<event>
 8    1  0.2031623E-013  0.9118800E+02  0.7816164E-02  0.1184000E+00
        -11   -1    0    0    0    0  0.00000000000E+00  0.00000000000E+00  0.45593999997E+02  0.45594000000E+02  0.51100000000E-03 0. -1.
         11   -1    0    0    0    0 -0.00000000000E+00 -0.00000000000E+00 -0.45593999997E+02  0.45594000000E+02  0.51100000000E-03 0.  1.
         23    2    1    2    0    0 -0.71054273576E-14  0.88817841970E-15  0.00000000000E+00  0.91188000000E+02  0.91188000000E+02 0.  0.
    9900012    2    3    3    0    0  0.18794202230E+02  0.79352511438E+01 -0.35170643376E+02  0.50528875518E+02  0.30000047625E+02 0.  0.
         12    1    3    3    0    0 -0.18794202230E+02 -0.79352511438E+01  0.35170643376E+02  0.40659124482E+02  0.00000000000E+00 0. -1.
         11    1    4    4    0    0  0.14015911148E+01  0.45961242455E+01 -0.16843551360E+01  0.50917451054E+01  0.51100000000E-03 0. -1.
        -11    1    4    4    0    0  0.13301878291E+01 -0.97415099531E+01 -0.13040021122E+02  0.16331214497E+02  0.51100000000E-03 0.  1.
        -12    1    4    4    0    0  0.16062423286E+02  0.13080636851E+02 -0.20446267117E+02  0.29105915916E+02  0.00000000000E+00 0.  1.
</event>
<event>
 8    1  0.2031623E-013  0.9118800E+02  0.7816164E-02  0.1184000E+00
        -11   -1    0    0    0    0  0.00000000000E+00  0.00000000000E+00  0.45593999997E+02  0.45594000000E+02  0.51100000000E-03 0. -1.
         11   -1    0    0    0    0 -0.00000000000E+00 -0.00000000000E+00 -0.45593999997E+02  0.45594000000E+02  0.51100000000E-03 0.  1.
         23    2    1    2    0    0 -0.17763568394E-14  0.00000000000E+00  0.35527136788E-14  0.91188000000E+02  0.91188000000E+02 0.  0.
    9900012    2    3    3    0    0  0.73947766070E+01 -0.24508649616E+02  0.31588119325E+02  0.50528856999E+02  0.29999991334E+02 0.  0.
        -12    1    3    3    0    0 -0.73947766070E+01  0.24508649616E+02 -0.31588119325E+02  0.40659143001E+02  0.00000000000E+00 0.  1.
         11    1    4    4    0    0 -0.94886932021E+01 -0.11337260415E+02  0.78401935584E+01  0.16734318262E+02  0.51100000000E-03 0. -1.
        -11    1    4    4    0    0  0.10080296414E+02 -0.10835648507E+02  0.88311216508E+01  0.17234046659E+02  0.51100000000E-03 0.  1.
         12    1    4    4    0    0  0.68031733948E+01 -0.23357406947E+01  0.14916804116E+02  0.16560492078E+02  0.00000000000E+00 0. -1.
</event>
<event>
 8    1  0.2031623E-013  0.9118800E+02  0.7816164E-02  0.1184000E+00
        -11   -1    0    0    0    0  0.00000000000E+00  0.00000000000E+00  0.45593999997E+02  0.45594000000E+02  0.51100000000E-03 0.  1.
         11   -1    0    0    0    0 -0.00000000000E+00 -0.00000000000E+00 -0.45593999997E+02  0.45594000000E+02  0.51100000000E-03 0. -1.
         23    2    1    2    0    0 -0.71054273576E-14 -0.35527136788E-14  0.00000000000E+00  0.91188000000E+02  0.91188000000E+02 0.  0.
    9900012    2    3    3    0    0  0.35880436732E+02  0.18921662959E+02 -0.27803681242E+01  0.50528861837E+02  0.30000006041E+02 0.  0.
        -12    1    3    3    0    0 -0.35880436732E+02 -0.18921662959E+02  0.27803681242E+01  0.40659138163E+02  0.00000000000E+00 0.  1.
         11    1    4    4    0    0  0.29015909922E+02  0.77306428251E+01 -0.12063738149E+02  0.32360773252E+02  0.51100000000E-03 0. -1.
        -11    1    4    4    0    0  0.25355329957E+01  0.22720932938E+01  0.73038621057E+01  0.80583954624E+01  0.51100000000E-03 0.  1.
         12    1    4    4    0    0  0.43289938141E+01  0.89189268404E+01  0.19795079193E+01  0.10109693122E+02  0.00000000000E+00 0. -1.
</event>
<event>
 8    1  0.2031623E-013  0.9118800E+02  0.7816164E-02  0.1184000E+00
        -11   -1    0    0    0    0  0.00000000000E+00  0.00000000000E+00  0.45593999997E+02  0.45594000000E+02  0.51100000000E-03 0. -1.
         11   -1    0    0    0    0 -0.00000000000E+00 -0.00000000000E+00 -0.45593999997E+02  0.45594000000E+02  0.51100000000E-03 0.  1.
         23    2    1    2    0    0 -0.35527136788E-14  0.00000000000E+00  0.00000000000E+00  0.91188000000E+02  0.91188000000E+02 0.  0.
    9900012    2    3    3    0    0 -0.18784194225E+02  0.30684249567E+02  0.18941925567E+02  0.50528859965E+02  0.30000000350E+02 0.  0.
        -12    1    3    3    0    0  0.18784194225E+02 -0.30684249567E+02 -0.18941925567E+02  0.40659140035E+02  0.00000000000E+00 0.  1.
         11    1    4    4    0    0 -0.11671990213E+02  0.23764467808E+02  0.11290618355E+02  0.28783039257E+02  0.51100000000E-03 0. -1.
        -11    1    4    4    0    0  0.22913678826E+01 -0.38256088211E+01  0.58467176117E+01  0.73532140400E+01  0.51100000000E-03 0.  1.
        -12    1    4    4    0    0 -0.94035718947E+01  0.10745390580E+02  0.18045896001E+01  0.14392606669E+02  0.00000000000E+00 0.  1.
</event>
<event>
 8    1  0.2031623E-013  0.9118800E+02  0.7816164E-02  0.1184000E+00
        -11   -1    0    0    0    0  0.00000000000E+00  0.00000000000E+00  0.45593999997E+02  0.45594000000E+02  0.51100000000E-03 0.  1.
         11   -1    0    0    0    0 -0.00000000000E+00 -0.00000000000E+00 -0.45593999997E+02  0.45594000000E+02  0.51100000000E-03 0. -1.
         23    2    1    2    0    0  0.00000000000E+00  0.00000000000E+00  0.17763568394E-14  0.91188000000E+02  0.91188000000E+02 0.  0.
    9900012    2    3    3    0    0  0.26135561201E+02 -0.30853508352E+02  0.42613322012E+01  0.50528862170E+02  0.30000007053E+02 0.  0.
        -12    1    3    3    0    0 -0.26135561201E+02  0.30853508352E+02 -0.42613322012E+01  0.40659137830E+02  0.00000000000E+00 0.  1.
         11    1    4    4    0    0  0.82987350257E+01 -0.67302472968E+01 -0.33523329743E+01  0.11198364538E+02  0.51100000000E-03 0. -1.
        -11    1    4    4    0    0  0.14195008012E+02 -0.34497591781E+01  0.10707190801E+02  0.18111958093E+02  0.51100000000E-03 0.  1.
        -12    1    4    4    0    0  0.36418181639E+01 -0.20673501877E+02 -0.30935256257E+01  0.21218539539E+02  0.00000000000E+00 0.  1.
</event>
<event>
 8    1  0.2031623E-013  0.9118800E+02  0.7816164E-02  0.1184000E+00
        -11   -1    0    0    0    0  0.00000000000E+00  0.00000000000E+00  0.45593999997E+02  0.45594000000E+02  0.51100000000E-03 0. -1.
         11   -1    0    0    0    0 -0.00000000000E+00 -0.00000000000E+00 -0.45593999997E+02  0.45594000000E+02  0.51100000000E-03 0.  1.
         23    2    1    2    0    0 -0.71054273576E-14 -0.17763568394E-14  0.35527136788E-14  0.91188000000E+02  0.91188000000E+02 0.  0.
    9900012    2    3    3    0    0 -0.34437354046E+02 -0.13708059729E+02  0.16712956404E+02  0.50528866131E+02  0.30000019091E+02 0.  0.
        -12    1    3    3    0    0  0.34437354046E+02  0.13708059729E+02 -0.16712956404E+02  0.40659133869E+02  0.00000000000E+00 0.  1.
         11    1    4    4    0    0 -0.37781187873E+00 -0.87323614336E+00  0.92250525755E+01  0.92739893497E+01  0.51100000000E-03 0. -1.
        -11    1    4    4    0    0 -0.23524573315E+02 -0.13731301158E+02  0.11992856754E+02  0.29762103328E+02  0.51100000000E-03 0.  1.
        -12    1    4    4    0    0 -0.10534968853E+02  0.89647757241E+00 -0.45049529259E+01  0.11492773452E+02  0.00000000000E+00 0.  1.
</event>
<event>
 8    1  0.2031623E-013  0.9118800E+02  0.7816164E-02  0.1184000E+00
        -11   -1    0    0    0    0  0.00000000000E+00  0.00000000000E+00  0.45593999997E+02  0.45594000000E+02  0.51100000000E-03 0. -1.
         11   -1    0    0    0    0 -0.00000000000E+00 -0.00000000000E+00 -0.45593999997E+02  0.45594000000E+02  0.51100000000E-03 0.  1.
         23    2    1    2    0    0  0.00000000000E+00  0.88817841970E-15  0.00000000000E+00  0.91188000000E+02  0.91188000000E+02 0.  0.
    9900012    2    3    3    0    0 -0.32174585050E+02  0.39849165178E+01 -0.24537339418E+02  0.50528874228E+02  0.30000043704E+02 0.  0.
         12    1    3    3    0    0  0.32174585050E+02 -0.39849165178E+01  0.24537339418E+02  0.40659125772E+02  0.00000000000E+00 0. -1.
         11    1    4    4    0    0 -0.36650441059E+01 -0.95535459050E+01 -0.13574803551E+02  0.16999355264E+02  0.51100000000E-03 0. -1.
        -11    1    4    4    0    0 -0.17798905339E+02  0.98629859556E+01 -0.75211021732E+01  0.21694388708E+02  0.51100000000E-03 0.  1.
        -12    1    4    4    0    0 -0.10710635605E+02  0.36754764672E+01 -0.34414336935E+01  0.11835130257E+02  0.00000000000E+00 0.  1.
</event>
<event>
 8    1  0.2031623E-013  0.9118800E+02  0.7816164E-02  0.1184000E+00
        -11   -1    0    0    0    0  0.00000000000E+00  0.00000000000E+00  0.45593999997E+02  0.45594000000E+02  0.51100000000E-03 0. -1.
         11   -1    0    0    0    0 -0.00000000000E+00 -0.00000000000E+00 -0.45593999997E+02  0.45594000000E+02  0.51100000000E-03 0.  1.
         23    2    1    2    0    0  0.22759572005E-14 -0.44408920985E-15  0.71054273576E-14  0.91188000000E+02  0.91188000000E+02 0.  0.
    9900012    2    3    3    0    0 -0.48959095663E+00  0.27673994542E+01  0.40561899535E+02  0.50528857203E+02  0.29999991956E+02 0.  0.
        -12    1    3    3    0    0  0.48959095663E+00 -0.27673994542E+01 -0.40561899535E+02  0.40659142797E+02  0.00000000000E+00 0.  1.
         11    1    4    4    0    0 -0.13103458241E+02  0.68229324578E+01  0.25973692518E+02  0.29881193559E+02  0.51100000000E-03 0. -1.
        -11    1    4    4    0    0  0.51448742811E+01  0.95871875569E+00  0.31974224581E+01  0.61328935795E+01  0.51100000000E-03 0.  1.
         12    1    4    4    0    0  0.74689930029E+01 -0.50142517592E+01  0.11390784559E+02  0.14514770065E+02  0.00000000000E+00 0. -1.
</event>
<event>
 8    1  0.2031623E-013  0.9118800E+02  0.7816164E-02  0.1184000E+00
        -11   -1    0    0    0    0  0.00000000000E+00  0.00000000000E+00  0.45593999997E+02  0.45594000000E+02  0.51100000000E-03 0.  1.
         11   -1    0    0    0    0 -0.00000000000E+00 -0.00000000000E+00 -0.45593999997E+02  0.45594000000E+02  0.51100000000E-03 0. -1.
         23    2    1    2    0    0 -0.71054273576E-14  0.17763568394E-14 -0.35527136788E-14  0.91188000000E+02  0.91188000000E+02 0.  0.
    9900012    2    3    3    0    0 -0.33441815351E+02  0.12077159433E+02 -0.19721890421E+02  0.50528858891E+02  0.29999997084E+02 0.  0.
         12    1    3    3    0    0  0.33441815351E+02 -0.12077159433E+02  0.19721890421E+02  0.40659141109E+02  0.00000000000E+00 0. -1.
         11    1    4    4    0    0 -0.18734599083E+02  0.10907397455E+02 -0.21493656554E+02  0.30527590707E+02  0.51100000000E-03 0. -1.
        -11    1    4    4    0    0 -0.13589161835E+02  0.57660484260E+01 -0.46409720921E+00  0.14769157739E+02  0.51100000000E-03 0.  1.
         12    1    4    4    0    0 -0.11180544331E+01 -0.45962864480E+01  0.22358633421E+01  0.52321104453E+01  0.00000000000E+00 0. -1.
</event>
<event>
 8    1  0.2031623E-013  0.9118800E+02  0.7816164E-02  0.1184000E+00
        -11   -1    0    0    0    0  0.00000000000E+00  0.00000000000E+00  0.45593999997E+02  0.45594000000E+02  0.51100000000E-03 0. -1.
         11   -1    0    0    0    0 -0.00000000000E+00 -0.00000000000E+00 -0.45593999997E+02  0.45594000000E+02  0.51100000000E-03 0.  1.
         23    2    1    2    0    0  0.17763568394E-14  0.00000000000E+00 -0.35527136788E-14  0.91188000000E+02  0.91188000000E+02 0.  0.
    9900012    2    3    3    0    0  0.33863973454E+01  0.37214395721E+02 -0.16024469273E+02  0.50528898296E+02  0.30000116861E+02 0.  0.
         12    1    3    3    0    0 -0.33863973454E+01 -0.37214395721E+02  0.16024469273E+02  0.40659101704E+02  0.00000000000E+00 0. -1.
         11    1    4    4    0    0  0.77340151287E+01  0.30988813182E+02 -0.42270527240E+01  0.32217844550E+02  0.51100000000E-03 0. -1.
        -11    1    4    4    0    0 -0.34489101340E+01  0.63953569267E+01 -0.14084264412E+02  0.15848093754E+02  0.51100000000E-03 0.  1.
         12    1    4    4    0    0 -0.89870764918E+00 -0.16977438762E+00  0.22868478626E+01  0.24629599932E+01  0.00000000000E+00 0. -1.
</event>
<event>
 8    1  0.2031623E-013  0.9118800E+02  0.7816164E-02  0.1184000E+00
        -11   -1    0    0    0    0  0.00000000000E+00  0.00000000000E+00  0.45593999997E+02  0.45594000000E+02  0.51100000000E-03 0. -1.
         11   -1    0    0    0    0 -0.00000000000E+00 -0.00000000000E+00 -0.45593999997E+02  0.45594000000E+02  0.51100000000E-03 0.  1.
         23    2    1    2    0    0  0.00000000000E+00  0.35527136788E-14  0.00000000000E+00  0.91188000000E+02  0.91188000000E+02 0.  0.
    9900012    2    3    3    0    0 -0.40804699871E+01 -0.23501668470E+02  0.32927011704E+02  0.50528846591E+02  0.29999959697E+02 0.  0.
        -12    1    3    3    0    0  0.40804699871E+01  0.23501668470E+02 -0.32927011704E+02  0.40659153409E+02  0.00000000000E+00 0.  1.
         11    1    4    4    0    0 -0.87906643758E+01 -0.13265818974E+02  0.26695560777E+02  0.31079103892E+02  0.51100000000E-03 0. -1.
        -11    1    4    4    0    0  0.84298310712E+01 -0.10060366067E+02  0.79535450986E+01  0.15347048484E+02  0.51100000000E-03 0.  1.
        -12    1    4    4    0    0 -0.37196366824E+01 -0.17548342896E+00 -0.17220941719E+01  0.41026942148E+01  0.00000000000E+00 0.  1.
</event>
<event>
 8    1  0.2031623E-013  0.9118800E+02  0.7816164E-02  0.1184000E+00
        -11   -1    0    0    0    0  0.00000000000E+00  0.00000000000E+00  0.45593999997E+02  0.45594000000E+02  0.51100000000E-03 0. -1.
         11   -1    0    0    0    0 -0.00000000000E+00 -0.00000000000E+00 -0.45593999997E+02  0.45594000000E+02  0.51100000000E-03 0.  1.
         23    2    1    2    0    0  0.35527136788E-14  0.00000000000E+00  0.00000000000E+00  0.91188000000E+02  0.91188000000E+02 0.  0.
    9900012    2    3    3    0    0 -0.25060348418E+02 -0.25818348528E+02 -0.18935591942E+02  0.50528870327E+02  0.30000031846E+02 0.  0.
         12    1    3    3    0    0  0.25060348418E+02  0.25818348528E+02  0.18935591942E+02  0.40659129673E+02  0.00000000000E+00 0. -1.
         11    1    4    4    0    0  0.25785170258E+00 -0.49431954788E+01 -0.10814492633E+02  0.11893482257E+02  0.51100000000E-03 0.  1.
        -11    1    4    4    0    0 -0.20686255629E+02 -0.57757246396E+01 -0.77632269402E+01  0.22837422356E+02  0.51100000000E-03 0. -1.
        -12    1    4    4    0    0 -0.46319444914E+01 -0.15099428410E+02 -0.35787236955E+00  0.15797965714E+02  0.00000000000E+00 0.  1.
</event>
<event>
 8    1  0.2031623E-013  0.9118800E+02  0.7816164E-02  0.1184000E+00
        -11   -1    0    0    0    0  0.00000000000E+00  0.00000000000E+00  0.45593999997E+02  0.45594000000E+02  0.51100000000E-03 0. -1.
         11   -1    0    0    0    0 -0.00000000000E+00 -0.00000000000E+00 -0.45593999997E+02  0.45594000000E+02  0.51100000000E-03 0.  1.
         23    2    1    2    0    0  0.35527136788E-14 -0.17763568394E-14  0.71054273576E-14  0.91188000000E+02  0.91188000000E+02 0.  0.
    9900012    2    3    3    0    0  0.20452400891E+02 -0.13363835176E+02  0.32500355472E+02  0.50528857134E+02  0.29999991743E+02 0.  0.
        -12    1    3    3    0    0 -0.20452400891E+02  0.13363835176E+02 -0.32500355472E+02  0.40659142866E+02  0.00000000000E+00 0.  1.
         11    1    4    4    0    0  0.30361064925E+01 -0.96551395300E+01  0.30477765864E+02  0.32114387342E+02  0.51100000000E-03 0. -1.
        -11    1    4    4    0    0  0.82181688236E+01 -0.35688519554E-01  0.22032328833E+01  0.85084550821E+01  0.51100000000E-03 0.  1.
         12    1    4    4    0    0  0.91981255748E+01 -0.36730071264E+01 -0.18064327563E+00  0.99060147099E+01  0.00000000000E+00 0. -1.
</event>
<event>
 8    1  0.2031623E-013  0.9118800E+02  0.7816164E-02  0.1184000E+00
        -11   -1    0    0    0    0  0.00000000000E+00  0.00000000000E+00  0.45593999997E+02  0.45594000000E+02  0.51100000000E-03 0. -1.
         11   -1    0    0    0    0 -0.00000000000E+00 -0.00000000000E+00 -0.45593999997E+02  0.45594000000E+02  0.51100000000E-03 0.  1.
         23    2    1    2    0    0  0.00000000000E+00  0.00000000000E+00  0.00000000000E+00  0.91188000000E+02  0.91188000000E+02 0.  0.
    9900012    2    3    3    0    0  0.27796949447E+02 -0.14623341403E+02 -0.25819636708E+02  0.50528854018E+02  0.29999982272E+02 0.  0.
         12    1    3    3    0    0 -0.27796949447E+02  0.14623341403E+02  0.25819636708E+02  0.40659145982E+02  0.00000000000E+00 0. -1.
         11    1    4    4    0    0  0.74555679914E+01  0.27219099991E+01 -0.12965967904E+02  0.15202322588E+02  0.51100000000E-03 0. -1.
        -11    1    4    4    0    0  0.24058124705E+02 -0.13644418695E+02 -0.10950816153E+02  0.29746998177E+02  0.51100000000E-03 0.  1.
        -12    1    4    4    0    0 -0.37167432500E+01 -0.37008327066E+01 -0.19028526508E+01  0.55795332528E+01  0.00000000000E+00 0.  1.
</event>
<event>
 8    1  0.2031623E-013  0.9118800E+02  0.7816164E-02  0.1184000E+00
        -11   -1    0    0    0    0  0.00000000000E+00  0.00000000000E+00  0.45593999997E+02  0.45594000000E+02  0.51100000000E-03 0. -1.
         11   -1    0    0    0    0 -0.00000000000E+00 -0.00000000000E+00 -0.45593999997E+02  0.45594000000E+02  0.51100000000E-03 0.  1.
         23    2    1    2    0    0  0.35527136788E-14 -0.88817841970E-15  0.00000000000E+00  0.91188000000E+02  0.91188000000E+02 0.  0.
    9900012    2    3    3    0    0 -0.25471109435E+02 -0.71169840503E+01 -0.30882634187E+02  0.50528856229E+02  0.29999988994E+02 0.  0.
         12    1    3    3    0    0  0.25471109435E+02  0.71169840503E+01  0.30882634187E+02  0.40659143771E+02  0.00000000000E+00 0. -1.
         11    1    4    4    0    0  0.22111249820E+01  0.22544581677E+01  0.11615011238E+01  0.33646308026E+01  0.51100000000E-03 0. -1.
        -11    1    4    4    0    0 -0.20009661995E+02  0.10939433859E+01 -0.26060463775E+02  0.32874474258E+02  0.51100000000E-03 0.  1.
        -12    1    4    4    0    0 -0.76725724217E+01 -0.10465385604E+02 -0.59836715363E+01  0.14289751169E+02  0.00000000000E+00 0.  1.
</event>
<event>
 8    1  0.2031623E-013  0.9118800E+02  0.7816164E-02  0.1184000E+00
        -11   -1    0    0    0    0  0.00000000000E+00  0.00000000000E+00  0.45593999997E+02  0.45594000000E+02  0.51100000000E-03 0. -1.
         11   -1    0    0    0    0 -0.00000000000E+00 -0.00000000000E+00 -0.45593999997E+02  0.45594000000E+02  0.51100000000E-03 0.  1.
         23    2    1    2    0    0  0.00000000000E+00  0.00000000000E+00  0.35527136788E-14  0.91188000000E+02  0.91188000000E+02 0.  0.
    9900012    2    3    3    0    0 -0.24461985223E+02 -0.16069357452E+02 -0.28223289662E+02  0.50528842983E+02  0.29999948731E+02 0.  0.
         12    1    3    3    0    0  0.24461985223E+02  0.16069357452E+02  0.28223289662E+02  0.40659157017E+02  0.00000000000E+00 0. -1.
         11    1    4    4    0    0 -0.22570136571E+02 -0.14327055580E+01 -0.12788762881E+02  0.25981073233E+02  0.51100000000E-03 0. -1.
        -11    1    4    4    0    0 -0.37540153173E+00 -0.16466349842E+02 -0.12031138161E+02  0.20396810759E+02  0.51100000000E-03 0.  1.
         12    1    4    4    0    0 -0.15164471197E+01  0.18296979472E+01 -0.34033886204E+01  0.41509589911E+01  0.00000000000E+00 0. -1.
</event>
<event>
 8    1  0.2031623E-013  0.9118800E+02  0.7816164E-02  0.1184000E+00
        -11   -1    0    0    0    0  0.00000000000E+00  0.00000000000E+00  0.45593999997E+02  0.45594000000E+02  0.51100000000E-03 0. -1.
         11   -1    0    0    0    0 -0.00000000000E+00 -0.00000000000E+00 -0.45593999997E+02  0.45594000000E+02  0.51100000000E-03 0.  1.
         23    2    1    2    0    0  0.00000000000E+00  0.88817841970E-15  0.00000000000E+00  0.91188000000E+02  0.91188000000E+02 0.  0.
    9900012    2    3    3    0    0  0.33702399896E+02  0.47692424862E+01 -0.22238889598E+02  0.50528860274E+02  0.30000001290E+02 0.  0.
         12    1    3    3    0    0 -0.33702399896E+02 -0.47692424862E+01  0.22238889598E+02  0.40659139726E+02  0.00000000000E+00 0. -1.
         11    1    4    4    0    0  0.64679287383E+01  0.45778622375E+01  0.45618419176E+01  0.91433761145E+01  0.51100000000E-03 0. -1.
        -11    1    4    4    0    0  0.10170837701E+02  0.93252947690E+00 -0.20992388420E+02  0.23345147731E+02  0.51100000000E-03 0.  1.
        -12    1    4    4    0    0  0.17063633457E+02 -0.74114922811E+00 -0.58083430959E+01  0.18040336428E+02  0.00000000000E+00 0.  1.
</event>
<event>
 8    1  0.2031623E-013  0.9118800E+02  0.7816164E-02  0.1184000E+00
        -11   -1    0    0    0    0  0.00000000000E+00  0.00000000000E+00  0.45593999997E+02  0.45594000000E+02  0.51100000000E-03 0.  1.
         11   -1    0    0    0    0 -0.00000000000E+00 -0.00000000000E+00 -0.45593999997E+02  0.45594000000E+02  0.51100000000E-03 0. -1.
         23    2    1    2    0    0  0.00000000000E+00  0.00000000000E+00  0.35527136788E-14  0.91188000000E+02  0.91188000000E+02 0.  0.
    9900012    2    3    3    0    0  0.22404902435E+02  0.29293252044E+02 -0.17119907524E+02  0.50528862010E+02  0.30000006566E+02 0.  0.
         12    1    3    3    0    0 -0.22404902435E+02 -0.29293252044E+02  0.17119907524E+02  0.40659137990E+02  0.00000000000E+00 0. -1.
         11    1    4    4    0    0 -0.28799803083E+01  0.11405504870E+02 -0.12239788376E+02  0.16976225955E+02  0.51100000000E-03 0. -1.
        -11    1    4    4    0    0  0.24227794269E+02  0.15662971760E+02 -0.89012417899E+00  0.28863593345E+02  0.51100000000E-03 0.  1.
         12    1    4    4    0    0  0.10570884748E+01  0.22247754142E+01 -0.39899949693E+01  0.46890427106E+01  0.00000000000E+00 0. -1.
</event>
<event>
 8    1  0.2031623E-013  0.9118800E+02  0.7816164E-02  0.1184000E+00
        -11   -1    0    0    0    0  0.00000000000E+00  0.00000000000E+00  0.45593999997E+02  0.45594000000E+02  0.51100000000E-03 0. -1.
         11   -1    0    0    0    0 -0.00000000000E+00 -0.00000000000E+00 -0.45593999997E+02  0.45594000000E+02  0.51100000000E-03 0.  1.
         23    2    1    2    0    0  0.00000000000E+00  0.00000000000E+00  0.35527136788E-14  0.91188000000E+02  0.91188000000E+02 0.  0.
    9900012    2    3    3    0    0 -0.27463309149E+02  0.11756391084E+02 -0.27581139118E+02  0.50528864301E+02  0.30000013530E+02 0.  0.
         12    1    3    3    0    0  0.27463309149E+02 -0.11756391084E+02  0.27581139118E+02  0.40659135699E+02  0.00000000000E+00 0. -1.
         11    1    4    4    0    0 -0.91132939672E+01  0.19605207913E+02 -0.10984190790E+02  0.24250128903E+02  0.51100000000E-03 0. -1.
        -11    1    4    4    0    0 -0.29674047827E+01 -0.24880167002E+01 -0.17948179845E+01  0.42681483225E+01  0.51100000000E-03 0.  1.
         12    1    4    4    0    0 -0.15382610399E+02 -0.53608001288E+01 -0.14802130343E+02  0.22010587075E+02  0.00000000000E+00 0. -1.
</event>
<event>
 8    1  0.2031623E-013  0.9118800E+02  0.7816164E-02  0.1184000E+00
        -11   -1    0    0    0    0  0.00000000000E+00  0.00000000000E+00  0.45593999997E+02  0.45594000000E+02  0.51100000000E-03 0. -1.
         11   -1    0    0    0    0 -0.00000000000E+00 -0.00000000000E+00 -0.45593999997E+02  0.45594000000E+02  0.51100000000E-03 0.  1.
         23    2    1    2    0    0 -0.35527136788E-14  0.35527136788E-14  0.71054273576E-14  0.91188000000E+02  0.91188000000E+02 0.  0.
    9900012    2    3    3    0    0 -0.13103236948E+02  0.13745636985E+02  0.35951749250E+02  0.50528860452E+02  0.30000001831E+02 0.  0.
        -12    1    3    3    0    0  0.13103236948E+02 -0.13745636985E+02 -0.35951749250E+02  0.40659139548E+02  0.00000000000E+00 0.  1.
         11    1    4    4    0    0 -0.10772191367E+02  0.88749893100E+01  0.17692808567E+02  0.22535328206E+02  0.51100000000E-03 0. -1.
        -11    1    4    4    0    0  0.45020700261E+01 -0.36751150449E+01  0.15721703078E+02  0.16761475265E+02  0.51100000000E-03 0.  1.
        -12    1    4    4    0    0 -0.68331156073E+01  0.85457627204E+01  0.25372376042E+01  0.11232056981E+02  0.00000000000E+00 0.  1.
</event>
<event>
 8    1  0.2031623E-013  0.9118800E+02  0.7816164E-02  0.1184000E+00
        -11   -1    0    0    0    0  0.00000000000E+00  0.00000000000E+00  0.45593999997E+02  0.45594000000E+02  0.51100000000E-03 0. -1.
         11   -1    0    0    0    0 -0.00000000000E+00 -0.00000000000E+00 -0.45593999997E+02  0.45594000000E+02  0.51100000000E-03 0.  1.
         23    2    1    2    0    0  0.00000000000E+00  0.71054273576E-14  0.17763568394E-14  0.91188000000E+02  0.91188000000E+02 0.  0.
    9900012    2    3    3    0    0  0.11537771372E+02 -0.38215542184E+02 -0.77212093541E+01  0.50528869333E+02  0.30000028825E+02 0.  0.
         12    1    3    3    0    0 -0.11537771372E+02  0.38215542184E+02  0.77212093541E+01  0.40659130667E+02  0.00000000000E+00 0. -1.
         11    1    4    4    0    0 -0.39632275804E+00 -0.86502976706E+01  0.87551212253E+01  0.12314092311E+02  0.51100000000E-03 0. -1.
        -11    1    4    4    0    0  0.65885842470E+01 -0.21329246456E+02 -0.17468682167E+02  0.28346094152E+02  0.51100000000E-03 0.  1.
         12    1    4    4    0    0  0.53455098834E+01 -0.82359980580E+01  0.99235158713E+00  0.98686828705E+01  0.00000000000E+00 0. -1.
</event>
<event>
 8    1  0.2031623E-013  0.9118800E+02  0.7816164E-02  0.1184000E+00
        -11   -1    0    0    0    0  0.00000000000E+00  0.00000000000E+00  0.45593999997E+02  0.45594000000E+02  0.51100000000E-03 0. -1.
         11   -1    0    0    0    0 -0.00000000000E+00 -0.00000000000E+00 -0.45593999997E+02  0.45594000000E+02  0.51100000000E-03 0.  1.
         23    2    1    2    0    0  0.00000000000E+00 -0.88817841970E-15 -0.71054273576E-14  0.91188000000E+02  0.91188000000E+02 0.  0.
    9900012    2    3    3    0    0 -0.45461166419E+01  0.71181850839E+01 -0.39772225413E+02  0.50528860195E+02  0.30000001047E+02 0.  0.
         12    1    3    3    0    0  0.45461166419E+01 -0.71181850839E+01  0.39772225413E+02  0.40659139805E+02  0.00000000000E+00 0. -1.
         11    1    4    4    0    0 -0.10012686870E+01 -0.61343474216E+01  0.77561123791E+00  0.62637313421E+01  0.51100000000E-03 0. -1.
        -11    1    4    4    0    0 -0.33105762739E+01  0.96297108890E+01 -0.39019199833E+02  0.40326036291E+02  0.51100000000E-03 0.  1.
        -12    1    4    4    0    0 -0.23427168100E+00  0.36228216165E+01 -0.15286368175E+01  0.39390925611E+01  0.00000000000E+00 0.  1.
</event>
<event>
 8    1  0.2031623E-013  0.9118800E+02  0.7816164E-02  0.1184000E+00
        -11   -1    0    0    0    0  0.00000000000E+00  0.00000000000E+00  0.45593999997E+02  0.45594000000E+02  0.51100000000E-03 0. -1.
         11   -1    0    0    0    0 -0.00000000000E+00 -0.00000000000E+00 -0.45593999997E+02  0.45594000000E+02  0.51100000000E-03 0.  1.
         23    2    1    2    0    0  0.00000000000E+00  0.44408920985E-15  0.35527136788E-14  0.91188000000E+02  0.91188000000E+02 0.  0.
    9900012    2    3    3    0    0  0.25267397678E+02 -0.17557540203E+01  0.31806306799E+02  0.50528865605E+02  0.30000017491E+02 0.  0.
        -12    1    3    3    0    0 -0.25267397678E+02  0.17557540203E+01 -0.31806306799E+02  0.40659134395E+02  0.00000000000E+00 0.  1.
         11    1    4    4    0    0  0.14746953890E+02 -0.75348690538E+01  0.16733538713E+02  0.23542689286E+02  0.51100000000E-03 0. -1.
        -11    1    4    4    0    0  0.99070579997E+01  0.71416304502E+01  0.38113533051E+00  0.12218753950E+02  0.51100000000E-03 0.  1.
        -12    1    4    4    0    0  0.61338578843E+00 -0.13625154168E+01  0.14691632755E+02  0.14767422368E+02  0.00000000000E+00 0.  1.
</event>
<event>
 8    1  0.2031623E-013  0.9118800E+02  0.7816164E-02  0.1184000E+00
        -11   -1    0    0    0    0  0.00000000000E+00  0.00000000000E+00  0.45593999997E+02  0.45594000000E+02  0.51100000000E-03 0. -1.
         11   -1    0    0    0    0 -0.00000000000E+00 -0.00000000000E+00 -0.45593999997E+02  0.45594000000E+02  0.51100000000E-03 0.  1.
         23    2    1    2    0    0  0.35527136788E-14  0.44408920985E-15  0.00000000000E+00  0.91188000000E+02  0.91188000000E+02 0.  0.
    9900012    2    3    3    0    0  0.14351256161E+02 -0.12609533544E+01 -0.38021270939E+02  0.50528860799E+02  0.30000002884E+02 0.  0.
         12    1    3    3    0    0 -0.14351256161E+02  0.12609533544E+01  0.38021270939E+02  0.40659139201E+02  0.00000000000E+00 0. -1.
         11    1    4    4    0    0  0.46235589832E+01 -0.90739151097E+01 -0.16449436586E+02  0.19346761934E+02  0.51100000000E-03 0. -1.
        -11    1    4    4    0    0 -0.41339364948E+01  0.70134859213E+01 -0.11223625086E+02  0.13865358850E+02  0.51100000000E-03 0.  1.
        -12    1    4    4    0    0  0.13861633673E+02  0.79947583391E+00 -0.10348209267E+02  0.17316740014E+02  0.00000000000E+00 0.  1.
</event>
<event>
 8    1  0.2031623E-013  0.9118800E+02  0.7816164E-02  0.1184000E+00
        -11   -1    0    0    0    0  0.00000000000E+00  0.00000000000E+00  0.45593999997E+02  0.45594000000E+02  0.51100000000E-03 0. -1.
         11   -1    0    0    0    0 -0.00000000000E+00 -0.00000000000E+00 -0.45593999997E+02  0.45594000000E+02  0.51100000000E-03 0.  1.
         23    2    1    2    0    0  0.00000000000E+00  0.00000000000E+00  0.00000000000E+00  0.91188000000E+02  0.91188000000E+02 0.  0.
    9900012    2    3    3    0    0  0.34541041900E+02 -0.20530504366E+02  0.62113473534E+01  0.50528855628E+02  0.29999987168E+02 0.  0.
        -12    1    3    3    0    0 -0.34541041900E+02  0.20530504366E+02 -0.62113473534E+01  0.40659144372E+02  0.00000000000E+00 0.  1.
         11    1    4    4    0    0  0.13168954312E+02 -0.13806141525E+02  0.55185316814E+01  0.19861648815E+02  0.51100000000E-03 0. -1.
        -11    1    4    4    0    0 -0.29385431964E+00  0.52776643726E+01 -0.22105649342E+01  0.57294580181E+01  0.51100000000E-03 0.  1.
        -12    1    4    4    0    0  0.21665941908E+02 -0.12002027214E+02  0.29033806063E+01  0.24937748795E+02  0.00000000000E+00 0.  1.
</event>
<event>
 8    1  0.2031623E-013  0.9118800E+02  0.7816164E-02  0.1184000E+00
        -11   -1    0    0    0    0  0.00000000000E+00  0.00000000000E+00  0.45593999997E+02  0.45594000000E+02  0.51100000000E-03 0.  1.
         11   -1    0    0    0    0 -0.00000000000E+00 -0.00000000000E+00 -0.45593999997E+02  0.45594000000E+02  0.51100000000E-03 0. -1.
         23    2    1    2    0    0  0.00000000000E+00  0.00000000000E+00  0.00000000000E+00  0.91188000000E+02  0.91188000000E+02 0.  0.
    9900012    2    3    3    0    0  0.33647961589E+02  0.22146105849E+02  0.55255897355E+01  0.50528837867E+02  0.29999933181E+02 0.  0.
         12    1    3    3    0    0 -0.33647961589E+02 -0.22146105849E+02 -0.55255897355E+01  0.40659162133E+02  0.00000000000E+00 0. -1.
         11    1    4    4    0    0  0.71969084893E+01 -0.92036447738E+00 -0.13866338806E+01  0.73868339873E+01  0.51100000000E-03 0. -1.
        -11    1    4    4    0    0  0.11894452304E+02  0.25001577100E+02  0.24530094184E+01  0.27795217369E+02  0.51100000000E-03 0.  1.
        -12    1    4    4    0    0  0.14556600796E+02 -0.19351067734E+01  0.44592141977E+01  0.15346786511E+02  0.00000000000E+00 0.  1.
</event>
<event>
 8    1  0.2031623E-013  0.9118800E+02  0.7816164E-02  0.1184000E+00
        -11   -1    0    0    0    0  0.00000000000E+00  0.00000000000E+00  0.45593999997E+02  0.45594000000E+02  0.51100000000E-03 0. -1.
         11   -1    0    0    0    0 -0.00000000000E+00 -0.00000000000E+00 -0.45593999997E+02  0.45594000000E+02  0.51100000000E-03 0.  1.
         23    2    1    2    0    0 -0.88817841970E-15  0.00000000000E+00  0.00000000000E+00  0.91188000000E+02  0.91188000000E+02 0.  0.
    9900012    2    3    3    0    0  0.39317874708E+01  0.18778121305E+02  0.35848139371E+02  0.50528857254E+02  0.29999992109E+02 0.  0.
        -12    1    3    3    0    0 -0.39317874708E+01 -0.18778121305E+02 -0.35848139371E+02  0.40659142746E+02  0.00000000000E+00 0.  1.
         11    1    4    4    0    0 -0.26606636885E+01  0.35534496510E+01  0.47786496133E+01  0.65223943512E+01  0.51100000000E-03 0. -1.
        -11    1    4    4    0    0  0.83461674742E+01 -0.46327254652E+01  0.17364058638E+02  0.19814923401E+02  0.51100000000E-03 0.  1.
        -12    1    4    4    0    0 -0.17537163148E+01  0.19857397119E+02  0.13705431120E+02  0.24191539501E+02  0.00000000000E+00 0.  1.
</event>
<event>
 8    1  0.2031623E-013  0.9118800E+02  0.7816164E-02  0.1184000E+00
        -11   -1    0    0    0    0  0.00000000000E+00  0.00000000000E+00  0.45593999997E+02  0.45594000000E+02  0.51100000000E-03 0. -1.
         11   -1    0    0    0    0 -0.00000000000E+00 -0.00000000000E+00 -0.45593999997E+02  0.45594000000E+02  0.51100000000E-03 0.  1.
         23    2    1    2    0    0  0.00000000000E+00 -0.35527136788E-14 -0.71054273576E-14  0.91188000000E+02  0.91188000000E+02 0.  0.
    9900012    2    3    3    0    0  0.10806457639E+02  0.20992648556E+02  0.33101287715E+02  0.50528855045E+02  0.29999985394E+02 0.  0.
        -12    1    3    3    0    0 -0.10806457639E+02 -0.20992648556E+02 -0.33101287715E+02  0.40659144955E+02  0.00000000000E+00 0.  1.
         11    1    4    4    0    0 -0.62820314387E+01  0.90670707883E+01  0.22340681588E+02  0.24915492084E+02  0.51100000000E-03 0. -1.
        -11    1    4    4    0    0  0.52863351607E+01  0.61122968307E+01 -0.77209739796E+00  0.81179829164E+01  0.51100000000E-03 0.  1.
         12    1    4    4    0    0  0.11802153917E+02  0.58132809366E+01  0.11532703525E+02  0.17495380045E+02  0.00000000000E+00 0. -1.
</event>
<event>
 8    1  0.2031623E-013  0.9118800E+02  0.7816164E-02  0.1184000E+00
        -11   -1    0    0    0    0  0.00000000000E+00  0.00000000000E+00  0.45593999997E+02  0.45594000000E+02  0.51100000000E-03 0. -1.
         11   -1    0    0    0    0 -0.00000000000E+00 -0.00000000000E+00 -0.45593999997E+02  0.45594000000E+02  0.51100000000E-03 0.  1.
         23    2    1    2    0    0  0.00000000000E+00  0.00000000000E+00  0.88817841970E-15  0.91188000000E+02  0.91188000000E+02 0.  0.
    9900012    2    3    3    0    0  0.16557161535E+02 -0.36479077784E+02 -0.69500675177E+01  0.50528854011E+02  0.29999982252E+02 0.  0.
         12    1    3    3    0    0 -0.16557161535E+02  0.36479077784E+02  0.69500675177E+01  0.40659145989E+02  0.00000000000E+00 0. -1.
         11    1    4    4    0    0  0.98122776691E+01 -0.53452728814E+01  0.11702016247E+01  0.11234861251E+02  0.51100000000E-03 0. -1.
        -11    1    4    4    0    0 -0.17195090330E+01 -0.20937294232E+02 -0.13521958124E+02  0.24983401547E+02  0.51100000000E-03 0.  1.
        -12    1    4    4    0    0  0.84643928991E+01 -0.10196510670E+02  0.54016889820E+01  0.14310591213E+02  0.00000000000E+00 0.  1.
</event>
<event>
 8    1  0.2031623E-013  0.9118800E+02  0.7816164E-02  0.1184000E+00
        -11   -1    0    0    0    0  0.00000000000E+00  0.00000000000E+00  0.45593999997E+02  0.45594000000E+02  0.51100000000E-03 0. -1.
         11   -1    0    0    0    0 -0.00000000000E+00 -0.00000000000E+00 -0.45593999997E+02  0.45594000000E+02  0.51100000000E-03 0.  1.
         23    2    1    2    0    0 -0.88817841970E-15  0.00000000000E+00  0.00000000000E+00  0.91188000000E+02  0.91188000000E+02 0.  0.
    9900012    2    3    3    0    0  0.59600458960E+01 -0.32002299115E+02  0.24361764536E+02  0.50528869819E+02  0.30000030303E+02 0.  0.
        -12    1    3    3    0    0 -0.59600458960E+01  0.32002299115E+02 -0.24361764536E+02  0.40659130181E+02  0.00000000000E+00 0.  1.
         11    1    4    4    0    0  0.85582315986E+01 -0.31289792335E+02  0.26514736661E+02  0.41896607177E+02  0.51100000000E-03 0. -1.
        -11    1    4    4    0    0 -0.52963949385E+01 -0.87804497845E+00 -0.24715507040E+01  0.59102728763E+01  0.51100000000E-03 0.  1.
         12    1    4    4    0    0  0.26982092359E+01  0.16553819863E+00  0.31857857901E+00  0.27219897662E+01  0.00000000000E+00 0. -1.
</event>
<event>
 8    1  0.2031623E-013  0.9118800E+02  0.7816164E-02  0.1184000E+00
        -11   -1    0    0    0    0  0.00000000000E+00  0.00000000000E+00  0.45593999997E+02  0.45594000000E+02  0.51100000000E-03 0. -1.
         11   -1    0    0    0    0 -0.00000000000E+00 -0.00000000000E+00 -0.45593999997E+02  0.45594000000E+02  0.51100000000E-03 0.  1.
         23    2    1    2    0    0  0.00000000000E+00  0.00000000000E+00 -0.17763568394E-14  0.91188000000E+02  0.91188000000E+02 0.  0.
    9900012    2    3    3    0    0 -0.22983731225E+02 -0.32300396361E+02 -0.90331395094E+01  0.50528866764E+02  0.30000021015E+02 0.  0.
         12    1    3    3    0    0  0.22983731225E+02  0.32300396361E+02  0.90331395094E+01  0.40659133236E+02  0.00000000000E+00 0. -1.
         11    1    4    4    0    0 -0.19944404871E+02 -0.23018356571E+02  0.54563637701E+01  0.30941815246E+02  0.51100000000E-03 0.  1.
        -11    1    4    4    0    0  0.21781721300E+00 -0.92507249522E+01 -0.76295880693E+01  0.11993080123E+02  0.51100000000E-03 0. -1.
         12    1    4    4    0    0 -0.32571435677E+01 -0.31314837619E-01 -0.68599152102E+01  0.75939713938E+01  0.00000000000E+00 0. -1.
</event>
<event>
 8    1  0.2031623E-013  0.9118800E+02  0.7816164E-02  0.1184000E+00
        -11   -1    0    0    0    0  0.00000000000E+00  0.00000000000E+00  0.45593999997E+02  0.45594000000E+02  0.51100000000E-03 0. -1.
         11   -1    0    0    0    0 -0.00000000000E+00 -0.00000000000E+00 -0.45593999997E+02  0.45594000000E+02  0.51100000000E-03 0.  1.
         23    2    1    2    0    0 -0.35527136788E-14  0.00000000000E+00  0.17763568394E-14  0.91188000000E+02  0.91188000000E+02 0.  0.
    9900012    2    3    3    0    0 -0.27127306788E+02  0.25938719740E+02 -0.15635252288E+02  0.50528818141E+02  0.29999873221E+02 0.  0.
         12    1    3    3    0    0  0.27127306788E+02 -0.25938719740E+02  0.15635252288E+02  0.40659181859E+02  0.00000000000E+00 0. -1.
         11    1    4    4    0    0 -0.43282333248E+01 -0.66934271526E+00 -0.11411057303E+01  0.45258972518E+01  0.51100000000E-03 0. -1.
        -11    1    4    4    0    0  0.29969562590E+01  0.10008540004E+02 -0.10931758748E+02  0.15121374588E+02  0.51100000000E-03 0.  1.
        -12    1    4    4    0    0 -0.25796029722E+02  0.16599522451E+02 -0.35623878095E+01  0.30881546301E+02  0.00000000000E+00 0.  1.
</event>
<event>
 8    1  0.2031623E-013  0.9118800E+02  0.7816164E-02  0.1184000E+00
        -11   -1    0    0    0    0  0.00000000000E+00  0.00000000000E+00  0.45593999997E+02  0.45594000000E+02  0.51100000000E-03 0. -1.
         11   -1    0    0    0    0 -0.00000000000E+00 -0.00000000000E+00 -0.45593999997E+02  0.45594000000E+02  0.51100000000E-03 0.  1.
         23    2    1    2    0    0  0.00000000000E+00 -0.35527136788E-14 -0.71054273576E-14  0.91188000000E+02  0.91188000000E+02 0.  0.
    9900012    2    3    3    0    0 -0.96772834705E+01 -0.14973042537E+02 -0.36542080420E+02  0.50528862533E+02  0.30000008155E+02 0.  0.
         12    1    3    3    0    0  0.96772834705E+01  0.14973042537E+02  0.36542080420E+02  0.40659137467E+02  0.00000000000E+00 0. -1.
         11    1    4    4    0    0  0.14301278451E+01 -0.18620656654E+02 -0.32399669274E+02  0.37396693560E+02  0.51100000000E-03 0.  1.
        -11    1    4    4    0    0 -0.49030231277E+01  0.38704724689E+01 -0.22929848130E+01  0.66541695603E+01  0.51100000000E-03 0. -1.
        -12    1    4    4    0    0 -0.62043881878E+01 -0.22285835124E+00 -0.18494263326E+01  0.64779994126E+01  0.00000000000E+00 0.  1.
</event>
<event>
 8    1  0.2031623E-013  0.9118800E+02  0.7816164E-02  0.1184000E+00
        -11   -1    0    0    0    0  0.00000000000E+00  0.00000000000E+00  0.45593999997E+02  0.45594000000E+02  0.51100000000E-03 0. -1.
         11   -1    0    0    0    0 -0.00000000000E+00 -0.00000000000E+00 -0.45593999997E+02  0.45594000000E+02  0.51100000000E-03 0.  1.
         23    2    1    2    0    0  0.17763568394E-14 -0.44408920985E-15  0.00000000000E+00  0.91188000000E+02  0.91188000000E+02 0.  0.
    9900012    2    3    3    0    0  0.99966255232E+01 -0.32731655883E+01  0.39274922633E+02  0.50528859789E+02  0.29999999815E+02 0.  0.
        -12    1    3    3    0    0 -0.99966255232E+01  0.32731655883E+01 -0.39274922633E+02  0.40659140211E+02  0.00000000000E+00 0.  1.
         11    1    4    4    0    0 -0.42989454337E+01 -0.70380100152E+01  0.10614991785E+02  0.13442193558E+02  0.51100000000E-03 0. -1.
        -11    1    4    4    0    0  0.10798313660E+02 -0.16169781657E+01  0.40372368823E+01  0.11641197456E+02  0.51100000000E-03 0.  1.
        -12    1    4    4    0    0  0.34972572966E+01  0.53818225927E+01  0.24622693967E+02  0.25445468775E+02  0.00000000000E+00 0.  1.
</event>
<event>
 8    1  0.2031623E-013  0.9118800E+02  0.7816164E-02  0.1184000E+00
        -11   -1    0    0    0    0  0.00000000000E+00  0.00000000000E+00  0.45593999997E+02  0.45594000000E+02  0.51100000000E-03 0. -1.
         11   -1    0    0    0    0 -0.00000000000E+00 -0.00000000000E+00 -0.45593999997E+02  0.45594000000E+02  0.51100000000E-03 0.  1.
         23    2    1    2    0    0  0.00000000000E+00  0.00000000000E+00  0.00000000000E+00  0.91188000000E+02  0.91188000000E+02 0.  0.
    9900012    2    3    3    0    0  0.16153803724E+02 -0.98147909314E+01 -0.35998478138E+02  0.50528856821E+02  0.29999990793E+02 0.  0.
         12    1    3    3    0    0 -0.16153803724E+02  0.98147909314E+01  0.35998478138E+02  0.40659143179E+02  0.00000000000E+00 0. -1.
         11    1    4    4    0    0  0.86033805897E+00 -0.47213177064E+01  0.22286823842E+00  0.48042369814E+01  0.51100000000E-03 0. -1.
        -11    1    4    4    0    0  0.12106818323E+02  0.79438265819E+01 -0.18375596470E+02  0.23395340915E+02  0.51100000000E-03 0.  1.
        -12    1    4    4    0    0  0.31866473425E+01 -0.13037299807E+02 -0.17845749907E+02  0.22329278924E+02  0.00000000000E+00 0.  1.
</event>
<event>
 8    1  0.2031623E-013  0.9118800E+02  0.7816164E-02  0.1184000E+00
        -11   -1    0    0    0    0  0.00000000000E+00  0.00000000000E+00  0.45593999997E+02  0.45594000000E+02  0.51100000000E-03 0. -1.
         11   -1    0    0    0    0 -0.00000000000E+00 -0.00000000000E+00 -0.45593999997E+02  0.45594000000E+02  0.51100000000E-03 0.  1.
         23    2    1    2    0    0  0.00000000000E+00  0.00000000000E+00  0.71054273576E-14  0.91188000000E+02  0.91188000000E+02 0.  0.
    9900012    2    3    3    0    0 -0.38573374888E+01 -0.26865163905E+02  0.30274570813E+02  0.50528859305E+02  0.29999998343E+02 0.  0.
        -12    1    3    3    0    0  0.38573374888E+01  0.26865163905E+02 -0.30274570813E+02  0.40659140695E+02  0.00000000000E+00 0.  1.
         11    1    4    4    0    0 -0.65971381670E+01 -0.30014084448E+02  0.21116655924E+02  0.37286467451E+02  0.51100000000E-03 0. -1.
        -11    1    4    4    0    0  0.51262425491E+01 -0.26401994690E+00  0.65770129974E+01  0.83429712593E+01  0.51100000000E-03 0.  1.
         12    1    4    4    0    0 -0.23864418709E+01  0.34129404900E+01  0.25809018917E+01  0.48994205949E+01  0.00000000000E+00 0. -1.
</event>
<event>
 8    1  0.2031623E-013  0.9118800E+02  0.7816164E-02  0.1184000E+00
        -11   -1    0    0    0    0  0.00000000000E+00  0.00000000000E+00  0.45593999997E+02  0.45594000000E+02  0.51100000000E-03 0. -1.
         11   -1    0    0    0    0 -0.00000000000E+00 -0.00000000000E+00 -0.45593999997E+02  0.45594000000E+02  0.51100000000E-03 0.  1.
         23    2    1    2    0    0  0.00000000000E+00 -0.17763568394E-14  0.00000000000E+00  0.91188000000E+02  0.91188000000E+02 0.  0.
    9900012    2    3    3    0    0  0.17570226242E+02 -0.77979056988E+01  0.35827998662E+02  0.50528859926E+02  0.30000000230E+02 0.  0.
        -12    1    3    3    0    0 -0.17570226242E+02  0.77979056988E+01 -0.35827998662E+02  0.40659140074E+02  0.00000000000E+00 0.  1.
         11    1    4    4    0    0  0.51109990823E+01  0.98113348462E+01  0.16462801824E+02  0.19834526645E+02  0.51100000000E-03 0.  1.
        -11    1    4    4    0    0  0.25719516909E+01 -0.89719813569E+01  0.31937855742E+01  0.98646668228E+01  0.51100000000E-03 0. -1.
         12    1    4    4    0    0  0.98872754692E+01 -0.86372591881E+01  0.16171411264E+02  0.20829666458E+02  0.00000000000E+00 0. -1.
</event>
<event>
 8    1  0.2031623E-013  0.9118800E+02  0.7816164E-02  0.1184000E+00
        -11   -1    0    0    0    0  0.00000000000E+00  0.00000000000E+00  0.45593999997E+02  0.45594000000E+02  0.51100000000E-03 0. -1.
         11   -1    0    0    0    0 -0.00000000000E+00 -0.00000000000E+00 -0.45593999997E+02  0.45594000000E+02  0.51100000000E-03 0.  1.
         23    2    1    2    0    0 -0.35527136788E-14 -0.71054273576E-14  0.88817841970E-15  0.91188000000E+02  0.91188000000E+02 0.  0.
    9900012    2    3    3    0    0 -0.24189178743E+02 -0.32570242478E+02  0.26886781862E+01  0.50528855226E+02  0.29999985945E+02 0.  0.
         12    1    3    3    0    0  0.24189178743E+02  0.32570242478E+02 -0.26886781862E+01  0.40659144774E+02  0.00000000000E+00 0. -1.
         11    1    4    4    0    0  0.71469155456E+00 -0.17399995758E+02  0.46471421257E+01  0.18024055220E+02  0.51100000000E-03 0. -1.
        -11    1    4    4    0    0 -0.12817358136E+02 -0.51561203776E+01 -0.76699880353E+01  0.15801865828E+02  0.51100000000E-03 0.  1.
        -12    1    4    4    0    0 -0.12086512162E+02 -0.10014126343E+02  0.57115240957E+01  0.16702934178E+02  0.00000000000E+00 0.  1.
</event>
<event>
 8    1  0.2031623E-013  0.9118800E+02  0.7816164E-02  0.1184000E+00
        -11   -1    0    0    0    0  0.00000000000E+00  0.00000000000E+00  0.45593999997E+02  0.45594000000E+02  0.51100000000E-03 0. -1.
         11   -1    0    0    0    0 -0.00000000000E+00 -0.00000000000E+00 -0.45593999997E+02  0.45594000000E+02  0.51100000000E-03 0.  1.
         23    2    1    2    0    0  0.17763568394E-14 -0.44408920985E-15  0.00000000000E+00  0.91188000000E+02  0.91188000000E+02 0.  0.
    9900012    2    3    3    0    0  0.22771740250E+01 -0.35216123562E+01 -0.40442299906E+02  0.50528844859E+02  0.29999954433E+02 0.  0.
         12    1    3    3    0    0 -0.22771740250E+01  0.35216123562E+01  0.40442299906E+02  0.40659155141E+02  0.00000000000E+00 0. -1.
         11    1    4    4    0    0  0.10753064989E+02 -0.21474356448E+01 -0.82144918711E+01  0.13701013228E+02  0.51100000000E-03 0. -1.
        -11    1    4    4    0    0 -0.12035913650E+02 -0.22138128328E+01 -0.15732069682E+02  0.19931437515E+02  0.51100000000E-03 0.  1.
        -12    1    4    4    0    0  0.35600226863E+01  0.83963612139E+00 -0.16495738352E+02  0.16896394116E+02  0.00000000000E+00 0.  1.
</event>
<event>
 8    1  0.3062323E-013  0.9118800E+02  0.7816164E-02  0.1184000E+00
        -11   -1    0    0    0    0  0.00000000000E+00  0.00000000000E+00  0.45593999997E+02  0.45594000000E+02  0.51100000000E-03 0. -1.
         11   -1    0    0    0    0 -0.00000000000E+00 -0.00000000000E+00 -0.45593999997E+02  0.45594000000E+02  0.51100000000E-03 0.  1.
         23    2    1    2    0    0 -0.17763568394E-14  0.88817841970E-15 -0.71054273576E-14  0.91188000000E+02  0.91188000000E+02 0.  0.
    9900012    2    3    3    0    0 -0.14441854732E+02  0.53794096397E+01 -0.37625294903E+02  0.50528830890E+02  0.29999911974E+02 0.  0.
         12    1    3    3    0    0  0.14441854732E+02 -0.53794096397E+01  0.37625294903E+02  0.40659169110E+02  0.00000000000E+00 0. -1.
         11    1    4    4    0    0  0.22916549839E+01 -0.67456402271E+01 -0.20255212382E+02  0.21471585259E+02  0.51100000000E-03 0. -1.
        -11    1    4    4    0    0 -0.13274419216E+02  0.70155320368E+01 -0.17272803507E+02  0.22886188773E+02  0.51100000000E-03 0.  1.
         12    1    4    4    0    0 -0.34590905001E+01  0.51095178301E+01 -0.97279013347E-01  0.61710568585E+01  0.00000000000E+00 0. -1.
</event>
<event>
 8    1  0.2031623E-013  0.9118800E+02  0.7816164E-02  0.1184000E+00
        -11   -1    0    0    0    0  0.00000000000E+00  0.00000000000E+00  0.45593999997E+02  0.45594000000E+02  0.51100000000E-03 0. -1.
         11   -1    0    0    0    0 -0.00000000000E+00 -0.00000000000E+00 -0.45593999997E+02  0.45594000000E+02  0.51100000000E-03 0.  1.
         23    2    1    2    0    0  0.00000000000E+00  0.00000000000E+00  0.00000000000E+00  0.91188000000E+02  0.91188000000E+02 0.  0.
    9900012    2    3    3    0    0  0.22224843372E+02  0.22131513860E+01  0.33975355380E+02  0.50528850043E+02  0.29999970192E+02 0.  0.
        -12    1    3    3    0    0 -0.22224843372E+02 -0.22131513860E+01 -0.33975355380E+02  0.40659149957E+02  0.00000000000E+00 0.  1.
         11    1    4    4    0    0  0.87968583237E+01 -0.11133815877E+01  0.28291089558E+02  0.29648104216E+02  0.51100000000E-03 0. -1.
        -11    1    4    4    0    0  0.52580436361E+01  0.68002621435E+01 -0.23455758201E+01  0.89102364889E+01  0.51100000000E-03 0.  1.
         12    1    4    4    0    0  0.81699414126E+01 -0.34737291698E+01  0.80298416421E+01  0.11970509339E+02  0.00000000000E+00 0. -1.
</event>
<event>
 8    1  0.2031623E-013  0.9118800E+02  0.7816164E-02  0.1184000E+00
        -11   -1    0    0    0    0  0.00000000000E+00  0.00000000000E+00  0.45593999997E+02  0.45594000000E+02  0.51100000000E-03 0. -1.
         11   -1    0    0    0    0 -0.00000000000E+00 -0.00000000000E+00 -0.45593999997E+02  0.45594000000E+02  0.51100000000E-03 0.  1.
         23    2    1    2    0    0  0.00000000000E+00 -0.35527136788E-14  0.00000000000E+00  0.91188000000E+02  0.91188000000E+02 0.  0.
    9900012    2    3    3    0    0 -0.16207109450E+02 -0.29367535433E+02  0.22979183812E+02  0.50528862985E+02  0.30000009529E+02 0.  0.
        -12    1    3    3    0    0  0.16207109450E+02  0.29367535433E+02 -0.22979183812E+02  0.40659137015E+02  0.00000000000E+00 0.  1.
         11    1    4    4    0    0 -0.14970290058E+02 -0.25330378008E+02  0.28465029831E+02  0.40938924730E+02  0.51100000000E-03 0. -1.
        -11    1    4    4    0    0  0.21553924524E+01 -0.37810657125E+01 -0.22700520410E+01  0.49086974928E+01  0.51100000000E-03 0.  1.
         12    1    4    4    0    0 -0.33922118443E+01 -0.25609171280E+00 -0.32157939787E+01  0.46812407624E+01  0.00000000000E+00 0. -1.
</event>
<event>
 8    1  0.2031623E-013  0.9118800E+02  0.7816164E-02  0.1184000E+00
        -11   -1    0    0    0    0  0.00000000000E+00  0.00000000000E+00  0.45593999997E+02  0.45594000000E+02  0.51100000000E-03 0. -1.
         11   -1    0    0    0    0 -0.00000000000E+00 -0.00000000000E+00 -0.45593999997E+02  0.45594000000E+02  0.51100000000E-03 0.  1.
         23    2    1    2    0    0  0.00000000000E+00  0.35527136788E-14  0.71054273576E-14  0.91188000000E+02  0.91188000000E+02 0.  0.
    9900012    2    3    3    0    0 -0.53984605141E+01 -0.16120658707E+02 -0.36934404643E+02  0.50528815805E+02  0.29999866122E+02 0.  0.
         12    1    3    3    0    0  0.53984605141E+01  0.16120658707E+02  0.36934404643E+02  0.40659184195E+02  0.00000000000E+00 0. -1.
         11    1    4    4    0    0 -0.70465031891E+01 -0.14021946552E+02 -0.60759062951E+01  0.16828096442E+02  0.51100000000E-03 0. -1.
        -11    1    4    4    0    0  0.69664960034E+01  0.13590073048E+01 -0.14196375069E+02  0.15871862927E+02  0.51100000000E-03 0.  1.
         12    1    4    4    0    0 -0.53184533284E+01 -0.34577194599E+01 -0.16662123279E+02  0.17828856436E+02  0.00000000000E+00 0. -1.
</event>
<event>
 8    1  0.2031623E-013  0.9118800E+02  0.7816164E-02  0.1184000E+00
        -11   -1    0    0    0    0  0.00000000000E+00  0.00000000000E+00  0.45593999997E+02  0.45594000000E+02  0.51100000000E-03 0. -1.
         11   -1    0    0    0    0 -0.00000000000E+00 -0.00000000000E+00 -0.45593999997E+02  0.45594000000E+02  0.51100000000E-03 0.  1.
         23    2    1    2    0    0  0.13322676296E-14 -0.71054273576E-14  0.71054273576E-14  0.91188000000E+02  0.91188000000E+02 0.  0.
    9900012    2    3    3    0    0  0.29585341336E+01 -0.33159193236E+02  0.23342681581E+02  0.50528858302E+02  0.29999995293E+02 0.  0.
        -12    1    3    3    0    0 -0.29585341336E+01  0.33159193236E+02 -0.23342681581E+02  0.40659141698E+02  0.00000000000E+00 0.  1.
         11    1    4    4    0    0 -0.11210064590E+02 -0.18459092166E+02  0.11788383573E+02  0.24604260185E+02  0.51100000000E-03 0. -1.
        -11    1    4    4    0    0  0.28115608361E+01 -0.27033785291E+01 -0.21559612218E+01  0.44566017163E+01  0.51100000000E-03 0.  1.
         12    1    4    4    0    0  0.11357037888E+02 -0.11996722540E+02  0.13710259229E+02  0.21467996400E+02  0.00000000000E+00 0. -1.
</event>
<event>
 8    1  0.2031623E-013  0.9118800E+02  0.7816164E-02  0.1184000E+00
        -11   -1    0    0    0    0  0.00000000000E+00  0.00000000000E+00  0.45593999997E+02  0.45594000000E+02  0.51100000000E-03 0. -1.
         11   -1    0    0    0    0 -0.00000000000E+00 -0.00000000000E+00 -0.45593999997E+02  0.45594000000E+02  0.51100000000E-03 0.  1.
         23    2    1    2    0    0  0.00000000000E+00  0.35527136788E-14 -0.35527136788E-14  0.91188000000E+02  0.91188000000E+02 0.  0.
    9900012    2    3    3    0    0  0.17467024100E+02  0.22001006353E+02 -0.29394321019E+02  0.50528839659E+02  0.29999938628E+02 0.  0.
         12    1    3    3    0    0 -0.17467024100E+02 -0.22001006353E+02  0.29394321019E+02  0.40659160341E+02  0.00000000000E+00 0. -1.
         11    1    4    4    0    0  0.16121300613E+02  0.92075326580E+00 -0.14319993630E+02  0.21582547066E+02  0.51100000000E-03 0. -1.
        -11    1    4    4    0    0  0.57792655852E+01  0.84193847690E+01 -0.23981083440E+01  0.10489846256E+02  0.51100000000E-03 0.  1.
         12    1    4    4    0    0 -0.44335420983E+01  0.12660868318E+02 -0.12676219045E+02  0.18456446337E+02  0.00000000000E+00 0. -1.
</event>
<event>
 8    1  0.2031623E-013  0.9118800E+02  0.7816164E-02  0.1184000E+00
        -11   -1    0    0    0    0  0.00000000000E+00  0.00000000000E+00  0.45593999997E+02  0.45594000000E+02  0.51100000000E-03 0.  1.
         11   -1    0    0    0    0 -0.00000000000E+00 -0.00000000000E+00 -0.45593999997E+02  0.45594000000E+02  0.51100000000E-03 0. -1.
         23    2    1    2    0    0 -0.35527136788E-14  0.00000000000E+00 -0.35527136788E-14  0.91188000000E+02  0.91188000000E+02 0.  0.
    9900012    2    3    3    0    0  0.25373113912E+02  0.18470153130E+02  0.25850059079E+02  0.50528843336E+02  0.29999949803E+02 0.  0.
        -12    1    3    3    0    0 -0.25373113912E+02 -0.18470153130E+02 -0.25850059079E+02  0.40659156664E+02  0.00000000000E+00 0.  1.
         11    1    4    4    0    0  0.42439419475E+01  0.18186687215E+02  0.15859443218E+02  0.24500787223E+02  0.51100000000E-03 0. -1.
        -11    1    4    4    0    0  0.14375769978E+02  0.16278472515E+01  0.12063166271E+02  0.18837001616E+02  0.51100000000E-03 0.  1.
         12    1    4    4    0    0  0.67534019867E+01 -0.13443813361E+01 -0.20725504102E+01  0.71910544967E+01  0.00000000000E+00 0. -1.
</event>
<event>
 8    1  0.2031623E-013  0.9118800E+02  0.7816164E-02  0.1184000E+00
        -11   -1    0    0    0    0  0.00000000000E+00  0.00000000000E+00  0.45593999997E+02  0.45594000000E+02  0.51100000000E-03 0. -1.
         11   -1    0    0    0    0 -0.00000000000E+00 -0.00000000000E+00 -0.45593999997E+02  0.45594000000E+02  0.51100000000E-03 0.  1.
         23    2    1    2    0    0 -0.35527136788E-14  0.00000000000E+00  0.00000000000E+00  0.91188000000E+02  0.91188000000E+02 0.  0.
    9900012    2    3    3    0    0 -0.30692160289E+02 -0.15183505796E+02  0.21923003896E+02  0.50528860175E+02  0.30000000988E+02 0.  0.
        -12    1    3    3    0    0  0.30692160289E+02  0.15183505796E+02 -0.21923003896E+02  0.40659139825E+02  0.00000000000E+00 0.  1.
         11    1    4    4    0    0 -0.19842434611E+02 -0.12205870327E+02  0.25941497719E+02  0.34866413436E+02  0.51100000000E-03 0. -1.
        -11    1    4    4    0    0  0.81865413726E+00  0.37534898067E+00 -0.33878399200E+01  0.35055015388E+01  0.51100000000E-03 0.  1.
         12    1    4    4    0    0 -0.11668379816E+02 -0.33529844504E+01 -0.63065390350E+00  0.12156945200E+02  0.00000000000E+00 0. -1.
</event>
<event>
 8    1  0.2031623E-013  0.9118800E+02  0.7816164E-02  0.1184000E+00
        -11   -1    0    0    0    0  0.00000000000E+00  0.00000000000E+00  0.45593999997E+02  0.45594000000E+02  0.51100000000E-03 0. -1.
         11   -1    0    0    0    0 -0.00000000000E+00 -0.00000000000E+00 -0.45593999997E+02  0.45594000000E+02  0.51100000000E-03 0.  1.
         23    2    1    2    0    0 -0.13322676296E-14  0.35527136788E-14  0.00000000000E+00  0.91188000000E+02  0.91188000000E+02 0.  0.
    9900012    2    3    3    0    0  0.34076259273E+01  0.31881488366E+02 -0.25002500992E+02  0.50528852558E+02  0.29999977834E+02 0.  0.
         12    1    3    3    0    0 -0.34076259273E+01 -0.31881488366E+02  0.25002500992E+02  0.40659147442E+02  0.00000000000E+00 0. -1.
         11    1    4    4    0    0  0.11612239851E+02  0.66663113593E+01 -0.96751716964E+00  0.13424600971E+02  0.51100000000E-03 0. -1.
        -11    1    4    4    0    0 -0.84656250706E+01  0.11241941915E+02 -0.14362105119E+02  0.20107663454E+02  0.51100000000E-03 0.  1.
        -12    1    4    4    0    0  0.26101114706E+00  0.13973235092E+02 -0.96728787025E+01  0.16996588133E+02  0.00000000000E+00 0.  1.
</event>
<event>
 8    1  0.2031623E-013  0.9118800E+02  0.7816164E-02  0.1184000E+00
        -11   -1    0    0    0    0  0.00000000000E+00  0.00000000000E+00  0.45593999997E+02  0.45594000000E+02  0.51100000000E-03 0.  1.
         11   -1    0    0    0    0 -0.00000000000E+00 -0.00000000000E+00 -0.45593999997E+02  0.45594000000E+02  0.51100000000E-03 0. -1.
         23    2    1    2    0    0  0.00000000000E+00 -0.17763568394E-14  0.00000000000E+00  0.91188000000E+02  0.91188000000E+02 0.  0.
    9900012    2    3    3    0    0  0.39607289753E+02  0.50464108666E+01  0.76785900606E+01  0.50528875446E+02  0.30000047405E+02 0.  0.
        -12    1    3    3    0    0 -0.39607289753E+02 -0.50464108666E+01 -0.76785900606E+01  0.40659124554E+02  0.00000000000E+00 0.  1.
         11    1    4    4    0    0  0.11666770623E+02  0.20566312927E+01 -0.23706278716E+01  0.12081520840E+02  0.51100000000E-03 0. -1.
        -11    1    4    4    0    0 -0.50517903929E+00 -0.51613934151E+01  0.69833666941E+01  0.86984250582E+01  0.51100000000E-03 0.  1.
        -12    1    4    4    0    0  0.28445698169E+02  0.81511729890E+01  0.30658512381E+01  0.29748929548E+02  0.00000000000E+00 0.  1.
</event>
<event>
 8    1  0.2031623E-013  0.9118800E+02  0.7816164E-02  0.1184000E+00
        -11   -1    0    0    0    0  0.00000000000E+00  0.00000000000E+00  0.45593999997E+02  0.45594000000E+02  0.51100000000E-03 0. -1.
         11   -1    0    0    0    0 -0.00000000000E+00 -0.00000000000E+00 -0.45593999997E+02  0.45594000000E+02  0.51100000000E-03 0.  1.
         23    2    1    2    0    0  0.00000000000E+00  0.00000000000E+00  0.35527136788E-14  0.91188000000E+02  0.91188000000E+02 0.  0.
    9900012    2    3    3    0    0  0.33445751286E+02  0.92562122828E+01 -0.21186535435E+02  0.50528867832E+02  0.30000024262E+02 0.  0.
         12    1    3    3    0    0 -0.33445751286E+02 -0.92562122828E+01  0.21186535435E+02  0.40659132168E+02  0.00000000000E+00 0. -1.
         11    1    4    4    0    0  0.33668484455E+02  0.11708209747E+02 -0.21370901599E+02  0.41561574277E+02  0.51100000000E-03 0. -1.
        -11    1    4    4    0    0  0.17185502900E+00 -0.11883007465E+01 -0.42099875416E+01  0.43778520049E+01  0.51100000000E-03 0.  1.
         12    1    4    4    0    0 -0.39458819772E+00 -0.12636967179E+01  0.43943537065E+01  0.45894415497E+01  0.00000000000E+00 0. -1.
</event>
<event>
 8    1  0.2031623E-013  0.9118800E+02  0.7816164E-02  0.1184000E+00
        -11   -1    0    0    0    0  0.00000000000E+00  0.00000000000E+00  0.45593999997E+02  0.45594000000E+02  0.51100000000E-03 0. -1.
         11   -1    0    0    0    0 -0.00000000000E+00 -0.00000000000E+00 -0.45593999997E+02  0.45594000000E+02  0.51100000000E-03 0.  1.
         23    2    1    2    0    0 -0.71054273576E-14 -0.17763568394E-14  0.35527136788E-14  0.91188000000E+02  0.91188000000E+02 0.  0.
    9900012    2    3    3    0    0 -0.32637091811E+02 -0.10481502583E+02  0.21866090001E+02  0.50528836823E+02  0.29999930008E+02 0.  0.
        -12    1    3    3    0    0  0.32637091811E+02  0.10481502583E+02 -0.21866090001E+02  0.40659163177E+02  0.00000000000E+00 0.  1.
         11    1    4    4    0    0 -0.24849837087E+02 -0.12110899285E+02  0.61996190211E+01  0.28330611730E+02  0.51100000000E-03 0.  1.
        -11    1    4    4    0    0 -0.74915663550E+01 -0.36449997517E+00  0.17768031200E+02  0.19286247942E+02  0.51100000000E-03 0. -1.
        -12    1    4    4    0    0 -0.29568836893E+00  0.19938966766E+01 -0.21015602205E+01  0.29119771512E+01  0.00000000000E+00 0.  1.
</event>
<event>
 8    1  0.2031623E-013  0.9118800E+02  0.7816164E-02  0.1184000E+00
        -11   -1    0    0    0    0  0.00000000000E+00  0.00000000000E+00  0.45593999997E+02  0.45594000000E+02  0.51100000000E-03 0. -1.
         11   -1    0    0    0    0 -0.00000000000E+00 -0.00000000000E+00 -0.45593999997E+02  0.45594000000E+02  0.51100000000E-03 0.  1.
         23    2    1    2    0    0  0.00000000000E+00 -0.17763568394E-14  0.35527136788E-14  0.91188000000E+02  0.91188000000E+02 0.  0.
    9900012    2    3    3    0    0  0.32205706375E+02  0.10603657891E+02 -0.22439266625E+02  0.50528858709E+02  0.29999996533E+02 0.  0.
         12    1    3    3    0    0 -0.32205706375E+02 -0.10603657891E+02  0.22439266625E+02  0.40659141291E+02  0.00000000000E+00 0. -1.
         11    1    4    4    0    0 -0.31172081510E+01  0.11925088909E+01 -0.65275939961E+00  0.34007586222E+01  0.51100000000E-03 0. -1.
        -11    1    4    4    0    0  0.30461543479E+02  0.10943367995E+02 -0.25176737561E+02  0.41006475692E+02  0.51100000000E-03 0.  1.
        -12    1    4    4    0    0  0.48613710472E+01 -0.15322189952E+01  0.33902303352E+01  0.61216243950E+01  0.00000000000E+00 0.  1.
</event>
<event>
 8    1  0.2031623E-013  0.9118800E+02  0.7816164E-02  0.1184000E+00
        -11   -1    0    0    0    0  0.00000000000E+00  0.00000000000E+00  0.45593999997E+02  0.45594000000E+02  0.51100000000E-03 0. -1.
         11   -1    0    0    0    0 -0.00000000000E+00 -0.00000000000E+00 -0.45593999997E+02  0.45594000000E+02  0.51100000000E-03 0.  1.
         23    2    1    2    0    0  0.00000000000E+00  0.00000000000E+00  0.35527136788E-14  0.91188000000E+02  0.91188000000E+02 0.  0.
    9900012    2    3    3    0    0  0.16799140648E+02 -0.25009371806E+02  0.27303583420E+02  0.50528862378E+02  0.30000007684E+02 0.  0.
        -12    1    3    3    0    0 -0.16799140648E+02  0.25009371806E+02 -0.27303583420E+02  0.40659137622E+02  0.00000000000E+00 0.  1.
         11    1    4    4    0    0 -0.85289808353E-01 -0.11285760693E+02  0.17918079298E+02  0.21176242225E+02  0.51100000000E-03 0. -1.
        -11    1    4    4    0    0  0.15278144918E+02 -0.18484591611E+01  0.78356693000E+01  0.17269517279E+02  0.51100000000E-03 0.  1.
         12    1    4    4    0    0  0.16062855385E+01 -0.11875151951E+02  0.15498348218E+01  0.12083102874E+02  0.00000000000E+00 0. -1.
</event>
<event>
 8    1  0.2031623E-013  0.9118800E+02  0.7816164E-02  0.1184000E+00
        -11   -1    0    0    0    0  0.00000000000E+00  0.00000000000E+00  0.45593999997E+02  0.45594000000E+02  0.51100000000E-03 0. -1.
         11   -1    0    0    0    0 -0.00000000000E+00 -0.00000000000E+00 -0.45593999997E+02  0.45594000000E+02  0.51100000000E-03 0.  1.
         23    2    1    2    0    0 -0.71054273576E-14  0.00000000000E+00  0.00000000000E+00  0.91188000000E+02  0.91188000000E+02 0.  0.
    9900012    2    3    3    0    0 -0.26249271590E+02  0.80205893344E+01  0.29996835371E+02  0.50528877474E+02  0.30000053570E+02 0.  0.
        -12    1    3    3    0    0  0.26249271590E+02 -0.80205893344E+01 -0.29996835371E+02  0.40659122526E+02  0.00000000000E+00 0.  1.
         11    1    4    4    0    0 -0.14023147560E+00  0.47188916708E+01  0.17844554368E+02  0.18458486512E+02  0.51100000000E-03 0.  1.
        -11    1    4    4    0    0 -0.78021174648E+01  0.29392180368E+01 -0.24060939277E+01  0.86776337704E+01  0.51100000000E-03 0. -1.
         12    1    4    4    0    0 -0.18306922650E+02  0.36247962677E+00  0.14558374932E+02  0.23392757192E+02  0.00000000000E+00 0. -1.
</event>
<event>
 8    1  0.2031623E-013  0.9118800E+02  0.7816164E-02  0.1184000E+00
        -11   -1    0    0    0    0  0.00000000000E+00  0.00000000000E+00  0.45593999997E+02  0.45594000000E+02  0.51100000000E-03 0. -1.
         11   -1    0    0    0    0 -0.00000000000E+00 -0.00000000000E+00 -0.45593999997E+02  0.45594000000E+02  0.51100000000E-03 0.  1.
         23    2    1    2    0    0 -0.35527136788E-14  0.00000000000E+00 -0.71054273576E-14  0.91188000000E+02  0.91188000000E+02 0.  0.
    9900012    2    3    3    0    0  0.11822404987E+02 -0.82124916565E+01  0.38025669144E+02  0.50528858436E+02  0.29999995701E+02 0.  0.
        -12    1    3    3    0    0 -0.11822404987E+02  0.82124916565E+01 -0.38025669144E+02  0.40659141564E+02  0.00000000000E+00 0.  1.
         11    1    4    4    0    0  0.14622423894E+02 -0.66222350027E+01  0.92378405186E+01  0.18520447475E+02  0.51100000000E-03 0. -1.
        -11    1    4    4    0    0 -0.64077381479E+01 -0.41626407225E+01  0.93658941991E+01  0.12087458805E+02  0.51100000000E-03 0.  1.
        -12    1    4    4    0    0  0.36077192410E+01  0.25723840687E+01  0.19421934427E+02  0.19920952156E+02  0.00000000000E+00 0.  1.
</event>
<event>
 8    1  0.2031623E-013  0.9118800E+02  0.7816164E-02  0.1184000E+00
        -11   -1    0    0    0    0  0.00000000000E+00  0.00000000000E+00  0.45593999997E+02  0.45594000000E+02  0.51100000000E-03 0. -1.
         11   -1    0    0    0    0 -0.00000000000E+00 -0.00000000000E+00 -0.45593999997E+02  0.45594000000E+02  0.51100000000E-03 0.  1.
         23    2    1    2    0    0  0.35527136788E-14  0.71054273576E-14  0.00000000000E+00  0.91188000000E+02  0.91188000000E+02 0.  0.
    9900012    2    3    3    0    0 -0.20297189750E+02 -0.34696830802E+02 -0.61089779412E+01  0.50528860918E+02  0.30000003246E+02 0.  0.
         12    1    3    3    0    0  0.20297189750E+02  0.34696830802E+02  0.61089779412E+01  0.40659139082E+02  0.00000000000E+00 0. -1.
         11    1    4    4    0    0 -0.45080623649E+01 -0.20080367734E+02 -0.46975162576E+01  0.21109487295E+02  0.51100000000E-03 0. -1.
        -11    1    4    4    0    0 -0.19047950760E+02 -0.10716787230E+02 -0.59008933898E+01  0.22638341365E+02  0.51100000000E-03 0.  1.
        -12    1    4    4    0    0  0.32588233755E+01 -0.38996758378E+01  0.44894317062E+01  0.67810322575E+01  0.00000000000E+00 0.  1.
</event>
<event>
 8    1  0.2031623E-013  0.9118800E+02  0.7816164E-02  0.1184000E+00
        -11   -1    0    0    0    0  0.00000000000E+00  0.00000000000E+00  0.45593999997E+02  0.45594000000E+02  0.51100000000E-03 0. -1.
         11   -1    0    0    0    0 -0.00000000000E+00 -0.00000000000E+00 -0.45593999997E+02  0.45594000000E+02  0.51100000000E-03 0.  1.
         23    2    1    2    0    0 -0.35527136788E-14  0.00000000000E+00  0.00000000000E+00  0.91188000000E+02  0.91188000000E+02 0.  0.
    9900012    2    3    3    0    0 -0.29879992409E+02 -0.43601712589E+01  0.27227580365E+02  0.50528853769E+02  0.29999981515E+02 0.  0.
        -12    1    3    3    0    0  0.29879992409E+02  0.43601712589E+01 -0.27227580365E+02  0.40659146231E+02  0.00000000000E+00 0.  1.
         11    1    4    4    0    0 -0.11588049899E+02  0.55270042525E+01  0.10425879432E+02  0.16538731471E+02  0.51100000000E-03 0. -1.
        -11    1    4    4    0    0  0.16311183404E+01 -0.77158066240E+01  0.76105451421E-01  0.78866983713E+01  0.51100000000E-03 0.  1.
        -12    1    4    4    0    0 -0.19923060850E+02 -0.21713688875E+01  0.16725595481E+02  0.26103423926E+02  0.00000000000E+00 0.  1.
</event>
<event>
 8    1  0.2031623E-013  0.9118800E+02  0.7816164E-02  0.1184000E+00
        -11   -1    0    0    0    0  0.00000000000E+00  0.00000000000E+00  0.45593999997E+02  0.45594000000E+02  0.51100000000E-03 0. -1.
         11   -1    0    0    0    0 -0.00000000000E+00 -0.00000000000E+00 -0.45593999997E+02  0.45594000000E+02  0.51100000000E-03 0.  1.
         23    2    1    2    0    0  0.00000000000E+00  0.26645352591E-14  0.71054273576E-14  0.91188000000E+02  0.91188000000E+02 0.  0.
    9900012    2    3    3    0    0 -0.21810870468E+02  0.61270333986E+01  0.33762562835E+02  0.50528865011E+02  0.30000015687E+02 0.  0.
        -12    1    3    3    0    0  0.21810870468E+02 -0.61270333986E+01 -0.33762562835E+02  0.40659134989E+02  0.00000000000E+00 0.  1.
         11    1    4    4    0    0 -0.13353638170E+02  0.14392867390E+01  0.15741289431E+02  0.20692496029E+02  0.51100000000E-03 0. -1.
        -11    1    4    4    0    0  0.27185056946E+01 -0.70575119583E+01  0.59704625916E+01  0.96356199630E+01  0.51100000000E-03 0.  1.
        -12    1    4    4    0    0 -0.11175737993E+02  0.11745258618E+02  0.12050810812E+02  0.20200749019E+02  0.00000000000E+00 0.  1.
</event>
<event>
 8    1  0.2031623E-013  0.9118800E+02  0.7816164E-02  0.1184000E+00
        -11   -1    0    0    0    0  0.00000000000E+00  0.00000000000E+00  0.45593999997E+02  0.45594000000E+02  0.51100000000E-03 0. -1.
         11   -1    0    0    0    0 -0.00000000000E+00 -0.00000000000E+00 -0.45593999997E+02  0.45594000000E+02  0.51100000000E-03 0.  1.
         23    2    1    2    0    0  0.00000000000E+00 -0.22204460493E-15  0.00000000000E+00  0.91188000000E+02  0.91188000000E+02 0.  0.
    9900012    2    3    3    0    0  0.32588586650E+02  0.70789347449E+00 -0.24303258762E+02  0.50528862288E+02  0.30000007411E+02 0.  0.
         12    1    3    3    0    0 -0.32588586650E+02 -0.70789347449E+00  0.24303258762E+02  0.40659137712E+02  0.00000000000E+00 0. -1.
         11    1    4    4    0    0  0.38873159063E+01  0.11548559372E+01 -0.11564853644E+02  0.12255233872E+02  0.51100000000E-03 0. -1.
        -11    1    4    4    0    0  0.28317632331E+02  0.65200313600E+01 -0.11099119699E+02  0.31106101782E+02  0.51100000000E-03 0.  1.
        -12    1    4    4    0    0  0.38363841270E+00 -0.69669938226E+01 -0.16392854192E+01  0.71675266335E+01  0.00000000000E+00 0.  1.
</event>
<event>
 8    1  0.2031623E-013  0.9118800E+02  0.7816164E-02  0.1184000E+00
        -11   -1    0    0    0    0  0.00000000000E+00  0.00000000000E+00  0.45593999997E+02  0.45594000000E+02  0.51100000000E-03 0. -1.
         11   -1    0    0    0    0 -0.00000000000E+00 -0.00000000000E+00 -0.45593999997E+02  0.45594000000E+02  0.51100000000E-03 0.  1.
         23    2    1    2    0    0  0.00000000000E+00  0.00000000000E+00  0.35527136788E-14  0.91188000000E+02  0.91188000000E+02 0.  0.
    9900012    2    3    3    0    0 -0.15655216860E+02 -0.24523685176E+02  0.28401926922E+02  0.50528850938E+02  0.29999972911E+02 0.  0.
        -12    1    3    3    0    0  0.15655216860E+02  0.24523685176E+02 -0.28401926922E+02  0.40659149062E+02  0.00000000000E+00 0.  1.
         11    1    4    4    0    0  0.62397427575E+01 -0.76578831900E+01  0.13471204363E+02  0.16704817026E+02  0.51100000000E-03 0. -1.
        -11    1    4    4    0    0 -0.79136715758E+01  0.61175037133E+00  0.32410628439E+01  0.85735013236E+01  0.51100000000E-03 0.  1.
         12    1    4    4    0    0 -0.13981288042E+02 -0.17477552357E+02  0.11689659716E+02  0.25250532588E+02  0.00000000000E+00 0. -1.
</event>
<event>
 8    1  0.2031623E-013  0.9118800E+02  0.7816164E-02  0.1184000E+00
        -11   -1    0    0    0    0  0.00000000000E+00  0.00000000000E+00  0.45593999997E+02  0.45594000000E+02  0.51100000000E-03 0.  1.
         11   -1    0    0    0    0 -0.00000000000E+00 -0.00000000000E+00 -0.45593999997E+02  0.45594000000E+02  0.51100000000E-03 0. -1.
         23    2    1    2    0    0  0.88817841970E-15  0.00000000000E+00  0.00000000000E+00  0.91188000000E+02  0.91188000000E+02 0.  0.
    9900012    2    3    3    0    0 -0.64227867788E+01  0.37190716418E+02 -0.15124952352E+02  0.50528858822E+02  0.29999996875E+02 0.  0.
         12    1    3    3    0    0  0.64227867788E+01 -0.37190716418E+02  0.15124952352E+02  0.40659141178E+02  0.00000000000E+00 0. -1.
         11    1    4    4    0    0 -0.34954236513E+01  0.51833994573E+01 -0.13126943922E+02  0.14539679275E+02  0.51100000000E-03 0. -1.
        -11    1    4    4    0    0  0.24433517064E+01  0.30140275230E+02 -0.19678983741E+01  0.30303115067E+02  0.51100000000E-03 0.  1.
         12    1    4    4    0    0 -0.53707148339E+01  0.18670417313E+01 -0.30110055679E-01  0.56860644798E+01  0.00000000000E+00 0. -1.
</event>
<event>
 8    1  0.2031623E-013  0.9118800E+02  0.7816164E-02  0.1184000E+00
        -11   -1    0    0    0    0  0.00000000000E+00  0.00000000000E+00  0.45593999997E+02  0.45594000000E+02  0.51100000000E-03 0. -1.
         11   -1    0    0    0    0 -0.00000000000E+00 -0.00000000000E+00 -0.45593999997E+02  0.45594000000E+02  0.51100000000E-03 0.  1.
         23    2    1    2    0    0  0.35527136788E-14  0.88817841970E-15  0.00000000000E+00  0.91188000000E+02  0.91188000000E+02 0.  0.
    9900012    2    3    3    0    0 -0.31798099893E+02  0.77531272227E+01  0.24123319855E+02  0.50528871882E+02  0.30000036571E+02 0.  0.
        -12    1    3    3    0    0  0.31798099893E+02 -0.77531272227E+01 -0.24123319855E+02  0.40659128118E+02  0.00000000000E+00 0.  1.
         11    1    4    4    0    0 -0.17949670524E+02  0.13807004083E+02  0.38813307511E+01  0.22975829959E+02  0.51100000000E-03 0. -1.
        -11    1    4    4    0    0 -0.93848187860E+00  0.56026125394E+00  0.93491508570E+01  0.94128243858E+01  0.51100000000E-03 0.  1.
         12    1    4    4    0    0 -0.12909947490E+02 -0.66141381141E+01  0.10892838247E+02  0.18140217537E+02  0.00000000000E+00 0. -1.
</event>
<event>
 8    1  0.2031623E-013  0.9118800E+02  0.7816164E-02  0.1184000E+00
        -11   -1    0    0    0    0  0.00000000000E+00  0.00000000000E+00  0.45593999997E+02  0.45594000000E+02  0.51100000000E-03 0. -1.
         11   -1    0    0    0    0 -0.00000000000E+00 -0.00000000000E+00 -0.45593999997E+02  0.45594000000E+02  0.51100000000E-03 0.  1.
         23    2    1    2    0    0 -0.35527136788E-14  0.00000000000E+00  0.35527136788E-14  0.91188000000E+02  0.91188000000E+02 0.  0.
    9900012    2    3    3    0    0 -0.31040090749E+02 -0.88993138157E+01  0.24707869052E+02  0.50528882779E+02  0.30000069696E+02 0.  0.
        -12    1    3    3    0    0  0.31040090749E+02  0.88993138157E+01 -0.24707869052E+02  0.40659117221E+02  0.00000000000E+00 0.  1.
         11    1    4    4    0    0 -0.28351490337E+01  0.76431071617E+01  0.10115097609E+02  0.12991164575E+02  0.51100000000E-03 0. -1.
        -11    1    4    4    0    0 -0.15092659966E+02 -0.14713643709E+02  0.66660108223E+01  0.22106908345E+02  0.51100000000E-03 0.  1.
        -12    1    4    4    0    0 -0.13112281749E+02 -0.18287772685E+01  0.79267606207E+01  0.15430809859E+02  0.00000000000E+00 0.  1.
</event>
<event>
 8    1  0.2031623E-013  0.9118800E+02  0.7816164E-02  0.1184000E+00
        -11   -1    0    0    0    0  0.00000000000E+00  0.00000000000E+00  0.45593999997E+02  0.45594000000E+02  0.51100000000E-03 0. -1.
         11   -1    0    0    0    0 -0.00000000000E+00 -0.00000000000E+00 -0.45593999997E+02  0.45594000000E+02  0.51100000000E-03 0.  1.
         23    2    1    2    0    0 -0.22204460493E-15 -0.71054273576E-14 -0.35527136788E-14  0.91188000000E+02  0.91188000000E+02 0.  0.
    9900012    2    3    3    0    0 -0.18714381219E+01 -0.33166039179E+02 -0.23445189178E+02  0.50528864113E+02  0.30000012959E+02 0.  0.
         12    1    3    3    0    0  0.18714381219E+01  0.33166039179E+02  0.23445189178E+02  0.40659135887E+02  0.00000000000E+00 0. -1.
         11    1    4    4    0    0 -0.41232949435E+01 -0.29480692633E+02 -0.81013677006E+01  0.30850363988E+02  0.51100000000E-03 0. -1.
        -11    1    4    4    0    0 -0.40843552586E+00  0.36477426503E+01 -0.86607624675E+01  0.94064686679E+01  0.51100000000E-03 0.  1.
         12    1    4    4    0    0  0.26602923475E+01 -0.73330891962E+01 -0.66830590096E+01  0.10272031457E+02  0.00000000000E+00 0. -1.
</event>
<event>
 8    1  0.2031623E-013  0.9118800E+02  0.7816164E-02  0.1184000E+00
        -11   -1    0    0    0    0  0.00000000000E+00  0.00000000000E+00  0.45593999997E+02  0.45594000000E+02  0.51100000000E-03 0. -1.
         11   -1    0    0    0    0 -0.00000000000E+00 -0.00000000000E+00 -0.45593999997E+02  0.45594000000E+02  0.51100000000E-03 0.  1.
         23    2    1    2    0    0  0.35527136788E-14 -0.35527136788E-14  0.71054273576E-14  0.91188000000E+02  0.91188000000E+02 0.  0.
    9900012    2    3    3    0    0 -0.19322625476E+02  0.16939097388E+02 -0.31509837334E+02  0.50528846978E+02  0.29999960875E+02 0.  0.
         12    1    3    3    0    0  0.19322625476E+02 -0.16939097388E+02  0.31509837334E+02  0.40659153022E+02  0.00000000000E+00 0. -1.
         11    1    4    4    0    0  0.35930241557E+00 -0.11271947838E+01 -0.39372753043E+01  0.41111802915E+01  0.51100000000E-03 0. -1.
        -11    1    4    4    0    0 -0.13957819658E+02  0.16183935457E+02 -0.35666490669E+01  0.21667059845E+02  0.51100000000E-03 0.  1.
        -12    1    4    4    0    0 -0.57241082343E+01  0.18823567149E+01 -0.24005912963E+02  0.24750606842E+02  0.00000000000E+00 0.  1.
</event>
<event>
 8    1  0.2031623E-013  0.9118800E+02  0.7816164E-02  0.1184000E+00
        -11   -1    0    0    0    0  0.00000000000E+00  0.00000000000E+00  0.45593999997E+02  0.45594000000E+02  0.51100000000E-03 0. -1.
         11   -1    0    0    0    0 -0.00000000000E+00 -0.00000000000E+00 -0.45593999997E+02  0.45594000000E+02  0.51100000000E-03 0.  1.
         23    2    1    2    0    0 -0.17763568394E-14 -0.71054273576E-14 -0.35527136788E-14  0.91188000000E+02  0.91188000000E+02 0.  0.
    9900012    2    3    3    0    0 -0.11655758414E+02 -0.32369733580E+02  0.21668243463E+02  0.50528817384E+02  0.29999870919E+02 0.  0.
        -12    1    3    3    0    0  0.11655758414E+02  0.32369733580E+02 -0.21668243463E+02  0.40659182616E+02  0.00000000000E+00 0.  1.
         11    1    4    4    0    0 -0.49176709774E+01 -0.15092898693E+02  0.81208086058E+01  0.17830496670E+02  0.51100000000E-03 0. -1.
        -11    1    4    4    0    0 -0.13521008743E+02 -0.33246594114E+01  0.88126737295E+01  0.16478296519E+02  0.51100000000E-03 0.  1.
        -12    1    4    4    0    0  0.67829213067E+01 -0.13952175476E+02  0.47347611273E+01  0.16220024195E+02  0.00000000000E+00 0.  1.
</event>
<event>
 8    1  0.2031623E-013  0.9118800E+02  0.7816164E-02  0.1184000E+00
        -11   -1    0    0    0    0  0.00000000000E+00  0.00000000000E+00  0.45593999997E+02  0.45594000000E+02  0.51100000000E-03 0. -1.
         11   -1    0    0    0    0 -0.00000000000E+00 -0.00000000000E+00 -0.45593999997E+02  0.45594000000E+02  0.51100000000E-03 0.  1.
         23    2    1    2    0    0  0.00000000000E+00 -0.71054273576E-14  0.88817841970E-15  0.91188000000E+02  0.91188000000E+02 0.  0.
    9900012    2    3    3    0    0 -0.13680217293E+02 -0.37596479158E+02 -0.72471834213E+01  0.50528865014E+02  0.30000015697E+02 0.  0.
         12    1    3    3    0    0  0.13680217293E+02  0.37596479158E+02  0.72471834213E+01  0.40659134986E+02  0.00000000000E+00 0. -1.
         11    1    4    4    0    0 -0.15471632723E+01  0.27119069540E+01 -0.63417298976E+01  0.70686414447E+01  0.51100000000E-03 0. -1.
        -11    1    4    4    0    0 -0.56958648555E+01 -0.32463221534E+02  0.16326609763E+01  0.32999533496E+02  0.51100000000E-03 0.  1.
        -12    1    4    4    0    0 -0.64371891654E+01 -0.78451645776E+01 -0.25381145000E+01  0.10460690074E+02  0.00000000000E+00 0.  1.
</event>
<event>
 8    1  0.2031623E-013  0.9118800E+02  0.7816164E-02  0.1184000E+00
        -11   -1    0    0    0    0  0.00000000000E+00  0.00000000000E+00  0.45593999997E+02  0.45594000000E+02  0.51100000000E-03 0. -1.
         11   -1    0    0    0    0 -0.00000000000E+00 -0.00000000000E+00 -0.45593999997E+02  0.45594000000E+02  0.51100000000E-03 0.  1.
         23    2    1    2    0    0  0.35527136788E-14  0.17763568394E-14 -0.71054273576E-14  0.91188000000E+02  0.91188000000E+02 0.  0.
    9900012    2    3    3    0    0 -0.23311586124E+02 -0.14684587618E+02  0.29901463811E+02  0.50528871884E+02  0.30000036580E+02 0.  0.
        -12    1    3    3    0    0  0.23311586124E+02  0.14684587618E+02 -0.29901463811E+02  0.40659128116E+02  0.00000000000E+00 0.  1.
         11    1    4    4    0    0 -0.15392906670E+02 -0.18548211654E+02  0.32974377134E+02  0.40844672590E+02  0.51100000000E-03 0. -1.
        -11    1    4    4    0    0 -0.14438617821E+01  0.18879176722E+01 -0.11880766926E+01  0.26571594742E+01  0.51100000000E-03 0.  1.
         12    1    4    4    0    0 -0.64748176712E+01  0.19757063641E+01 -0.18848366310E+01  0.70270398204E+01  0.00000000000E+00 0. -1.
</event>
<event>
 8    1  0.2031623E-013  0.9118800E+02  0.7816164E-02  0.1184000E+00
        -11   -1    0    0    0    0  0.00000000000E+00  0.00000000000E+00  0.45593999997E+02  0.45594000000E+02  0.51100000000E-03 0. -1.
         11   -1    0    0    0    0 -0.00000000000E+00 -0.00000000000E+00 -0.45593999997E+02  0.45594000000E+02  0.51100000000E-03 0.  1.
         23    2    1    2    0    0  0.00000000000E+00  0.88817841970E-15  0.71054273576E-14  0.91188000000E+02  0.91188000000E+02 0.  0.
    9900012    2    3    3    0    0 -0.78623417200E+01  0.65056769038E+01  0.39357660466E+02  0.50528859740E+02  0.29999999667E+02 0.  0.
        -12    1    3    3    0    0  0.78623417200E+01 -0.65056769038E+01 -0.39357660466E+02  0.40659140260E+02  0.00000000000E+00 0.  1.
         11    1    4    4    0    0 -0.13555474520E+02  0.34151407310E+01  0.20706626170E+02  0.24983563462E+02  0.51100000000E-03 0. -1.
        -11    1    4    4    0    0  0.71099316906E+01  0.40791349443E+01  0.15315131145E+01  0.83388250503E+01  0.51100000000E-03 0.  1.
        -12    1    4    4    0    0 -0.14167988905E+01 -0.98859877139E+00  0.17119521182E+02  0.17206471228E+02  0.00000000000E+00 0.  1.
</event>
<event>
 8    1  0.2031623E-013  0.9118800E+02  0.7816164E-02  0.1184000E+00
        -11   -1    0    0    0    0  0.00000000000E+00  0.00000000000E+00  0.45593999997E+02  0.45594000000E+02  0.51100000000E-03 0.  1.
         11   -1    0    0    0    0 -0.00000000000E+00 -0.00000000000E+00 -0.45593999997E+02  0.45594000000E+02  0.51100000000E-03 0. -1.
         23    2    1    2    0    0  0.00000000000E+00  0.00000000000E+00  0.35527136788E-14  0.91188000000E+02  0.91188000000E+02 0.  0.
    9900012    2    3    3    0    0  0.87019354852E+01 -0.35095271845E+02 -0.18594738549E+02  0.50528854796E+02  0.29999984637E+02 0.  0.
         12    1    3    3    0    0 -0.87019354852E+01  0.35095271845E+02  0.18594738549E+02  0.40659145204E+02  0.00000000000E+00 0. -1.
         11    1    4    4    0    0  0.98295845525E+01 -0.27717386156E+02 -0.19917352532E+02  0.35518659321E+02  0.51100000000E-03 0. -1.
        -11    1    4    4    0    0  0.26919776682E+01 -0.89504875396E+01  0.39150371155E+01  0.10133384767E+02  0.51100000000E-03 0.  1.
        -12    1    4    4    0    0 -0.38196267355E+01  0.15726018511E+01 -0.25924231323E+01  0.48768107075E+01  0.00000000000E+00 0.  1.
</event>
<event>
 8    1  0.4034283E-013  0.9118800E+02  0.7816164E-02  0.1184000E+00
        -11   -1    0    0    0    0  0.00000000000E+00  0.00000000000E+00  0.45593999997E+02  0.45594000000E+02  0.51100000000E-03 0. -1.
         11   -1    0    0    0    0 -0.00000000000E+00 -0.00000000000E+00 -0.45593999997E+02  0.45594000000E+02  0.51100000000E-03 0.  1.
         23    2    1    2    0    0  0.00000000000E+00  0.00000000000E+00  0.00000000000E+00  0.91188000000E+02  0.91188000000E+02 0.  0.
    9900012    2    3    3    0    0 -0.70222734004E+01  0.14713376574E+02 -0.37247405185E+02  0.50528868591E+02  0.30000026570E+02 0.  0.
         12    1    3    3    0    0  0.70222734004E+01 -0.14713376574E+02  0.37247405185E+02  0.40659131409E+02  0.00000000000E+00 0. -1.
         11    1    4    4    0    0 -0.12351783542E+02  0.26807438525E+00 -0.55393358502E+01  0.13539669954E+02  0.51100000000E-03 0. -1.
        -11    1    4    4    0    0  0.21037350654E+01  0.36435238118E+01 -0.21080764439E+02  0.21496501961E+02  0.51100000000E-03 0.  1.
         12    1    4    4    0    0  0.32257750763E+01  0.10801778377E+02 -0.10627304896E+02  0.15492696676E+02  0.00000000000E+00 0. -1.
</event>
<event>
 8    1  0.2031623E-013  0.9118800E+02  0.7816164E-02  0.1184000E+00
        -11   -1    0    0    0    0  0.00000000000E+00  0.00000000000E+00  0.45593999997E+02  0.45594000000E+02  0.51100000000E-03 0. -1.
         11   -1    0    0    0    0 -0.00000000000E+00 -0.00000000000E+00 -0.45593999997E+02  0.45594000000E+02  0.51100000000E-03 0.  1.
         23    2    1    2    0    0 -0.71054273576E-14  0.00000000000E+00 -0.35527136788E-14  0.91188000000E+02  0.91188000000E+02 0.  0.
    9900012    2    3    3    0    0 -0.37307063038E+02  0.59116152956E+00 -0.16155532122E+02  0.50528835687E+02  0.29999926554E+02 0.  0.
         12    1    3    3    0    0  0.37307063038E+02 -0.59116152956E+00  0.16155532122E+02  0.40659164313E+02  0.00000000000E+00 0. -1.
         11    1    4    4    0    0 -0.16876479449E+02 -0.50411575036E+00 -0.19048537642E+02  0.25454203539E+02  0.51100000000E-03 0.  1.
        -11    1    4    4    0    0 -0.38420322872E+01 -0.10092328031E+01  0.68251677303E+01  0.78970043532E+01  0.51100000000E-03 0. -1.
        -12    1    4    4    0    0 -0.16588551302E+02  0.21045100830E+01 -0.39321622111E+01  0.17177627795E+02  0.00000000000E+00 0.  1.
</event>
<event>
 8    1  0.2587676E-013  0.9118800E+02  0.7816164E-02  0.1184000E+00
        -11   -1    0    0    0    0  0.00000000000E+00  0.00000000000E+00  0.45593999997E+02  0.45594000000E+02  0.51100000000E-03 0. -1.
         11   -1    0    0    0    0 -0.00000000000E+00 -0.00000000000E+00 -0.45593999997E+02  0.45594000000E+02  0.51100000000E-03 0.  1.
         23    2    1    2    0    0  0.00000000000E+00  0.00000000000E+00  0.00000000000E+00  0.91188000000E+02  0.91188000000E+02 0.  0.
    9900012    2    3    3    0    0 -0.17603296191E+02  0.93526784619E+01 -0.35437498006E+02  0.50528869462E+02  0.30000029216E+02 0.  0.
         12    1    3    3    0    0  0.17603296191E+02 -0.93526784619E+01  0.35437498006E+02  0.40659130538E+02  0.00000000000E+00 0. -1.
         11    1    4    4    0    0 -0.12846667541E+02 -0.91462596748E-01  0.17836355285E+00  0.12848231245E+02  0.51100000000E-03 0. -1.
        -11    1    4    4    0    0 -0.45103870803E+01  0.65624562162E+01 -0.16208202104E+02  0.18058661050E+02  0.51100000000E-03 0.  1.
         12    1    4    4    0    0 -0.24624157037E+00  0.28816848424E+01 -0.19407659454E+02  0.19621977167E+02  0.00000000000E+00 0. -1.
</event>
<event>
 8    1  0.2031623E-013  0.9118800E+02  0.7816164E-02  0.1184000E+00
        -11   -1    0    0    0    0  0.00000000000E+00  0.00000000000E+00  0.45593999997E+02  0.45594000000E+02  0.51100000000E-03 0.  1.
         11   -1    0    0    0    0 -0.00000000000E+00 -0.00000000000E+00 -0.45593999997E+02  0.45594000000E+02  0.51100000000E-03 0. -1.
         23    2    1    2    0    0  0.00000000000E+00 -0.17763568394E-14  0.00000000000E+00  0.91188000000E+02  0.91188000000E+02 0.  0.
    9900012    2    3    3    0    0  0.34622739919E+02 -0.15540446086E+02  0.14591989950E+02  0.50528858903E+02  0.29999997121E+02 0.  0.
        -12    1    3    3    0    0 -0.34622739919E+02  0.15540446086E+02 -0.14591989950E+02  0.40659141097E+02  0.00000000000E+00 0.  1.
         11    1    4    4    0    0  0.10482127643E+01  0.17270989544E+01 -0.63173819748E+01  0.66325663264E+01  0.51100000000E-03 0. -1.
        -11    1    4    4    0    0  0.25905145575E+02 -0.96535590448E+01  0.16702926490E+02  0.32299466297E+02  0.51100000000E-03 0.  1.
         12    1    4    4    0    0  0.76693815800E+01 -0.76139859958E+01  0.42064454342E+01  0.11596826279E+02  0.00000000000E+00 0. -1.
</event>
<event>
 8    1  0.2031623E-013  0.9118800E+02  0.7816164E-02  0.1184000E+00
        -11   -1    0    0    0    0  0.00000000000E+00  0.00000000000E+00  0.45593999997E+02  0.45594000000E+02  0.51100000000E-03 0. -1.
         11   -1    0    0    0    0 -0.00000000000E+00 -0.00000000000E+00 -0.45593999997E+02  0.45594000000E+02  0.51100000000E-03 0.  1.
         23    2    1    2    0    0  0.00000000000E+00  0.00000000000E+00 -0.35527136788E-14  0.91188000000E+02  0.91188000000E+02 0.  0.
    9900012    2    3    3    0    0 -0.22419787995E+02 -0.24479525126E+02  0.23479147648E+02  0.50528875336E+02  0.30000047072E+02 0.  0.
        -12    1    3    3    0    0  0.22419787995E+02  0.24479525126E+02 -0.23479147648E+02  0.40659124664E+02  0.00000000000E+00 0.  1.
         11    1    4    4    0    0 -0.49624147198E+01 -0.21887607773E+02  0.11678502579E+02  0.25299809419E+02  0.51100000000E-03 0. -1.
        -11    1    4    4    0    0 -0.40322768186E+01  0.11403439715E+01  0.10414650549E+02  0.11226067300E+02  0.51100000000E-03 0.  1.
        -12    1    4    4    0    0 -0.13425096457E+02 -0.37322613237E+01  0.13859945209E+01  0.14002998617E+02  0.00000000000E+00 0.  1.
</event>
<event>
 8    1  0.2031623E-013  0.9118800E+02  0.7816164E-02  0.1184000E+00
        -11   -1    0    0    0    0  0.00000000000E+00  0.00000000000E+00  0.45593999997E+02  0.45594000000E+02  0.51100000000E-03 0. -1.
         11   -1    0    0    0    0 -0.00000000000E+00 -0.00000000000E+00 -0.45593999997E+02  0.45594000000E+02  0.51100000000E-03 0.  1.
         23    2    1    2    0    0  0.00000000000E+00 -0.35527136788E-14  0.71054273576E-14  0.91188000000E+02  0.91188000000E+02 0.  0.
    9900012    2    3    3    0    0  0.12245415599E+02  0.24754712813E+02 -0.29839893347E+02  0.50528865177E+02  0.30000016191E+02 0.  0.
         12    1    3    3    0    0 -0.12245415599E+02 -0.24754712813E+02  0.29839893347E+02  0.40659134823E+02  0.00000000000E+00 0. -1.
         11    1    4    4    0    0  0.89030638619E+01  0.12487513818E+02 -0.46899106418E+01  0.16037387867E+02  0.51100000000E-03 0. -1.
        -11    1    4    4    0    0 -0.82554940388E+01  0.42132036382E+01 -0.77395888013E+01  0.12074994898E+02  0.51100000000E-03 0.  1.
        -12    1    4    4    0    0  0.11597845776E+02  0.80539953561E+01 -0.17410393904E+02  0.22416482412E+02  0.00000000000E+00 0.  1.
</event>
<event>
 8    1  0.2031623E-013  0.9118800E+02  0.7816164E-02  0.1184000E+00
        -11   -1    0    0    0    0  0.00000000000E+00  0.00000000000E+00  0.45593999997E+02  0.45594000000E+02  0.51100000000E-03 0. -1.
         11   -1    0    0    0    0 -0.00000000000E+00 -0.00000000000E+00 -0.45593999997E+02  0.45594000000E+02  0.51100000000E-03 0.  1.
         23    2    1    2    0    0  0.00000000000E+00  0.88817841970E-15  0.00000000000E+00  0.91188000000E+02  0.91188000000E+02 0.  0.
    9900012    2    3    3    0    0  0.33296462016E+02  0.62761989186E+01  0.22474889009E+02  0.50528859679E+02  0.29999999481E+02 0.  0.
        -12    1    3    3    0    0 -0.33296462016E+02 -0.62761989186E+01 -0.22474889009E+02  0.40659140321E+02  0.00000000000E+00 0.  1.
         11    1    4    4    0    0  0.27258908006E+02  0.12382123184E+02  0.72658732788E+01  0.30808407212E+02  0.51100000000E-03 0. -1.
        -11    1    4    4    0    0  0.39196282416E+01  0.31253165678E+00  0.11181213833E+02  0.11852455637E+02  0.51100000000E-03 0.  1.
        -12    1    4    4    0    0  0.21179257688E+01 -0.64184559224E+01  0.40278018978E+01  0.78679968300E+01  0.00000000000E+00 0.  1.
</event>
<event>
 8    1  0.2031623E-013  0.9118800E+02  0.7816164E-02  0.1184000E+00
        -11   -1    0    0    0    0  0.00000000000E+00  0.00000000000E+00  0.45593999997E+02  0.45594000000E+02  0.51100000000E-03 0. -1.
         11   -1    0    0    0    0 -0.00000000000E+00 -0.00000000000E+00 -0.45593999997E+02  0.45594000000E+02  0.51100000000E-03 0.  1.
         23    2    1    2    0    0  0.00000000000E+00  0.44408920985E-15  0.00000000000E+00  0.91188000000E+02  0.91188000000E+02 0.  0.
    9900012    2    3    3    0    0  0.24237294846E+02  0.36070577381E+01 -0.32445463181E+02  0.50528863167E+02  0.30000010084E+02 0.  0.
         12    1    3    3    0    0 -0.24237294846E+02 -0.36070577381E+01  0.32445463181E+02  0.40659136833E+02  0.00000000000E+00 0. -1.
         11    1    4    4    0    0  0.23855514293E+02  0.10893088833E+02 -0.28264002380E+02  0.38556436263E+02  0.51100000000E-03 0. -1.
        -11    1    4    4    0    0 -0.40457276267E+01 -0.41258608829E+01 -0.21035179146E+01  0.61494250083E+01  0.51100000000E-03 0.  1.
        -12    1    4    4    0    0  0.44275081792E+01 -0.31601702117E+01 -0.20779428860E+01  0.58230018960E+01  0.00000000000E+00 0.  1.
</event>
<event>
 8    1  0.2031623E-013  0.9118800E+02  0.7816164E-02  0.1184000E+00
        -11   -1    0    0    0    0  0.00000000000E+00  0.00000000000E+00  0.45593999997E+02  0.45594000000E+02  0.51100000000E-03 0. -1.
         11   -1    0    0    0    0 -0.00000000000E+00 -0.00000000000E+00 -0.45593999997E+02  0.45594000000E+02  0.51100000000E-03 0.  1.
         23    2    1    2    0    0  0.00000000000E+00  0.00000000000E+00 -0.35527136788E-14  0.91188000000E+02  0.91188000000E+02 0.  0.
    9900012    2    3    3    0    0  0.26188810833E+02  0.25310854129E+02 -0.18074094650E+02  0.50528855309E+02  0.29999986196E+02 0.  0.
         12    1    3    3    0    0 -0.26188810833E+02 -0.25310854129E+02  0.18074094650E+02  0.40659144691E+02  0.00000000000E+00 0. -1.
         11    1    4    4    0    0  0.69210195472E+00  0.89708190989E+01 -0.47498237228E+00  0.90100060452E+01  0.51100000000E-03 0. -1.
        -11    1    4    4    0    0  0.70801015510E+01  0.38626800017E+01 -0.17504619808E+02  0.19273293689E+02  0.51100000000E-03 0.  1.
        -12    1    4    4    0    0  0.18416607327E+02  0.12477355029E+02 -0.94492470348E-01  0.22245555574E+02  0.00000000000E+00 0.  1.
</event>
<event>
 8    1  0.2031623E-013  0.9118800E+02  0.7816164E-02  0.1184000E+00
        -11   -1    0    0    0    0  0.00000000000E+00  0.00000000000E+00  0.45593999997E+02  0.45594000000E+02  0.51100000000E-03 0. -1.
         11   -1    0    0    0    0 -0.00000000000E+00 -0.00000000000E+00 -0.45593999997E+02  0.45594000000E+02  0.51100000000E-03 0.  1.
         23    2    1    2    0    0 -0.35527136788E-14  0.00000000000E+00  0.00000000000E+00  0.91188000000E+02  0.91188000000E+02 0.  0.
    9900012    2    3    3    0    0 -0.18675872494E+02  0.27930945130E+02 -0.22896291646E+02  0.50528854898E+02  0.29999984949E+02 0.  0.
         12    1    3    3    0    0  0.18675872494E+02 -0.27930945130E+02  0.22896291646E+02  0.40659145102E+02  0.00000000000E+00 0. -1.
         11    1    4    4    0    0 -0.21149793581E+00  0.16753657080E+02 -0.13355779662E+02  0.21426773149E+02  0.51100000000E-03 0. -1.
        -11    1    4    4    0    0 -0.13586091104E+02  0.31434948935E+01 -0.13021389089E+02  0.19079308312E+02  0.51100000000E-03 0.  1.
         12    1    4    4    0    0 -0.48782834546E+01  0.80337931563E+01  0.34808771049E+01  0.10022773437E+02  0.00000000000E+00 0. -1.
</event>
<event>
 8    1  0.2031623E-013  0.9118800E+02  0.7816164E-02  0.1184000E+00
        -11   -1    0    0    0    0  0.00000000000E+00  0.00000000000E+00  0.45593999997E+02  0.45594000000E+02  0.51100000000E-03 0. -1.
         11   -1    0    0    0    0 -0.00000000000E+00 -0.00000000000E+00 -0.45593999997E+02  0.45594000000E+02  0.51100000000E-03 0.  1.
         23    2    1    2    0    0 -0.17763568394E-14  0.00000000000E+00  0.00000000000E+00  0.91188000000E+02  0.91188000000E+02 0.  0.
    9900012    2    3    3    0    0  0.97997332810E+01 -0.14694411668E+02 -0.36622476506E+02  0.50528852295E+02  0.29999977036E+02 0.  0.
         12    1    3    3    0    0 -0.97997332810E+01  0.14694411668E+02  0.36622476506E+02  0.40659147705E+02  0.00000000000E+00 0. -1.
         11    1    4    4    0    0 -0.53712715027E+01 -0.12055103605E+02 -0.43578174882E+01  0.13898440704E+02  0.51100000000E-03 0. -1.
        -11    1    4    4    0    0  0.89259394098E+01 -0.30991567609E+01 -0.26442666786E+02  0.28080096047E+02  0.51100000000E-03 0.  1.
         12    1    4    4    0    0  0.62450653740E+01  0.45984869853E+00 -0.58219922315E+01  0.85503155436E+01  0.00000000000E+00 0. -1.
</event>
<event>
 8    1  0.2031623E-013  0.9118800E+02  0.7816164E-02  0.1184000E+00
        -11   -1    0    0    0    0  0.00000000000E+00  0.00000000000E+00  0.45593999997E+02  0.45594000000E+02  0.51100000000E-03 0. -1.
         11   -1    0    0    0    0 -0.00000000000E+00 -0.00000000000E+00 -0.45593999997E+02  0.45594000000E+02  0.51100000000E-03 0.  1.
         23    2    1    2    0    0  0.35527136788E-14  0.00000000000E+00 -0.35527136788E-14  0.91188000000E+02  0.91188000000E+02 0.  0.
    9900012    2    3    3    0    0 -0.30774309074E+02  0.13836994627E+02 -0.22685823869E+02  0.50528842066E+02  0.29999945944E+02 0.  0.
         12    1    3    3    0    0  0.30774309074E+02 -0.13836994627E+02  0.22685823869E+02  0.40659157934E+02  0.00000000000E+00 0. -1.
         11    1    4    4    0    0 -0.66477928258E+01 -0.14887080988E+01 -0.35140269201E+01  0.76653627909E+01  0.51100000000E-03 0. -1.
        -11    1    4    4    0    0  0.53321895628E-01  0.53938422420E+01  0.49301689059E+01  0.73077317314E+01  0.51100000000E-03 0.  1.
        -12    1    4    4    0    0 -0.24179838144E+02  0.99318604839E+01 -0.24101965854E+02  0.35555747544E+02  0.00000000000E+00 0.  1.
</event>
<event>
 8    1  0.2031623E-013  0.9118800E+02  0.7816164E-02  0.1184000E+00
        -11   -1    0    0    0    0  0.00000000000E+00  0.00000000000E+00  0.45593999997E+02  0.45594000000E+02  0.51100000000E-03 0. -1.
         11   -1    0    0    0    0 -0.00000000000E+00 -0.00000000000E+00 -0.45593999997E+02  0.45594000000E+02  0.51100000000E-03 0.  1.
         23    2    1    2    0    0  0.13322676296E-14 -0.35527136788E-14  0.00000000000E+00  0.91188000000E+02  0.91188000000E+02 0.  0.
    9900012    2    3    3    0    0  0.14541828511E+01 -0.22866688188E+02  0.33588180568E+02  0.50528856498E+02  0.29999989811E+02 0.  0.
        -12    1    3    3    0    0 -0.14541828511E+01  0.22866688188E+02 -0.33588180568E+02  0.40659143502E+02  0.00000000000E+00 0.  1.
         11    1    4    4    0    0 -0.66882862723E+01 -0.15946846662E+02  0.14078223892E+02  0.22298687853E+02  0.51100000000E-03 0. -1.
        -11    1    4    4    0    0  0.13563113390E+02 -0.62362520938E+01  0.14703099122E+02  0.20953042955E+02  0.51100000000E-03 0.  1.
        -12    1    4    4    0    0 -0.54206442668E+01 -0.68358943255E+00  0.48068575536E+01  0.72771256908E+01  0.00000000000E+00 0.  1.
</event>
<event>
 8    1  0.2031623E-013  0.9118800E+02  0.7816164E-02  0.1184000E+00
        -11   -1    0    0    0    0  0.00000000000E+00  0.00000000000E+00  0.45593999997E+02  0.45594000000E+02  0.51100000000E-03 0. -1.
         11   -1    0    0    0    0 -0.00000000000E+00 -0.00000000000E+00 -0.45593999997E+02  0.45594000000E+02  0.51100000000E-03 0.  1.
         23    2    1    2    0    0  0.00000000000E+00 -0.17763568394E-14  0.00000000000E+00  0.91188000000E+02  0.91188000000E+02 0.  0.
    9900012    2    3    3    0    0 -0.30376943450E+02  0.12807024261E+02 -0.23798903986E+02  0.50528851032E+02  0.29999973198E+02 0.  0.
         12    1    3    3    0    0  0.30376943450E+02 -0.12807024261E+02  0.23798903986E+02  0.40659148968E+02  0.00000000000E+00 0. -1.
         11    1    4    4    0    0 -0.36200068447E+01  0.46550034276E+01  0.39324343714E+01  0.70878450049E+01  0.51100000000E-03 0. -1.
        -11    1    4    4    0    0 -0.29249085068E+02  0.72723207404E+01 -0.22609061974E+02  0.37677119182E+02  0.51100000000E-03 0.  1.
        -12    1    4    4    0    0  0.24921484623E+01  0.87970009332E+00 -0.51222763841E+01  0.57638868455E+01  0.00000000000E+00 0.  1.
</event>
<event>
 8    1  0.2031623E-013  0.9118800E+02  0.7816164E-02  0.1184000E+00
        -11   -1    0    0    0    0  0.00000000000E+00  0.00000000000E+00  0.45593999997E+02  0.45594000000E+02  0.51100000000E-03 0. -1.
         11   -1    0    0    0    0 -0.00000000000E+00 -0.00000000000E+00 -0.45593999997E+02  0.45594000000E+02  0.51100000000E-03 0.  1.
         23    2    1    2    0    0  0.17763568394E-14  0.00000000000E+00  0.17763568394E-14  0.91188000000E+02  0.91188000000E+02 0.  0.
    9900012    2    3    3    0    0  0.14586385746E+02  0.36569454466E+02  0.10152731263E+02  0.50528860792E+02  0.30000002862E+02 0.  0.
        -12    1    3    3    0    0 -0.14586385746E+02 -0.36569454466E+02 -0.10152731263E+02  0.40659139208E+02  0.00000000000E+00 0.  1.
         11    1    4    4    0    0  0.14117737666E+02  0.67732697392E+01  0.35300100487E+01  0.16051438283E+02  0.51100000000E-03 0. -1.
        -11    1    4    4    0    0 -0.26892933879E+01  0.30197253270E+02  0.73867864541E+01  0.31203701998E+02  0.51100000000E-03 0.  1.
        -12    1    4    4    0    0  0.31579414681E+01 -0.40106854335E+00 -0.76406523957E+00  0.32737205108E+01  0.00000000000E+00 0.  1.
</event>
<event>
 8    1  0.2031623E-013  0.9118800E+02  0.7816164E-02  0.1184000E+00
        -11   -1    0    0    0    0  0.00000000000E+00  0.00000000000E+00  0.45593999997E+02  0.45594000000E+02  0.51100000000E-03 0. -1.
         11   -1    0    0    0    0 -0.00000000000E+00 -0.00000000000E+00 -0.45593999997E+02  0.45594000000E+02  0.51100000000E-03 0.  1.
         23    2    1    2    0    0  0.71054273576E-14 -0.52735593670E-15  0.00000000000E+00  0.91188000000E+02  0.91188000000E+02 0.  0.
    9900012    2    3    3    0    0  0.30796404801E+02  0.12812998220E+00 -0.26546764730E+02  0.50528859778E+02  0.29999999781E+02 0.  0.
         12    1    3    3    0    0 -0.30796404801E+02 -0.12812998220E+00  0.26546764730E+02  0.40659140222E+02  0.00000000000E+00 0. -1.
         11    1    4    4    0    0  0.10549690399E+02  0.81487275624E+01 -0.10403242707E+00  0.13330737091E+02  0.51100000000E-03 0. -1.
        -11    1    4    4    0    0  0.11597313156E+02 -0.63481992783E+01 -0.52104760631E+01  0.14210783496E+02  0.51100000000E-03 0.  1.
         12    1    4    4    0    0  0.86494012464E+01 -0.16723983019E+01 -0.21232256240E+02  0.22987339190E+02  0.00000000000E+00 0. -1.
</event>
<event>
 8    1  0.2031623E-013  0.9118800E+02  0.7816164E-02  0.1184000E+00
        -11   -1    0    0    0    0  0.00000000000E+00  0.00000000000E+00  0.45593999997E+02  0.45594000000E+02  0.51100000000E-03 0. -1.
         11   -1    0    0    0    0 -0.00000000000E+00 -0.00000000000E+00 -0.45593999997E+02  0.45594000000E+02  0.51100000000E-03 0.  1.
         23    2    1    2    0    0 -0.35527136788E-14 -0.17763568394E-14  0.00000000000E+00  0.91188000000E+02  0.91188000000E+02 0.  0.
    9900012    2    3    3    0    0 -0.23273304221E+02 -0.11458066666E+02  0.31308654266E+02  0.50528858186E+02  0.29999994941E+02 0.  0.
        -12    1    3    3    0    0  0.23273304221E+02  0.11458066666E+02 -0.31308654266E+02  0.40659141814E+02  0.00000000000E+00 0.  1.
         11    1    4    4    0    0  0.35856597157E+01 -0.25113543506E+01  0.61823075671E+01  0.75752744760E+01  0.51100000000E-03 0.  1.
        -11    1    4    4    0    0 -0.26200720997E+02 -0.10165010411E+02  0.28057485480E+02  0.39711808183E+02  0.51100000000E-03 0. -1.
         12    1    4    4    0    0 -0.65824293978E+00  0.12182980958E+01 -0.29311387804E+01  0.32417755271E+01  0.00000000000E+00 0. -1.
</event>
<event>
 8    1  0.2031623E-013  0.9118800E+02  0.7816164E-02  0.1184000E+00
        -11   -1    0    0    0    0  0.00000000000E+00  0.00000000000E+00  0.45593999997E+02  0.45594000000E+02  0.51100000000E-03 0.  1.
         11   -1    0    0    0    0 -0.00000000000E+00 -0.00000000000E+00 -0.45593999997E+02  0.45594000000E+02  0.51100000000E-03 0. -1.
         23    2    1    2    0    0  0.71054273576E-14  0.00000000000E+00  0.88817841970E-15  0.91188000000E+02  0.91188000000E+02 0.  0.
    9900012    2    3    3    0    0  0.38252891982E+02  0.13521300845E+02 -0.26560836868E+01  0.50528879227E+02  0.30000058898E+02 0.  0.
        -12    1    3    3    0    0 -0.38252891982E+02 -0.13521300845E+02  0.26560836868E+01  0.40659120773E+02  0.00000000000E+00 0.  1.
         11    1    4    4    0    0  0.88346765228E+01  0.83443047173E+01  0.22668222263E+01  0.12361934062E+02  0.51100000000E-03 0. -1.
        -11    1    4    4    0    0  0.27511437133E+02 -0.27348381698E+01 -0.89859759604E+01  0.29070711673E+02  0.51100000000E-03 0.  1.
        -12    1    4    4    0    0  0.19067783256E+01  0.79118342976E+01  0.40630700472E+01  0.90962334922E+01  0.00000000000E+00 0.  1.
</event>
<event>
 8    1  0.2031623E-013  0.9118800E+02  0.7816164E-02  0.1184000E+00
        -11   -1    0    0    0    0  0.00000000000E+00  0.00000000000E+00  0.45593999997E+02  0.45594000000E+02  0.51100000000E-03 0.  1.
         11   -1    0    0    0    0 -0.00000000000E+00 -0.00000000000E+00 -0.45593999997E+02  0.45594000000E+02  0.51100000000E-03 0. -1.
         23    2    1    2    0    0  0.00000000000E+00  0.00000000000E+00  0.22204460493E-15  0.91188000000E+02  0.91188000000E+02 0.  0.
    9900012    2    3    3    0    0 -0.35499071952E+02 -0.19792185433E+02  0.11184333427E+01  0.50528860723E+02  0.30000002652E+02 0.  0.
         12    1    3    3    0    0  0.35499071952E+02  0.19792185433E+02 -0.11184333427E+01  0.40659139277E+02  0.00000000000E+00 0. -1.
         11    1    4    4    0    0 -0.96909461396E+01 -0.10754777824E+01  0.77230505784E+01  0.12438512774E+02  0.51100000000E-03 0. -1.
        -11    1    4    4    0    0 -0.17723163720E+02 -0.15758155490E+02 -0.13294187083E+02  0.27187596568E+02  0.51100000000E-03 0.  1.
        -12    1    4    4    0    0 -0.80849620923E+01 -0.29585521606E+01  0.66895698470E+01  0.10902751380E+02  0.00000000000E+00 0.  1.
</event>
<event>
 8    1  0.2031623E-013  0.9118800E+02  0.7816164E-02  0.1184000E+00
        -11   -1    0    0    0    0  0.00000000000E+00  0.00000000000E+00  0.45593999997E+02  0.45594000000E+02  0.51100000000E-03 0. -1.
         11   -1    0    0    0    0 -0.00000000000E+00 -0.00000000000E+00 -0.45593999997E+02  0.45594000000E+02  0.51100000000E-03 0.  1.
         23    2    1    2    0    0  0.00000000000E+00  0.26645352591E-14  0.00000000000E+00  0.91188000000E+02  0.91188000000E+02 0.  0.
    9900012    2    3    3    0    0  0.16058538090E+02  0.20824217025E+01  0.37295435044E+02  0.50528897688E+02  0.30000115011E+02 0.  0.
        -12    1    3    3    0    0 -0.16058538090E+02 -0.20824217025E+01 -0.37295435044E+02  0.40659102312E+02  0.00000000000E+00 0.  1.
         11    1    4    4    0    0  0.18278324380E+01 -0.10955987425E+02  0.25299393166E+02  0.27630308119E+02  0.51100000000E-03 0. -1.
        -11    1    4    4    0    0  0.13278817496E+02  0.11112712779E+02  0.10183029881E+02  0.20087644889E+02  0.51100000000E-03 0.  1.
         12    1    4    4    0    0  0.95188815575E+00  0.19256963491E+01  0.18130119969E+01  0.28109446794E+01  0.00000000000E+00 0. -1.
</event>
<event>
 8    1  0.2031623E-013  0.9118800E+02  0.7816164E-02  0.1184000E+00
        -11   -1    0    0    0    0  0.00000000000E+00  0.00000000000E+00  0.45593999997E+02  0.45594000000E+02  0.51100000000E-03 0. -1.
         11   -1    0    0    0    0 -0.00000000000E+00 -0.00000000000E+00 -0.45593999997E+02  0.45594000000E+02  0.51100000000E-03 0.  1.
         23    2    1    2    0    0 -0.17763568394E-14  0.00000000000E+00  0.00000000000E+00  0.91188000000E+02  0.91188000000E+02 0.  0.
    9900012    2    3    3    0    0 -0.12821721568E+02  0.12530495549E+02  0.36493232677E+02  0.50528857192E+02  0.29999991921E+02 0.  0.
        -12    1    3    3    0    0  0.12821721568E+02 -0.12530495549E+02 -0.36493232677E+02  0.40659142808E+02  0.00000000000E+00 0.  1.
         11    1    4    4    0    0 -0.17930095318E+02  0.12534710716E+02  0.22520929118E+02  0.31397444792E+02  0.51100000000E-03 0. -1.
        -11    1    4    4    0    0  0.86609793621E+01  0.18553575868E+01  0.11090312923E+02  0.14193306742E+02  0.51100000000E-03 0.  1.
        -12    1    4    4    0    0 -0.35526056114E+01 -0.18595727546E+01  0.28819906363E+01  0.49381056578E+01  0.00000000000E+00 0.  1.
</event>
<event>
 8    1  0.2031623E-013  0.9118800E+02  0.7816164E-02  0.1184000E+00
        -11   -1    0    0    0    0  0.00000000000E+00  0.00000000000E+00  0.45593999997E+02  0.45594000000E+02  0.51100000000E-03 0. -1.
         11   -1    0    0    0    0 -0.00000000000E+00 -0.00000000000E+00 -0.45593999997E+02  0.45594000000E+02  0.51100000000E-03 0.  1.
         23    2    1    2    0    0 -0.35527136788E-14  0.35527136788E-14 -0.35527136788E-14  0.91188000000E+02  0.91188000000E+02 0.  0.
    9900012    2    3    3    0    0 -0.22091613760E+02  0.14301389457E+02 -0.30993479760E+02  0.50528869087E+02  0.30000028078E+02 0.  0.
         12    1    3    3    0    0  0.22091613760E+02 -0.14301389457E+02  0.30993479760E+02  0.40659130913E+02  0.00000000000E+00 0. -1.
         11    1    4    4    0    0 -0.85404709999E+01  0.88104213552E+01  0.16146956607E+01  0.12376203444E+02  0.51100000000E-03 0. -1.
        -11    1    4    4    0    0 -0.85927568494E+01 -0.31501347831E+01 -0.10663321173E+02  0.14052232496E+02  0.51100000000E-03 0.  1.
         12    1    4    4    0    0 -0.49583859109E+01  0.86411028846E+01 -0.21944854248E+02  0.24100433147E+02  0.00000000000E+00 0. -1.
</event>
<event>
 8    1  0.2031623E-013  0.9118800E+02  0.7816164E-02  0.1184000E+00
        -11   -1    0    0    0    0  0.00000000000E+00  0.00000000000E+00  0.45593999997E+02  0.45594000000E+02  0.51100000000E-03 0. -1.
         11   -1    0    0    0    0 -0.00000000000E+00 -0.00000000000E+00 -0.45593999997E+02  0.45594000000E+02  0.51100000000E-03 0.  1.
         23    2    1    2    0    0 -0.14432899320E-14  0.00000000000E+00  0.00000000000E+00  0.91188000000E+02  0.91188000000E+02 0.  0.
    9900012    2    3    3    0    0  0.58050371225E+00 -0.34814945028E+01 -0.40505651470E+02  0.50528860934E+02  0.30000003296E+02 0.  0.
         12    1    3    3    0    0 -0.58050371225E+00  0.34814945028E+01  0.40505651470E+02  0.40659139066E+02  0.00000000000E+00 0. -1.
         11    1    4    4    0    0 -0.34982389454E-01 -0.19708641676E+01  0.10247752793E+01  0.22216421784E+01  0.51100000000E-03 0. -1.
        -11    1    4    4    0    0  0.11554054218E+02 -0.17198713670E+01 -0.30976502174E+02  0.33105857692E+02  0.51100000000E-03 0.  1.
        -12    1    4    4    0    0 -0.10938568116E+02  0.20924103177E+00 -0.10553924576E+02  0.15201361064E+02  0.00000000000E+00 0.  1.
</event>
<event>
 8    1  0.2031623E-013  0.9118800E+02  0.7816164E-02  0.1184000E+00
        -11   -1    0    0    0    0  0.00000000000E+00  0.00000000000E+00  0.45593999997E+02  0.45594000000E+02  0.51100000000E-03 0. -1.
         11   -1    0    0    0    0 -0.00000000000E+00 -0.00000000000E+00 -0.45593999997E+02  0.45594000000E+02  0.51100000000E-03 0.  1.
         23    2    1    2    0    0  0.00000000000E+00  0.00000000000E+00  0.71054273576E-14  0.91188000000E+02  0.91188000000E+02 0.  0.
    9900012    2    3    3    0    0 -0.16181258276E+02  0.95808117731E+01  0.36049143158E+02  0.50528858395E+02  0.29999995576E+02 0.  0.
        -12    1    3    3    0    0  0.16181258276E+02 -0.95808117731E+01 -0.36049143158E+02  0.40659141605E+02  0.00000000000E+00 0.  1.
         11    1    4    4    0    0  0.45209703279E+01 -0.52745355531E+01  0.12228475357E+02  0.14063979089E+02  0.51100000000E-03 0. -1.
        -11    1    4    4    0    0 -0.20110177366E+02  0.11152397334E+02  0.16709002029E+02  0.28425093651E+02  0.51100000000E-03 0.  1.
        -12    1    4    4    0    0 -0.59205123845E+00  0.37029499918E+01  0.71116657728E+01  0.80397856548E+01  0.00000000000E+00 0.  1.
</event>
<event>
 8    1  0.2031623E-013  0.9118800E+02  0.7816164E-02  0.1184000E+00
        -11   -1    0    0    0    0  0.00000000000E+00  0.00000000000E+00  0.45593999997E+02  0.45594000000E+02  0.51100000000E-03 0. -1.
         11   -1    0    0    0    0 -0.00000000000E+00 -0.00000000000E+00 -0.45593999997E+02  0.45594000000E+02  0.51100000000E-03 0.  1.
         23    2    1    2    0    0  0.00000000000E+00 -0.35527136788E-14  0.00000000000E+00  0.91188000000E+02  0.91188000000E+02 0.  0.
    9900012    2    3    3    0    0  0.16868016542E+02 -0.23476990092E+02  0.28591368797E+02  0.50528863075E+02  0.30000009801E+02 0.  0.
        -12    1    3    3    0    0 -0.16868016542E+02  0.23476990092E+02 -0.28591368797E+02  0.40659136925E+02  0.00000000000E+00 0.  1.
         11    1    4    4    0    0  0.62896041245E+01  0.27648558658E+01  0.16433296947E+02  0.17811703928E+02  0.51100000000E-03 0. -1.
        -11    1    4    4    0    0  0.73435026587E+01 -0.97300016804E+01  0.41217157522E+00  0.12197124648E+02  0.51100000000E-03 0.  1.
        -12    1    4    4    0    0  0.32349097591E+01 -0.16511844278E+02  0.11745900275E+02  0.20520034499E+02  0.00000000000E+00 0.  1.
</event>
<event>
 8    1  0.2031623E-013  0.9118800E+02  0.7816164E-02  0.1184000E+00
        -11   -1    0    0    0    0  0.00000000000E+00  0.00000000000E+00  0.45593999997E+02  0.45594000000E+02  0.51100000000E-03 0. -1.
         11   -1    0    0    0    0 -0.00000000000E+00 -0.00000000000E+00 -0.45593999997E+02  0.45594000000E+02  0.51100000000E-03 0.  1.
         23    2    1    2    0    0  0.00000000000E+00  0.00000000000E+00  0.35527136788E-14  0.91188000000E+02  0.91188000000E+02 0.  0.
    9900012    2    3    3    0    0 -0.13056821444E+02 -0.28611721102E+02  0.25769284986E+02  0.50528840892E+02  0.29999942377E+02 0.  0.
        -12    1    3    3    0    0  0.13056821444E+02  0.28611721102E+02 -0.25769284986E+02  0.40659159108E+02  0.00000000000E+00 0.  1.
         11    1    4    4    0    0 -0.76752569931E+00 -0.25422109780E+02  0.76678732030E+01  0.26564431879E+02  0.51100000000E-03 0. -1.
        -11    1    4    4    0    0 -0.70916381410E+01 -0.96726578815E+00  0.28583754056E+01  0.77069608049E+01  0.51100000000E-03 0.  1.
         12    1    4    4    0    0 -0.51976576041E+01 -0.22223455341E+01  0.15243036378E+02  0.16257448208E+02  0.00000000000E+00 0. -1.
</event>
<event>
 8    1  0.2031623E-013  0.9118800E+02  0.7816164E-02  0.1184000E+00
        -11   -1    0    0    0    0  0.00000000000E+00  0.00000000000E+00  0.45593999997E+02  0.45594000000E+02  0.51100000000E-03 0. -1.
         11   -1    0    0    0    0 -0.00000000000E+00 -0.00000000000E+00 -0.45593999997E+02  0.45594000000E+02  0.51100000000E-03 0.  1.
         23    2    1    2    0    0  0.17763568394E-14 -0.35527136788E-14  0.35527136788E-14  0.91188000000E+02  0.91188000000E+02 0.  0.
    9900012    2    3    3    0    0  0.14982584467E+02 -0.28425919104E+02  0.24912945122E+02  0.50528861435E+02  0.30000004817E+02 0.  0.
        -12    1    3    3    0    0 -0.14982584467E+02  0.28425919104E+02 -0.24912945122E+02  0.40659138565E+02  0.00000000000E+00 0.  1.
         11    1    4    4    0    0 -0.30054416718E+01 -0.18959830044E+02  0.15818910334E+02  0.24874600687E+02  0.51100000000E-03 0. -1.
        -11    1    4    4    0    0  0.18203875598E+02 -0.78481003315E+01  0.11370498894E+02  0.22853052553E+02  0.51100000000E-03 0.  1.
        -12    1    4    4    0    0 -0.21584945961E+00 -0.16179887291E+01 -0.22764641074E+01  0.28012081945E+01  0.00000000000E+00 0.  1.
</event>
<event>
 8    1  0.2031623E-013  0.9118800E+02  0.7816164E-02  0.1184000E+00
        -11   -1    0    0    0    0  0.00000000000E+00  0.00000000000E+00  0.45593999997E+02  0.45594000000E+02  0.51100000000E-03 0. -1.
         11   -1    0    0    0    0 -0.00000000000E+00 -0.00000000000E+00 -0.45593999997E+02  0.45594000000E+02  0.51100000000E-03 0.  1.
         23    2    1    2    0    0 -0.71054273576E-14  0.17763568394E-14  0.17763568394E-14  0.91188000000E+02  0.91188000000E+02 0.  0.
    9900012    2    3    3    0    0 -0.36894459899E+02  0.11563060201E+02  0.12580092000E+02  0.50528877442E+02  0.30000053474E+02 0.  0.
        -12    1    3    3    0    0  0.36894459899E+02 -0.11563060201E+02 -0.12580092000E+02  0.40659122558E+02  0.00000000000E+00 0.  1.
         11    1    4    4    0    0 -0.23564111737E+02  0.61000043931E+01  0.20356497907E+02  0.31731127034E+02  0.51100000000E-03 0. -1.
        -11    1    4    4    0    0 -0.52069050985E+00 -0.70754611924E+00 -0.39875369985E+01  0.40831595234E+01  0.51100000000E-03 0.  1.
         12    1    4    4    0    0 -0.12809657652E+02  0.61706019273E+01 -0.37888689087E+01  0.14714590885E+02  0.00000000000E+00 0. -1.
</event>
<event>
 8    1  0.2031623E-013  0.9118800E+02  0.7816164E-02  0.1184000E+00
        -11   -1    0    0    0    0  0.00000000000E+00  0.00000000000E+00  0.45593999997E+02  0.45594000000E+02  0.51100000000E-03 0. -1.
         11   -1    0    0    0    0 -0.00000000000E+00 -0.00000000000E+00 -0.45593999997E+02  0.45594000000E+02  0.51100000000E-03 0.  1.
         23    2    1    2    0    0  0.35527136788E-14  0.00000000000E+00  0.00000000000E+00  0.91188000000E+02  0.91188000000E+02 0.  0.
    9900012    2    3    3    0    0 -0.20672691732E+02 -0.19522895508E+02  0.29062883914E+02  0.50528992955E+02  0.30000404585E+02 0.  0.
        -12    1    3    3    0    0  0.20672691732E+02  0.19522895508E+02 -0.29062883914E+02  0.40659007045E+02  0.00000000000E+00 0.  1.
         11    1    4    4    0    0 -0.62492759936E+01 -0.17274336603E+02  0.28387267193E+01  0.18588021013E+02  0.51100000000E-03 0. -1.
        -11    1    4    4    0    0 -0.75202751751E+01  0.11226853044E+01  0.43567396961E+01  0.87633408037E+01  0.51100000000E-03 0.  1.
         12    1    4    4    0    0 -0.69031405634E+01 -0.33712442087E+01  0.21867417498E+02  0.23177631139E+02  0.00000000000E+00 0. -1.
</event>
<event>
 8    1  0.2031623E-013  0.9118800E+02  0.7816164E-02  0.1184000E+00
        -11   -1    0    0    0    0  0.00000000000E+00  0.00000000000E+00  0.45593999997E+02  0.45594000000E+02  0.51100000000E-03 0. -1.
         11   -1    0    0    0    0 -0.00000000000E+00 -0.00000000000E+00 -0.45593999997E+02  0.45594000000E+02  0.51100000000E-03 0.  1.
         23    2    1    2    0    0  0.71054273576E-14 -0.88817841970E-15  0.00000000000E+00  0.91188000000E+02  0.91188000000E+02 0.  0.
    9900012    2    3    3    0    0 -0.36237872414E+02  0.54548178747E+01  0.17613276269E+02  0.50528856673E+02  0.29999990343E+02 0.  0.
        -12    1    3    3    0    0  0.36237872414E+02 -0.54548178747E+01 -0.17613276269E+02  0.40659143327E+02  0.00000000000E+00 0.  1.
         11    1    4    4    0    0 -0.19845929134E+02  0.11935750762E+02  0.21220530699E+02  0.31410730218E+02  0.51100000000E-03 0. -1.
        -11    1    4    4    0    0 -0.11217163538E+01 -0.27349940602E+01  0.12325144562E+00  0.29586536242E+01  0.51100000000E-03 0.  1.
         12    1    4    4    0    0 -0.15270226926E+02 -0.37459388270E+01 -0.37305058752E+01  0.16159472831E+02  0.00000000000E+00 0. -1.
</event>
<event>
 8    1  0.2031623E-013  0.9118800E+02  0.7816164E-02  0.1184000E+00
        -11   -1    0    0    0    0  0.00000000000E+00  0.00000000000E+00  0.45593999997E+02  0.45594000000E+02  0.51100000000E-03 0. -1.
         11   -1    0    0    0    0 -0.00000000000E+00 -0.00000000000E+00 -0.45593999997E+02  0.45594000000E+02  0.51100000000E-03 0.  1.
         23    2    1    2    0    0  0.00000000000E+00 -0.88817841970E-15 -0.17763568394E-14  0.91188000000E+02  0.91188000000E+02 0.  0.
    9900012    2    3    3    0    0 -0.39835255464E+02 -0.10761017459E+01  0.80721895060E+01  0.50528858147E+02  0.29999994822E+02 0.  0.
        -12    1    3    3    0    0  0.39835255464E+02  0.10761017459E+01 -0.80721895060E+01  0.40659141853E+02  0.00000000000E+00 0.  1.
         11    1    4    4    0    0 -0.95275784866E+01  0.36503013495E+01  0.10813389293E+02  0.14867038711E+02  0.51100000000E-03 0. -1.
        -11    1    4    4    0    0 -0.21370932340E+02 -0.11564251179E+02 -0.21383808417E+01  0.24393058998E+02  0.51100000000E-03 0.  1.
        -12    1    4    4    0    0 -0.89367446372E+01  0.68378480834E+01 -0.60281894530E+00  0.11268760438E+02  0.00000000000E+00 0.  1.
</event>
<event>
 8    1  0.2781341E-013  0.9118800E+02  0.7816164E-02  0.1184000E+00
        -11   -1    0    0    0    0  0.00000000000E+00  0.00000000000E+00  0.45593999997E+02  0.45594000000E+02  0.51100000000E-03 0. -1.
         11   -1    0    0    0    0 -0.00000000000E+00 -0.00000000000E+00 -0.45593999997E+02  0.45594000000E+02  0.51100000000E-03 0.  1.
         23    2    1    2    0    0 -0.66613381478E-15  0.71054273576E-14 -0.35527136788E-14  0.91188000000E+02  0.91188000000E+02 0.  0.
    9900012    2    3    3    0    0 -0.53217168876E+00  0.33546722609E+02 -0.22967394322E+02  0.50528843510E+02  0.29999950334E+02 0.  0.
         12    1    3    3    0    0  0.53217168876E+00 -0.33546722609E+02  0.22967394322E+02  0.40659156490E+02  0.00000000000E+00 0. -1.
         11    1    4    4    0    0 -0.45923165207E+01 -0.17296346515E+01 -0.18946552242E+00  0.49108965066E+01  0.51100000000E-03 0. -1.
        -11    1    4    4    0    0 -0.26033690769E+01  0.22953352512E+02 -0.21487982339E+02  0.31549442267E+02  0.51100000000E-03 0.  1.
         12    1    4    4    0    0  0.66635139088E+01  0.12323004749E+02 -0.12899464601E+01  0.14068504736E+02  0.00000000000E+00 0. -1.
</event>
<event>
 8    1  0.2031623E-013  0.9118800E+02  0.7816164E-02  0.1184000E+00
        -11   -1    0    0    0    0  0.00000000000E+00  0.00000000000E+00  0.45593999997E+02  0.45594000000E+02  0.51100000000E-03 0. -1.
         11   -1    0    0    0    0 -0.00000000000E+00 -0.00000000000E+00 -0.45593999997E+02  0.45594000000E+02  0.51100000000E-03 0.  1.
         23    2    1    2    0    0  0.00000000000E+00 -0.35527136788E-14  0.00000000000E+00  0.91188000000E+02  0.91188000000E+02 0.  0.
    9900012    2    3    3    0    0  0.24720579063E+02  0.18182788078E+02 -0.26672923658E+02  0.50528859971E+02  0.30000000367E+02 0.  0.
         12    1    3    3    0    0 -0.24720579063E+02 -0.18182788078E+02  0.26672923658E+02  0.40659140029E+02  0.00000000000E+00 0. -1.
         11    1    4    4    0    0  0.15331521363E+02  0.11196045783E+02  0.37838857580E+00  0.18988158591E+02  0.51100000000E-03 0. -1.
        -11    1    4    4    0    0  0.44375994055E+01  0.71098211724E+00 -0.21103769785E+02  0.21576998945E+02  0.51100000000E-03 0.  1.
        -12    1    4    4    0    0  0.49514582944E+01  0.62757601774E+01 -0.59475424483E+01  0.99637024353E+01  0.00000000000E+00 0.  1.
</event>
<event>
 8    1  0.2031623E-013  0.9118800E+02  0.7816164E-02  0.1184000E+00
        -11   -1    0    0    0    0  0.00000000000E+00  0.00000000000E+00  0.45593999997E+02  0.45594000000E+02  0.51100000000E-03 0. -1.
         11   -1    0    0    0    0 -0.00000000000E+00 -0.00000000000E+00 -0.45593999997E+02  0.45594000000E+02  0.51100000000E-03 0.  1.
         23    2    1    2    0    0  0.66613381478E-15  0.88817841970E-15  0.00000000000E+00  0.91188000000E+02  0.91188000000E+02 0.  0.
    9900012    2    3    3    0    0  0.86389657745E+00 -0.57023593479E+01  0.40248012650E+02  0.50528859063E+02  0.29999997609E+02 0.  0.
        -12    1    3    3    0    0 -0.86389657745E+00  0.57023593479E+01 -0.40248012650E+02  0.40659140937E+02  0.00000000000E+00 0.  1.
         11    1    4    4    0    0 -0.10384940049E+02 -0.11163645706E+02  0.25935153545E+02  0.30084982216E+02  0.51100000000E-03 0. -1.
        -11    1    4    4    0    0  0.39723228099E+01  0.10410177530E+01  0.39100500849E+00  0.41250395932E+01  0.51100000000E-03 0.  1.
         12    1    4    4    0    0  0.72765138165E+01  0.44202686047E+01  0.13921854096E+02  0.16318837255E+02  0.00000000000E+00 0. -1.
</event>
<event>
 8    1  0.2031623E-013  0.9118800E+02  0.7816164E-02  0.1184000E+00
        -11   -1    0    0    0    0  0.00000000000E+00  0.00000000000E+00  0.45593999997E+02  0.45594000000E+02  0.51100000000E-03 0. -1.
         11   -1    0    0    0    0 -0.00000000000E+00 -0.00000000000E+00 -0.45593999997E+02  0.45594000000E+02  0.51100000000E-03 0.  1.
         23    2    1    2    0    0  0.00000000000E+00  0.35527136788E-14  0.00000000000E+00  0.91188000000E+02  0.91188000000E+02 0.  0.
    9900012    2    3    3    0    0 -0.82615948844E+01 -0.28945843068E+02  0.27332232426E+02  0.50528847151E+02  0.29999961402E+02 0.  0.
        -12    1    3    3    0    0  0.82615948844E+01  0.28945843068E+02 -0.27332232426E+02  0.40659152849E+02  0.00000000000E+00 0.  1.
         11    1    4    4    0    0  0.58682405704E+01 -0.17140463284E+02  0.16988071803E+02  0.24835988259E+02  0.51100000000E-03 0. -1.
        -11    1    4    4    0    0 -0.55302490513E+01 -0.38692328117E+01 -0.34694831454E+01  0.75889347525E+01  0.51100000000E-03 0.  1.
         12    1    4    4    0    0 -0.85995864035E+01 -0.79361469726E+01  0.13813643769E+02  0.18103924139E+02  0.00000000000E+00 0. -1.
</event>
<event>
 8    1  0.2031623E-013  0.9118800E+02  0.7816164E-02  0.1184000E+00
        -11   -1    0    0    0    0  0.00000000000E+00  0.00000000000E+00  0.45593999997E+02  0.45594000000E+02  0.51100000000E-03 0. -1.
         11   -1    0    0    0    0 -0.00000000000E+00 -0.00000000000E+00 -0.45593999997E+02  0.45594000000E+02  0.51100000000E-03 0.  1.
         23    2    1    2    0    0  0.00000000000E+00 -0.35527136788E-14  0.35527136788E-14  0.91188000000E+02  0.91188000000E+02 0.  0.
    9900012    2    3    3    0    0  0.45333122312E+01  0.25061242582E+02 -0.31694615998E+02  0.50528862247E+02  0.30000007286E+02 0.  0.
         12    1    3    3    0    0 -0.45333122312E+01 -0.25061242582E+02  0.31694615998E+02  0.40659137753E+02  0.00000000000E+00 0. -1.
         11    1    4    4    0    0 -0.70948860926E+01  0.72681866645E+01 -0.62366422715E+01  0.11918878015E+02  0.51100000000E-03 0. -1.
        -11    1    4    4    0    0  0.59113461305E+01 -0.30853140070E+01 -0.26794825384E+01  0.71862926834E+01  0.51100000000E-03 0.  1.
        -12    1    4    4    0    0  0.57168521933E+01  0.20878369925E+02 -0.22778491188E+02  0.31423691548E+02  0.00000000000E+00 0.  1.
</event>
<event>
 8    1  0.2031623E-013  0.9118800E+02  0.7816164E-02  0.1184000E+00
        -11   -1    0    0    0    0  0.00000000000E+00  0.00000000000E+00  0.45593999997E+02  0.45594000000E+02  0.51100000000E-03 0. -1.
         11   -1    0    0    0    0 -0.00000000000E+00 -0.00000000000E+00 -0.45593999997E+02  0.45594000000E+02  0.51100000000E-03 0.  1.
         23    2    1    2    0    0  0.35527136788E-14  0.00000000000E+00 -0.35527136788E-14  0.91188000000E+02  0.91188000000E+02 0.  0.
    9900012    2    3    3    0    0 -0.16543337394E+02 -0.22562727847E+02  0.29502657439E+02  0.50528862085E+02  0.30000006792E+02 0.  0.
        -12    1    3    3    0    0  0.16543337394E+02  0.22562727847E+02 -0.29502657439E+02  0.40659137915E+02  0.00000000000E+00 0.  1.
         11    1    4    4    0    0  0.13018660312E+01 -0.56717833444E+01  0.22834579096E+02  0.23564422001E+02  0.51100000000E-03 0.  1.
        -11    1    4    4    0    0 -0.16645772319E+02 -0.11084537787E+02  0.65160751629E+01  0.21033495901E+02  0.51100000000E-03 0. -1.
        -12    1    4    4    0    0 -0.11994311065E+01 -0.58064067160E+01  0.15200318007E+00  0.59309441826E+01  0.00000000000E+00 0.  1.
</event>
<event>
 8    1  0.2031623E-013  0.9118800E+02  0.7816164E-02  0.1184000E+00
        -11   -1    0    0    0    0  0.00000000000E+00  0.00000000000E+00  0.45593999997E+02  0.45594000000E+02  0.51100000000E-03 0. -1.
         11   -1    0    0    0    0 -0.00000000000E+00 -0.00000000000E+00 -0.45593999997E+02  0.45594000000E+02  0.51100000000E-03 0.  1.
         23    2    1    2    0    0 -0.35527136788E-14 -0.88817841970E-15 -0.71054273576E-14  0.91188000000E+02  0.91188000000E+02 0.  0.
    9900012    2    3    3    0    0 -0.17390363147E+02 -0.53052155914E+01 -0.36367508930E+02  0.50528858978E+02  0.29999997350E+02 0.  0.
         12    1    3    3    0    0  0.17390363147E+02  0.53052155914E+01  0.36367508930E+02  0.40659141022E+02  0.00000000000E+00 0. -1.
         11    1    4    4    0    0  0.35322639062E+01 -0.37998470464E+01 -0.56084982961E+01  0.76400902663E+01  0.51100000000E-03 0. -1.
        -11    1    4    4    0    0 -0.22887215735E+02 -0.51712680952E+01 -0.30812194113E+02  0.38729290778E+02  0.51100000000E-03 0.  1.
        -12    1    4    4    0    0  0.19645886823E+01  0.36658995502E+01  0.53183479082E-01  0.41594779342E+01  0.00000000000E+00 0.  1.
</event>
<event>
 8    1  0.2031623E-013  0.9118800E+02  0.7816164E-02  0.1184000E+00
        -11   -1    0    0    0    0  0.00000000000E+00  0.00000000000E+00  0.45593999997E+02  0.45594000000E+02  0.51100000000E-03 0.  1.
         11   -1    0    0    0    0 -0.00000000000E+00 -0.00000000000E+00 -0.45593999997E+02  0.45594000000E+02  0.51100000000E-03 0. -1.
         23    2    1    2    0    0 -0.71054273576E-14  0.00000000000E+00  0.00000000000E+00  0.91188000000E+02  0.91188000000E+02 0.  0.
    9900012    2    3    3    0    0 -0.26688496620E+02 -0.24869562200E+02 -0.17955496158E+02  0.50528796636E+02  0.29999807855E+02 0.  0.
         12    1    3    3    0    0  0.26688496620E+02  0.24869562200E+02  0.17955496158E+02  0.40659203364E+02  0.00000000000E+00 0. -1.
         11    1    4    4    0    0  0.43033498458E+01 -0.11763514900E+02 -0.55825775616E+01  0.13713652875E+02  0.51100000000E-03 0. -1.
        -11    1    4    4    0    0 -0.24659375376E+02 -0.12768637314E+02 -0.73498117406E+01  0.28725295919E+02  0.51100000000E-03 0.  1.
         12    1    4    4    0    0 -0.63324710903E+01 -0.33740998642E+00 -0.50231068563E+01  0.80898478415E+01  0.00000000000E+00 0. -1.
</event>
<event>
 8    1  0.2031623E-013  0.9118800E+02  0.7816164E-02  0.1184000E+00
        -11   -1    0    0    0    0  0.00000000000E+00  0.00000000000E+00  0.45593999997E+02  0.45594000000E+02  0.51100000000E-03 0. -1.
         11   -1    0    0    0    0 -0.00000000000E+00 -0.00000000000E+00 -0.45593999997E+02  0.45594000000E+02  0.51100000000E-03 0.  1.
         23    2    1    2    0    0  0.00000000000E+00 -0.35527136788E-14  0.00000000000E+00  0.91188000000E+02  0.91188000000E+02 0.  0.
    9900012    2    3    3    0    0 -0.14068713990E+02 -0.26316638117E+02  0.27616549802E+02  0.50528831562E+02  0.29999914017E+02 0.  0.
        -12    1    3    3    0    0  0.14068713990E+02  0.26316638117E+02 -0.27616549802E+02  0.40659168438E+02  0.00000000000E+00 0.  1.
         11    1    4    4    0    0 -0.67123230575E+01 -0.37826560481E+01  0.23731084371E+02  0.24950513688E+02  0.51100000000E-03 0. -1.
        -11    1    4    4    0    0 -0.25481697746E+01 -0.56890723118E+01 -0.27929401042E+01  0.68307560091E+01  0.51100000000E-03 0.  1.
         12    1    4    4    0    0 -0.48082211580E+01 -0.16844909757E+02  0.66784055354E+01  0.18747561866E+02  0.00000000000E+00 0. -1.
</event>
<event>
 8    1  0.2031623E-013  0.9118800E+02  0.7816164E-02  0.1184000E+00
        -11   -1    0    0    0    0  0.00000000000E+00  0.00000000000E+00  0.45593999997E+02  0.45594000000E+02  0.51100000000E-03 0. -1.
         11   -1    0    0    0    0 -0.00000000000E+00 -0.00000000000E+00 -0.45593999997E+02  0.45594000000E+02  0.51100000000E-03 0.  1.
         23    2    1    2    0    0  0.00000000000E+00 -0.61062266354E-15  0.00000000000E+00  0.91188000000E+02  0.91188000000E+02 0.  0.
    9900012    2    3    3    0    0 -0.35825335017E+02 -0.30134416296E+00  0.19225513342E+02  0.50528858339E+02  0.29999995406E+02 0.  0.
        -12    1    3    3    0    0  0.35825335017E+02  0.30134416296E+00 -0.19225513342E+02  0.40659141661E+02  0.00000000000E+00 0.  1.
         11    1    4    4    0    0 -0.26142490721E+02  0.62898642328E+01  0.52020576335E+01  0.27387106767E+02  0.51100000000E-03 0. -1.
        -11    1    4    4    0    0  0.52696979076E+00 -0.32371527789E+01  0.11694438265E+02  0.12145647033E+02  0.51100000000E-03 0.  1.
        -12    1    4    4    0    0 -0.10209814087E+02 -0.33540556168E+01  0.23290174438E+01  0.10996104538E+02  0.00000000000E+00 0.  1.
</event>
<event>
 8    1  0.2031623E-013  0.9118800E+02  0.7816164E-02  0.1184000E+00
        -11   -1    0    0    0    0  0.00000000000E+00  0.00000000000E+00  0.45593999997E+02  0.45594000000E+02  0.51100000000E-03 0. -1.
         11   -1    0    0    0    0 -0.00000000000E+00 -0.00000000000E+00 -0.45593999997E+02  0.45594000000E+02  0.51100000000E-03 0.  1.
         23    2    1    2    0    0 -0.17763568394E-14  0.00000000000E+00  0.00000000000E+00  0.91188000000E+02  0.91188000000E+02 0.  0.
    9900012    2    3    3    0    0  0.13626925412E+02 -0.12039738804E+02  0.36366412888E+02  0.50528875649E+02  0.30000048024E+02 0.  0.
        -12    1    3    3    0    0 -0.13626925412E+02  0.12039738804E+02 -0.36366412888E+02  0.40659124351E+02  0.00000000000E+00 0.  1.
         11    1    4    4    0    0  0.54377424383E+01 -0.14794133579E+01  0.14557677021E+02  0.15610370502E+02  0.51100000000E-03 0. -1.
        -11    1    4    4    0    0 -0.80948039383E+01 -0.18638900387E+01  0.38205691849E+01  0.91431223351E+01  0.51100000000E-03 0.  1.
        -12    1    4    4    0    0  0.16283986912E+02 -0.86964354070E+01  0.17988166682E+02  0.25775382812E+02  0.00000000000E+00 0.  1.
</event>
<event>
 8    1  0.2031623E-013  0.9118800E+02  0.7816164E-02  0.1184000E+00
        -11   -1    0    0    0    0  0.00000000000E+00  0.00000000000E+00  0.45593999997E+02  0.45594000000E+02  0.51100000000E-03 0. -1.
         11   -1    0    0    0    0 -0.00000000000E+00 -0.00000000000E+00 -0.45593999997E+02  0.45594000000E+02  0.51100000000E-03 0.  1.
         23    2    1    2    0    0  0.00000000000E+00  0.17763568394E-14  0.00000000000E+00  0.91188000000E+02  0.91188000000E+02 0.  0.
    9900012    2    3    3    0    0 -0.34468142197E+01  0.13460414912E+02  0.38211277897E+02  0.50528867491E+02  0.30000023226E+02 0.  0.
        -12    1    3    3    0    0  0.34468142197E+01 -0.13460414912E+02 -0.38211277897E+02  0.40659132509E+02  0.00000000000E+00 0.  1.
         11    1    4    4    0    0 -0.15688248345E+01 -0.26453127827E+01  0.16134076636E+02  0.16424594979E+02  0.51100000000E-03 0. -1.
        -11    1    4    4    0    0  0.22348274229E+01  0.14241281772E+02  0.32956504613E+01  0.14787490400E+02  0.51100000000E-03 0.  1.
        -12    1    4    4    0    0 -0.41128168082E+01  0.18644459230E+01  0.18781550800E+02  0.19316782111E+02  0.00000000000E+00 0.  1.
</event>
<event>
 8    1  0.2031623E-013  0.9118800E+02  0.7816164E-02  0.1184000E+00
        -11   -1    0    0    0    0  0.00000000000E+00  0.00000000000E+00  0.45593999997E+02  0.45594000000E+02  0.51100000000E-03 0. -1.
         11   -1    0    0    0    0 -0.00000000000E+00 -0.00000000000E+00 -0.45593999997E+02  0.45594000000E+02  0.51100000000E-03 0.  1.
         23    2    1    2    0    0 -0.71054273576E-14 -0.17763568394E-14  0.00000000000E+00  0.91188000000E+02  0.91188000000E+02 0.  0.
    9900012    2    3    3    0    0  0.35124343904E+02  0.11135045144E+02 -0.17188861370E+02  0.50528859327E+02  0.29999998411E+02 0.  0.
         12    1    3    3    0    0 -0.35124343904E+02 -0.11135045144E+02  0.17188861370E+02  0.40659140673E+02  0.00000000000E+00 0. -1.
         11    1    4    4    0    0  0.33179869436E+00 -0.23577754231E+01  0.48695743731E+01  0.54205119828E+01  0.51100000000E-03 0. -1.
        -11    1    4    4    0    0  0.20754571421E+02  0.58497203917E+01 -0.58460032858E+01  0.22341602857E+02  0.51100000000E-03 0.  1.
         12    1    4    4    0    0  0.14037973788E+02  0.76431001757E+01 -0.16212432457E+02  0.22766744487E+02  0.00000000000E+00 0. -1.
</event>
<event>
 8    1  0.2031623E-013  0.9118800E+02  0.7816164E-02  0.1184000E+00
        -11   -1    0    0    0    0  0.00000000000E+00  0.00000000000E+00  0.45593999997E+02  0.45594000000E+02  0.51100000000E-03 0. -1.
         11   -1    0    0    0    0 -0.00000000000E+00 -0.00000000000E+00 -0.45593999997E+02  0.45594000000E+02  0.51100000000E-03 0.  1.
         23    2    1    2    0    0 -0.35527136788E-14  0.35527136788E-14  0.00000000000E+00  0.91188000000E+02  0.91188000000E+02 0.  0.
    9900012    2    3    3    0    0  0.21080239097E+02 -0.20713279573E+02  0.27923980584E+02  0.50528866675E+02  0.30000020745E+02 0.  0.
        -12    1    3    3    0    0 -0.21080239097E+02  0.20713279573E+02 -0.27923980584E+02  0.40659133325E+02  0.00000000000E+00 0.  1.
         11    1    4    4    0    0  0.35926087901E+01 -0.58802523589E+01 -0.51681000222E+01  0.86135627834E+01  0.51100000000E-03 0. -1.
        -11    1    4    4    0    0 -0.53248734081E+00 -0.50059519555E+01  0.85439306483E+01  0.99167458843E+01  0.51100000000E-03 0.  1.
         12    1    4    4    0    0  0.18020117648E+02 -0.98270752587E+01  0.24548149958E+02  0.31998558007E+02  0.00000000000E+00 0. -1.
</event>
<event>
 8    1  0.2031623E-013  0.9118800E+02  0.7816164E-02  0.1184000E+00
        -11   -1    0    0    0    0  0.00000000000E+00  0.00000000000E+00  0.45593999997E+02  0.45594000000E+02  0.51100000000E-03 0.  1.
         11   -1    0    0    0    0 -0.00000000000E+00 -0.00000000000E+00 -0.45593999997E+02  0.45594000000E+02  0.51100000000E-03 0. -1.
         23    2    1    2    0    0  0.00000000000E+00  0.00000000000E+00  0.00000000000E+00  0.91188000000E+02  0.91188000000E+02 0.  0.
    9900012    2    3    3    0    0 -0.29750323211E+02  0.21675152321E+02 -0.17270536685E+02  0.50528863306E+02  0.30000010506E+02 0.  0.
        -12    1    3    3    0    0  0.29750323211E+02 -0.21675152321E+02  0.17270536685E+02  0.40659136694E+02  0.00000000000E+00 0.  1.
         11    1    4    4    0    0 -0.14887333359E+02  0.24746130342E+02 -0.43289637118E+01  0.29201773722E+02  0.51100000000E-03 0. -1.
        -11    1    4    4    0    0 -0.10860235043E+02 -0.60435062174E+00 -0.12552194436E+02  0.16609260377E+02  0.51100000000E-03 0.  1.
         12    1    4    4    0    0 -0.40027548084E+01 -0.24666273988E+01 -0.38937853762E+00  0.47178292070E+01  0.00000000000E+00 0. -1.
</event>
<event>
 8    1  0.2031623E-013  0.9118800E+02  0.7816164E-02  0.1184000E+00
        -11   -1    0    0    0    0  0.00000000000E+00  0.00000000000E+00  0.45593999997E+02  0.45594000000E+02  0.51100000000E-03 0. -1.
         11   -1    0    0    0    0 -0.00000000000E+00 -0.00000000000E+00 -0.45593999997E+02  0.45594000000E+02  0.51100000000E-03 0.  1.
         23    2    1    2    0    0  0.00000000000E+00 -0.71054273576E-14  0.00000000000E+00  0.91188000000E+02  0.91188000000E+02 0.  0.
    9900012    2    3    3    0    0 -0.79195019974E+01  0.30764857206E+02  0.25376555395E+02  0.50528874155E+02  0.30000043480E+02 0.  0.
        -12    1    3    3    0    0  0.79195019974E+01 -0.30764857206E+02 -0.25376555395E+02  0.40659125845E+02  0.00000000000E+00 0.  1.
         11    1    4    4    0    0  0.12264999950E+01  0.98638361240E+01  0.11164493741E+02  0.14948093058E+02  0.51100000000E-03 0. -1.
        -11    1    4    4    0    0  0.44623399549E+01 -0.24021035978E+01 -0.29229834649E-01  0.50678826162E+01  0.51100000000E-03 0.  1.
        -12    1    4    4    0    0 -0.13608341947E+02  0.23303124680E+02  0.14241291489E+02  0.30512898480E+02  0.00000000000E+00 0.  1.
</event>
<event>
 8    1  0.2031623E-013  0.9118800E+02  0.7816164E-02  0.1184000E+00
        -11   -1    0    0    0    0  0.00000000000E+00  0.00000000000E+00  0.45593999997E+02  0.45594000000E+02  0.51100000000E-03 0.  1.
         11   -1    0    0    0    0 -0.00000000000E+00 -0.00000000000E+00 -0.45593999997E+02  0.45594000000E+02  0.51100000000E-03 0. -1.
         23    2    1    2    0    0  0.71054273576E-14 -0.35527136788E-14 -0.44408920985E-15  0.91188000000E+02  0.91188000000E+02 0.  0.
    9900012    2    3    3    0    0 -0.37105311719E+02  0.16242561114E+02  0.35412669745E+01  0.50528861776E+02  0.30000005855E+02 0.  0.
         12    1    3    3    0    0  0.37105311719E+02 -0.16242561114E+02 -0.35412669745E+01  0.40659138224E+02  0.00000000000E+00 0. -1.
         11    1    4    4    0    0 -0.78581177186E+01 -0.21383944704E+01  0.43993511464E-02  0.81438789656E+01  0.51100000000E-03 0. -1.
        -11    1    4    4    0    0 -0.11155025638E+02  0.19145817584E+02 -0.44377605248E+01  0.22598465582E+02  0.51100000000E-03 0.  1.
        -12    1    4    4    0    0 -0.18092168362E+02 -0.76486199922E+00  0.79746281482E+01  0.19786517228E+02  0.00000000000E+00 0.  1.
</event>
<event>
 8    1  0.2031623E-013  0.9118800E+02  0.7816164E-02  0.1184000E+00
        -11   -1    0    0    0    0  0.00000000000E+00  0.00000000000E+00  0.45593999997E+02  0.45594000000E+02  0.51100000000E-03 0. -1.
         11   -1    0    0    0    0 -0.00000000000E+00 -0.00000000000E+00 -0.45593999997E+02  0.45594000000E+02  0.51100000000E-03 0.  1.
         23    2    1    2    0    0  0.00000000000E+00  0.00000000000E+00  0.00000000000E+00  0.91188000000E+02  0.91188000000E+02 0.  0.
    9900012    2    3    3    0    0  0.16558207531E+02  0.99183621053E+01 -0.35785732665E+02  0.50528845977E+02  0.29999957832E+02 0.  0.
         12    1    3    3    0    0 -0.16558207531E+02 -0.99183621053E+01  0.35785732665E+02  0.40659154023E+02  0.00000000000E+00 0. -1.
         11    1    4    4    0    0  0.77035833661E+00  0.66958496997E+01 -0.25990174388E+02  0.26849897954E+02  0.51100000000E-03 0. -1.
        -11    1    4    4    0    0  0.46448232897E+01  0.64534566563E+01  0.76820043683E+00  0.79882174719E+01  0.51100000000E-03 0.  1.
        -12    1    4    4    0    0  0.11143025905E+02 -0.32309442506E+01 -0.10563758714E+02  0.15690730551E+02  0.00000000000E+00 0.  1.
</event>
<event>
 8    1  0.2031623E-013  0.9118800E+02  0.7816164E-02  0.1184000E+00
        -11   -1    0    0    0    0  0.00000000000E+00  0.00000000000E+00  0.45593999997E+02  0.45594000000E+02  0.51100000000E-03 0. -1.
         11   -1    0    0    0    0 -0.00000000000E+00 -0.00000000000E+00 -0.45593999997E+02  0.45594000000E+02  0.51100000000E-03 0.  1.
         23    2    1    2    0    0 -0.35527136788E-14  0.00000000000E+00  0.35527136788E-14  0.91188000000E+02  0.91188000000E+02 0.  0.
    9900012    2    3    3    0    0 -0.20468825723E+02  0.20274762612E+02  0.28690184858E+02  0.50528861634E+02  0.30000005423E+02 0.  0.
        -12    1    3    3    0    0  0.20468825723E+02 -0.20274762612E+02 -0.28690184858E+02  0.40659138366E+02  0.00000000000E+00 0.  1.
         11    1    4    4    0    0 -0.15017668848E+02  0.10851725756E+01  0.23265154508E+02  0.27712368930E+02  0.51100000000E-03 0. -1.
        -11    1    4    4    0    0  0.20472592850E+01  0.90936670156E+01  0.40586783536E+01  0.10166558936E+02  0.51100000000E-03 0.  1.
         12    1    4    4    0    0 -0.74984161601E+01  0.10095923021E+02  0.13663519963E+01  0.12649933768E+02  0.00000000000E+00 0. -1.
</event>
<event>
 8    1  0.2031623E-013  0.9118800E+02  0.7816164E-02  0.1184000E+00
        -11   -1    0    0    0    0  0.00000000000E+00  0.00000000000E+00  0.45593999997E+02  0.45594000000E+02  0.51100000000E-03 0. -1.
         11   -1    0    0    0    0 -0.00000000000E+00 -0.00000000000E+00 -0.45593999997E+02  0.45594000000E+02  0.51100000000E-03 0.  1.
         23    2    1    2    0    0  0.00000000000E+00  0.22204460493E-14  0.00000000000E+00  0.91188000000E+02  0.91188000000E+02 0.  0.
    9900012    2    3    3    0    0 -0.36281189478E+02  0.21275172700E+01 -0.18229522337E+02  0.50528849439E+02  0.29999968355E+02 0.  0.
         12    1    3    3    0    0  0.36281189478E+02 -0.21275172700E+01  0.18229522337E+02  0.40659150561E+02  0.00000000000E+00 0. -1.
         11    1    4    4    0    0 -0.43150295781E+01  0.63963578657E+01  0.22603902485E+01  0.80400397103E+01  0.51100000000E-03 0.  1.
        -11    1    4    4    0    0 -0.25479452278E+02 -0.67578983388E+01 -0.69356521424E+01  0.27257566825E+02  0.51100000000E-03 0. -1.
        -12    1    4    4    0    0 -0.64867076227E+01  0.24890577430E+01 -0.13554260443E+02  0.15231242904E+02  0.00000000000E+00 0.  1.
</event>
<event>
 8    1  0.2031623E-013  0.9118800E+02  0.7816164E-02  0.1184000E+00
        -11   -1    0    0    0    0  0.00000000000E+00  0.00000000000E+00  0.45593999997E+02  0.45594000000E+02  0.51100000000E-03 0.  1.
         11   -1    0    0    0    0 -0.00000000000E+00 -0.00000000000E+00 -0.45593999997E+02  0.45594000000E+02  0.51100000000E-03 0. -1.
         23    2    1    2    0    0  0.00000000000E+00  0.00000000000E+00  0.00000000000E+00  0.91188000000E+02  0.91188000000E+02 0.  0.
    9900012    2    3    3    0    0 -0.97004297503E+01  0.36071890865E+02  0.16058808394E+02  0.50528868492E+02  0.30000026270E+02 0.  0.
         12    1    3    3    0    0  0.97004297503E+01 -0.36071890865E+02 -0.16058808394E+02  0.40659131508E+02  0.00000000000E+00 0. -1.
         11    1    4    4    0    0 -0.34310924863E+01  0.78940988203E+01  0.13852298821E+02  0.16308751477E+02  0.51100000000E-03 0. -1.
        -11    1    4    4    0    0 -0.87328428089E+01  0.25075117669E+02 -0.40051004021E+01  0.26852651622E+02  0.51100000000E-03 0.  1.
        -12    1    4    4    0    0  0.24635055449E+01  0.31026743757E+01  0.62116099746E+01  0.73674653937E+01  0.00000000000E+00 0.  1.
</event>
<event>
 8    1  0.2031623E-013  0.9118800E+02  0.7816164E-02  0.1184000E+00
        -11   -1    0    0    0    0  0.00000000000E+00  0.00000000000E+00  0.45593999997E+02  0.45594000000E+02  0.51100000000E-03 0.  1.
         11   -1    0    0    0    0 -0.00000000000E+00 -0.00000000000E+00 -0.45593999997E+02  0.45594000000E+02  0.51100000000E-03 0. -1.
         23    2    1    2    0    0 -0.35527136788E-14  0.17763568394E-14  0.00000000000E+00  0.91188000000E+02  0.91188000000E+02 0.  0.
    9900012    2    3    3    0    0 -0.30022642647E+02  0.96541876014E+01 -0.25663264014E+02  0.50528861671E+02  0.30000005536E+02 0.  0.
         12    1    3    3    0    0  0.30022642647E+02 -0.96541876014E+01  0.25663264014E+02  0.40659138329E+02  0.00000000000E+00 0. -1.
         11    1    4    4    0    0 -0.31017487320E+02  0.12385255682E+02 -0.18226422015E+02  0.38048410449E+02  0.51100000000E-03 0. -1.
        -11    1    4    4    0    0  0.49804766998E+01 -0.99234603846E+00 -0.18590441184E+01  0.54079519332E+01  0.51100000000E-03 0.  1.
        -12    1    4    4    0    0 -0.39856320266E+01 -0.17387220424E+01 -0.55777978807E+01  0.70724992888E+01  0.00000000000E+00 0.  1.
</event>
<event>
 8    1  0.2031623E-013  0.9118800E+02  0.7816164E-02  0.1184000E+00
        -11   -1    0    0    0    0  0.00000000000E+00  0.00000000000E+00  0.45593999997E+02  0.45594000000E+02  0.51100000000E-03 0.  1.
         11   -1    0    0    0    0 -0.00000000000E+00 -0.00000000000E+00 -0.45593999997E+02  0.45594000000E+02  0.51100000000E-03 0. -1.
         23    2    1    2    0    0  0.00000000000E+00  0.17763568394E-14  0.00000000000E+00  0.91188000000E+02  0.91188000000E+02 0.  0.
    9900012    2    3    3    0    0  0.30679393124E+02 -0.80173307831E+01 -0.25449059312E+02  0.50528961950E+02  0.30000310340E+02 0.  0.
         12    1    3    3    0    0 -0.30679393124E+02  0.80173307831E+01  0.25449059312E+02  0.40659038050E+02  0.00000000000E+00 0. -1.
         11    1    4    4    0    0  0.13537267681E+02 -0.39618584172E+01 -0.10856046721E+02  0.17799092366E+02  0.51100000000E-03 0. -1.
        -11    1    4    4    0    0  0.11745641774E+01 -0.11274738193E+02 -0.85310934169E+01  0.14187278720E+02  0.51100000000E-03 0.  1.
        -12    1    4    4    0    0  0.15967561265E+02  0.72192658275E+01 -0.60619191737E+01  0.18542590863E+02  0.00000000000E+00 0.  1.
</event>
<event>
 8    1  0.2031623E-013  0.9118800E+02  0.7816164E-02  0.1184000E+00
        -11   -1    0    0    0    0  0.00000000000E+00  0.00000000000E+00  0.45593999997E+02  0.45594000000E+02  0.51100000000E-03 0.  1.
         11   -1    0    0    0    0 -0.00000000000E+00 -0.00000000000E+00 -0.45593999997E+02  0.45594000000E+02  0.51100000000E-03 0. -1.
         23    2    1    2    0    0  0.00000000000E+00  0.00000000000E+00  0.00000000000E+00  0.91188000000E+02  0.91188000000E+02 0.  0.
    9900012    2    3    3    0    0  0.39605525196E+02  0.26502713613E+01  0.88059158923E+01  0.50528859342E+02  0.29999998457E+02 0.  0.
        -12    1    3    3    0    0 -0.39605525196E+02 -0.26502713613E+01 -0.88059158923E+01  0.40659140658E+02  0.00000000000E+00 0.  1.
         11    1    4    4    0    0  0.35757073453E+02  0.42060806711E+01 -0.95894090115E+00  0.36016371061E+02  0.51100000000E-03 0. -1.
        -11    1    4    4    0    0  0.18081864576E+01 -0.55392560609E+01  0.34473756273E+01  0.67703245823E+01  0.51100000000E-03 0.  1.
         12    1    4    4    0    0  0.20402652853E+01  0.39834467510E+01  0.63174811661E+01  0.77421636987E+01  0.00000000000E+00 0. -1.
</event>
<event>
 8    1  0.2031623E-013  0.9118800E+02  0.7816164E-02  0.1184000E+00
        -11   -1    0    0    0    0  0.00000000000E+00  0.00000000000E+00  0.45593999997E+02  0.45594000000E+02  0.51100000000E-03 0.  1.
         11   -1    0    0    0    0 -0.00000000000E+00 -0.00000000000E+00 -0.45593999997E+02  0.45594000000E+02  0.51100000000E-03 0. -1.
         23    2    1    2    0    0  0.17763568394E-14  0.35527136788E-14  0.35527136788E-14  0.91188000000E+02  0.91188000000E+02 0.  0.
    9900012    2    3    3    0    0 -0.12665116245E+02 -0.31591051439E+02 -0.22243341426E+02  0.50528856646E+02  0.29999990260E+02 0.  0.
        -12    1    3    3    0    0  0.12665116245E+02  0.31591051439E+02  0.22243341426E+02  0.40659143354E+02  0.00000000000E+00 0.  1.
         11    1    4    4    0    0 -0.69065070642E+01 -0.24136290426E+02 -0.20507374241E+02  0.32416242131E+02  0.51100000000E-03 0. -1.
        -11    1    4    4    0    0  0.43223152264E+01 -0.57409890058E+01  0.15895404461E+01  0.73598914919E+01  0.51100000000E-03 0.  1.
        -12    1    4    4    0    0 -0.10080924408E+02 -0.17137720068E+01 -0.33255076309E+01  0.10752723023E+02  0.00000000000E+00 0.  1.
</event>
<event>
 8    1  0.2031623E-013  0.9118800E+02  0.7816164E-02  0.1184000E+00
        -11   -1    0    0    0    0  0.00000000000E+00  0.00000000000E+00  0.45593999997E+02  0.45594000000E+02  0.51100000000E-03 0. -1.
         11   -1    0    0    0    0 -0.00000000000E+00 -0.00000000000E+00 -0.45593999997E+02  0.45594000000E+02  0.51100000000E-03 0.  1.
         23    2    1    2    0    0 -0.17763568394E-14 -0.10685896612E-14 -0.71054273576E-14  0.91188000000E+02  0.91188000000E+02 0.  0.
    9900012    2    3    3    0    0 -0.15178079755E+02  0.61542968424E-01 -0.37719870026E+02  0.50528849894E+02  0.29999969738E+02 0.  0.
         12    1    3    3    0    0  0.15178079755E+02 -0.61542968424E-01  0.37719870026E+02  0.40659150106E+02  0.00000000000E+00 0. -1.
         11    1    4    4    0    0 -0.61745921773E+01  0.11191779667E+02 -0.35379302504E+01  0.13262672106E+02  0.51100000000E-03 0. -1.
        -11    1    4    4    0    0 -0.55727017279E+01 -0.74061522791E+01 -0.17109890570E+02  0.19459045499E+02  0.51100000000E-03 0.  1.
         12    1    4    4    0    0 -0.34307858495E+01 -0.37240844199E+01 -0.17072049205E+02  0.17807132289E+02  0.00000000000E+00 0. -1.
</event>
<event>
 8    1  0.2031623E-013  0.9118800E+02  0.7816164E-02  0.1184000E+00
        -11   -1    0    0    0    0  0.00000000000E+00  0.00000000000E+00  0.45593999997E+02  0.45594000000E+02  0.51100000000E-03 0.  1.
         11   -1    0    0    0    0 -0.00000000000E+00 -0.00000000000E+00 -0.45593999997E+02  0.45594000000E+02  0.51100000000E-03 0. -1.
         23    2    1    2    0    0  0.00000000000E+00  0.00000000000E+00  0.00000000000E+00  0.91188000000E+02  0.91188000000E+02 0.  0.
    9900012    2    3    3    0    0 -0.35656830853E+02 -0.16153972330E+02  0.10991138228E+02  0.50528861690E+02  0.30000005594E+02 0.  0.
        -12    1    3    3    0    0  0.35656830853E+02  0.16153972330E+02 -0.10991138228E+02  0.40659138310E+02  0.00000000000E+00 0.  1.
         11    1    4    4    0    0 -0.16787745282E+02  0.12257727968E+01  0.72361199440E+00  0.16847982822E+02  0.51100000000E-03 0. -1.
        -11    1    4    4    0    0 -0.22474728041E+02 -0.15650118199E+02  0.64152379369E+01  0.28128186543E+02  0.51100000000E-03 0.  1.
        -12    1    4    4    0    0  0.36056424701E+01 -0.17296269279E+01  0.38522882971E+01  0.55526923249E+01  0.00000000000E+00 0.  1.
</event>
<event>
 8    1  0.2031623E-013  0.9118800E+02  0.7816164E-02  0.1184000E+00
        -11   -1    0    0    0    0  0.00000000000E+00  0.00000000000E+00  0.45593999997E+02  0.45594000000E+02  0.51100000000E-03 0.  1.
         11   -1    0    0    0    0 -0.00000000000E+00 -0.00000000000E+00 -0.45593999997E+02  0.45594000000E+02  0.51100000000E-03 0. -1.
         23    2    1    2    0    0  0.00000000000E+00  0.00000000000E+00  0.00000000000E+00  0.91188000000E+02  0.91188000000E+02 0.  0.
    9900012    2    3    3    0    0 -0.36420681372E+02  0.13999342908E+02 -0.11433224082E+02  0.50528852857E+02  0.29999978744E+02 0.  0.
         12    1    3    3    0    0  0.36420681372E+02 -0.13999342908E+02  0.11433224082E+02  0.40659147143E+02  0.00000000000E+00 0. -1.
         11    1    4    4    0    0 -0.21637312175E+02  0.18790182184E+01 -0.18777407080E+02  0.28710538214E+02  0.51100000000E-03 0. -1.
        -11    1    4    4    0    0 -0.15144553915E+02  0.12472004586E+02  0.62121306466E+01  0.20579090824E+02  0.51100000000E-03 0.  1.
         12    1    4    4    0    0  0.36118471868E+00 -0.35167989616E+00  0.11320523507E+01  0.12392238196E+01  0.00000000000E+00 0. -1.
</event>
<event>
 8    1  0.2031623E-013  0.9118800E+02  0.7816164E-02  0.1184000E+00
        -11   -1    0    0    0    0  0.00000000000E+00  0.00000000000E+00  0.45593999997E+02  0.45594000000E+02  0.51100000000E-03 0. -1.
         11   -1    0    0    0    0 -0.00000000000E+00 -0.00000000000E+00 -0.45593999997E+02  0.45594000000E+02  0.51100000000E-03 0.  1.
         23    2    1    2    0    0  0.00000000000E+00  0.00000000000E+00  0.88817841970E-15  0.91188000000E+02  0.91188000000E+02 0.  0.
    9900012    2    3    3    0    0  0.34061374071E+02  0.20786956623E+02  0.78032740981E+01  0.50528857659E+02  0.29999993341E+02 0.  0.
        -12    1    3    3    0    0 -0.34061374071E+02 -0.20786956623E+02 -0.78032740981E+01  0.40659142341E+02  0.00000000000E+00 0.  1.
         11    1    4    4    0    0  0.22969484547E+02  0.25306894842E+02 -0.10423834176E+01  0.34192436450E+02  0.51100000000E-03 0. -1.
        -11    1    4    4    0    0  0.88959524934E+01 -0.39525908099E+00  0.69410587008E+01  0.11290371856E+02  0.51100000000E-03 0.  1.
         12    1    4    4    0    0  0.21959370297E+01 -0.41246791378E+01  0.19045988150E+01  0.50460493531E+01  0.00000000000E+00 0. -1.
</event>
<event>
 8    1  0.2031623E-013  0.9118800E+02  0.7816164E-02  0.1184000E+00
        -11   -1    0    0    0    0  0.00000000000E+00  0.00000000000E+00  0.45593999997E+02  0.45594000000E+02  0.51100000000E-03 0. -1.
         11   -1    0    0    0    0 -0.00000000000E+00 -0.00000000000E+00 -0.45593999997E+02  0.45594000000E+02  0.51100000000E-03 0.  1.
         23    2    1    2    0    0  0.00000000000E+00 -0.88817841970E-15  0.00000000000E+00  0.91188000000E+02  0.91188000000E+02 0.  0.
    9900012    2    3    3    0    0 -0.40173911071E+02  0.58221399752E+01 -0.23076626588E+01  0.50528858941E+02  0.29999997239E+02 0.  0.
         12    1    3    3    0    0  0.40173911071E+02 -0.58221399752E+01  0.23076626588E+01  0.40659141059E+02  0.00000000000E+00 0. -1.
         11    1    4    4    0    0 -0.70957965663E+01 -0.81190015301E+01 -0.32308243779E+01  0.11256408894E+02  0.51100000000E-03 0. -1.
        -11    1    4    4    0    0 -0.10436995409E+02  0.12670431088E+02 -0.14099073245E+01  0.16475998788E+02  0.51100000000E-03 0.  1.
        -12    1    4    4    0    0 -0.22641119096E+02  0.12707104169E+01  0.23330690436E+01  0.22796451260E+02  0.00000000000E+00 0.  1.
</event>
<event>
 8    1  0.2031623E-013  0.9118800E+02  0.7816164E-02  0.1184000E+00
        -11   -1    0    0    0    0  0.00000000000E+00  0.00000000000E+00  0.45593999997E+02  0.45594000000E+02  0.51100000000E-03 0. -1.
         11   -1    0    0    0    0 -0.00000000000E+00 -0.00000000000E+00 -0.45593999997E+02  0.45594000000E+02  0.51100000000E-03 0.  1.
         23    2    1    2    0    0  0.17763568394E-14  0.00000000000E+00 -0.71054273576E-14  0.91188000000E+02  0.91188000000E+02 0.  0.
    9900012    2    3    3    0    0  0.12700363913E+02  0.25282630657E+01 -0.38541855242E+02  0.50528856340E+02  0.29999989330E+02 0.  0.
         12    1    3    3    0    0 -0.12700363913E+02 -0.25282630657E+01  0.38541855242E+02  0.40659143660E+02  0.00000000000E+00 0. -1.
         11    1    4    4    0    0 -0.46553122597E+01  0.44205493911E+01 -0.37520565365E+01  0.74357997329E+01  0.51100000000E-03 0.  1.
        -11    1    4    4    0    0  0.19350642468E+02 -0.61847135069E+01 -0.24954480715E+02  0.32178007289E+02  0.51100000000E-03 0. -1.
         12    1    4    4    0    0 -0.19949662946E+01  0.42924271815E+01 -0.98353179906E+01  0.10915049317E+02  0.00000000000E+00 0. -1.
</event>
<event>
 8    1  0.2155580E-013  0.9118800E+02  0.7816164E-02  0.1184000E+00
        -11   -1    0    0    0    0  0.00000000000E+00  0.00000000000E+00  0.45593999997E+02  0.45594000000E+02  0.51100000000E-03 0. -1.
         11   -1    0    0    0    0 -0.00000000000E+00 -0.00000000000E+00 -0.45593999997E+02  0.45594000000E+02  0.51100000000E-03 0.  1.
         23    2    1    2    0    0  0.00000000000E+00  0.00000000000E+00  0.00000000000E+00  0.91188000000E+02  0.91188000000E+02 0.  0.
    9900012    2    3    3    0    0 -0.45501757746E+01  0.55971344367E+01 -0.40014178056E+02  0.50528850243E+02  0.29999970797E+02 0.  0.
         12    1    3    3    0    0  0.45501757746E+01 -0.55971344367E+01  0.40014178056E+02  0.40659149757E+02  0.00000000000E+00 0. -1.
         11    1    4    4    0    0 -0.55520959075E+01  0.69707410342E+01  0.17464276225E+00  0.89133327038E+01  0.51100000000E-03 0. -1.
        -11    1    4    4    0    0  0.22297248519E+01 -0.54479848887E+01 -0.15856987808E+02  0.16914380712E+02  0.51100000000E-03 0.  1.
         12    1    4    4    0    0 -0.12278047190E+01  0.40743782911E+01 -0.24331833011E+02  0.24701136827E+02  0.00000000000E+00 0. -1.
</event>
<event>
 8    1  0.2031623E-013  0.9118800E+02  0.7816164E-02  0.1184000E+00
        -11   -1    0    0    0    0  0.00000000000E+00  0.00000000000E+00  0.45593999997E+02  0.45594000000E+02  0.51100000000E-03 0. -1.
         11   -1    0    0    0    0 -0.00000000000E+00 -0.00000000000E+00 -0.45593999997E+02  0.45594000000E+02  0.51100000000E-03 0.  1.
         23    2    1    2    0    0  0.00000000000E+00  0.35527136788E-14  0.00000000000E+00  0.91188000000E+02  0.91188000000E+02 0.  0.
    9900012    2    3    3    0    0 -0.26920376352E+02 -0.30349786210E+02 -0.27109514168E+01  0.50528862730E+02  0.30000008755E+02 0.  0.
        -12    1    3    3    0    0  0.26920376352E+02  0.30349786210E+02  0.27109514168E+01  0.40659137270E+02  0.00000000000E+00 0.  1.
         11    1    4    4    0    0 -0.29904628375E+02 -0.26475333680E+02 -0.42769253568E+01  0.40168671654E+02  0.51100000000E-03 0. -1.
        -11    1    4    4    0    0  0.59358581013E+00  0.36157498236E+00 -0.33637312567E+01  0.34347880298E+01  0.51100000000E-03 0.  1.
         12    1    4    4    0    0  0.23906662124E+01 -0.42360275125E+01  0.49297051967E+01  0.69254030461E+01  0.00000000000E+00 0. -1.
</event>
<event>
 8    1  0.2031623E-013  0.9118800E+02  0.7816164E-02  0.1184000E+00
        -11   -1    0    0    0    0  0.00000000000E+00  0.00000000000E+00  0.45593999997E+02  0.45594000000E+02  0.51100000000E-03 0. -1.
         11   -1    0    0    0    0 -0.00000000000E+00 -0.00000000000E+00 -0.45593999997E+02  0.45594000000E+02  0.51100000000E-03 0.  1.
         23    2    1    2    0    0  0.00000000000E+00 -0.17763568394E-14 -0.71054273576E-14  0.91188000000E+02  0.91188000000E+02 0.  0.
    9900012    2    3    3    0    0 -0.10532789977E+02 -0.99062474231E+01 -0.38001217644E+02  0.50528856562E+02  0.29999990006E+02 0.  0.
         12    1    3    3    0    0  0.10532789977E+02  0.99062474231E+01  0.38001217644E+02  0.40659143438E+02  0.00000000000E+00 0. -1.
         11    1    4    4    0    0 -0.13587873124E+01 -0.16703319849E+02 -0.90108844750E+01  0.19027433779E+02  0.51100000000E-03 0. -1.
        -11    1    4    4    0    0 -0.39666981809E+01  0.10479521297E+01 -0.62661984253E+01  0.74898692306E+01  0.51100000000E-03 0.  1.
         12    1    4    4    0    0 -0.52073044834E+01  0.57491202963E+01 -0.22724134743E+02  0.24011553552E+02  0.00000000000E+00 0. -1.
</event>
<event>
 8    1  0.2031623E-013  0.9118800E+02  0.7816164E-02  0.1184000E+00
        -11   -1    0    0    0    0  0.00000000000E+00  0.00000000000E+00  0.45593999997E+02  0.45594000000E+02  0.51100000000E-03 0. -1.
         11   -1    0    0    0    0 -0.00000000000E+00 -0.00000000000E+00 -0.45593999997E+02  0.45594000000E+02  0.51100000000E-03 0.  1.
         23    2    1    2    0    0  0.00000000000E+00  0.00000000000E+00  0.00000000000E+00  0.91188000000E+02  0.91188000000E+02 0.  0.
    9900012    2    3    3    0    0 -0.26842245937E+02 -0.59562310250E+01 -0.29953008116E+02  0.50528861419E+02  0.30000004768E+02 0.  0.
         12    1    3    3    0    0  0.26842245937E+02  0.59562310250E+01  0.29953008116E+02  0.40659138581E+02  0.00000000000E+00 0. -1.
         11    1    4    4    0    0 -0.79501036053E+00  0.95596329388E+00  0.22852568248E+01  0.26015968767E+01  0.51100000000E-03 0. -1.
        -11    1    4    4    0    0 -0.20342854287E+02  0.60761085945E+01 -0.18099948702E+02  0.27899085281E+02  0.51100000000E-03 0.  1.
        -12    1    4    4    0    0 -0.57043812888E+01 -0.12988302913E+02 -0.14138316239E+02  0.20028179261E+02  0.00000000000E+00 0.  1.
</event>
<event>
 8    1  0.2031623E-013  0.9118800E+02  0.7816164E-02  0.1184000E+00
        -11   -1    0    0    0    0  0.00000000000E+00  0.00000000000E+00  0.45593999997E+02  0.45594000000E+02  0.51100000000E-03 0. -1.
         11   -1    0    0    0    0 -0.00000000000E+00 -0.00000000000E+00 -0.45593999997E+02  0.45594000000E+02  0.51100000000E-03 0.  1.
         23    2    1    2    0    0  0.00000000000E+00  0.00000000000E+00 -0.35527136788E-14  0.91188000000E+02  0.91188000000E+02 0.  0.
    9900012    2    3    3    0    0  0.14758824874E+02  0.22154786749E+02 -0.30732844649E+02  0.50528865383E+02  0.30000016820E+02 0.  0.
         12    1    3    3    0    0 -0.14758824874E+02 -0.22154786749E+02  0.30732844649E+02  0.40659134617E+02  0.00000000000E+00 0. -1.
         11    1    4    4    0    0  0.61439186982E+01  0.12344662834E+01  0.94502528733E+00  0.63375639665E+01  0.51100000000E-03 0. -1.
        -11    1    4    4    0    0  0.78649072277E+01  0.24663673582E+02 -0.30872089841E+02  0.40289446405E+02  0.51100000000E-03 0.  1.
        -12    1    4    4    0    0  0.74999894762E+00 -0.37433531158E+01 -0.80578009546E+00  0.39018550118E+01  0.00000000000E+00 0.  1.
</event>
<event>
 8    1  0.2031623E-013  0.9118800E+02  0.7816164E-02  0.1184000E+00
        -11   -1    0    0    0    0  0.00000000000E+00  0.00000000000E+00  0.45593999997E+02  0.45594000000E+02  0.51100000000E-03 0. -1.
         11   -1    0    0    0    0 -0.00000000000E+00 -0.00000000000E+00 -0.45593999997E+02  0.45594000000E+02  0.51100000000E-03 0.  1.
         23    2    1    2    0    0  0.00000000000E+00 -0.22204460493E-15  0.35527136788E-14  0.91188000000E+02  0.91188000000E+02 0.  0.
    9900012    2    3    3    0    0 -0.36345394697E+02  0.11036211439E+01 -0.18192297863E+02  0.50528863305E+02  0.30000010501E+02 0.  0.
         12    1    3    3    0    0  0.36345394697E+02 -0.11036211439E+01  0.18192297863E+02  0.40659136695E+02  0.00000000000E+00 0. -1.
         11    1    4    4    0    0 -0.19554080774E+02 -0.86869730154E+00  0.63027681577E+01  0.20563112523E+02  0.51100000000E-03 0. -1.
        -11    1    4    4    0    0 -0.13268512243E+02  0.11547200775E+01 -0.21398081481E+02  0.25204457679E+02  0.51100000000E-03 0.  1.
         12    1    4    4    0    0 -0.35228016797E+01  0.81759836801E+00 -0.30969845396E+01  0.47612931021E+01  0.00000000000E+00 0. -1.
</event>
<event>
 8    1  0.2031623E-013  0.9118800E+02  0.7816164E-02  0.1184000E+00
        -11   -1    0    0    0    0  0.00000000000E+00  0.00000000000E+00  0.45593999997E+02  0.45594000000E+02  0.51100000000E-03 0. -1.
         11   -1    0    0    0    0 -0.00000000000E+00 -0.00000000000E+00 -0.45593999997E+02  0.45594000000E+02  0.51100000000E-03 0.  1.
         23    2    1    2    0    0  0.00000000000E+00  0.00000000000E+00  0.00000000000E+00  0.91188000000E+02  0.91188000000E+02 0.  0.
    9900012    2    3    3    0    0  0.50448867124E+01 -0.76543115885E+01  0.39612184323E+02  0.50528874152E+02  0.30000043473E+02 0.  0.
        -12    1    3    3    0    0 -0.50448867124E+01  0.76543115885E+01 -0.39612184323E+02  0.40659125848E+02  0.00000000000E+00 0.  1.
         11    1    4    4    0    0  0.14479834465E+02 -0.84745961802E+01  0.18913422083E+02  0.25282442954E+02  0.51100000000E-03 0. -1.
        -11    1    4    4    0    0 -0.58939065723E+01  0.44046526052E+01  0.53652477701E+01  0.91063155640E+01  0.51100000000E-03 0.  1.
         12    1    4    4    0    0 -0.35410411798E+01 -0.35843680135E+01  0.15333514470E+02  0.16140115634E+02  0.00000000000E+00 0. -1.
</event>
<event>
 8    1  0.2031623E-013  0.9118800E+02  0.7816164E-02  0.1184000E+00
        -11   -1    0    0    0    0  0.00000000000E+00  0.00000000000E+00  0.45593999997E+02  0.45594000000E+02  0.51100000000E-03 0. -1.
         11   -1    0    0    0    0 -0.00000000000E+00 -0.00000000000E+00 -0.45593999997E+02  0.45594000000E+02  0.51100000000E-03 0.  1.
         23    2    1    2    0    0 -0.88817841970E-15  0.00000000000E+00  0.00000000000E+00  0.91188000000E+02  0.91188000000E+02 0.  0.
    9900012    2    3    3    0    0  0.75663461939E+01  0.36259080152E+02 -0.16768851872E+02  0.50528869644E+02  0.30000029771E+02 0.  0.
         12    1    3    3    0    0 -0.75663461939E+01 -0.36259080152E+02  0.16768851872E+02  0.40659130356E+02  0.00000000000E+00 0. -1.
         11    1    4    4    0    0 -0.10493689002E+01 -0.52525584773E-01  0.21798401395E+01  0.24198424165E+01  0.51100000000E-03 0. -1.
        -11    1    4    4    0    0  0.72663332146E+01  0.39696665488E+02 -0.15965435683E+02  0.43399539008E+02  0.51100000000E-03 0.  1.
        -12    1    4    4    0    0  0.13493818795E+01 -0.33850597515E+01 -0.29832563282E+01  0.47094882204E+01  0.00000000000E+00 0.  1.
</event>
<event>
 8    1  0.2031623E-013  0.9118800E+02  0.7816164E-02  0.1184000E+00
        -11   -1    0    0    0    0  0.00000000000E+00  0.00000000000E+00  0.45593999997E+02  0.45594000000E+02  0.51100000000E-03 0.  1.
         11   -1    0    0    0    0 -0.00000000000E+00 -0.00000000000E+00 -0.45593999997E+02  0.45594000000E+02  0.51100000000E-03 0. -1.
         23    2    1    2    0    0  0.35527136788E-14  0.00000000000E+00  0.00000000000E+00  0.91188000000E+02  0.91188000000E+02 0.  0.
    9900012    2    3    3    0    0  0.27641425362E+02  0.28128722066E+01 -0.29685027661E+02  0.50528911061E+02  0.30000155661E+02 0.  0.
         12    1    3    3    0    0 -0.27641425362E+02 -0.28128722066E+01  0.29685027661E+02  0.40659088939E+02  0.00000000000E+00 0. -1.
         11    1    4    4    0    0 -0.13039474391E+01  0.41805853840E+01  0.34234404503E+01  0.55585535758E+01  0.51100000000E-03 0. -1.
        -11    1    4    4    0    0  0.24759096463E+02 -0.34301039122E+00 -0.22256493764E+02  0.33293873741E+02  0.51100000000E-03 0.  1.
         12    1    4    4    0    0  0.41862763388E+01 -0.10247027862E+01 -0.10851974347E+02  0.11676483744E+02  0.00000000000E+00 0. -1.
</event>
<event>
 8    1  0.2031623E-013  0.9118800E+02  0.7816164E-02  0.1184000E+00
        -11   -1    0    0    0    0  0.00000000000E+00  0.00000000000E+00  0.45593999997E+02  0.45594000000E+02  0.51100000000E-03 0. -1.
         11   -1    0    0    0    0 -0.00000000000E+00 -0.00000000000E+00 -0.45593999997E+02  0.45594000000E+02  0.51100000000E-03 0.  1.
         23    2    1    2    0    0 -0.17763568394E-14 -0.35527136788E-14  0.71054273576E-14  0.91188000000E+02  0.91188000000E+02 0.  0.
    9900012    2    3    3    0    0  0.85410051791E+01  0.20674296312E+02 -0.33952762100E+02  0.50528863860E+02  0.30000012188E+02 0.  0.
         12    1    3    3    0    0 -0.85410051791E+01 -0.20674296312E+02  0.33952762100E+02  0.40659136140E+02  0.00000000000E+00 0. -1.
         11    1    4    4    0    0 -0.10996020894E+01 -0.16627940590E+01 -0.17632433689E+02  0.17744766183E+02  0.51100000000E-03 0. -1.
        -11    1    4    4    0    0  0.26255247331E+01  0.21033387886E+02 -0.10979585817E+02  0.23871491178E+02  0.51100000000E-03 0.  1.
        -12    1    4    4    0    0  0.70150825354E+01  0.13037024850E+01 -0.53407425939E+01  0.89126064988E+01  0.00000000000E+00 0.  1.
</event>
<event>
 8    1  0.2031623E-013  0.9118800E+02  0.7816164E-02  0.1184000E+00
        -11   -1    0    0    0    0  0.00000000000E+00  0.00000000000E+00  0.45593999997E+02  0.45594000000E+02  0.51100000000E-03 0. -1.
         11   -1    0    0    0    0 -0.00000000000E+00 -0.00000000000E+00 -0.45593999997E+02  0.45594000000E+02  0.51100000000E-03 0.  1.
         23    2    1    2    0    0 -0.13322676296E-14  0.00000000000E+00  0.00000000000E+00  0.91188000000E+02  0.91188000000E+02 0.  0.
    9900012    2    3    3    0    0  0.30410656992E+01 -0.14058079960E+02  0.38030086241E+02  0.50528866312E+02  0.30000019642E+02 0.  0.
        -12    1    3    3    0    0 -0.30410656992E+01  0.14058079960E+02 -0.38030086241E+02  0.40659133688E+02  0.00000000000E+00 0.  1.
         11    1    4    4    0    0 -0.97243116356E+01 -0.35894757187E+01  0.83867035242E+01  0.13333543002E+02  0.51100000000E-03 0. -1.
        -11    1    4    4    0    0  0.15812328056E+02 -0.60613391530E+01  0.24382935139E+02  0.29686648129E+02  0.51100000000E-03 0.  1.
        -12    1    4    4    0    0 -0.30469507213E+01 -0.44072650879E+01  0.52604475780E+01  0.75086751811E+01  0.00000000000E+00 0.  1.
</event>
<event>
 8    1  0.2031623E-013  0.9118800E+02  0.7816164E-02  0.1184000E+00
        -11   -1    0    0    0    0  0.00000000000E+00  0.00000000000E+00  0.45593999997E+02  0.45594000000E+02  0.51100000000E-03 0. -1.
         11   -1    0    0    0    0 -0.00000000000E+00 -0.00000000000E+00 -0.45593999997E+02  0.45594000000E+02  0.51100000000E-03 0.  1.
         23    2    1    2    0    0  0.00000000000E+00 -0.35527136788E-14  0.00000000000E+00  0.91188000000E+02  0.91188000000E+02 0.  0.
    9900012    2    3    3    0    0 -0.10220407131E+02  0.22925355127E+02 -0.31986513252E+02  0.50528860072E+02  0.30000000676E+02 0.  0.
         12    1    3    3    0    0  0.10220407131E+02 -0.22925355127E+02  0.31986513252E+02  0.40659139928E+02  0.00000000000E+00 0. -1.
         11    1    4    4    0    0 -0.89345624175E+01  0.64226956494E+01 -0.41928976465E+01  0.11775305343E+02  0.51100000000E-03 0. -1.
        -11    1    4    4    0    0  0.76909919525E+01  0.16017468279E+00 -0.44845770110E+01  0.89044058966E+01  0.51100000000E-03 0.  1.
        -12    1    4    4    0    0 -0.89768366664E+01  0.16342484795E+02 -0.23309038595E+02  0.29849148832E+02  0.00000000000E+00 0.  1.
</event>
<event>
 8    1  0.2031623E-013  0.9118800E+02  0.7816164E-02  0.1184000E+00
        -11   -1    0    0    0    0  0.00000000000E+00  0.00000000000E+00  0.45593999997E+02  0.45594000000E+02  0.51100000000E-03 0. -1.
         11   -1    0    0    0    0 -0.00000000000E+00 -0.00000000000E+00 -0.45593999997E+02  0.45594000000E+02  0.51100000000E-03 0.  1.
         23    2    1    2    0    0  0.00000000000E+00  0.00000000000E+00 -0.35527136788E-14  0.91188000000E+02  0.91188000000E+02 0.  0.
    9900012    2    3    3    0    0 -0.33261237525E+02  0.12037969517E+02 -0.20048509617E+02  0.50528863638E+02  0.30000011515E+02 0.  0.
         12    1    3    3    0    0  0.33261237525E+02 -0.12037969517E+02  0.20048509617E+02  0.40659136362E+02  0.00000000000E+00 0. -1.
         11    1    4    4    0    0 -0.48212762102E+01  0.68945082403E+01 -0.18535797152E+02  0.20355704962E+02  0.51100000000E-03 0. -1.
        -11    1    4    4    0    0 -0.20636995679E+02  0.73691859503E+01 -0.22347393254E+01  0.22026905192E+02  0.51100000000E-03 0.  1.
         12    1    4    4    0    0 -0.78029656366E+01 -0.22257246731E+01  0.72202686110E+00  0.81462534845E+01  0.00000000000E+00 0. -1.
</event>
<event>
 8    1  0.2031623E-013  0.9118800E+02  0.7816164E-02  0.1184000E+00
        -11   -1    0    0    0    0  0.00000000000E+00  0.00000000000E+00  0.45593999997E+02  0.45594000000E+02  0.51100000000E-03 0.  1.
         11   -1    0    0    0    0 -0.00000000000E+00 -0.00000000000E+00 -0.45593999997E+02  0.45594000000E+02  0.51100000000E-03 0. -1.
         23    2    1    2    0    0  0.00000000000E+00 -0.17763568394E-14  0.00000000000E+00  0.91188000000E+02  0.91188000000E+02 0.  0.
    9900012    2    3    3    0    0 -0.33756415727E+02 -0.11414908045E+02 -0.19579847388E+02  0.50528854016E+02  0.29999982266E+02 0.  0.
         12    1    3    3    0    0  0.33756415727E+02  0.11414908045E+02  0.19579847388E+02  0.40659145984E+02  0.00000000000E+00 0. -1.
         11    1    4    4    0    0  0.38980210457E+01 -0.27665563637E+01 -0.36893355248E+01  0.60381784556E+01  0.51100000000E-03 0. -1.
        -11    1    4    4    0    0 -0.33589362837E+02 -0.12586174064E+02 -0.14263109080E+02  0.38601727349E+02  0.51100000000E-03 0.  1.
        -12    1    4    4    0    0 -0.40650739357E+01  0.39378223826E+01 -0.16274027829E+01  0.58889482115E+01  0.00000000000E+00 0.  1.
</event>
<event>
 8    1  0.2031623E-013  0.9118800E+02  0.7816164E-02  0.1184000E+00
        -11   -1    0    0    0    0  0.00000000000E+00  0.00000000000E+00  0.45593999997E+02  0.45594000000E+02  0.51100000000E-03 0. -1.
         11   -1    0    0    0    0 -0.00000000000E+00 -0.00000000000E+00 -0.45593999997E+02  0.45594000000E+02  0.51100000000E-03 0.  1.
         23    2    1    2    0    0  0.00000000000E+00  0.00000000000E+00 -0.35527136788E-14  0.91188000000E+02  0.91188000000E+02 0.  0.
    9900012    2    3    3    0    0  0.49536823640E+01  0.32022797497E+02  0.24559478521E+02  0.50528849570E+02  0.29999968753E+02 0.  0.
        -12    1    3    3    0    0 -0.49536823640E+01 -0.32022797497E+02 -0.24559478521E+02  0.40659150430E+02  0.00000000000E+00 0.  1.
         11    1    4    4    0    0 -0.18432821162E+01  0.11776812788E+02  0.97311787163E+01  0.15387879902E+02  0.51100000000E-03 0. -1.
        -11    1    4    4    0    0  0.14532845359E+02  0.13440192359E+02  0.40022846051E+01  0.20195560086E+02  0.51100000000E-03 0.  1.
        -12    1    4    4    0    0 -0.77358808786E+01  0.68057923496E+01  0.10826015199E+02  0.14945409582E+02  0.00000000000E+00 0.  1.
</event>
<event>
 8    1  0.2031623E-013  0.9118800E+02  0.7816164E-02  0.1184000E+00
        -11   -1    0    0    0    0  0.00000000000E+00  0.00000000000E+00  0.45593999997E+02  0.45594000000E+02  0.51100000000E-03 0. -1.
         11   -1    0    0    0    0 -0.00000000000E+00 -0.00000000000E+00 -0.45593999997E+02  0.45594000000E+02  0.51100000000E-03 0.  1.
         23    2    1    2    0    0  0.00000000000E+00 -0.35527136788E-14  0.00000000000E+00  0.91188000000E+02  0.91188000000E+02 0.  0.
    9900012    2    3    3    0    0  0.16852467857E+02  0.18129925071E+02 -0.32256248729E+02  0.50528862797E+02  0.30000008959E+02 0.  0.
         12    1    3    3    0    0 -0.16852467857E+02 -0.18129925071E+02  0.32256248729E+02  0.40659137203E+02  0.00000000000E+00 0. -1.
         11    1    4    4    0    0  0.68948895604E+01  0.27963727752E+00 -0.21895615766E+02  0.22957257874E+02  0.51100000000E-03 0.  1.
        -11    1    4    4    0    0  0.12039220315E+02  0.19458648855E+02 -0.88191092892E+01  0.24522612625E+02  0.51100000000E-03 0. -1.
         12    1    4    4    0    0 -0.20816420180E+01 -0.16083610616E+01 -0.15415236744E+01  0.30489922982E+01  0.00000000000E+00 0. -1.
</event>
<event>
 8    1  0.2031623E-013  0.9118800E+02  0.7816164E-02  0.1184000E+00
        -11   -1    0    0    0    0  0.00000000000E+00  0.00000000000E+00  0.45593999997E+02  0.45594000000E+02  0.51100000000E-03 0. -1.
         11   -1    0    0    0    0 -0.00000000000E+00 -0.00000000000E+00 -0.45593999997E+02  0.45594000000E+02  0.51100000000E-03 0.  1.
         23    2    1    2    0    0  0.35527136788E-14  0.00000000000E+00  0.00000000000E+00  0.91188000000E+02  0.91188000000E+02 0.  0.
    9900012    2    3    3    0    0  0.26100656366E+02  0.15395157705E+02  0.27109235312E+02  0.50528858559E+02  0.29999996076E+02 0.  0.
        -12    1    3    3    0    0 -0.26100656366E+02 -0.15395157705E+02 -0.27109235312E+02  0.40659141441E+02  0.00000000000E+00 0.  1.
         11    1    4    4    0    0  0.87228835293E+01 -0.74045831515E+00  0.71326837226E+01  0.11292127919E+02  0.51100000000E-03 0. -1.
        -11    1    4    4    0    0  0.95782497205E+01  0.20563004009E+02  0.75419082219E+01  0.23905237532E+02  0.51100000000E-03 0.  1.
        -12    1    4    4    0    0  0.77995231160E+01 -0.44273879889E+01  0.12434643368E+02  0.15331493108E+02  0.00000000000E+00 0.  1.
</event>
<event>
 8    1  0.2031623E-013  0.9118800E+02  0.7816164E-02  0.1184000E+00
        -11   -1    0    0    0    0  0.00000000000E+00  0.00000000000E+00  0.45593999997E+02  0.45594000000E+02  0.51100000000E-03 0. -1.
         11   -1    0    0    0    0 -0.00000000000E+00 -0.00000000000E+00 -0.45593999997E+02  0.45594000000E+02  0.51100000000E-03 0.  1.
         23    2    1    2    0    0 -0.88817841970E-15  0.00000000000E+00 -0.71054273576E-14  0.91188000000E+02  0.91188000000E+02 0.  0.
    9900012    2    3    3    0    0  0.51207504996E+01 -0.57962683384E+01 -0.39916722046E+02  0.50528886492E+02  0.30000080982E+02 0.  0.
         12    1    3    3    0    0 -0.51207504996E+01  0.57962683384E+01  0.39916722046E+02  0.40659113508E+02  0.00000000000E+00 0. -1.
         11    1    4    4    0    0 -0.73987147144E+01  0.21082659146E+01 -0.18072196603E+01  0.79026456174E+01  0.51100000000E-03 0. -1.
        -11    1    4    4    0    0  0.11600337449E+02 -0.91680072550E+00 -0.27807472532E+02  0.30144052173E+02  0.51100000000E-03 0.  1.
        -12    1    4    4    0    0  0.91912776516E+00 -0.69877335275E+01 -0.10302029853E+02  0.12482188702E+02  0.00000000000E+00 0.  1.
</event>
<event>
 8    1  0.2031623E-013  0.9118800E+02  0.7816164E-02  0.1184000E+00
        -11   -1    0    0    0    0  0.00000000000E+00  0.00000000000E+00  0.45593999997E+02  0.45594000000E+02  0.51100000000E-03 0. -1.
         11   -1    0    0    0    0 -0.00000000000E+00 -0.00000000000E+00 -0.45593999997E+02  0.45594000000E+02  0.51100000000E-03 0.  1.
         23    2    1    2    0    0  0.17763568394E-14  0.00000000000E+00  0.00000000000E+00  0.91188000000E+02  0.91188000000E+02 0.  0.
    9900012    2    3    3    0    0 -0.11346114799E+02 -0.21171943285E+02  0.32805183946E+02  0.50528860840E+02  0.30000003009E+02 0.  0.
        -12    1    3    3    0    0  0.11346114799E+02  0.21171943285E+02 -0.32805183946E+02  0.40659139160E+02  0.00000000000E+00 0.  1.
         11    1    4    4    0    0  0.71180385086E+01 -0.14376866063E+02  0.11691307480E+02  0.19850627719E+02  0.51100000000E-03 0. -1.
        -11    1    4    4    0    0 -0.92546922408E+01 -0.36510769652E+01  0.34846086639E+01  0.10541451004E+02  0.51100000000E-03 0.  1.
         12    1    4    4    0    0 -0.92094610663E+01 -0.31440002567E+01  0.17629267802E+02  0.20136782116E+02  0.00000000000E+00 0. -1.
</event>
<event>
 8    1  0.2031623E-013  0.9118800E+02  0.7816164E-02  0.1184000E+00
        -11   -1    0    0    0    0  0.00000000000E+00  0.00000000000E+00  0.45593999997E+02  0.45594000000E+02  0.51100000000E-03 0. -1.
         11   -1    0    0    0    0 -0.00000000000E+00 -0.00000000000E+00 -0.45593999997E+02  0.45594000000E+02  0.51100000000E-03 0.  1.
         23    2    1    2    0    0  0.00000000000E+00  0.35527136788E-14  0.00000000000E+00  0.91188000000E+02  0.91188000000E+02 0.  0.
    9900012    2    3    3    0    0 -0.20624817823E+02  0.23365247810E+02 -0.26112189765E+02  0.50528875934E+02  0.30000048890E+02 0.  0.
         12    1    3    3    0    0  0.20624817823E+02 -0.23365247810E+02  0.26112189765E+02  0.40659124066E+02  0.00000000000E+00 0. -1.
         11    1    4    4    0    0 -0.21017555151E+01  0.63492796226E+01 -0.88114315491E+00  0.67458981234E+01  0.51100000000E-03 0. -1.
        -11    1    4    4    0    0 -0.11485830230E+02  0.24459819914E+01 -0.24977641857E+02  0.27600538346E+02  0.51100000000E-03 0.  1.
        -12    1    4    4    0    0 -0.70372320773E+01  0.14569986196E+02 -0.25340475315E+00  0.16182439465E+02  0.00000000000E+00 0.  1.
</event>
<event>
 8    1  0.2031623E-013  0.9118800E+02  0.7816164E-02  0.1184000E+00
        -11   -1    0    0    0    0  0.00000000000E+00  0.00000000000E+00  0.45593999997E+02  0.45594000000E+02  0.51100000000E-03 0. -1.
         11   -1    0    0    0    0 -0.00000000000E+00 -0.00000000000E+00 -0.45593999997E+02  0.45594000000E+02  0.51100000000E-03 0.  1.
         23    2    1    2    0    0  0.00000000000E+00  0.00000000000E+00  0.00000000000E+00  0.91188000000E+02  0.91188000000E+02 0.  0.
    9900012    2    3    3    0    0  0.16749111685E+02  0.14688873538E+02 -0.34012793739E+02  0.50528857289E+02  0.29999992216E+02 0.  0.
         12    1    3    3    0    0 -0.16749111685E+02 -0.14688873538E+02  0.34012793739E+02  0.40659142711E+02  0.00000000000E+00 0. -1.
         11    1    4    4    0    0  0.35831453078E+01  0.25751293019E+01 -0.14363575435E+01  0.46404034816E+01  0.51100000000E-03 0. -1.
        -11    1    4    4    0    0  0.19316202974E+02  0.15946635353E+02 -0.24513158803E+02  0.35047194341E+02  0.51100000000E-03 0.  1.
        -12    1    4    4    0    0 -0.61502365966E+01 -0.38328911168E+01 -0.80632773927E+01  0.10841259466E+02  0.00000000000E+00 0.  1.
</event>
<event>
 8    1  0.2031623E-013  0.9118800E+02  0.7816164E-02  0.1184000E+00
        -11   -1    0    0    0    0  0.00000000000E+00  0.00000000000E+00  0.45593999997E+02  0.45594000000E+02  0.51100000000E-03 0. -1.
         11   -1    0    0    0    0 -0.00000000000E+00 -0.00000000000E+00 -0.45593999997E+02  0.45594000000E+02  0.51100000000E-03 0.  1.
         23    2    1    2    0    0  0.00000000000E+00  0.88817841970E-15  0.00000000000E+00  0.91188000000E+02  0.91188000000E+02 0.  0.
    9900012    2    3    3    0    0 -0.69696066236E+01 -0.61971246572E+01  0.39575066969E+02  0.50528859624E+02  0.29999999313E+02 0.  0.
        -12    1    3    3    0    0  0.69696066236E+01  0.61971246572E+01 -0.39575066969E+02  0.40659140376E+02  0.00000000000E+00 0.  1.
         11    1    4    4    0    0 -0.35095088338E+01 -0.81200787353E-01  0.33575539079E+02  0.33758555516E+02  0.51100000000E-03 0. -1.
        -11    1    4    4    0    0 -0.87726688006E+01 -0.52951690941E+01  0.33761886759E+01  0.10788752655E+02  0.51100000000E-03 0.  1.
         12    1    4    4    0    0  0.53125710108E+01 -0.82075477574E+00  0.26233392143E+01  0.59815514526E+01  0.00000000000E+00 0. -1.
</event>
<event>
 8    1  0.2031623E-013  0.9118800E+02  0.7816164E-02  0.1184000E+00
        -11   -1    0    0    0    0  0.00000000000E+00  0.00000000000E+00  0.45593999997E+02  0.45594000000E+02  0.51100000000E-03 0. -1.
         11   -1    0    0    0    0 -0.00000000000E+00 -0.00000000000E+00 -0.45593999997E+02  0.45594000000E+02  0.51100000000E-03 0.  1.
         23    2    1    2    0    0 -0.35527136788E-14  0.00000000000E+00  0.00000000000E+00  0.91188000000E+02  0.91188000000E+02 0.  0.
    9900012    2    3    3    0    0 -0.21589397401E+02  0.32742389945E+02  0.10723791212E+02  0.50528857395E+02  0.29999992536E+02 0.  0.
        -12    1    3    3    0    0  0.21589397401E+02 -0.32742389945E+02 -0.10723791212E+02  0.40659142605E+02  0.00000000000E+00 0.  1.
         11    1    4    4    0    0 -0.21256948489E+02  0.10741559494E+02  0.89173896332E+01  0.25431452918E+02  0.51100000000E-03 0. -1.
        -11    1    4    4    0    0 -0.24822779465E+01  0.99594092841E+01 -0.46476191302E+01  0.11267293416E+02  0.51100000000E-03 0.  1.
         12    1    4    4    0    0  0.21498290346E+01  0.12041421167E+02  0.64540207093E+01  0.13830111060E+02  0.00000000000E+00 0. -1.
</event>
<event>
 8    1  0.2031623E-013  0.9118800E+02  0.7816164E-02  0.1184000E+00
        -11   -1    0    0    0    0  0.00000000000E+00  0.00000000000E+00  0.45593999997E+02  0.45594000000E+02  0.51100000000E-03 0. -1.
         11   -1    0    0    0    0 -0.00000000000E+00 -0.00000000000E+00 -0.45593999997E+02  0.45594000000E+02  0.51100000000E-03 0.  1.
         23    2    1    2    0    0 -0.12767564783E-14  0.00000000000E+00  0.71054273576E-14  0.91188000000E+02  0.91188000000E+02 0.  0.
    9900012    2    3    3    0    0  0.42028414528E+00 -0.19377111178E+01 -0.40610767385E+02  0.50528858460E+02  0.29999995775E+02 0.  0.
         12    1    3    3    0    0 -0.42028414528E+00  0.19377111178E+01  0.40610767385E+02  0.40659141540E+02  0.00000000000E+00 0. -1.
         11    1    4    4    0    0  0.26013216323E+01  0.23379194399E+01  0.15983000939E+01  0.38454265034E+01  0.51100000000E-03 0. -1.
        -11    1    4    4    0    0 -0.96611443140E+01 -0.49305561333E+01 -0.15356536409E+02  0.18800832534E+02  0.51100000000E-03 0.  1.
        -12    1    4    4    0    0  0.74801068270E+01  0.65492557567E+00 -0.26852531071E+02  0.27882599423E+02  0.00000000000E+00 0.  1.
</event>
<event>
 8    1  0.2031623E-013  0.9118800E+02  0.7816164E-02  0.1184000E+00
        -11   -1    0    0    0    0  0.00000000000E+00  0.00000000000E+00  0.45593999997E+02  0.45594000000E+02  0.51100000000E-03 0. -1.
         11   -1    0    0    0    0 -0.00000000000E+00 -0.00000000000E+00 -0.45593999997E+02  0.45594000000E+02  0.51100000000E-03 0.  1.
         23    2    1    2    0    0  0.17763568394E-14  0.22204460493E-15  0.00000000000E+00  0.91188000000E+02  0.91188000000E+02 0.  0.
    9900012    2    3    3    0    0 -0.11797174176E+02  0.13547586533E+01  0.38886482421E+02  0.50528841073E+02  0.29999942925E+02 0.  0.
        -12    1    3    3    0    0  0.11797174176E+02 -0.13547586533E+01 -0.38886482421E+02  0.40659158927E+02  0.00000000000E+00 0.  1.
         11    1    4    4    0    0 -0.60215378137E+01  0.31535925579E+01  0.41006742714E+02  0.41566296587E+02  0.51100000000E-03 0. -1.
        -11    1    4    4    0    0 -0.49939026284E+01 -0.33991346834E+01 -0.32437614193E+01  0.68567607851E+01  0.51100000000E-03 0.  1.
         12    1    4    4    0    0 -0.78173373438E+00  0.16003007788E+01  0.11235011261E+01  0.21057837008E+01  0.00000000000E+00 0. -1.
</event>
<event>
 8    1  0.2031623E-013  0.9118800E+02  0.7816164E-02  0.1184000E+00
        -11   -1    0    0    0    0  0.00000000000E+00  0.00000000000E+00  0.45593999997E+02  0.45594000000E+02  0.51100000000E-03 0. -1.
         11   -1    0    0    0    0 -0.00000000000E+00 -0.00000000000E+00 -0.45593999997E+02  0.45594000000E+02  0.51100000000E-03 0.  1.
         23    2    1    2    0    0  0.00000000000E+00 -0.35527136788E-14  0.00000000000E+00  0.91188000000E+02  0.91188000000E+02 0.  0.
    9900012    2    3    3    0    0 -0.28183171949E+02 -0.23628769313E+02 -0.17336567152E+02  0.50528849972E+02  0.29999969975E+02 0.  0.
         12    1    3    3    0    0  0.28183171949E+02  0.23628769313E+02  0.17336567152E+02  0.40659150028E+02  0.00000000000E+00 0. -1.
         11    1    4    4    0    0 -0.29205100904E+02 -0.28712216957E+02 -0.16325765573E+02  0.44089227065E+02  0.51100000000E-03 0.  1.
        -11    1    4    4    0    0  0.21691488794E+01  0.46021527858E+01 -0.56915768990E+00  0.51194685136E+01  0.51100000000E-03 0. -1.
        -12    1    4    4    0    0 -0.11472199250E+01  0.48129485839E+00 -0.44164388895E+00  0.13201543931E+01  0.00000000000E+00 0.  1.
</event>
<event>
 8    1  0.2031623E-013  0.9118800E+02  0.7816164E-02  0.1184000E+00
        -11   -1    0    0    0    0  0.00000000000E+00  0.00000000000E+00  0.45593999997E+02  0.45594000000E+02  0.51100000000E-03 0. -1.
         11   -1    0    0    0    0 -0.00000000000E+00 -0.00000000000E+00 -0.45593999997E+02  0.45594000000E+02  0.51100000000E-03 0.  1.
         23    2    1    2    0    0  0.88817841970E-15  0.00000000000E+00  0.00000000000E+00  0.91188000000E+02  0.91188000000E+02 0.  0.
    9900012    2    3    3    0    0 -0.79165558242E+01 -0.34803236806E+02  0.19473774152E+02  0.50528867840E+02  0.30000024286E+02 0.  0.
        -12    1    3    3    0    0  0.79165558242E+01  0.34803236806E+02 -0.19473774152E+02  0.40659132160E+02  0.00000000000E+00 0.  1.
         11    1    4    4    0    0 -0.14175773061E+02 -0.22064606398E+02  0.51329557921E+01  0.26723522089E+02  0.51100000000E-03 0. -1.
        -11    1    4    4    0    0  0.18875972697E+01 -0.11649012564E+02  0.15174896425E+02  0.19223423185E+02  0.51100000000E-03 0.  1.
         12    1    4    4    0    0  0.43716199672E+01 -0.10896178437E+01 -0.83407806523E+00  0.45819225661E+01  0.00000000000E+00 0. -1.
</event>
<event>
 8    1  0.2031623E-013  0.9118800E+02  0.7816164E-02  0.1184000E+00
        -11   -1    0    0    0    0  0.00000000000E+00  0.00000000000E+00  0.45593999997E+02  0.45594000000E+02  0.51100000000E-03 0. -1.
         11   -1    0    0    0    0 -0.00000000000E+00 -0.00000000000E+00 -0.45593999997E+02  0.45594000000E+02  0.51100000000E-03 0.  1.
         23    2    1    2    0    0 -0.17763568394E-14  0.00000000000E+00 -0.71054273576E-14  0.91188000000E+02  0.91188000000E+02 0.  0.
    9900012    2    3    3    0    0  0.96797188145E+01  0.10615707828E+02  0.38036508117E+02  0.50528853934E+02  0.29999982019E+02 0.  0.
        -12    1    3    3    0    0 -0.96797188145E+01 -0.10615707828E+02 -0.38036508117E+02  0.40659146066E+02  0.00000000000E+00 0.  1.
         11    1    4    4    0    0  0.10392354649E+02  0.14204347518E+02  0.70727208529E+01  0.18968075920E+02  0.51100000000E-03 0.  1.
        -11    1    4    4    0    0 -0.25391688884E+01 -0.77641926977E+00  0.16580874137E+02  0.16792128899E+02  0.51100000000E-03 0. -1.
         12    1    4    4    0    0  0.18265330539E+01 -0.28122204200E+01  0.14382913127E+02  0.14768649116E+02  0.00000000000E+00 0. -1.
</event>
<event>
 8    1  0.2031623E-013  0.9118800E+02  0.7816164E-02  0.1184000E+00
        -11   -1    0    0    0    0  0.00000000000E+00  0.00000000000E+00  0.45593999997E+02  0.45594000000E+02  0.51100000000E-03 0. -1.
         11   -1    0    0    0    0 -0.00000000000E+00 -0.00000000000E+00 -0.45593999997E+02  0.45594000000E+02  0.51100000000E-03 0.  1.
         23    2    1    2    0    0  0.00000000000E+00 -0.71054273576E-14 -0.66613381478E-15  0.91188000000E+02  0.91188000000E+02 0.  0.
    9900012    2    3    3    0    0  0.16958118278E+02 -0.36905718342E+02 -0.18857560730E+01  0.50528857144E+02  0.29999991774E+02 0.  0.
         12    1    3    3    0    0 -0.16958118278E+02  0.36905718342E+02  0.18857560730E+01  0.40659142856E+02  0.00000000000E+00 0. -1.
         11    1    4    4    0    0  0.11884155698E+01 -0.21815127102E+01  0.58126894926E+01  0.63212885292E+01  0.51100000000E-03 0. -1.
        -11    1    4    4    0    0  0.19159779867E+02 -0.20951266663E+02 -0.72092354647E+00  0.28400219548E+02  0.51100000000E-03 0.  1.
        -12    1    4    4    0    0 -0.33900771596E+01 -0.13772938969E+02 -0.69775220191E+01  0.15807349067E+02  0.00000000000E+00 0.  1.
</event>
<event>
 8    1  0.2031623E-013  0.9118800E+02  0.7816164E-02  0.1184000E+00
        -11   -1    0    0    0    0  0.00000000000E+00  0.00000000000E+00  0.45593999997E+02  0.45594000000E+02  0.51100000000E-03 0. -1.
         11   -1    0    0    0    0 -0.00000000000E+00 -0.00000000000E+00 -0.45593999997E+02  0.45594000000E+02  0.51100000000E-03 0.  1.
         23    2    1    2    0    0  0.35527136788E-14 -0.35527136788E-14  0.00000000000E+00  0.91188000000E+02  0.91188000000E+02 0.  0.
    9900012    2    3    3    0    0  0.17714289528E+02  0.31118755380E+02 -0.19261148076E+02  0.50528870458E+02  0.30000032246E+02 0.  0.
         12    1    3    3    0    0 -0.17714289528E+02 -0.31118755380E+02  0.19261148076E+02  0.40659129542E+02  0.00000000000E+00 0. -1.
         11    1    4    4    0    0  0.19052361393E+02  0.59725641978E+01 -0.43951402742E+01  0.20444589897E+02  0.51100000000E-03 0. -1.
        -11    1    4    4    0    0 -0.20467767120E+01  0.54830280237E+01 -0.63758912237E+01  0.86547605613E+01  0.51100000000E-03 0.  1.
         12    1    4    4    0    0  0.70870484736E+00  0.19663163158E+02 -0.84901165779E+01  0.21429520001E+02  0.00000000000E+00 0. -1.
</event>
<event>
 8    1  0.2031623E-013  0.9118800E+02  0.7816164E-02  0.1184000E+00
        -11   -1    0    0    0    0  0.00000000000E+00  0.00000000000E+00  0.45593999997E+02  0.45594000000E+02  0.51100000000E-03 0. -1.
         11   -1    0    0    0    0 -0.00000000000E+00 -0.00000000000E+00 -0.45593999997E+02  0.45594000000E+02  0.51100000000E-03 0.  1.
         23    2    1    2    0    0  0.35527136788E-14  0.88817841970E-15 -0.71054273576E-14  0.91188000000E+02  0.91188000000E+02 0.  0.
    9900012    2    3    3    0    0 -0.24744796839E+02 -0.14210657364E+01  0.32231057790E+02  0.50528862224E+02  0.30000007217E+02 0.  0.
        -12    1    3    3    0    0  0.24744796839E+02  0.14210657364E+01 -0.32231057790E+02  0.40659137776E+02  0.00000000000E+00 0.  1.
         11    1    4    4    0    0 -0.19587960735E+02 -0.54119112506E+01  0.30095062472E+02  0.36313768389E+02  0.51100000000E-03 0. -1.
        -11    1    4    4    0    0 -0.71198518664E+01  0.59670943753E+01 -0.17307178213E+01  0.94495444505E+01  0.51100000000E-03 0.  1.
        -12    1    4    4    0    0  0.19630157622E+01 -0.19762488611E+01  0.38667131385E+01  0.47655493848E+01  0.00000000000E+00 0.  1.
</event>
<event>
 8    1  0.2031623E-013  0.9118800E+02  0.7816164E-02  0.1184000E+00
        -11   -1    0    0    0    0  0.00000000000E+00  0.00000000000E+00  0.45593999997E+02  0.45594000000E+02  0.51100000000E-03 0.  1.
         11   -1    0    0    0    0 -0.00000000000E+00 -0.00000000000E+00 -0.45593999997E+02  0.45594000000E+02  0.51100000000E-03 0. -1.
         23    2    1    2    0    0 -0.88817841970E-15  0.00000000000E+00  0.00000000000E+00  0.91188000000E+02  0.91188000000E+02 0.  0.
    9900012    2    3    3    0    0  0.76412587128E+01  0.33137027665E+02 -0.22287086623E+02  0.50528859978E+02  0.30000000388E+02 0.  0.
         12    1    3    3    0    0 -0.76412587128E+01 -0.33137027665E+02  0.22287086623E+02  0.40659140022E+02  0.00000000000E+00 0. -1.
         11    1    4    4    0    0 -0.57854271364E+01  0.66187191213E+01 -0.69646217845E+01  0.11215371898E+02  0.51100000000E-03 0. -1.
        -11    1    4    4    0    0  0.12586154857E+02  0.11397115833E+02 -0.17059916985E+02  0.24069613856E+02  0.51100000000E-03 0.  1.
        -12    1    4    4    0    0  0.84053099245E+00  0.15121192711E+02  0.17374521464E+01  0.15243874223E+02  0.00000000000E+00 0.  1.
</event>
<event>
 8    1  0.2031623E-013  0.9118800E+02  0.7816164E-02  0.1184000E+00
        -11   -1    0    0    0    0  0.00000000000E+00  0.00000000000E+00  0.45593999997E+02  0.45594000000E+02  0.51100000000E-03 0. -1.
         11   -1    0    0    0    0 -0.00000000000E+00 -0.00000000000E+00 -0.45593999997E+02  0.45594000000E+02  0.51100000000E-03 0.  1.
         23    2    1    2    0    0  0.00000000000E+00  0.35527136788E-14  0.71054273576E-14  0.91188000000E+02  0.91188000000E+02 0.  0.
    9900012    2    3    3    0    0  0.19636095246E+02 -0.13311438531E+02  0.33021115063E+02  0.50528872214E+02  0.30000037583E+02 0.  0.
        -12    1    3    3    0    0 -0.19636095246E+02  0.13311438531E+02 -0.33021115063E+02  0.40659127786E+02  0.00000000000E+00 0.  1.
         11    1    4    4    0    0  0.91533899584E+01  0.21757153263E+01  0.17329228504E+02  0.19718530517E+02  0.51100000000E-03 0. -1.
        -11    1    4    4    0    0  0.10518821688E+02 -0.18283559606E+02  0.78873525723E+01  0.22519868837E+02  0.51100000000E-03 0.  1.
         12    1    4    4    0    0 -0.36116400179E-01  0.27964057492E+01  0.78045339863E+01  0.82904728606E+01  0.00000000000E+00 0. -1.
</event>
<event>
 8    1  0.2031623E-013  0.9118800E+02  0.7816164E-02  0.1184000E+00
        -11   -1    0    0    0    0  0.00000000000E+00  0.00000000000E+00  0.45593999997E+02  0.45594000000E+02  0.51100000000E-03 0. -1.
         11   -1    0    0    0    0 -0.00000000000E+00 -0.00000000000E+00 -0.45593999997E+02  0.45594000000E+02  0.51100000000E-03 0.  1.
         23    2    1    2    0    0  0.00000000000E+00  0.55511151231E-16  0.35527136788E-14  0.91188000000E+02  0.91188000000E+02 0.  0.
    9900012    2    3    3    0    0  0.35892408462E+02 -0.33252036226E+00 -0.19099450124E+02  0.50528873717E+02  0.30000042151E+02 0.  0.
         12    1    3    3    0    0 -0.35892408462E+02  0.33252036226E+00  0.19099450124E+02  0.40659126283E+02  0.00000000000E+00 0. -1.
         11    1    4    4    0    0 -0.11568698799E+01 -0.31065176431E+00 -0.14166611787E+01  0.18552039225E+01  0.51100000000E-03 0. -1.
        -11    1    4    4    0    0  0.38416835656E+02 -0.64912148310E-01 -0.21913401356E+02  0.44227306436E+02  0.51100000000E-03 0.  1.
        -12    1    4    4    0    0 -0.13675573135E+01  0.43043550354E-01  0.42306124100E+01  0.44463633586E+01  0.00000000000E+00 0.  1.
</event>
<event>
 8    1  0.2031623E-013  0.9118800E+02  0.7816164E-02  0.1184000E+00
        -11   -1    0    0    0    0  0.00000000000E+00  0.00000000000E+00  0.45593999997E+02  0.45594000000E+02  0.51100000000E-03 0. -1.
         11   -1    0    0    0    0 -0.00000000000E+00 -0.00000000000E+00 -0.45593999997E+02  0.45594000000E+02  0.51100000000E-03 0.  1.
         23    2    1    2    0    0  0.71054273576E-14  0.69388939039E-15 -0.88817841970E-15  0.91188000000E+02  0.91188000000E+02 0.  0.
    9900012    2    3    3    0    0 -0.40009327813E+02  0.10303058944E+00  0.72393914187E+01  0.50528859386E+02  0.29999998591E+02 0.  0.
        -12    1    3    3    0    0  0.40009327813E+02 -0.10303058944E+00 -0.72393914187E+01  0.40659140614E+02  0.00000000000E+00 0.  1.
         11    1    4    4    0    0 -0.16867281512E+02 -0.65109521952E+01  0.11505251440E+02  0.21430550507E+02  0.51100000000E-03 0.  1.
        -11    1    4    4    0    0 -0.85560073814E+01  0.98170602593E+01 -0.54523593786E+01  0.14117654107E+02  0.51100000000E-03 0. -1.
         12    1    4    4    0    0 -0.14586038919E+02 -0.32030774746E+01  0.11864993574E+01  0.14980654772E+02  0.00000000000E+00 0. -1.
</event>
<event>
 8    1  0.2031623E-013  0.9118800E+02  0.7816164E-02  0.1184000E+00
        -11   -1    0    0    0    0  0.00000000000E+00  0.00000000000E+00  0.45593999997E+02  0.45594000000E+02  0.51100000000E-03 0. -1.
         11   -1    0    0    0    0 -0.00000000000E+00 -0.00000000000E+00 -0.45593999997E+02  0.45594000000E+02  0.51100000000E-03 0.  1.
         23    2    1    2    0    0  0.00000000000E+00  0.00000000000E+00  0.00000000000E+00  0.91188000000E+02  0.91188000000E+02 0.  0.
    9900012    2    3    3    0    0 -0.91530579484E+00  0.22116108480E+02  0.34105807679E+02  0.50528853963E+02  0.29999982106E+02 0.  0.
        -12    1    3    3    0    0  0.91530579484E+00 -0.22116108480E+02 -0.34105807679E+02  0.40659146037E+02  0.00000000000E+00 0.  1.
         11    1    4    4    0    0 -0.34894655514E+01  0.14944729118E+02  0.30470960822E+02  0.34117455238E+02  0.51100000000E-03 0. -1.
        -11    1    4    4    0    0 -0.30490431081E+01 -0.16771468222E+01 -0.24810900424E+01  0.42737914547E+01  0.51100000000E-03 0.  1.
         12    1    4    4    0    0  0.56232028647E+01  0.88485261841E+01  0.61159368998E+01  0.12137607270E+02  0.00000000000E+00 0. -1.
</event>
<event>
 8    1  0.2031623E-013  0.9118800E+02  0.7816164E-02  0.1184000E+00
        -11   -1    0    0    0    0  0.00000000000E+00  0.00000000000E+00  0.45593999997E+02  0.45594000000E+02  0.51100000000E-03 0. -1.
         11   -1    0    0    0    0 -0.00000000000E+00 -0.00000000000E+00 -0.45593999997E+02  0.45594000000E+02  0.51100000000E-03 0.  1.
         23    2    1    2    0    0  0.00000000000E+00 -0.35527136788E-14  0.66613381478E-15  0.91188000000E+02  0.91188000000E+02 0.  0.
    9900012    2    3    3    0    0  0.36060338529E+02 -0.18723167252E+02  0.15034703932E+01  0.50528862896E+02  0.30000009259E+02 0.  0.
        -12    1    3    3    0    0 -0.36060338529E+02  0.18723167252E+02 -0.15034703932E+01  0.40659137104E+02  0.00000000000E+00 0.  1.
         11    1    4    4    0    0  0.13560936530E+02 -0.18059604915E+02 -0.32333238338E+01  0.22814528541E+02  0.51100000000E-03 0. -1.
        -11    1    4    4    0    0 -0.52931714500E+00 -0.15310217362E+01  0.43762623767E+01  0.46664629911E+01  0.51100000000E-03 0.  1.
         12    1    4    4    0    0  0.23028719144E+02  0.86745939869E+00  0.36053185033E+00  0.23047871364E+02  0.00000000000E+00 0. -1.
</event>
<event>
 8    1  0.2031623E-013  0.9118800E+02  0.7816164E-02  0.1184000E+00
        -11   -1    0    0    0    0  0.00000000000E+00  0.00000000000E+00  0.45593999997E+02  0.45594000000E+02  0.51100000000E-03 0. -1.
         11   -1    0    0    0    0 -0.00000000000E+00 -0.00000000000E+00 -0.45593999997E+02  0.45594000000E+02  0.51100000000E-03 0.  1.
         23    2    1    2    0    0  0.00000000000E+00  0.00000000000E+00  0.00000000000E+00  0.91188000000E+02  0.91188000000E+02 0.  0.
    9900012    2    3    3    0    0  0.64612302812E+01  0.21568850020E+02 -0.33855612139E+02  0.50528864972E+02  0.30000015568E+02 0.  0.
         12    1    3    3    0    0 -0.64612302812E+01 -0.21568850020E+02  0.33855612139E+02  0.40659135028E+02  0.00000000000E+00 0. -1.
         11    1    4    4    0    0  0.87167393866E+00  0.77634475564E+01 -0.16689515529E-01  0.78122475779E+01  0.51100000000E-03 0. -1.
        -11    1    4    4    0    0 -0.62990953202E+01  0.18010900258E+01 -0.19452855734E+02  0.20526473726E+02  0.51100000000E-03 0.  1.
        -12    1    4    4    0    0  0.11888651663E+02  0.12004312438E+02 -0.14386066889E+02  0.22190143668E+02  0.00000000000E+00 0.  1.
</event>
<event>
 8    1  0.2031623E-013  0.9118800E+02  0.7816164E-02  0.1184000E+00
        -11   -1    0    0    0    0  0.00000000000E+00  0.00000000000E+00  0.45593999997E+02  0.45594000000E+02  0.51100000000E-03 0. -1.
         11   -1    0    0    0    0 -0.00000000000E+00 -0.00000000000E+00 -0.45593999997E+02  0.45594000000E+02  0.51100000000E-03 0.  1.
         23    2    1    2    0    0  0.00000000000E+00  0.00000000000E+00  0.00000000000E+00  0.91188000000E+02  0.91188000000E+02 0.  0.
    9900012    2    3    3    0    0  0.25513064097E+02 -0.18374201312E+02 -0.25780556034E+02  0.50528870855E+02  0.30000033450E+02 0.  0.
         12    1    3    3    0    0 -0.25513064097E+02  0.18374201312E+02  0.25780556034E+02  0.40659129145E+02  0.00000000000E+00 0. -1.
         11    1    4    4    0    0  0.49928011048E+01 -0.86919964436E+01  0.26612709572E+01  0.10371172953E+02  0.51100000000E-03 0. -1.
        -11    1    4    4    0    0  0.19021505981E+02 -0.15538741149E+01 -0.24341348205E+02  0.30931108083E+02  0.51100000000E-03 0.  1.
        -12    1    4    4    0    0  0.14987570107E+01 -0.81283307531E+01 -0.41004787857E+01  0.92265898186E+01  0.00000000000E+00 0.  1.
</event>
<event>
 8    1  0.2031623E-013  0.9118800E+02  0.7816164E-02  0.1184000E+00
        -11   -1    0    0    0    0  0.00000000000E+00  0.00000000000E+00  0.45593999997E+02  0.45594000000E+02  0.51100000000E-03 0. -1.
         11   -1    0    0    0    0 -0.00000000000E+00 -0.00000000000E+00 -0.45593999997E+02  0.45594000000E+02  0.51100000000E-03 0.  1.
         23    2    1    2    0    0  0.71054273576E-14  0.88817841970E-15  0.00000000000E+00  0.91188000000E+02  0.91188000000E+02 0.  0.
    9900012    2    3    3    0    0 -0.37723524771E+02 -0.70349481785E+01  0.13439249556E+02  0.50528828272E+02  0.29999904015E+02 0.  0.
        -12    1    3    3    0    0  0.37723524771E+02  0.70349481785E+01 -0.13439249556E+02  0.40659171728E+02  0.00000000000E+00 0.  1.
         11    1    4    4    0    0 -0.23027594616E+02 -0.38546144137E+01 -0.56171989855E+01  0.24014185199E+02  0.51100000000E-03 0. -1.
        -11    1    4    4    0    0  0.60286690299E+00 -0.17308018966E+01  0.62420701683E+01  0.65055794481E+01  0.51100000000E-03 0.  1.
         12    1    4    4    0    0 -0.15298797058E+02 -0.14495318682E+01  0.12814378373E+02  0.20009063625E+02  0.00000000000E+00 0. -1.
</event>
<event>
 8    1  0.2031623E-013  0.9118800E+02  0.7816164E-02  0.1184000E+00
        -11   -1    0    0    0    0  0.00000000000E+00  0.00000000000E+00  0.45593999997E+02  0.45594000000E+02  0.51100000000E-03 0. -1.
         11   -1    0    0    0    0 -0.00000000000E+00 -0.00000000000E+00 -0.45593999997E+02  0.45594000000E+02  0.51100000000E-03 0.  1.
         23    2    1    2    0    0 -0.17763568394E-14 -0.55511151231E-16  0.00000000000E+00  0.91188000000E+02  0.91188000000E+02 0.  0.
    9900012    2    3    3    0    0  0.14922118116E+02  0.33520258974E+00  0.37820414279E+02  0.50528859502E+02  0.29999998941E+02 0.  0.
        -12    1    3    3    0    0 -0.14922118116E+02 -0.33520258974E+00 -0.37820414279E+02  0.40659140498E+02  0.00000000000E+00 0.  1.
         11    1    4    4    0    0  0.48924834382E+01  0.95164358659E+01  0.11710596254E+02  0.15863070657E+02  0.51100000000E-03 0. -1.
        -11    1    4    4    0    0  0.33251543914E+01 -0.10169253061E+02  0.25744341486E+02  0.27879050887E+02  0.51100000000E-03 0.  1.
        -12    1    4    4    0    0  0.67044802866E+01  0.98801978447E+00  0.36547653870E+00  0.67867379578E+01  0.00000000000E+00 0.  1.
</event>
<event>
 8    1  0.2031623E-013  0.9118800E+02  0.7816164E-02  0.1184000E+00
        -11   -1    0    0    0    0  0.00000000000E+00  0.00000000000E+00  0.45593999997E+02  0.45594000000E+02  0.51100000000E-03 0. -1.
         11   -1    0    0    0    0 -0.00000000000E+00 -0.00000000000E+00 -0.45593999997E+02  0.45594000000E+02  0.51100000000E-03 0.  1.
         23    2    1    2    0    0  0.00000000000E+00  0.35527136788E-14  0.00000000000E+00  0.91188000000E+02  0.91188000000E+02 0.  0.
    9900012    2    3    3    0    0 -0.13739205578E+02 -0.24602251970E+02 -0.29310937814E+02  0.50528835628E+02  0.29999926374E+02 0.  0.
         12    1    3    3    0    0  0.13739205578E+02  0.24602251970E+02  0.29310937814E+02  0.40659164372E+02  0.00000000000E+00 0. -1.
         11    1    4    4    0    0  0.30548819483E+01 -0.66353410907E+01  0.13453160224E+01  0.74276463681E+01  0.51100000000E-03 0. -1.
        -11    1    4    4    0    0 -0.45649228309E+01 -0.69426326869E+01 -0.23901818529E+02  0.25304853256E+02  0.51100000000E-03 0.  1.
        -12    1    4    4    0    0 -0.12229164696E+02 -0.11024278192E+02 -0.67544353078E+01  0.17796336003E+02  0.00000000000E+00 0.  1.
</event>
<event>
 8    1  0.2031623E-013  0.9118800E+02  0.7816164E-02  0.1184000E+00
        -11   -1    0    0    0    0  0.00000000000E+00  0.00000000000E+00  0.45593999997E+02  0.45594000000E+02  0.51100000000E-03 0. -1.
         11   -1    0    0    0    0 -0.00000000000E+00 -0.00000000000E+00 -0.45593999997E+02  0.45594000000E+02  0.51100000000E-03 0.  1.
         23    2    1    2    0    0  0.35527136788E-14  0.00000000000E+00 -0.35527136788E-14  0.91188000000E+02  0.91188000000E+02 0.  0.
    9900012    2    3    3    0    0 -0.25272705630E+02 -0.20618900201E+02  0.24275842302E+02  0.50528865542E+02  0.30000017303E+02 0.  0.
        -12    1    3    3    0    0  0.25272705630E+02  0.20618900201E+02 -0.24275842302E+02  0.40659134458E+02  0.00000000000E+00 0.  1.
         11    1    4    4    0    0 -0.26065326962E+02 -0.17763109649E+02  0.27685291567E+02  0.41969092240E+02  0.51100000000E-03 0. -1.
        -11    1    4    4    0    0  0.33041182518E+01 -0.12309903944E+01  0.58010141043E+00  0.35733811272E+01  0.51100000000E-03 0.  1.
         12    1    4    4    0    0 -0.25114969197E+01 -0.16248001577E+01 -0.39895506755E+01  0.49863921750E+01  0.00000000000E+00 0. -1.
</event>
<event>
 8    1  0.2031623E-013  0.9118800E+02  0.7816164E-02  0.1184000E+00
        -11   -1    0    0    0    0  0.00000000000E+00  0.00000000000E+00  0.45593999997E+02  0.45594000000E+02  0.51100000000E-03 0. -1.
         11   -1    0    0    0    0 -0.00000000000E+00 -0.00000000000E+00 -0.45593999997E+02  0.45594000000E+02  0.51100000000E-03 0.  1.
         23    2    1    2    0    0  0.35527136788E-14  0.00000000000E+00  0.35527136788E-14  0.91188000000E+02  0.91188000000E+02 0.  0.
    9900012    2    3    3    0    0  0.29140262724E+02 -0.14028261081E+01 -0.28320359646E+02  0.50528860766E+02  0.30000002786E+02 0.  0.
         12    1    3    3    0    0 -0.29140262724E+02  0.14028261081E+01  0.28320359646E+02  0.40659139234E+02  0.00000000000E+00 0. -1.
         11    1    4    4    0    0  0.74028384633E+01  0.11419073652E+02 -0.38060078807E+01  0.14130922002E+02  0.51100000000E-03 0. -1.
        -11    1    4    4    0    0  0.13672211541E+02 -0.29506783308E+01 -0.14861821031E+02  0.20408566722E+02  0.51100000000E-03 0.  1.
         12    1    4    4    0    0  0.80652127198E+01 -0.98712214292E+01 -0.96525307347E+01  0.15989372042E+02  0.00000000000E+00 0. -1.
</event>
<event>
 8    1  0.2031623E-013  0.9118800E+02  0.7816164E-02  0.1184000E+00
        -11   -1    0    0    0    0  0.00000000000E+00  0.00000000000E+00  0.45593999997E+02  0.45594000000E+02  0.51100000000E-03 0. -1.
         11   -1    0    0    0    0 -0.00000000000E+00 -0.00000000000E+00 -0.45593999997E+02  0.45594000000E+02  0.51100000000E-03 0.  1.
         23    2    1    2    0    0  0.88817841970E-15  0.35527136788E-14  0.00000000000E+00  0.91188000000E+02  0.91188000000E+02 0.  0.
    9900012    2    3    3    0    0 -0.75136749517E+01 -0.18588061093E+02 -0.35372291936E+02  0.50528802230E+02  0.29999824857E+02 0.  0.
         12    1    3    3    0    0  0.75136749517E+01  0.18588061093E+02  0.35372291936E+02  0.40659197770E+02  0.00000000000E+00 0. -1.
         11    1    4    4    0    0  0.19929357253E+01  0.60369067648E+00  0.25082357312E+01  0.32599818991E+01  0.51100000000E-03 0. -1.
        -11    1    4    4    0    0 -0.13028969341E+02 -0.91435181338E+01 -0.14306679918E+02  0.21401847035E+02  0.51100000000E-03 0.  1.
        -12    1    4    4    0    0  0.35223586643E+01 -0.10048233636E+02 -0.23573847749E+02  0.25866973296E+02  0.00000000000E+00 0.  1.
</event>
<event>
 8    1  0.2031623E-013  0.9118800E+02  0.7816164E-02  0.1184000E+00
        -11   -1    0    0    0    0  0.00000000000E+00  0.00000000000E+00  0.45593999997E+02  0.45594000000E+02  0.51100000000E-03 0. -1.
         11   -1    0    0    0    0 -0.00000000000E+00 -0.00000000000E+00 -0.45593999997E+02  0.45594000000E+02  0.51100000000E-03 0.  1.
         23    2    1    2    0    0  0.00000000000E+00  0.88817841970E-15  0.71054273576E-14  0.91188000000E+02  0.91188000000E+02 0.  0.
    9900012    2    3    3    0    0  0.48578216039E+01  0.69106556867E+01  0.39771979281E+02  0.50528856764E+02  0.29999990620E+02 0.  0.
        -12    1    3    3    0    0 -0.48578216039E+01 -0.69106556867E+01 -0.39771979281E+02  0.40659143236E+02  0.00000000000E+00 0.  1.
         11    1    4    4    0    0  0.97388158744E+01  0.12120989952E+01  0.28632558396E+02  0.30267757089E+02  0.51100000000E-03 0. -1.
        -11    1    4    4    0    0 -0.74228276718E+01  0.88624290846E+01  0.11345298516E+02  0.16197432470E+02  0.51100000000E-03 0.  1.
        -12    1    4    4    0    0  0.25418334012E+01 -0.31638723931E+01 -0.20587763126E+00  0.40636672056E+01  0.00000000000E+00 0.  1.
</event>
<event>
 8    1  0.3126138E-013  0.9118800E+02  0.7816164E-02  0.1184000E+00
        -11   -1    0    0    0    0  0.00000000000E+00  0.00000000000E+00  0.45593999997E+02  0.45594000000E+02  0.51100000000E-03 0. -1.
         11   -1    0    0    0    0 -0.00000000000E+00 -0.00000000000E+00 -0.45593999997E+02  0.45594000000E+02  0.51100000000E-03 0.  1.
         23    2    1    2    0    0  0.88817841970E-15  0.00000000000E+00  0.00000000000E+00  0.91188000000E+02  0.91188000000E+02 0.  0.
    9900012    2    3    3    0    0 -0.50112906276E+01  0.22376741011E+02 -0.33575797573E+02  0.50528858904E+02  0.29999997124E+02 0.  0.
         12    1    3    3    0    0  0.50112906276E+01 -0.22376741011E+02  0.33575797573E+02  0.40659141096E+02  0.00000000000E+00 0. -1.
         11    1    4    4    0    0  0.24033512870E+01  0.63844929484E+01  0.31035597372E+01  0.74946601605E+01  0.51100000000E-03 0. -1.
        -11    1    4    4    0    0  0.31076308701E+01  0.75972414898E+01 -0.19874944287E+02  0.21503229027E+02  0.51100000000E-03 0.  1.
         12    1    4    4    0    0 -0.10522272785E+02  0.83950065723E+01 -0.16804413023E+02  0.21530969717E+02  0.00000000000E+00 0. -1.
</event>
<event>
 8    1  0.2031623E-013  0.9118800E+02  0.7816164E-02  0.1184000E+00
        -11   -1    0    0    0    0  0.00000000000E+00  0.00000000000E+00  0.45593999997E+02  0.45594000000E+02  0.51100000000E-03 0. -1.
         11   -1    0    0    0    0 -0.00000000000E+00 -0.00000000000E+00 -0.45593999997E+02  0.45594000000E+02  0.51100000000E-03 0.  1.
         23    2    1    2    0    0  0.00000000000E+00  0.11102230246E-15  0.00000000000E+00  0.91188000000E+02  0.91188000000E+02 0.  0.
    9900012    2    3    3    0    0  0.10743353046E+02  0.74800993391E+00 -0.39206977748E+02  0.50528852718E+02  0.29999978321E+02 0.  0.
         12    1    3    3    0    0 -0.10743353046E+02 -0.74800993391E+00  0.39206977748E+02  0.40659147282E+02  0.00000000000E+00 0. -1.
         11    1    4    4    0    0  0.13366684658E+02 -0.45637134397E+01 -0.14959095185E+02  0.20573533195E+02  0.51100000000E-03 0.  1.
        -11    1    4    4    0    0 -0.46982952529E+01  0.11876385416E+00 -0.23894158376E+02  0.24351979137E+02  0.51100000000E-03 0. -1.
        -12    1    4    4    0    0  0.20749636410E+01  0.51929595195E+01 -0.35372418790E+00  0.56033403862E+01  0.00000000000E+00 0.  1.
</event>
<event>
 8    1  0.2031623E-013  0.9118800E+02  0.7816164E-02  0.1184000E+00
        -11   -1    0    0    0    0  0.00000000000E+00  0.00000000000E+00  0.45593999997E+02  0.45594000000E+02  0.51100000000E-03 0.  1.
         11   -1    0    0    0    0 -0.00000000000E+00 -0.00000000000E+00 -0.45593999997E+02  0.45594000000E+02  0.51100000000E-03 0. -1.
         23    2    1    2    0    0  0.49960036108E-15  0.00000000000E+00  0.00000000000E+00  0.91188000000E+02  0.91188000000E+02 0.  0.
    9900012    2    3    3    0    0  0.23737535072E+00 -0.40572363657E+02 -0.26443354232E+01  0.50528861426E+02  0.30000004789E+02 0.  0.
         12    1    3    3    0    0 -0.23737535072E+00  0.40572363657E+02  0.26443354232E+01  0.40659138574E+02  0.00000000000E+00 0. -1.
         11    1    4    4    0    0  0.10119459269E+00 -0.14334327043E+02 -0.39129722477E+01  0.14859156241E+02  0.51100000000E-03 0. -1.
        -11    1    4    4    0    0  0.11934513490E+02 -0.10532940003E+02  0.18015453248E+01  0.16019394595E+02  0.51100000000E-03 0.  1.
        -12    1    4    4    0    0 -0.11798332732E+02 -0.15705096611E+02 -0.53290850026E+00  0.19650310590E+02  0.00000000000E+00 0.  1.
</event>
<event>
 8    1  0.2031623E-013  0.9118800E+02  0.7816164E-02  0.1184000E+00
        -11   -1    0    0    0    0  0.00000000000E+00  0.00000000000E+00  0.45593999997E+02  0.45594000000E+02  0.51100000000E-03 0.  1.
         11   -1    0    0    0    0 -0.00000000000E+00 -0.00000000000E+00 -0.45593999997E+02  0.45594000000E+02  0.51100000000E-03 0. -1.
         23    2    1    2    0    0 -0.88817841970E-15  0.00000000000E+00  0.17763568394E-14  0.91188000000E+02  0.91188000000E+02 0.  0.
    9900012    2    3    3    0    0 -0.49887175025E+01  0.39042546696E+02 -0.10195960359E+02  0.50528863727E+02  0.30000011783E+02 0.  0.
         12    1    3    3    0    0  0.49887175025E+01 -0.39042546696E+02  0.10195960359E+02  0.40659136273E+02  0.00000000000E+00 0. -1.
         11    1    4    4    0    0  0.11381967357E+02  0.22150664061E+02 -0.67111908961E+01  0.25792269826E+02  0.51100000000E-03 0. -1.
        -11    1    4    4    0    0 -0.63492741153E+01  0.84817234492E+01 -0.47137151478E+01  0.11596207363E+02  0.51100000000E-03 0.  1.
         12    1    4    4    0    0 -0.10021410745E+02  0.84101591862E+01  0.12289456851E+01  0.13140386537E+02  0.00000000000E+00 0. -1.
</event>
<event>
 8    1  0.2031623E-013  0.9118800E+02  0.7816164E-02  0.1184000E+00
        -11   -1    0    0    0    0  0.00000000000E+00  0.00000000000E+00  0.45593999997E+02  0.45594000000E+02  0.51100000000E-03 0. -1.
         11   -1    0    0    0    0 -0.00000000000E+00 -0.00000000000E+00 -0.45593999997E+02  0.45594000000E+02  0.51100000000E-03 0.  1.
         23    2    1    2    0    0 -0.35527136788E-14  0.71054273576E-14 -0.15543122345E-14  0.91188000000E+02  0.91188000000E+02 0.  0.
    9900012    2    3    3    0    0 -0.19083254219E+02  0.35900859641E+02  0.33646170528E+00  0.50528984751E+02  0.30000379647E+02 0.  0.
        -12    1    3    3    0    0  0.19083254219E+02 -0.35900859641E+02 -0.33646170528E+00  0.40659015249E+02  0.00000000000E+00 0.  1.
         11    1    4    4    0    0 -0.14159782102E+02  0.10744280216E+02 -0.68308390628E+00  0.17787793298E+02  0.51100000000E-03 0. -1.
        -11    1    4    4    0    0  0.23820159480E+01  0.38752675875E+01  0.79829469519E+01  0.91879889611E+01  0.51100000000E-03 0.  1.
        -12    1    4    4    0    0 -0.73054880646E+01  0.21281311838E+02 -0.69634013403E+01  0.23553202492E+02  0.00000000000E+00 0.  1.
</event>
<event>
 8    1  0.2031623E-013  0.9118800E+02  0.7816164E-02  0.1184000E+00
        -11   -1    0    0    0    0  0.00000000000E+00  0.00000000000E+00  0.45593999997E+02  0.45594000000E+02  0.51100000000E-03 0.  1.
         11   -1    0    0    0    0 -0.00000000000E+00 -0.00000000000E+00 -0.45593999997E+02  0.45594000000E+02  0.51100000000E-03 0. -1.
         23    2    1    2    0    0  0.00000000000E+00  0.00000000000E+00  0.00000000000E+00  0.91188000000E+02  0.91188000000E+02 0.  0.
    9900012    2    3    3    0    0 -0.38106173068E+02 -0.98542127175E+01 -0.10197077529E+02  0.50528851898E+02  0.29999975831E+02 0.  0.
         12    1    3    3    0    0  0.38106173068E+02  0.98542127175E+01  0.10197077529E+02  0.40659148102E+02  0.00000000000E+00 0. -1.
         11    1    4    4    0    0 -0.55056573466E+01  0.68424549587E+01  0.13197841926E+01  0.88810631828E+01  0.51100000000E-03 0. -1.
        -11    1    4    4    0    0 -0.20874005449E+02 -0.18491221494E+02 -0.10278447567E+02  0.29720293748E+02  0.51100000000E-03 0.  1.
        -12    1    4    4    0    0 -0.11726510273E+02  0.17945538176E+01 -0.12384141546E+01  0.11927494968E+02  0.00000000000E+00 0.  1.
</event>
<event>
 8    1  0.2031623E-013  0.9118800E+02  0.7816164E-02  0.1184000E+00
        -11   -1    0    0    0    0  0.00000000000E+00  0.00000000000E+00  0.45593999997E+02  0.45594000000E+02  0.51100000000E-03 0. -1.
         11   -1    0    0    0    0 -0.00000000000E+00 -0.00000000000E+00 -0.45593999997E+02  0.45594000000E+02  0.51100000000E-03 0.  1.
         23    2    1    2    0    0  0.00000000000E+00 -0.44408920985E-15  0.00000000000E+00  0.91188000000E+02  0.91188000000E+02 0.  0.
    9900012    2    3    3    0    0 -0.10879821346E+02  0.25347494421E+01 -0.39094386954E+02  0.50528849018E+02  0.29999967076E+02 0.  0.
         12    1    3    3    0    0  0.10879821346E+02 -0.25347494421E+01  0.39094386954E+02  0.40659150982E+02  0.00000000000E+00 0. -1.
         11    1    4    4    0    0 -0.72959397776E+01 -0.28641824042E+00 -0.30016161813E+01  0.78944583480E+01  0.51100000000E-03 0. -1.
        -11    1    4    4    0    0  0.35388400868E+01  0.57808480964E+01 -0.33962785954E+02  0.34632534182E+02  0.51100000000E-03 0.  1.
        -12    1    4    4    0    0 -0.71227216555E+01 -0.29596804138E+01 -0.21299848188E+01  0.80018564885E+01  0.00000000000E+00 0.  1.
</event>
<event>
 8    1  0.2031623E-013  0.9118800E+02  0.7816164E-02  0.1184000E+00
        -11   -1    0    0    0    0  0.00000000000E+00  0.00000000000E+00  0.45593999997E+02  0.45594000000E+02  0.51100000000E-03 0. -1.
         11   -1    0    0    0    0 -0.00000000000E+00 -0.00000000000E+00 -0.45593999997E+02  0.45594000000E+02  0.51100000000E-03 0.  1.
         23    2    1    2    0    0  0.00000000000E+00 -0.35527136788E-14  0.17763568394E-14  0.91188000000E+02  0.91188000000E+02 0.  0.
    9900012    2    3    3    0    0  0.25947451815E+02 -0.29671531835E+02  0.99747972606E+01  0.50528848047E+02  0.29999964124E+02 0.  0.
        -12    1    3    3    0    0 -0.25947451815E+02  0.29671531835E+02 -0.99747972606E+01  0.40659151953E+02  0.00000000000E+00 0.  1.
         11    1    4    4    0    0  0.34584060052E+01 -0.89753465956E+01  0.11012472381E+02  0.14621626681E+02  0.51100000000E-03 0. -1.
        -11    1    4    4    0    0  0.14594477775E+02 -0.23277566479E+02 -0.19928011782E+01  0.27546599418E+02  0.51100000000E-03 0.  1.
        -12    1    4    4    0    0  0.78945680348E+01  0.25813812397E+01  0.95512605784E+00  0.83606219474E+01  0.00000000000E+00 0.  1.
</event>
<event>
 8    1  0.2031623E-013  0.9118800E+02  0.7816164E-02  0.1184000E+00
        -11   -1    0    0    0    0  0.00000000000E+00  0.00000000000E+00  0.45593999997E+02  0.45594000000E+02  0.51100000000E-03 0. -1.
         11   -1    0    0    0    0 -0.00000000000E+00 -0.00000000000E+00 -0.45593999997E+02  0.45594000000E+02  0.51100000000E-03 0.  1.
         23    2    1    2    0    0  0.19984014443E-14 -0.71054273576E-14  0.00000000000E+00  0.91188000000E+02  0.91188000000E+02 0.  0.
    9900012    2    3    3    0    0  0.14595206703E+01  0.28480170461E+02  0.28981312491E+02  0.50528846248E+02  0.29999958657E+02 0.  0.
        -12    1    3    3    0    0 -0.14595206703E+01 -0.28480170461E+02 -0.28981312491E+02  0.40659153752E+02  0.00000000000E+00 0.  1.
         11    1    4    4    0    0 -0.93292285971E+01  0.86688651874E+01  0.39587967392E+01  0.13336258911E+02  0.51100000000E-03 0. -1.
        -11    1    4    4    0    0  0.10408042914E+02  0.11330909728E+02  0.24182756964E+02  0.28662215671E+02  0.51100000000E-03 0.  1.
        -12    1    4    4    0    0  0.38070635336E+00  0.84803955459E+01  0.83975878858E+00  0.85303716664E+01  0.00000000000E+00 0.  1.
</event>
<event>
 8    1  0.2031623E-013  0.9118800E+02  0.7816164E-02  0.1184000E+00
        -11   -1    0    0    0    0  0.00000000000E+00  0.00000000000E+00  0.45593999997E+02  0.45594000000E+02  0.51100000000E-03 0. -1.
         11   -1    0    0    0    0 -0.00000000000E+00 -0.00000000000E+00 -0.45593999997E+02  0.45594000000E+02  0.51100000000E-03 0.  1.
         23    2    1    2    0    0  0.00000000000E+00  0.00000000000E+00 -0.71054273576E-14  0.91188000000E+02  0.91188000000E+02 0.  0.
    9900012    2    3    3    0    0  0.16048136716E+02  0.13248156148E+02 -0.34930104875E+02  0.50528824406E+02  0.29999892264E+02 0.  0.
         12    1    3    3    0    0 -0.16048136716E+02 -0.13248156148E+02  0.34930104875E+02  0.40659175594E+02  0.00000000000E+00 0. -1.
         11    1    4    4    0    0 -0.47174993139E+01  0.42276176115E+01 -0.61695508034E+01  0.88425622884E+01  0.51100000000E-03 0. -1.
        -11    1    4    4    0    0  0.12287269491E+02 -0.41736755519E+01 -0.19651335063E+02  0.23549342436E+02  0.51100000000E-03 0.  1.
        -12    1    4    4    0    0  0.84783665396E+01  0.13194214088E+02 -0.91092190088E+01  0.18136919682E+02  0.00000000000E+00 0.  1.
</event>
<event>
 8    1  0.2031623E-013  0.9118800E+02  0.7816164E-02  0.1184000E+00
        -11   -1    0    0    0    0  0.00000000000E+00  0.00000000000E+00  0.45593999997E+02  0.45594000000E+02  0.51100000000E-03 0. -1.
         11   -1    0    0    0    0 -0.00000000000E+00 -0.00000000000E+00 -0.45593999997E+02  0.45594000000E+02  0.51100000000E-03 0.  1.
         23    2    1    2    0    0  0.00000000000E+00 -0.17763568394E-14  0.00000000000E+00  0.91188000000E+02  0.91188000000E+02 0.  0.
    9900012    2    3    3    0    0  0.83455427118E+01 -0.97538916320E+01  0.38579537162E+02  0.50528841465E+02  0.29999944117E+02 0.  0.
        -12    1    3    3    0    0 -0.83455427118E+01  0.97538916320E+01 -0.38579537162E+02  0.40659158535E+02  0.00000000000E+00 0.  1.
         11    1    4    4    0    0  0.10117287486E+02 -0.84661809170E+01  0.41821422090E+01  0.13839293302E+02  0.51100000000E-03 0. -1.
        -11    1    4    4    0    0 -0.63932774679E+01  0.19255652202E+01  0.23419241841E+02  0.24352467777E+02  0.51100000000E-03 0.  1.
         12    1    4    4    0    0  0.46215326937E+01 -0.32132759352E+01  0.10978153112E+02  0.12337080385E+02  0.00000000000E+00 0. -1.
</event>
<event>
 8    1  0.2031623E-013  0.9118800E+02  0.7816164E-02  0.1184000E+00
        -11   -1    0    0    0    0  0.00000000000E+00  0.00000000000E+00  0.45593999997E+02  0.45594000000E+02  0.51100000000E-03 0. -1.
         11   -1    0    0    0    0 -0.00000000000E+00 -0.00000000000E+00 -0.45593999997E+02  0.45594000000E+02  0.51100000000E-03 0.  1.
         23    2    1    2    0    0  0.00000000000E+00  0.00000000000E+00  0.00000000000E+00  0.91188000000E+02  0.91188000000E+02 0.  0.
    9900012    2    3    3    0    0  0.84584703711E+01  0.42479095310E+01  0.39542096554E+02  0.50528833060E+02  0.29999918568E+02 0.  0.
        -12    1    3    3    0    0 -0.84584703711E+01 -0.42479095310E+01 -0.39542096554E+02  0.40659166940E+02  0.00000000000E+00 0.  1.
         11    1    4    4    0    0  0.62854514411E+01 -0.25974039174E+01  0.29786174949E+02  0.30552735152E+02  0.51100000000E-03 0. -1.
        -11    1    4    4    0    0 -0.17592603617E+01 -0.24498094142E+01 -0.26280063173E+01  0.40003725640E+01  0.51100000000E-03 0.  1.
        -12    1    4    4    0    0  0.39322792917E+01  0.92951228625E+01  0.12383927922E+02  0.15975725343E+02  0.00000000000E+00 0.  1.
</event>
<event>
 8    1  0.2031623E-013  0.9118800E+02  0.7816164E-02  0.1184000E+00
        -11   -1    0    0    0    0  0.00000000000E+00  0.00000000000E+00  0.45593999997E+02  0.45594000000E+02  0.51100000000E-03 0.  1.
         11   -1    0    0    0    0 -0.00000000000E+00 -0.00000000000E+00 -0.45593999997E+02  0.45594000000E+02  0.51100000000E-03 0. -1.
         23    2    1    2    0    0 -0.17763568394E-14  0.00000000000E+00  0.35527136788E-14  0.91188000000E+02  0.91188000000E+02 0.  0.
    9900012    2    3    3    0    0 -0.31790837190E+01 -0.37095971942E+02  0.16338541232E+02  0.50528860349E+02  0.30000001516E+02 0.  0.
        -12    1    3    3    0    0  0.31790837190E+01  0.37095971942E+02 -0.16338541232E+02  0.40659139651E+02  0.00000000000E+00 0.  1.
         11    1    4    4    0    0  0.43025172300E+01 -0.85058092554E+01 -0.22450386119E+01  0.97928874308E+01  0.51100000000E-03 0. -1.
        -11    1    4    4    0    0 -0.97575225957E+01 -0.12986747772E+02  0.18954953711E+02  0.24963075438E+02  0.51100000000E-03 0.  1.
        -12    1    4    4    0    0  0.22759216467E+01 -0.15603414915E+02 -0.37137386725E+00  0.15772897480E+02  0.00000000000E+00 0.  1.
</event>
<event>
 8    1  0.2031623E-013  0.9118800E+02  0.7816164E-02  0.1184000E+00
        -11   -1    0    0    0    0  0.00000000000E+00  0.00000000000E+00  0.45593999997E+02  0.45594000000E+02  0.51100000000E-03 0. -1.
         11   -1    0    0    0    0 -0.00000000000E+00 -0.00000000000E+00 -0.45593999997E+02  0.45594000000E+02  0.51100000000E-03 0.  1.
         23    2    1    2    0    0 -0.35527136788E-14  0.00000000000E+00  0.35527136788E-14  0.91188000000E+02  0.91188000000E+02 0.  0.
    9900012    2    3    3    0    0  0.10562372690E+02 -0.25670740481E+02 -0.29708815404E+02  0.50528876222E+02  0.30000049765E+02 0.  0.
         12    1    3    3    0    0 -0.10562372690E+02  0.25670740481E+02  0.29708815404E+02  0.40659123778E+02  0.00000000000E+00 0. -1.
         11    1    4    4    0    0 -0.71166442070E+01 -0.13483147154E+02 -0.58076708851E+01  0.16314745580E+02  0.51100000000E-03 0. -1.
        -11    1    4    4    0    0  0.19075596673E+02 -0.93596839355E+01 -0.21681803720E+02  0.30357580348E+02  0.51100000000E-03 0.  1.
        -12    1    4    4    0    0 -0.13965797755E+01 -0.28279093910E+01 -0.22193407990E+01  0.38565502946E+01  0.00000000000E+00 0.  1.
</event>
<event>
 8    1  0.2031623E-013  0.9118800E+02  0.7816164E-02  0.1184000E+00
        -11   -1    0    0    0    0  0.00000000000E+00  0.00000000000E+00  0.45593999997E+02  0.45594000000E+02  0.51100000000E-03 0. -1.
         11   -1    0    0    0    0 -0.00000000000E+00 -0.00000000000E+00 -0.45593999997E+02  0.45594000000E+02  0.51100000000E-03 0.  1.
         23    2    1    2    0    0  0.00000000000E+00  0.88817841970E-15 -0.35527136788E-14  0.91188000000E+02  0.91188000000E+02 0.  0.
    9900012    2    3    3    0    0  0.32861423405E+02 -0.45678628596E+01  0.23503767671E+02  0.50528860634E+02  0.30000002382E+02 0.  0.
        -12    1    3    3    0    0 -0.32861423405E+02  0.45678628596E+01 -0.23503767671E+02  0.40659139366E+02  0.00000000000E+00 0.  1.
         11    1    4    4    0    0  0.28954340095E+02 -0.19119042023E+01  0.16708397625E+02  0.33484022152E+02  0.51100000000E-03 0. -1.
        -11    1    4    4    0    0  0.44986822688E+01 -0.83344380414E+01  0.22182035042E+01  0.97273545566E+01  0.51100000000E-03 0.  1.
         12    1    4    4    0    0 -0.59159895895E+00  0.56784793840E+01  0.45771665422E+01  0.73174839254E+01  0.00000000000E+00 0. -1.
</event>
<event>
 8    1  0.2031623E-013  0.9118800E+02  0.7816164E-02  0.1184000E+00
        -11   -1    0    0    0    0  0.00000000000E+00  0.00000000000E+00  0.45593999997E+02  0.45594000000E+02  0.51100000000E-03 0. -1.
         11   -1    0    0    0    0 -0.00000000000E+00 -0.00000000000E+00 -0.45593999997E+02  0.45594000000E+02  0.51100000000E-03 0.  1.
         23    2    1    2    0    0  0.00000000000E+00  0.00000000000E+00 -0.17763568394E-14  0.91188000000E+02  0.91188000000E+02 0.  0.
    9900012    2    3    3    0    0  0.13903305834E+02  0.34893059690E+02  0.15567044261E+02  0.50528924818E+02  0.30000197475E+02 0.  0.
        -12    1    3    3    0    0 -0.13903305834E+02 -0.34893059690E+02 -0.15567044261E+02  0.40659075182E+02  0.00000000000E+00 0.  1.
         11    1    4    4    0    0  0.13494379985E+02  0.28392356985E+02  0.20892925709E+01  0.31505386366E+02  0.51100000000E-03 0.  1.
        -11    1    4    4    0    0 -0.60504947930E+00  0.97122673357E+01  0.80189683151E+01  0.12609443872E+02  0.51100000000E-03 0. -1.
         12    1    4    4    0    0  0.10139753281E+01 -0.32115646302E+01  0.54587833750E+01  0.64140945795E+01  0.00000000000E+00 0. -1.
</event>
<event>
 8    1  0.2031623E-013  0.9118800E+02  0.7816164E-02  0.1184000E+00
        -11   -1    0    0    0    0  0.00000000000E+00  0.00000000000E+00  0.45593999997E+02  0.45594000000E+02  0.51100000000E-03 0. -1.
         11   -1    0    0    0    0 -0.00000000000E+00 -0.00000000000E+00 -0.45593999997E+02  0.45594000000E+02  0.51100000000E-03 0.  1.
         23    2    1    2    0    0  0.00000000000E+00  0.00000000000E+00  0.00000000000E+00  0.91188000000E+02  0.91188000000E+02 0.  0.
    9900012    2    3    3    0    0 -0.88888181946E+01  0.14351101309E+02 -0.36989196668E+02  0.50528857513E+02  0.29999992895E+02 0.  0.
         12    1    3    3    0    0  0.88888181946E+01 -0.14351101309E+02  0.36989196668E+02  0.40659142487E+02  0.00000000000E+00 0. -1.
         11    1    4    4    0    0  0.61719654351E+01 -0.95374549024E+00  0.16282825736E+00  0.62473435230E+01  0.51100000000E-03 0. -1.
        -11    1    4    4    0    0 -0.99700028669E+01  0.60370929915E+01 -0.27879730383E+02  0.30217988276E+02  0.51100000000E-03 0.  1.
        -12    1    4    4    0    0 -0.50907807628E+01  0.92677538082E+01 -0.92722945423E+01  0.14063525714E+02  0.00000000000E+00 0.  1.
</event>
<event>
 8    1  0.2031623E-013  0.9118800E+02  0.7816164E-02  0.1184000E+00
        -11   -1    0    0    0    0  0.00000000000E+00  0.00000000000E+00  0.45593999997E+02  0.45594000000E+02  0.51100000000E-03 0. -1.
         11   -1    0    0    0    0 -0.00000000000E+00 -0.00000000000E+00 -0.45593999997E+02  0.45594000000E+02  0.51100000000E-03 0.  1.
         23    2    1    2    0    0  0.00000000000E+00  0.35527136788E-14  0.00000000000E+00  0.91188000000E+02  0.91188000000E+02 0.  0.
    9900012    2    3    3    0    0 -0.26330289857E+02 -0.19378120651E+02  0.24173734988E+02  0.50528865883E+02  0.30000018337E+02 0.  0.
        -12    1    3    3    0    0  0.26330289857E+02  0.19378120651E+02 -0.24173734988E+02  0.40659134117E+02  0.00000000000E+00 0.  1.
         11    1    4    4    0    0 -0.19548672264E+02 -0.23641901821E+02  0.21011739519E+02  0.37183105127E+02  0.51100000000E-03 0. -1.
        -11    1    4    4    0    0 -0.83493884932E+01 -0.60281827772E-01  0.17139922201E+01  0.85237134925E+01  0.51100000000E-03 0.  1.
         12    1    4    4    0    0  0.15677709000E+01  0.43240629977E+01  0.14480032481E+01  0.48220472633E+01  0.00000000000E+00 0. -1.
</event>
<event>
 8    1  0.2031623E-013  0.9118800E+02  0.7816164E-02  0.1184000E+00
        -11   -1    0    0    0    0  0.00000000000E+00  0.00000000000E+00  0.45593999997E+02  0.45594000000E+02  0.51100000000E-03 0. -1.
         11   -1    0    0    0    0 -0.00000000000E+00 -0.00000000000E+00 -0.45593999997E+02  0.45594000000E+02  0.51100000000E-03 0.  1.
         23    2    1    2    0    0  0.00000000000E+00 -0.35527136788E-14  0.00000000000E+00  0.91188000000E+02  0.91188000000E+02 0.  0.
    9900012    2    3    3    0    0 -0.24579071644E+02  0.26733657870E+02 -0.18285159323E+02  0.50528852475E+02  0.29999977583E+02 0.  0.
         12    1    3    3    0    0  0.24579071644E+02 -0.26733657870E+02  0.18285159323E+02  0.40659147525E+02  0.00000000000E+00 0. -1.
         11    1    4    4    0    0 -0.57675308475E+01 -0.25623830681E+00  0.27757207244E+01  0.64058329628E+01  0.51100000000E-03 0. -1.
        -11    1    4    4    0    0 -0.42347691979E+01  0.16198381819E+02 -0.19818196815E+02  0.25943819476E+02  0.51100000000E-03 0.  1.
        -12    1    4    4    0    0 -0.14576771598E+02  0.10791514358E+02 -0.12426832323E+01  0.18179200037E+02  0.00000000000E+00 0.  1.
</event>
<event>
 8    1  0.2031623E-013  0.9118800E+02  0.7816164E-02  0.1184000E+00
        -11   -1    0    0    0    0  0.00000000000E+00  0.00000000000E+00  0.45593999997E+02  0.45594000000E+02  0.51100000000E-03 0. -1.
         11   -1    0    0    0    0 -0.00000000000E+00 -0.00000000000E+00 -0.45593999997E+02  0.45594000000E+02  0.51100000000E-03 0.  1.
         23    2    1    2    0    0  0.00000000000E+00  0.71054273576E-14  0.00000000000E+00  0.91188000000E+02  0.91188000000E+02 0.  0.
    9900012    2    3    3    0    0 -0.67098934105E+01 -0.34375962530E+02  0.20650355278E+02  0.50528847986E+02  0.29999963937E+02 0.  0.
        -12    1    3    3    0    0  0.67098934105E+01  0.34375962530E+02 -0.20650355278E+02  0.40659152014E+02  0.00000000000E+00 0.  1.
         11    1    4    4    0    0  0.97886477535E+01 -0.16274079292E+02  0.14221953943E+02  0.23726088086E+02  0.51100000000E-03 0. -1.
        -11    1    4    4    0    0 -0.13637036208E+02 -0.94744392321E+01  0.21076009966E+01  0.16738450870E+02  0.51100000000E-03 0.  1.
         12    1    4    4    0    0 -0.28615049558E+01 -0.86274440056E+01  0.43208003378E+01  0.10064309030E+02  0.00000000000E+00 0. -1.
</event>
<event>
 8    1  0.2031623E-013  0.9118800E+02  0.7816164E-02  0.1184000E+00
        -11   -1    0    0    0    0  0.00000000000E+00  0.00000000000E+00  0.45593999997E+02  0.45594000000E+02  0.51100000000E-03 0. -1.
         11   -1    0    0    0    0 -0.00000000000E+00 -0.00000000000E+00 -0.45593999997E+02  0.45594000000E+02  0.51100000000E-03 0.  1.
         23    2    1    2    0    0  0.17763568394E-14  0.00000000000E+00 -0.71054273576E-14  0.91188000000E+02  0.91188000000E+02 0.  0.
    9900012    2    3    3    0    0 -0.10462229349E+02 -0.21576538175E+02  0.32835367542E+02  0.50528848457E+02  0.29999965371E+02 0.  0.
        -12    1    3    3    0    0  0.10462229349E+02  0.21576538175E+02 -0.32835367542E+02  0.40659151543E+02  0.00000000000E+00 0.  1.
         11    1    4    4    0    0  0.47229327567E+01 -0.84063469267E+00  0.87900429327E+01  0.10013871156E+02  0.51100000000E-03 0. -1.
        -11    1    4    4    0    0 -0.71403757757E+01 -0.21659183239E+02  0.22931240162E+02  0.32341103265E+02  0.51100000000E-03 0.  1.
        -12    1    4    4    0    0 -0.80447863299E+01  0.92327975618E+00  0.11140844473E+01  0.81738740361E+01  0.00000000000E+00 0.  1.
</event>
<event>
 8    1  0.2031623E-013  0.9118800E+02  0.7816164E-02  0.1184000E+00
        -11   -1    0    0    0    0  0.00000000000E+00  0.00000000000E+00  0.45593999997E+02  0.45594000000E+02  0.51100000000E-03 0. -1.
         11   -1    0    0    0    0 -0.00000000000E+00 -0.00000000000E+00 -0.45593999997E+02  0.45594000000E+02  0.51100000000E-03 0.  1.
         23    2    1    2    0    0 -0.17763568394E-14  0.00000000000E+00  0.00000000000E+00  0.91188000000E+02  0.91188000000E+02 0.  0.
    9900012    2    3    3    0    0  0.12657273056E+02 -0.14787554464E+02  0.35697282313E+02  0.50528753908E+02  0.29999677978E+02 0.  0.
        -12    1    3    3    0    0 -0.12657273056E+02  0.14787554464E+02 -0.35697282313E+02  0.40659246092E+02  0.00000000000E+00 0.  1.
         11    1    4    4    0    0  0.68082030076E+01 -0.66573690525E+01 -0.37638127730E+00  0.95296303192E+01  0.51100000000E-03 0. -1.
        -11    1    4    4    0    0 -0.12575860212E+01  0.30924387950E+01  0.19379568529E+02  0.19665003863E+02  0.51100000000E-03 0.  1.
         12    1    4    4    0    0  0.71066560698E+01 -0.11222624206E+02  0.16694095061E+02  0.21334119726E+02  0.00000000000E+00 0. -1.
</event>
<event>
 8    1  0.2031623E-013  0.9118800E+02  0.7816164E-02  0.1184000E+00
        -11   -1    0    0    0    0  0.00000000000E+00  0.00000000000E+00  0.45593999997E+02  0.45594000000E+02  0.51100000000E-03 0. -1.
         11   -1    0    0    0    0 -0.00000000000E+00 -0.00000000000E+00 -0.45593999997E+02  0.45594000000E+02  0.51100000000E-03 0.  1.
         23    2    1    2    0    0  0.00000000000E+00  0.00000000000E+00  0.71054273576E-14  0.91188000000E+02  0.91188000000E+02 0.  0.
    9900012    2    3    3    0    0  0.84817093415E+01  0.55373015477E+01  0.39377228224E+02  0.50528841077E+02  0.29999942936E+02 0.  0.
        -12    1    3    3    0    0 -0.84817093415E+01 -0.55373015477E+01 -0.39377228224E+02  0.40659158923E+02  0.00000000000E+00 0.  1.
         11    1    4    4    0    0  0.74454744579E+01 -0.38140709673E+01  0.38787566982E+02  0.39679435227E+02  0.51100000000E-03 0. -1.
        -11    1    4    4    0    0 -0.15605718096E+01  0.50337660200E+01  0.19685229620E+01  0.56257681814E+01  0.51100000000E-03 0.  1.
        -12    1    4    4    0    0  0.25968066932E+01  0.43176064950E+01 -0.13788617205E+01  0.52236376685E+01  0.00000000000E+00 0.  1.
</event>
<event>
 8    1  0.2031623E-013  0.9118800E+02  0.7816164E-02  0.1184000E+00
        -11   -1    0    0    0    0  0.00000000000E+00  0.00000000000E+00  0.45593999997E+02  0.45594000000E+02  0.51100000000E-03 0. -1.
         11   -1    0    0    0    0 -0.00000000000E+00 -0.00000000000E+00 -0.45593999997E+02  0.45594000000E+02  0.51100000000E-03 0.  1.
         23    2    1    2    0    0  0.00000000000E+00  0.00000000000E+00 -0.35527136788E-14  0.91188000000E+02  0.91188000000E+02 0.  0.
    9900012    2    3    3    0    0 -0.26807126608E+02 -0.10447495342E+02 -0.28729674441E+02  0.50528851099E+02  0.29999973400E+02 0.  0.
         12    1    3    3    0    0  0.26807126608E+02  0.10447495342E+02  0.28729674441E+02  0.40659148901E+02  0.00000000000E+00 0. -1.
         11    1    4    4    0    0 -0.90250270382E+01 -0.51745021674E+01  0.51756188327E+01  0.11619535975E+02  0.51100000000E-03 0. -1.
        -11    1    4    4    0    0 -0.62984455413E+01  0.32753408975E+00 -0.11621587922E+02  0.13222669961E+02  0.51100000000E-03 0.  1.
         12    1    4    4    0    0 -0.11483654029E+02 -0.56005272645E+01 -0.22283705352E+02  0.25686645162E+02  0.00000000000E+00 0. -1.
</event>
<event>
 8    1  0.2031623E-013  0.9118800E+02  0.7816164E-02  0.1184000E+00
        -11   -1    0    0    0    0  0.00000000000E+00  0.00000000000E+00  0.45593999997E+02  0.45594000000E+02  0.51100000000E-03 0. -1.
         11   -1    0    0    0    0 -0.00000000000E+00 -0.00000000000E+00 -0.45593999997E+02  0.45594000000E+02  0.51100000000E-03 0.  1.
         23    2    1    2    0    0  0.88817841970E-15  0.00000000000E+00 -0.71054273576E-14  0.91188000000E+02  0.91188000000E+02 0.  0.
    9900012    2    3    3    0    0 -0.42851158416E+01 -0.90613595860E+01  0.39404254950E+02  0.50528858796E+02  0.29999996796E+02 0.  0.
        -12    1    3    3    0    0  0.42851158416E+01  0.90613595860E+01 -0.39404254950E+02  0.40659141204E+02  0.00000000000E+00 0.  1.
         11    1    4    4    0    0 -0.31645487230E+01 -0.87358505067E+01  0.33234616898E+02  0.34508972939E+02  0.51100000000E-03 0. -1.
        -11    1    4    4    0    0  0.59157356559E+01 -0.16098885015E+01 -0.61463770412E+00  0.61616109181E+01  0.51100000000E-03 0.  1.
        -12    1    4    4    0    0 -0.70363027745E+01  0.12843794222E+01  0.67842757558E+01  0.98582749386E+01  0.00000000000E+00 0.  1.
</event>
<event>
 8    1  0.2031623E-013  0.9118800E+02  0.7816164E-02  0.1184000E+00
        -11   -1    0    0    0    0  0.00000000000E+00  0.00000000000E+00  0.45593999997E+02  0.45594000000E+02  0.51100000000E-03 0. -1.
         11   -1    0    0    0    0 -0.00000000000E+00 -0.00000000000E+00 -0.45593999997E+02  0.45594000000E+02  0.51100000000E-03 0.  1.
         23    2    1    2    0    0  0.35527136788E-14  0.00000000000E+00  0.35527136788E-14  0.91188000000E+02  0.91188000000E+02 0.  0.
    9900012    2    3    3    0    0  0.30515341899E+02  0.69336473003E+01  0.25959670668E+02  0.50528855183E+02  0.29999985814E+02 0.  0.
        -12    1    3    3    0    0 -0.30515341899E+02 -0.69336473003E+01 -0.25959670668E+02  0.40659144817E+02  0.00000000000E+00 0.  1.
         11    1    4    4    0    0  0.29050679215E+02  0.19212788673E+01  0.24902129098E+02  0.38311216494E+02  0.51100000000E-03 0. -1.
        -11    1    4    4    0    0  0.49482832066E+00 -0.35325875647E+01  0.46787680355E+00  0.35976296271E+01  0.51100000000E-03 0.  1.
         12    1    4    4    0    0  0.96983436286E+00  0.85449559976E+01  0.58966476584E+00  0.86200090620E+01  0.00000000000E+00 0. -1.
</event>
<event>
 8    1  0.2031623E-013  0.9118800E+02  0.7816164E-02  0.1184000E+00
        -11   -1    0    0    0    0  0.00000000000E+00  0.00000000000E+00  0.45593999997E+02  0.45594000000E+02  0.51100000000E-03 0.  1.
         11   -1    0    0    0    0 -0.00000000000E+00 -0.00000000000E+00 -0.45593999997E+02  0.45594000000E+02  0.51100000000E-03 0. -1.
         23    2    1    2    0    0  0.26645352591E-14  0.00000000000E+00  0.00000000000E+00  0.91188000000E+02  0.91188000000E+02 0.  0.
    9900012    2    3    3    0    0  0.57735281236E+01  0.39268118195E+02  0.88231001345E+01  0.50528857983E+02  0.29999994326E+02 0.  0.
        -12    1    3    3    0    0 -0.57735281236E+01 -0.39268118195E+02 -0.88231001345E+01  0.40659142017E+02  0.00000000000E+00 0.  1.
         11    1    4    4    0    0 -0.53992342333E+01  0.15003107832E+02  0.48837407473E+01  0.16676207568E+02  0.51100000000E-03 0. -1.
        -11    1    4    4    0    0  0.16212239360E+02  0.12626116910E+02 -0.76478882963E-01  0.20548999552E+02  0.51100000000E-03 0.  1.
        -12    1    4    4    0    0 -0.50394770033E+01  0.11638893453E+02  0.40158382701E+01  0.13303650863E+02  0.00000000000E+00 0.  1.
</event>
<event>
 8    1  0.2031623E-013  0.9118800E+02  0.7816164E-02  0.1184000E+00
        -11   -1    0    0    0    0  0.00000000000E+00  0.00000000000E+00  0.45593999997E+02  0.45594000000E+02  0.51100000000E-03 0. -1.
         11   -1    0    0    0    0 -0.00000000000E+00 -0.00000000000E+00 -0.45593999997E+02  0.45594000000E+02  0.51100000000E-03 0.  1.
         23    2    1    2    0    0  0.00000000000E+00 -0.88817841970E-15  0.00000000000E+00  0.91188000000E+02  0.91188000000E+02 0.  0.
    9900012    2    3    3    0    0 -0.12215983250E+02 -0.66294064801E+01 -0.38209767351E+02  0.50528860830E+02  0.30000002979E+02 0.  0.
         12    1    3    3    0    0  0.12215983250E+02  0.66294064801E+01  0.38209767351E+02  0.40659139170E+02  0.00000000000E+00 0. -1.
         11    1    4    4    0    0 -0.83711956497E+01 -0.17740548311E+01  0.21849011401E+01  0.88316465284E+01  0.51100000000E-03 0. -1.
        -11    1    4    4    0    0 -0.14327569045E+01 -0.68153175220E+01 -0.23155424067E+02  0.24180053955E+02  0.51100000000E-03 0.  1.
        -12    1    4    4    0    0 -0.24120306956E+01  0.19599658731E+01 -0.17239244424E+02  0.17517160347E+02  0.00000000000E+00 0.  1.
</event>
<event>
 8    1  0.2031623E-013  0.9118800E+02  0.7816164E-02  0.1184000E+00
        -11   -1    0    0    0    0  0.00000000000E+00  0.00000000000E+00  0.45593999997E+02  0.45594000000E+02  0.51100000000E-03 0. -1.
         11   -1    0    0    0    0 -0.00000000000E+00 -0.00000000000E+00 -0.45593999997E+02  0.45594000000E+02  0.51100000000E-03 0.  1.
         23    2    1    2    0    0 -0.35527136788E-14 -0.35527136788E-14  0.00000000000E+00  0.91188000000E+02  0.91188000000E+02 0.  0.
    9900012    2    3    3    0    0 -0.23653289070E+02 -0.18547032708E+02 -0.27380535214E+02  0.50528877842E+02  0.30000054688E+02 0.  0.
         12    1    3    3    0    0  0.23653289070E+02  0.18547032708E+02  0.27380535214E+02  0.40659122158E+02  0.00000000000E+00 0. -1.
         11    1    4    4    0    0  0.13330746386E+01 -0.70310983971E+01  0.12142517372E-01  0.71563664218E+01  0.51100000000E-03 0. -1.
        -11    1    4    4    0    0 -0.22099356480E+02 -0.84842253528E+01 -0.10372048106E+02  0.25844593609E+02  0.51100000000E-03 0.  1.
         12    1    4    4    0    0 -0.28870072288E+01 -0.30317089583E+01 -0.17020629625E+02  0.17527917811E+02  0.00000000000E+00 0. -1.
</event>
<event>
 8    1  0.2031623E-013  0.9118800E+02  0.7816164E-02  0.1184000E+00
        -11   -1    0    0    0    0  0.00000000000E+00  0.00000000000E+00  0.45593999997E+02  0.45594000000E+02  0.51100000000E-03 0. -1.
         11   -1    0    0    0    0 -0.00000000000E+00 -0.00000000000E+00 -0.45593999997E+02  0.45594000000E+02  0.51100000000E-03 0.  1.
         23    2    1    2    0    0  0.00000000000E+00  0.00000000000E+00  0.00000000000E+00  0.91188000000E+02  0.91188000000E+02 0.  0.
    9900012    2    3    3    0    0 -0.22598430974E+02 -0.91980595540E+01  0.32524957869E+02  0.50528852610E+02  0.29999977995E+02 0.  0.
        -12    1    3    3    0    0  0.22598430974E+02  0.91980595540E+01 -0.32524957869E+02  0.40659147390E+02  0.00000000000E+00 0.  1.
         11    1    4    4    0    0 -0.19013113554E+02 -0.11646323681E+02  0.28241013752E+02  0.35981803739E+02  0.51100000000E-03 0. -1.
        -11    1    4    4    0    0 -0.15413426052E+01  0.58620024273E+01  0.73478399089E+01  0.95252066157E+01  0.51100000000E-03 0.  1.
         12    1    4    4    0    0 -0.20439748152E+01 -0.34137382999E+01 -0.30638957913E+01  0.50218422562E+01  0.00000000000E+00 0. -1.
</event>
<event>
 8    1  0.2031623E-013  0.9118800E+02  0.7816164E-02  0.1184000E+00
        -11   -1    0    0    0    0  0.00000000000E+00  0.00000000000E+00  0.45593999997E+02  0.45594000000E+02  0.51100000000E-03 0. -1.
         11   -1    0    0    0    0 -0.00000000000E+00 -0.00000000000E+00 -0.45593999997E+02  0.45594000000E+02  0.51100000000E-03 0.  1.
         23    2    1    2    0    0 -0.99920072216E-15  0.71054273576E-14  0.17763568394E-14  0.91188000000E+02  0.91188000000E+02 0.  0.
    9900012    2    3    3    0    0  0.69794260024E+00 -0.39692771240E+02  0.87842090215E+01  0.50528861535E+02  0.30000005120E+02 0.  0.
        -12    1    3    3    0    0 -0.69794260024E+00  0.39692771240E+02 -0.87842090215E+01  0.40659138465E+02  0.00000000000E+00 0.  1.
         11    1    4    4    0    0 -0.85353178077E+01 -0.34858626956E+02  0.12043181528E+02  0.37855168008E+02  0.51100000000E-03 0. -1.
        -11    1    4    4    0    0  0.29340773546E+01 -0.29475969046E+01 -0.43385921087E+01  0.60100348735E+01  0.51100000000E-03 0.  1.
         12    1    4    4    0    0  0.62991830534E+01 -0.18865473799E+01  0.10796196018E+01  0.66636586528E+01  0.00000000000E+00 0. -1.
</event>
<event>
 8    1  0.2031623E-013  0.9118800E+02  0.7816164E-02  0.1184000E+00
        -11   -1    0    0    0    0  0.00000000000E+00  0.00000000000E+00  0.45593999997E+02  0.45594000000E+02  0.51100000000E-03 0. -1.
         11   -1    0    0    0    0 -0.00000000000E+00 -0.00000000000E+00 -0.45593999997E+02  0.45594000000E+02  0.51100000000E-03 0.  1.
         23    2    1    2    0    0 -0.15543122345E-14  0.00000000000E+00  0.00000000000E+00  0.91188000000E+02  0.91188000000E+02 0.  0.
    9900012    2    3    3    0    0  0.16420939628E+01  0.47762290874E+01 -0.40344225534E+02  0.50528863624E+02  0.30000011471E+02 0.  0.
         12    1    3    3    0    0 -0.16420939628E+01 -0.47762290874E+01  0.40344225534E+02  0.40659136376E+02  0.00000000000E+00 0. -1.
         11    1    4    4    0    0 -0.12313164718E+02  0.45141502330E+01 -0.27629695047E+02  0.30584172808E+02  0.51100000000E-03 0. -1.
        -11    1    4    4    0    0  0.53894175032E+01 -0.16788156102E+01 -0.17785202464E+01  0.59183931438E+01  0.51100000000E-03 0.  1.
         12    1    4    4    0    0  0.85658411773E+01  0.19408944645E+01 -0.10936010241E+02  0.14026297672E+02  0.00000000000E+00 0. -1.
</event>
<event>
 8    1  0.2031623E-013  0.9118800E+02  0.7816164E-02  0.1184000E+00
        -11   -1    0    0    0    0  0.00000000000E+00  0.00000000000E+00  0.45593999997E+02  0.45594000000E+02  0.51100000000E-03 0. -1.
         11   -1    0    0    0    0 -0.00000000000E+00 -0.00000000000E+00 -0.45593999997E+02  0.45594000000E+02  0.51100000000E-03 0.  1.
         23    2    1    2    0    0  0.00000000000E+00  0.00000000000E+00  0.00000000000E+00  0.91188000000E+02  0.91188000000E+02 0.  0.
    9900012    2    3    3    0    0  0.80948327296E+01  0.52081099578E+01  0.39503312380E+02  0.50528899970E+02  0.30000121948E+02 0.  0.
        -12    1    3    3    0    0 -0.80948327296E+01 -0.52081099578E+01 -0.39503312380E+02  0.40659100030E+02  0.00000000000E+00 0.  1.
         11    1    4    4    0    0  0.22024375769E+00  0.11530199127E+02  0.20930837154E+02  0.23897571915E+02  0.51100000000E-03 0. -1.
        -11    1    4    4    0    0  0.39026621732E+01 -0.11613617807E+02  0.10078493001E+02  0.15864517391E+02  0.51100000000E-03 0.  1.
        -12    1    4    4    0    0  0.39719267987E+01  0.52915286378E+01  0.84939822256E+01  0.10766810664E+02  0.00000000000E+00 0.  1.
</event>
<event>
 8    1  0.2031623E-013  0.9118800E+02  0.7816164E-02  0.1184000E+00
        -11   -1    0    0    0    0  0.00000000000E+00  0.00000000000E+00  0.45593999997E+02  0.45594000000E+02  0.51100000000E-03 0. -1.
         11   -1    0    0    0    0 -0.00000000000E+00 -0.00000000000E+00 -0.45593999997E+02  0.45594000000E+02  0.51100000000E-03 0.  1.
         23    2    1    2    0    0  0.00000000000E+00  0.88817841970E-15  0.35527136788E-14  0.91188000000E+02  0.91188000000E+02 0.  0.
    9900012    2    3    3    0    0 -0.26358712180E+02 -0.58063672282E+01 -0.30408388988E+02  0.50528859219E+02  0.29999998082E+02 0.  0.
         12    1    3    3    0    0  0.26358712180E+02  0.58063672282E+01  0.30408388988E+02  0.40659140781E+02  0.00000000000E+00 0. -1.
         11    1    4    4    0    0 -0.16618075413E+02  0.90972454628E+01 -0.76008788445E+01  0.20413075831E+02  0.51100000000E-03 0. -1.
        -11    1    4    4    0    0 -0.21927163434E+01 -0.78948688452E+01 -0.15347804605E+02  0.17398047750E+02  0.51100000000E-03 0.  1.
         12    1    4    4    0    0 -0.75479204242E+01 -0.70087438458E+01 -0.74597055388E+01  0.12717735638E+02  0.00000000000E+00 0. -1.
</event>
<event>
 8    1  0.2031623E-013  0.9118800E+02  0.7816164E-02  0.1184000E+00
        -11   -1    0    0    0    0  0.00000000000E+00  0.00000000000E+00  0.45593999997E+02  0.45594000000E+02  0.51100000000E-03 0. -1.
         11   -1    0    0    0    0 -0.00000000000E+00 -0.00000000000E+00 -0.45593999997E+02  0.45594000000E+02  0.51100000000E-03 0.  1.
         23    2    1    2    0    0  0.71054273576E-14 -0.17763568394E-14 -0.35527136788E-14  0.91188000000E+02  0.91188000000E+02 0.  0.
    9900012    2    3    3    0    0 -0.24889707532E+02  0.11324887533E+02  0.30090153682E+02  0.50528831694E+02  0.29999914418E+02 0.  0.
        -12    1    3    3    0    0  0.24889707532E+02 -0.11324887533E+02 -0.30090153682E+02  0.40659168306E+02  0.00000000000E+00 0.  1.
         11    1    4    4    0    0 -0.17400750763E+02  0.18185389130E+02  0.23622383632E+02  0.34518277965E+02  0.51100000000E-03 0. -1.
        -11    1    4    4    0    0 -0.94248247283E+01 -0.41156101769E+01  0.72236467025E+01  0.12567682373E+02  0.51100000000E-03 0.  1.
         12    1    4    4    0    0  0.19358679590E+01 -0.27448914205E+01 -0.75587665177E+00  0.34428713565E+01  0.00000000000E+00 0. -1.
</event>
<event>
 8    1  0.2031623E-013  0.9118800E+02  0.7816164E-02  0.1184000E+00
        -11   -1    0    0    0    0  0.00000000000E+00  0.00000000000E+00  0.45593999997E+02  0.45594000000E+02  0.51100000000E-03 0. -1.
         11   -1    0    0    0    0 -0.00000000000E+00 -0.00000000000E+00 -0.45593999997E+02  0.45594000000E+02  0.51100000000E-03 0.  1.
         23    2    1    2    0    0  0.00000000000E+00 -0.88817841970E-15  0.17763568394E-14  0.91188000000E+02  0.91188000000E+02 0.  0.
    9900012    2    3    3    0    0 -0.37005850798E+02  0.69125701194E+01 -0.15360626170E+02  0.50528862586E+02  0.30000008315E+02 0.  0.
         12    1    3    3    0    0  0.37005850798E+02 -0.69125701194E+01  0.15360626170E+02  0.40659137414E+02  0.00000000000E+00 0. -1.
         11    1    4    4    0    0 -0.17508748982E+01 -0.58360775572E+01 -0.23841116346E+01  0.65428856562E+01  0.51100000000E-03 0. -1.
        -11    1    4    4    0    0 -0.92441939490E+01  0.11909524711E+02 -0.39853251343E+00  0.15081469724E+02  0.51100000000E-03 0.  1.
        -12    1    4    4    0    0 -0.26010781951E+02  0.83912296581E+00 -0.12577982022E+02  0.28904507206E+02  0.00000000000E+00 0.  1.
</event>
<event>
 8    1  0.2031623E-013  0.9118800E+02  0.7816164E-02  0.1184000E+00
        -11   -1    0    0    0    0  0.00000000000E+00  0.00000000000E+00  0.45593999997E+02  0.45594000000E+02  0.51100000000E-03 0. -1.
         11   -1    0    0    0    0 -0.00000000000E+00 -0.00000000000E+00 -0.45593999997E+02  0.45594000000E+02  0.51100000000E-03 0.  1.
         23    2    1    2    0    0  0.35527136788E-14  0.88817841970E-15  0.71054273576E-14  0.91188000000E+02  0.91188000000E+02 0.  0.
    9900012    2    3    3    0    0  0.20692127838E+02 -0.63339662996E+01 -0.34422120747E+02  0.50528859819E+02  0.29999999906E+02 0.  0.
         12    1    3    3    0    0 -0.20692127838E+02  0.63339662996E+01  0.34422120747E+02  0.40659140181E+02  0.00000000000E+00 0. -1.
         11    1    4    4    0    0  0.41720813629E+01 -0.10901603900E+02 -0.89871976963E+00  0.11707216919E+02  0.51100000000E-03 0. -1.
        -11    1    4    4    0    0  0.82610557041E+01  0.68557860366E+01 -0.21798204215E+02  0.24298324033E+02  0.51100000000E-03 0.  1.
         12    1    4    4    0    0  0.82589907711E+01 -0.22881484358E+01 -0.11725196762E+02  0.14523318868E+02  0.00000000000E+00 0. -1.
</event>
<event>
 8    1  0.2322852E-013  0.9118800E+02  0.7816164E-02  0.1184000E+00
        -11   -1    0    0    0    0  0.00000000000E+00  0.00000000000E+00  0.45593999997E+02  0.45594000000E+02  0.51100000000E-03 0. -1.
         11   -1    0    0    0    0 -0.00000000000E+00 -0.00000000000E+00 -0.45593999997E+02  0.45594000000E+02  0.51100000000E-03 0.  1.
         23    2    1    2    0    0  0.22204460493E-15  0.35527136788E-14  0.00000000000E+00  0.91188000000E+02  0.91188000000E+02 0.  0.
    9900012    2    3    3    0    0  0.16439985852E+01  0.31077705903E+02 -0.26165604684E+02  0.50528863216E+02  0.30000010232E+02 0.  0.
         12    1    3    3    0    0 -0.16439985852E+01 -0.31077705903E+02  0.26165604684E+02  0.40659136784E+02  0.00000000000E+00 0. -1.
         11    1    4    4    0    0 -0.24572855673E+01  0.11709881054E+02  0.43393526833E+01  0.12727511486E+02  0.51100000000E-03 0. -1.
        -11    1    4    4    0    0  0.20114565135E+01  0.17056410888E+02 -0.17859373469E+02  0.24777496457E+02  0.51100000000E-03 0.  1.
         12    1    4    4    0    0  0.20898276390E+01  0.23114139610E+01 -0.12645583898E+02  0.13023855273E+02  0.00000000000E+00 0. -1.
</event>
<event>
 8    1  0.2031623E-013  0.9118800E+02  0.7816164E-02  0.1184000E+00
        -11   -1    0    0    0    0  0.00000000000E+00  0.00000000000E+00  0.45593999997E+02  0.45594000000E+02  0.51100000000E-03 0.  1.
         11   -1    0    0    0    0 -0.00000000000E+00 -0.00000000000E+00 -0.45593999997E+02  0.45594000000E+02  0.51100000000E-03 0. -1.
         23    2    1    2    0    0  0.00000000000E+00  0.71054273576E-14  0.00000000000E+00  0.91188000000E+02  0.91188000000E+02 0.  0.
    9900012    2    3    3    0    0 -0.93716819970E+01  0.39337815659E+02 -0.42276991884E+01  0.50528860748E+02  0.30000002729E+02 0.  0.
        -12    1    3    3    0    0  0.93716819970E+01 -0.39337815659E+02  0.42276991884E+01  0.40659139252E+02  0.00000000000E+00 0.  1.
         11    1    4    4    0    0 -0.77577769331E+01  0.33778519245E+02  0.76535928510E+01  0.35492942244E+02  0.51100000000E-03 0. -1.
        -11    1    4    4    0    0 -0.43329991146E+01  0.21114719703E+01 -0.64320356808E+01  0.80376786741E+01  0.51100000000E-03 0.  1.
         12    1    4    4    0    0  0.27190940508E+01  0.34478244441E+01 -0.54492563587E+01  0.69982398299E+01  0.00000000000E+00 0. -1.
</event>
<event>
 8    1  0.2031623E-013  0.9118800E+02  0.7816164E-02  0.1184000E+00
        -11   -1    0    0    0    0  0.00000000000E+00  0.00000000000E+00  0.45593999997E+02  0.45594000000E+02  0.51100000000E-03 0. -1.
         11   -1    0    0    0    0 -0.00000000000E+00 -0.00000000000E+00 -0.45593999997E+02  0.45594000000E+02  0.51100000000E-03 0.  1.
         23    2    1    2    0    0 -0.88817841970E-15 -0.17763568394E-14  0.00000000000E+00  0.91188000000E+02  0.91188000000E+02 0.  0.
    9900012    2    3    3    0    0 -0.58081560973E+01 -0.28855024616E+01  0.40138565057E+02  0.50528865644E+02  0.30000017612E+02 0.  0.
        -12    1    3    3    0    0  0.58081560973E+01  0.28855024616E+01 -0.40138565057E+02  0.40659134356E+02  0.00000000000E+00 0.  1.
         11    1    4    4    0    0 -0.23566378857E+01  0.10838783674E+02  0.74566547241E+01  0.13365428298E+02  0.51100000000E-03 0. -1.
        -11    1    4    4    0    0  0.14021173018E+01 -0.10309164428E+02  0.27049804240E+02  0.28981661681E+02  0.51100000000E-03 0.  1.
        -12    1    4    4    0    0 -0.48536355133E+01 -0.34151217083E+01  0.56321060933E+01  0.81817756645E+01  0.00000000000E+00 0.  1.
</event>
<event>
 8    1  0.2031623E-013  0.9118800E+02  0.7816164E-02  0.1184000E+00
        -11   -1    0    0    0    0  0.00000000000E+00  0.00000000000E+00  0.45593999997E+02  0.45594000000E+02  0.51100000000E-03 0. -1.
         11   -1    0    0    0    0 -0.00000000000E+00 -0.00000000000E+00 -0.45593999997E+02  0.45594000000E+02  0.51100000000E-03 0.  1.
         23    2    1    2    0    0  0.00000000000E+00  0.44408920985E-15  0.00000000000E+00  0.91188000000E+02  0.91188000000E+02 0.  0.
    9900012    2    3    3    0    0 -0.27871626470E+01 -0.17677783300E+01 -0.40524945364E+02  0.50528874178E+02  0.30000043551E+02 0.  0.
         12    1    3    3    0    0  0.27871626470E+01  0.17677783300E+01  0.40524945364E+02  0.40659125822E+02  0.00000000000E+00 0. -1.
         11    1    4    4    0    0 -0.30095881213E+01 -0.13930802369E+02 -0.23944876685E+02  0.27865426518E+02  0.51100000000E-03 0. -1.
        -11    1    4    4    0    0 -0.26155740895E+01  0.93149561574E+01 -0.60976462465E+01  0.11436386057E+02  0.51100000000E-03 0.  1.
        -12    1    4    4    0    0  0.28379995638E+01  0.28480678812E+01 -0.10482422433E+02  0.11227061603E+02  0.00000000000E+00 0.  1.
</event>
<event>
 8    1  0.2031623E-013  0.9118800E+02  0.7816164E-02  0.1184000E+00
        -11   -1    0    0    0    0  0.00000000000E+00  0.00000000000E+00  0.45593999997E+02  0.45594000000E+02  0.51100000000E-03 0. -1.
         11   -1    0    0    0    0 -0.00000000000E+00 -0.00000000000E+00 -0.45593999997E+02  0.45594000000E+02  0.51100000000E-03 0.  1.
         23    2    1    2    0    0 -0.17763568394E-14 -0.44408920985E-15  0.00000000000E+00  0.91188000000E+02  0.91188000000E+02 0.  0.
    9900012    2    3    3    0    0 -0.77346598428E+01 -0.28111714350E+01 -0.39817572572E+02  0.50528846870E+02  0.29999960547E+02 0.  0.
         12    1    3    3    0    0  0.77346598428E+01  0.28111714350E+01  0.39817572572E+02  0.40659153130E+02  0.00000000000E+00 0. -1.
         11    1    4    4    0    0 -0.11801116205E+02 -0.47879743219E+01 -0.17647498908E+02  0.21762933161E+02  0.51100000000E-03 0.  1.
        -11    1    4    4    0    0  0.95724281451E+01 -0.36841058095E+01 -0.10529403786E+02  0.14699400007E+02  0.51100000000E-03 0. -1.
        -12    1    4    4    0    0 -0.55059717829E+01  0.56609086964E+01 -0.11640669878E+02  0.14066513703E+02  0.00000000000E+00 0.  1.
</event>
<event>
 8    1  0.2031623E-013  0.9118800E+02  0.7816164E-02  0.1184000E+00
        -11   -1    0    0    0    0  0.00000000000E+00  0.00000000000E+00  0.45593999997E+02  0.45594000000E+02  0.51100000000E-03 0. -1.
         11   -1    0    0    0    0 -0.00000000000E+00 -0.00000000000E+00 -0.45593999997E+02  0.45594000000E+02  0.51100000000E-03 0.  1.
         23    2    1    2    0    0  0.00000000000E+00  0.00000000000E+00  0.00000000000E+00  0.91188000000E+02  0.91188000000E+02 0.  0.
    9900012    2    3    3    0    0  0.48863729301E+01 -0.19962097780E+02  0.35082818979E+02  0.50528853727E+02  0.29999981388E+02 0.  0.
        -12    1    3    3    0    0 -0.48863729301E+01  0.19962097780E+02 -0.35082818979E+02  0.40659146273E+02  0.00000000000E+00 0.  1.
         11    1    4    4    0    0 -0.19202015640E+01 -0.16358639710E+02  0.27990108160E+02  0.32476736633E+02  0.51100000000E-03 0. -1.
        -11    1    4    4    0    0  0.37118046273E+00 -0.26794624203E+01 -0.42151705985E+01  0.50084885178E+01  0.51100000000E-03 0.  1.
        -12    1    4    4    0    0  0.64353940313E+01 -0.92399564924E+00  0.11307881417E+02  0.13043628576E+02  0.00000000000E+00 0.  1.
</event>
<event>
 8    1  0.2031623E-013  0.9118800E+02  0.7816164E-02  0.1184000E+00
        -11   -1    0    0    0    0  0.00000000000E+00  0.00000000000E+00  0.45593999997E+02  0.45594000000E+02  0.51100000000E-03 0. -1.
         11   -1    0    0    0    0 -0.00000000000E+00 -0.00000000000E+00 -0.45593999997E+02  0.45594000000E+02  0.51100000000E-03 0.  1.
         23    2    1    2    0    0  0.00000000000E+00  0.00000000000E+00  0.00000000000E+00  0.91188000000E+02  0.91188000000E+02 0.  0.
    9900012    2    3    3    0    0 -0.12543404693E+02 -0.14233257630E+02 -0.35961688774E+02  0.50528859779E+02  0.29999999783E+02 0.  0.
         12    1    3    3    0    0  0.12543404693E+02  0.14233257630E+02  0.35961688774E+02  0.40659140221E+02  0.00000000000E+00 0. -1.
         11    1    4    4    0    0 -0.79306873141E+01  0.18852222397E+01 -0.42629685020E+01  0.91990632609E+01  0.51100000000E-03 0. -1.
        -11    1    4    4    0    0 -0.60555741603E+01 -0.20406298955E+02 -0.21915646791E+02  0.30551310774E+02  0.51100000000E-03 0.  1.
        -12    1    4    4    0    0  0.14428567813E+01  0.42878190853E+01 -0.97830734810E+01  0.10778485744E+02  0.00000000000E+00 0.  1.
</event>
<event>
 8    1  0.2031623E-013  0.9118800E+02  0.7816164E-02  0.1184000E+00
        -11   -1    0    0    0    0  0.00000000000E+00  0.00000000000E+00  0.45593999997E+02  0.45594000000E+02  0.51100000000E-03 0. -1.
         11   -1    0    0    0    0 -0.00000000000E+00 -0.00000000000E+00 -0.45593999997E+02  0.45594000000E+02  0.51100000000E-03 0.  1.
         23    2    1    2    0    0 -0.35527136788E-14  0.35527136788E-14  0.19984014443E-14  0.91188000000E+02  0.91188000000E+02 0.  0.
    9900012    2    3    3    0    0 -0.30107155308E+02  0.27316173529E+02 -0.74334220890E+00  0.50528847345E+02  0.29999961988E+02 0.  0.
         12    1    3    3    0    0  0.30107155308E+02 -0.27316173529E+02  0.74334220890E+00  0.40659152655E+02  0.00000000000E+00 0. -1.
         11    1    4    4    0    0 -0.12763189231E+02  0.62029755012E+01 -0.11581383371E+02  0.18316777704E+02  0.51100000000E-03 0. -1.
        -11    1    4    4    0    0 -0.12093034775E+02  0.13507795103E+02  0.21493439221E+00  0.18131415159E+02  0.51100000000E-03 0.  1.
         12    1    4    4    0    0 -0.52509313023E+01  0.76054029248E+01  0.10623106770E+02  0.14080654482E+02  0.00000000000E+00 0. -1.
</event>
<event>
 8    1  0.2031623E-013  0.9118800E+02  0.7816164E-02  0.1184000E+00
        -11   -1    0    0    0    0  0.00000000000E+00  0.00000000000E+00  0.45593999997E+02  0.45594000000E+02  0.51100000000E-03 0.  1.
         11   -1    0    0    0    0 -0.00000000000E+00 -0.00000000000E+00 -0.45593999997E+02  0.45594000000E+02  0.51100000000E-03 0. -1.
         23    2    1    2    0    0  0.11102230246E-14 -0.71054273576E-14  0.00000000000E+00  0.91188000000E+02  0.91188000000E+02 0.  0.
    9900012    2    3    3    0    0  0.63148799152E+00  0.40560820560E+02  0.27543348502E+01  0.50528864470E+02  0.30000014043E+02 0.  0.
        -12    1    3    3    0    0 -0.63148799152E+00 -0.40560820560E+02 -0.27543348502E+01  0.40659135530E+02  0.00000000000E+00 0.  1.
         11    1    4    4    0    0 -0.55717031505E+01  0.18141784982E+02 -0.84910536720E+01  0.20791013228E+02  0.51100000000E-03 0. -1.
        -11    1    4    4    0    0  0.73744230821E+01  0.28810461900E+01  0.25255690263E+01  0.83102973539E+01  0.51100000000E-03 0.  1.
        -12    1    4    4    0    0 -0.11712319401E+01  0.19537989388E+02  0.87198194958E+01  0.21427553888E+02  0.00000000000E+00 0.  1.
</event>
<event>
 8    1  0.2031623E-013  0.9118800E+02  0.7816164E-02  0.1184000E+00
        -11   -1    0    0    0    0  0.00000000000E+00  0.00000000000E+00  0.45593999997E+02  0.45594000000E+02  0.51100000000E-03 0. -1.
         11   -1    0    0    0    0 -0.00000000000E+00 -0.00000000000E+00 -0.45593999997E+02  0.45594000000E+02  0.51100000000E-03 0.  1.
         23    2    1    2    0    0  0.35527136788E-14 -0.71054273576E-14  0.00000000000E+00  0.91188000000E+02  0.91188000000E+02 0.  0.
    9900012    2    3    3    0    0 -0.21078683028E+02  0.12527126007E+02  0.32433393735E+02  0.50528870725E+02  0.30000033057E+02 0.  0.
        -12    1    3    3    0    0  0.21078683028E+02 -0.12527126007E+02 -0.32433393735E+02  0.40659129275E+02  0.00000000000E+00 0.  1.
         11    1    4    4    0    0 -0.12567403809E+02 -0.47412405080E+01  0.18314712149E+02  0.22712280410E+02  0.51100000000E-03 0. -1.
        -11    1    4    4    0    0 -0.90007996243E+01  0.19592450427E+02  0.13127294035E+02  0.25242907054E+02  0.51100000000E-03 0.  1.
         12    1    4    4    0    0  0.48952040518E+00 -0.23240839113E+01  0.99138755095E+00  0.25736832614E+01  0.00000000000E+00 0. -1.
</event>
<event>
 8    1  0.2031623E-013  0.9118800E+02  0.7816164E-02  0.1184000E+00
        -11   -1    0    0    0    0  0.00000000000E+00  0.00000000000E+00  0.45593999997E+02  0.45594000000E+02  0.51100000000E-03 0. -1.
         11   -1    0    0    0    0 -0.00000000000E+00 -0.00000000000E+00 -0.45593999997E+02  0.45594000000E+02  0.51100000000E-03 0.  1.
         23    2    1    2    0    0  0.00000000000E+00  0.00000000000E+00  0.00000000000E+00  0.91188000000E+02  0.91188000000E+02 0.  0.
    9900012    2    3    3    0    0 -0.14483834411E+02  0.32013898580E+02  0.20457019512E+02  0.50528919725E+02  0.30000181995E+02 0.  0.
        -12    1    3    3    0    0  0.14483834411E+02 -0.32013898580E+02 -0.20457019512E+02  0.40659080275E+02  0.00000000000E+00 0.  1.
         11    1    4    4    0    0 -0.22561716489E+01  0.28056221332E+02  0.36738091990E+01  0.28385537519E+02  0.51100000000E-03 0. -1.
        -11    1    4    4    0    0 -0.98852337984E+01  0.42305886634E+01  0.90357352591E+01  0.14044936441E+02  0.51100000000E-03 0.  1.
         12    1    4    4    0    0 -0.23424289639E+01 -0.27291141623E+00  0.77474750541E+01  0.80984457648E+01  0.00000000000E+00 0. -1.
</event>
<event>
 8    1  0.2031623E-013  0.9118800E+02  0.7816164E-02  0.1184000E+00
        -11   -1    0    0    0    0  0.00000000000E+00  0.00000000000E+00  0.45593999997E+02  0.45594000000E+02  0.51100000000E-03 0. -1.
         11   -1    0    0    0    0 -0.00000000000E+00 -0.00000000000E+00 -0.45593999997E+02  0.45594000000E+02  0.51100000000E-03 0.  1.
         23    2    1    2    0    0  0.17763568394E-14 -0.17763568394E-14  0.00000000000E+00  0.91188000000E+02  0.91188000000E+02 0.  0.
    9900012    2    3    3    0    0 -0.98987718552E+01  0.12471763873E+02  0.37411695815E+02  0.50528861272E+02  0.30000004322E+02 0.  0.
        -12    1    3    3    0    0  0.98987718552E+01 -0.12471763873E+02 -0.37411695815E+02  0.40659138728E+02  0.00000000000E+00 0.  1.
         11    1    4    4    0    0 -0.35003955268E+01 -0.38772097612E+01  0.11964199417E+02  0.13054791929E+02  0.51100000000E-03 0. -1.
        -11    1    4    4    0    0 -0.10201367472E+02  0.15445185757E+02  0.90254423044E+01  0.20593209328E+02  0.51100000000E-03 0.  1.
        -12    1    4    4    0    0  0.38029911433E+01  0.90378787717E+00  0.16422054094E+02  0.16880860014E+02  0.00000000000E+00 0.  1.
</event>
<event>
 8    1  0.2031623E-013  0.9118800E+02  0.7816164E-02  0.1184000E+00
        -11   -1    0    0    0    0  0.00000000000E+00  0.00000000000E+00  0.45593999997E+02  0.45594000000E+02  0.51100000000E-03 0. -1.
         11   -1    0    0    0    0 -0.00000000000E+00 -0.00000000000E+00 -0.45593999997E+02  0.45594000000E+02  0.51100000000E-03 0.  1.
         23    2    1    2    0    0  0.00000000000E+00  0.00000000000E+00 -0.71054273576E-14  0.91188000000E+02  0.91188000000E+02 0.  0.
    9900012    2    3    3    0    0 -0.16734292561E+02  0.14076141098E+02  0.34278197294E+02  0.50528817698E+02  0.29999871875E+02 0.  0.
        -12    1    3    3    0    0  0.16734292561E+02 -0.14076141098E+02 -0.34278197294E+02  0.40659182302E+02  0.00000000000E+00 0.  1.
         11    1    4    4    0    0 -0.10960523112E+02  0.44732183933E+00  0.14919605003E+02  0.18518309249E+02  0.51100000000E-03 0. -1.
        -11    1    4    4    0    0 -0.23604343424E+01  0.10239602036E+02 -0.14908587093E+01  0.10613376470E+02  0.51100000000E-03 0.  1.
        -12    1    4    4    0    0 -0.34133351066E+01  0.33892172228E+01  0.20849451000E+02  0.21397131979E+02  0.00000000000E+00 0.  1.
</event>
<event>
 8    1  0.2031623E-013  0.9118800E+02  0.7816164E-02  0.1184000E+00
        -11   -1    0    0    0    0  0.00000000000E+00  0.00000000000E+00  0.45593999997E+02  0.45594000000E+02  0.51100000000E-03 0. -1.
         11   -1    0    0    0    0 -0.00000000000E+00 -0.00000000000E+00 -0.45593999997E+02  0.45594000000E+02  0.51100000000E-03 0.  1.
         23    2    1    2    0    0  0.00000000000E+00  0.33306690739E-15  0.00000000000E+00  0.91188000000E+02  0.91188000000E+02 0.  0.
    9900012    2    3    3    0    0  0.58027342071E+01 -0.13414710174E+00  0.40242712961E+02  0.50528859992E+02  0.30000000432E+02 0.  0.
        -12    1    3    3    0    0 -0.58027342071E+01  0.13414710174E+00 -0.40242712961E+02  0.40659140008E+02  0.00000000000E+00 0.  1.
         11    1    4    4    0    0  0.91562816420E+01  0.32163223534E+01  0.29197506012E+02  0.30768109798E+02  0.51100000000E-03 0. -1.
        -11    1    4    4    0    0 -0.85334520903E+01  0.12347538508E+01  0.91834351679E+01  0.12596821162E+02  0.51100000000E-03 0.  1.
         12    1    4    4    0    0  0.51799046554E+01 -0.45852233059E+01  0.18617717810E+01  0.71639290315E+01  0.00000000000E+00 0. -1.
</event>
<event>
 8    1  0.2031623E-013  0.9118800E+02  0.7816164E-02  0.1184000E+00
        -11   -1    0    0    0    0  0.00000000000E+00  0.00000000000E+00  0.45593999997E+02  0.45594000000E+02  0.51100000000E-03 0. -1.
         11   -1    0    0    0    0 -0.00000000000E+00 -0.00000000000E+00 -0.45593999997E+02  0.45594000000E+02  0.51100000000E-03 0.  1.
         23    2    1    2    0    0  0.00000000000E+00 -0.27755575616E-15  0.00000000000E+00  0.91188000000E+02  0.91188000000E+02 0.  0.
    9900012    2    3    3    0    0  0.18653089532E+02 -0.34107463873E+00 -0.36126306879E+02  0.50528878887E+02  0.30000057865E+02 0.  0.
         12    1    3    3    0    0 -0.18653089532E+02  0.34107463873E+00  0.36126306879E+02  0.40659121113E+02  0.00000000000E+00 0. -1.
         11    1    4    4    0    0  0.18574255865E+02  0.13344461832E+01 -0.31859164266E+02  0.36902439968E+02  0.51100000000E-03 0. -1.
        -11    1    4    4    0    0 -0.47287933451E+01 -0.47612669987E+01 -0.38913383117E+00  0.67217985192E+01  0.51100000000E-03 0.  1.
         12    1    4    4    0    0  0.48076270114E+01  0.30857461767E+01 -0.38780087815E+01  0.69046404003E+01  0.00000000000E+00 0. -1.
</event>
<event>
 8    1  0.2031623E-013  0.9118800E+02  0.7816164E-02  0.1184000E+00
        -11   -1    0    0    0    0  0.00000000000E+00  0.00000000000E+00  0.45593999997E+02  0.45594000000E+02  0.51100000000E-03 0. -1.
         11   -1    0    0    0    0 -0.00000000000E+00 -0.00000000000E+00 -0.45593999997E+02  0.45594000000E+02  0.51100000000E-03 0.  1.
         23    2    1    2    0    0  0.88817841970E-15  0.00000000000E+00 -0.71054273576E-14  0.91188000000E+02  0.91188000000E+02 0.  0.
    9900012    2    3    3    0    0  0.76264550019E+01  0.13113051329E+02 -0.37723358946E+02  0.50528846772E+02  0.29999960248E+02 0.  0.
         12    1    3    3    0    0 -0.76264550019E+01 -0.13113051329E+02  0.37723358946E+02  0.40659153228E+02  0.00000000000E+00 0. -1.
         11    1    4    4    0    0 -0.57772913384E+01 -0.26059275584E-01 -0.37732104243E+01  0.69003544446E+01  0.51100000000E-03 0. -1.
        -11    1    4    4    0    0  0.15411867259E+02  0.77726300985E+01 -0.12202308981E+02  0.21138490385E+02  0.51100000000E-03 0.  1.
        -12    1    4    4    0    0 -0.20081209182E+01  0.53664805062E+01 -0.21747839541E+02  0.22490001942E+02  0.00000000000E+00 0.  1.
</event>
<event>
 8    1  0.2031623E-013  0.9118800E+02  0.7816164E-02  0.1184000E+00
        -11   -1    0    0    0    0  0.00000000000E+00  0.00000000000E+00  0.45593999997E+02  0.45594000000E+02  0.51100000000E-03 0. -1.
         11   -1    0    0    0    0 -0.00000000000E+00 -0.00000000000E+00 -0.45593999997E+02  0.45594000000E+02  0.51100000000E-03 0.  1.
         23    2    1    2    0    0  0.00000000000E+00  0.00000000000E+00  0.00000000000E+00  0.91188000000E+02  0.91188000000E+02 0.  0.
    9900012    2    3    3    0    0  0.16711771665E+01  0.12874185079E+02  0.38530876696E+02  0.50528856704E+02  0.29999990438E+02 0.  0.
        -12    1    3    3    0    0 -0.16711771665E+01 -0.12874185079E+02 -0.38530876696E+02  0.40659143296E+02  0.00000000000E+00 0.  1.
         11    1    4    4    0    0 -0.99552448386E+01  0.24537713352E+01  0.20029580702E+02  0.22501377667E+02  0.51100000000E-03 0.  1.
        -11    1    4    4    0    0  0.52047531223E+01  0.11075021198E+02  0.53058650731E+01  0.13337831684E+02  0.51100000000E-03 0. -1.
         12    1    4    4    0    0  0.64216688828E+01 -0.65460745453E+00  0.13195430921E+02  0.14689647353E+02  0.00000000000E+00 0. -1.
</event>
<event>
 8    1  0.2031623E-013  0.9118800E+02  0.7816164E-02  0.1184000E+00
        -11   -1    0    0    0    0  0.00000000000E+00  0.00000000000E+00  0.45593999997E+02  0.45594000000E+02  0.51100000000E-03 0. -1.
         11   -1    0    0    0    0 -0.00000000000E+00 -0.00000000000E+00 -0.45593999997E+02  0.45594000000E+02  0.51100000000E-03 0.  1.
         23    2    1    2    0    0  0.35527136788E-14 -0.17763568394E-14  0.00000000000E+00  0.91188000000E+02  0.91188000000E+02 0.  0.
    9900012    2    3    3    0    0 -0.20895534785E+02 -0.12728412928E+02  0.32473543906E+02  0.50528844531E+02  0.29999953438E+02 0.  0.
        -12    1    3    3    0    0  0.20895534785E+02  0.12728412928E+02 -0.32473543906E+02  0.40659155469E+02  0.00000000000E+00 0.  1.
         11    1    4    4    0    0 -0.10249025598E+02 -0.10657376521E+01  0.14163203217E+02  0.17514983530E+02  0.51100000000E-03 0. -1.
        -11    1    4    4    0    0 -0.30586408611E+01  0.29647312665E+01 -0.36147779780E+01  0.55867285142E+01  0.51100000000E-03 0.  1.
        -12    1    4    4    0    0 -0.75878683257E+01 -0.14627406543E+02  0.21925118667E+02  0.27427132487E+02  0.00000000000E+00 0.  1.
</event>
<event>
 8    1  0.2031623E-013  0.9118800E+02  0.7816164E-02  0.1184000E+00
        -11   -1    0    0    0    0  0.00000000000E+00  0.00000000000E+00  0.45593999997E+02  0.45594000000E+02  0.51100000000E-03 0. -1.
         11   -1    0    0    0    0 -0.00000000000E+00 -0.00000000000E+00 -0.45593999997E+02  0.45594000000E+02  0.51100000000E-03 0.  1.
         23    2    1    2    0    0 -0.88817841970E-15  0.00000000000E+00  0.00000000000E+00  0.91188000000E+02  0.91188000000E+02 0.  0.
    9900012    2    3    3    0    0  0.46935867579E+01  0.36645510368E+02  0.16977692973E+02  0.50528865166E+02  0.30000016157E+02 0.  0.
        -12    1    3    3    0    0 -0.46935867579E+01 -0.36645510368E+02 -0.16977692973E+02  0.40659134834E+02  0.00000000000E+00 0.  1.
         11    1    4    4    0    0  0.80224579948E+01  0.27411647778E+02  0.66333041683E+01  0.29321647133E+02  0.51100000000E-03 0. -1.
        -11    1    4    4    0    0 -0.17358023625E+01  0.64029377997E+01  0.14492394537E+02  0.15938636139E+02  0.51100000000E-03 0.  1.
         12    1    4    4    0    0 -0.15930688744E+01  0.28309247911E+01 -0.41480057323E+01  0.52685818933E+01  0.00000000000E+00 0. -1.
</event>
<event>
 8    1  0.2031623E-013  0.9118800E+02  0.7816164E-02  0.1184000E+00
        -11   -1    0    0    0    0  0.00000000000E+00  0.00000000000E+00  0.45593999997E+02  0.45594000000E+02  0.51100000000E-03 0. -1.
         11   -1    0    0    0    0 -0.00000000000E+00 -0.00000000000E+00 -0.45593999997E+02  0.45594000000E+02  0.51100000000E-03 0.  1.
         23    2    1    2    0    0 -0.88817841970E-15  0.00000000000E+00 -0.71054273576E-14  0.91188000000E+02  0.91188000000E+02 0.  0.
    9900012    2    3    3    0    0 -0.44634933058E+01  0.22863159619E+02 -0.33324453367E+02  0.50528855488E+02  0.29999986741E+02 0.  0.
         12    1    3    3    0    0  0.44634933058E+01 -0.22863159619E+02  0.33324453367E+02  0.40659144512E+02  0.00000000000E+00 0. -1.
         11    1    4    4    0    0  0.20251132022E+01  0.39099687228E+01  0.25999875663E+01  0.51135970217E+01  0.51100000000E-03 0. -1.
        -11    1    4    4    0    0 -0.66346575513E+01  0.22204382411E+02 -0.25327389103E+02  0.34329723537E+02  0.51100000000E-03 0.  1.
        -12    1    4    4    0    0  0.14605104336E+00 -0.32511915148E+01 -0.10597051830E+02  0.11085534929E+02  0.00000000000E+00 0.  1.
</event>
<event>
 8    1  0.2031623E-013  0.9118800E+02  0.7816164E-02  0.1184000E+00
        -11   -1    0    0    0    0  0.00000000000E+00  0.00000000000E+00  0.45593999997E+02  0.45594000000E+02  0.51100000000E-03 0. -1.
         11   -1    0    0    0    0 -0.00000000000E+00 -0.00000000000E+00 -0.45593999997E+02  0.45594000000E+02  0.51100000000E-03 0.  1.
         23    2    1    2    0    0  0.00000000000E+00  0.17763568394E-14 -0.35527136788E-14  0.91188000000E+02  0.91188000000E+02 0.  0.
    9900012    2    3    3    0    0 -0.31145161703E+02  0.57601607182E+01 -0.25494365960E+02  0.50528889770E+02  0.30000090944E+02 0.  0.
         12    1    3    3    0    0  0.31145161703E+02 -0.57601607182E+01  0.25494365960E+02  0.40659110230E+02  0.00000000000E+00 0. -1.
         11    1    4    4    0    0 -0.12643401339E+02 -0.10929626044E+02 -0.58897044509E+01  0.17720071717E+02  0.51100000000E-03 0. -1.
        -11    1    4    4    0    0 -0.99166291572E+01  0.69366958479E+01 -0.45664216060E+01  0.12934816956E+02  0.51100000000E-03 0.  1.
         12    1    4    4    0    0 -0.85851312061E+01  0.97530909143E+01 -0.15038239903E+02  0.19874001097E+02  0.00000000000E+00 0. -1.
</event>
<event>
 8    1  0.2031623E-013  0.9118800E+02  0.7816164E-02  0.1184000E+00
        -11   -1    0    0    0    0  0.00000000000E+00  0.00000000000E+00  0.45593999997E+02  0.45594000000E+02  0.51100000000E-03 0. -1.
         11   -1    0    0    0    0 -0.00000000000E+00 -0.00000000000E+00 -0.45593999997E+02  0.45594000000E+02  0.51100000000E-03 0.  1.
         23    2    1    2    0    0 -0.35527136788E-14  0.00000000000E+00 -0.35527136788E-14  0.91188000000E+02  0.91188000000E+02 0.  0.
    9900012    2    3    3    0    0 -0.17142544335E+02 -0.26706498167E+02 -0.25417746013E+02  0.50528859785E+02  0.29999999804E+02 0.  0.
         12    1    3    3    0    0  0.17142544335E+02  0.26706498167E+02  0.25417746013E+02  0.40659140215E+02  0.00000000000E+00 0. -1.
         11    1    4    4    0    0  0.30123651858E+01 -0.11180143094E+02 -0.46512699404E+00  0.11588196020E+02  0.51100000000E-03 0. -1.
        -11    1    4    4    0    0 -0.10809092563E+02 -0.69073169330E+00 -0.15815421576E+02  0.19168754582E+02  0.51100000000E-03 0.  1.
         12    1    4    4    0    0 -0.93458169575E+01 -0.14835623379E+02 -0.91371974428E+01  0.19771909183E+02  0.00000000000E+00 0. -1.
</event>
<event>
 8    1  0.3250926E-013  0.9118800E+02  0.7816164E-02  0.1184000E+00
        -11   -1    0    0    0    0  0.00000000000E+00  0.00000000000E+00  0.45593999997E+02  0.45594000000E+02  0.51100000000E-03 0. -1.
         11   -1    0    0    0    0 -0.00000000000E+00 -0.00000000000E+00 -0.45593999997E+02  0.45594000000E+02  0.51100000000E-03 0.  1.
         23    2    1    2    0    0  0.00000000000E+00 -0.44408920985E-15  0.00000000000E+00  0.91188000000E+02  0.91188000000E+02 0.  0.
    9900012    2    3    3    0    0  0.18501871732E+02  0.23841739576E+01 -0.36127032048E+02  0.50528856039E+02  0.29999988416E+02 0.  0.
         12    1    3    3    0    0 -0.18501871732E+02 -0.23841739576E+01  0.36127032048E+02  0.40659143961E+02  0.00000000000E+00 0. -1.
         11    1    4    4    0    0 -0.14522165115E+01 -0.66514056281E+01 -0.17536760099E+02  0.18811913371E+02  0.51100000000E-03 0. -1.
        -11    1    4    4    0    0  0.17309346390E+02  0.16941045086E+01 -0.15590289886E+02  0.23356810603E+02  0.51100000000E-03 0.  1.
         12    1    4    4    0    0  0.26447418539E+01  0.73414750771E+01 -0.29999820627E+01  0.83601320658E+01  0.00000000000E+00 0. -1.
</event>
<event>
 8    1  0.2031623E-013  0.9118800E+02  0.7816164E-02  0.1184000E+00
        -11   -1    0    0    0    0  0.00000000000E+00  0.00000000000E+00  0.45593999997E+02  0.45594000000E+02  0.51100000000E-03 0. -1.
         11   -1    0    0    0    0 -0.00000000000E+00 -0.00000000000E+00 -0.45593999997E+02  0.45594000000E+02  0.51100000000E-03 0.  1.
         23    2    1    2    0    0  0.17763568394E-14  0.00000000000E+00  0.00000000000E+00  0.91188000000E+02  0.91188000000E+02 0.  0.
    9900012    2    3    3    0    0  0.12879823436E+02  0.98982083126E+01 -0.37273341418E+02  0.50528851460E+02  0.29999974499E+02 0.  0.
         12    1    3    3    0    0 -0.12879823436E+02 -0.98982083126E+01  0.37273341418E+02  0.40659148540E+02  0.00000000000E+00 0. -1.
         11    1    4    4    0    0  0.21658981453E+01  0.51550224837E+01  0.38849311625E+01  0.68086754940E+01  0.51100000000E-03 0. -1.
        -11    1    4    4    0    0  0.11086650067E+02  0.32827704193E+01 -0.40421144739E+02  0.42042351666E+02  0.51100000000E-03 0.  1.
        -12    1    4    4    0    0 -0.37272477698E+00  0.14604154097E+01 -0.73712784081E+00  0.16778243000E+01  0.00000000000E+00 0.  1.
</event>
<event>
 8    1  0.2031623E-013  0.9118800E+02  0.7816164E-02  0.1184000E+00
        -11   -1    0    0    0    0  0.00000000000E+00  0.00000000000E+00  0.45593999997E+02  0.45594000000E+02  0.51100000000E-03 0.  1.
         11   -1    0    0    0    0 -0.00000000000E+00 -0.00000000000E+00 -0.45593999997E+02  0.45594000000E+02  0.51100000000E-03 0. -1.
         23    2    1    2    0    0 -0.35527136788E-14 -0.35527136788E-14 -0.88817841970E-15  0.91188000000E+02  0.91188000000E+02 0.  0.
    9900012    2    3    3    0    0  0.29238995781E+02  0.27737049906E+02  0.53760956141E+01  0.50528865530E+02  0.30000017265E+02 0.  0.
         12    1    3    3    0    0 -0.29238995781E+02 -0.27737049906E+02 -0.53760956141E+01  0.40659134470E+02  0.00000000000E+00 0. -1.
         11    1    4    4    0    0  0.15946015084E+02  0.15199961964E+02  0.13550685904E+02  0.25863784130E+02  0.51100000000E-03 0. -1.
        -11    1    4    4    0    0  0.15287074044E+02  0.79806189887E+01 -0.30294144309E+01  0.17508919564E+02  0.51100000000E-03 0.  1.
         12    1    4    4    0    0 -0.19940933468E+01  0.45564689532E+01 -0.51451758591E+01  0.71561618356E+01  0.00000000000E+00 0. -1.
</event>
<event>
 8    1  0.2031623E-013  0.9118800E+02  0.7816164E-02  0.1184000E+00
        -11   -1    0    0    0    0  0.00000000000E+00  0.00000000000E+00  0.45593999997E+02  0.45594000000E+02  0.51100000000E-03 0.  1.
         11   -1    0    0    0    0 -0.00000000000E+00 -0.00000000000E+00 -0.45593999997E+02  0.45594000000E+02  0.51100000000E-03 0. -1.
         23    2    1    2    0    0 -0.35527136788E-14 -0.35527136788E-14  0.44408920985E-15  0.91188000000E+02  0.91188000000E+02 0.  0.
    9900012    2    3    3    0    0  0.26096708814E+02  0.31020347018E+02  0.31409803341E+01  0.50528857148E+02  0.29999991786E+02 0.  0.
         12    1    3    3    0    0 -0.26096708814E+02 -0.31020347018E+02 -0.31409803341E+01  0.40659142852E+02  0.00000000000E+00 0. -1.
         11    1    4    4    0    0  0.12946141926E+01  0.22674876525E+02  0.55203790833E+00  0.22718512219E+02  0.51100000000E-03 0. -1.
        -11    1    4    4    0    0  0.21621402314E+02  0.79359641049E+01 -0.92836396380E+00  0.23050518957E+02  0.51100000000E-03 0.  1.
         12    1    4    4    0    0  0.31806923076E+01  0.40950638808E+00  0.35173063896E+01  0.47598259712E+01  0.00000000000E+00 0. -1.
</event>
<event>
 8    1  0.2031623E-013  0.9118800E+02  0.7816164E-02  0.1184000E+00
        -11   -1    0    0    0    0  0.00000000000E+00  0.00000000000E+00  0.45593999997E+02  0.45594000000E+02  0.51100000000E-03 0.  1.
         11   -1    0    0    0    0 -0.00000000000E+00 -0.00000000000E+00 -0.45593999997E+02  0.45594000000E+02  0.51100000000E-03 0. -1.
         23    2    1    2    0    0  0.71054273576E-14 -0.88817841970E-15  0.11102230246E-15  0.91188000000E+02  0.91188000000E+02 0.  0.
    9900012    2    3    3    0    0 -0.40286007687E+02 -0.54526783763E+01  0.68679593715E+00  0.50528858279E+02  0.29999995225E+02 0.  0.
         12    1    3    3    0    0  0.40286007687E+02  0.54526783763E+01 -0.68679593715E+00  0.40659141721E+02  0.00000000000E+00 0. -1.
         11    1    4    4    0    0 -0.87536884956E+01  0.89486260368E+01  0.15445174183E+01  0.12613108441E+02  0.51100000000E-03 0. -1.
        -11    1    4    4    0    0 -0.27301543232E+02 -0.74813538611E+01  0.38011895534E+01  0.28562107078E+02  0.51100000000E-03 0.  1.
        -12    1    4    4    0    0 -0.42307759595E+01 -0.69199505520E+01 -0.46589110346E+01  0.93536427604E+01  0.00000000000E+00 0.  1.
</event>
<event>
 8    1  0.2031623E-013  0.9118800E+02  0.7816164E-02  0.1184000E+00
        -11   -1    0    0    0    0  0.00000000000E+00  0.00000000000E+00  0.45593999997E+02  0.45594000000E+02  0.51100000000E-03 0. -1.
         11   -1    0    0    0    0 -0.00000000000E+00 -0.00000000000E+00 -0.45593999997E+02  0.45594000000E+02  0.51100000000E-03 0.  1.
         23    2    1    2    0    0  0.00000000000E+00  0.00000000000E+00  0.00000000000E+00  0.91188000000E+02  0.91188000000E+02 0.  0.
    9900012    2    3    3    0    0  0.32495711943E+02  0.59036832487E+01 -0.23713722775E+02  0.50528863039E+02  0.30000009692E+02 0.  0.
         12    1    3    3    0    0 -0.32495711943E+02 -0.59036832487E+01  0.23713722775E+02  0.40659136961E+02  0.00000000000E+00 0. -1.
         11    1    4    4    0    0  0.24842191136E+01 -0.63506572062E+01  0.18411445017E+01  0.70634272766E+01  0.51100000000E-03 0. -1.
        -11    1    4    4    0    0  0.20013474722E+02  0.14329208564E+02 -0.15235204148E+02  0.28947829525E+02  0.51100000000E-03 0.  1.
        -12    1    4    4    0    0  0.99980181081E+01 -0.20748681094E+01 -0.10319663129E+02  0.14517606237E+02  0.00000000000E+00 0.  1.
</event>
<event>
 8    1  0.2031623E-013  0.9118800E+02  0.7816164E-02  0.1184000E+00
        -11   -1    0    0    0    0  0.00000000000E+00  0.00000000000E+00  0.45593999997E+02  0.45594000000E+02  0.51100000000E-03 0. -1.
         11   -1    0    0    0    0 -0.00000000000E+00 -0.00000000000E+00 -0.45593999997E+02  0.45594000000E+02  0.51100000000E-03 0.  1.
         23    2    1    2    0    0  0.00000000000E+00  0.00000000000E+00  0.00000000000E+00  0.91188000000E+02  0.91188000000E+02 0.  0.
    9900012    2    3    3    0    0 -0.78239698142E+01  0.24611666111E+02  0.31404102962E+02  0.50528852256E+02  0.29999976916E+02 0.  0.
        -12    1    3    3    0    0  0.78239698142E+01 -0.24611666111E+02 -0.31404102962E+02  0.40659147744E+02  0.00000000000E+00 0.  1.
         11    1    4    4    0    0  0.60700872415E+01  0.11239476184E+01  0.87558202229E+01  0.10713244392E+02  0.51100000000E-03 0. -1.
        -11    1    4    4    0    0 -0.26390647406E+01  0.18717260980E+02  0.74652959650E+01  0.20323168193E+02  0.51100000000E-03 0.  1.
        -12    1    4    4    0    0 -0.11254992315E+02  0.47704575125E+01  0.15182986775E+02  0.19492439670E+02  0.00000000000E+00 0.  1.
</event>
<event>
 8    1  0.2031623E-013  0.9118800E+02  0.7816164E-02  0.1184000E+00
        -11   -1    0    0    0    0  0.00000000000E+00  0.00000000000E+00  0.45593999997E+02  0.45594000000E+02  0.51100000000E-03 0. -1.
         11   -1    0    0    0    0 -0.00000000000E+00 -0.00000000000E+00 -0.45593999997E+02  0.45594000000E+02  0.51100000000E-03 0.  1.
         23    2    1    2    0    0 -0.35527136788E-14  0.00000000000E+00  0.35527136788E-14  0.91188000000E+02  0.91188000000E+02 0.  0.
    9900012    2    3    3    0    0  0.18888165714E+02  0.24429205934E+02 -0.26450211615E+02  0.50528897685E+02  0.30000115002E+02 0.  0.
         12    1    3    3    0    0 -0.18888165714E+02 -0.24429205934E+02  0.26450211615E+02  0.40659102315E+02  0.00000000000E+00 0. -1.
         11    1    4    4    0    0  0.10866104130E+01 -0.30216113798E+01  0.42448131591E+01  0.53225272697E+01  0.51100000000E-03 0. -1.
        -11    1    4    4    0    0  0.17103784161E+02  0.23285059571E+02 -0.27727601409E+02  0.40044391767E+02  0.51100000000E-03 0.  1.
         12    1    4    4    0    0  0.69777114064E+00  0.41657577427E+01 -0.29674233651E+01  0.51619786481E+01  0.00000000000E+00 0. -1.
</event>
<event>
 8    1  0.2031623E-013  0.9118800E+02  0.7816164E-02  0.1184000E+00
        -11   -1    0    0    0    0  0.00000000000E+00  0.00000000000E+00  0.45593999997E+02  0.45594000000E+02  0.51100000000E-03 0. -1.
         11   -1    0    0    0    0 -0.00000000000E+00 -0.00000000000E+00 -0.45593999997E+02  0.45594000000E+02  0.51100000000E-03 0.  1.
         23    2    1    2    0    0  0.00000000000E+00  0.00000000000E+00  0.00000000000E+00  0.91188000000E+02  0.91188000000E+02 0.  0.
    9900012    2    3    3    0    0  0.18459218008E+02  0.28337683925E+02  0.22569835733E+02  0.50528873783E+02  0.30000042350E+02 0.  0.
        -12    1    3    3    0    0 -0.18459218008E+02 -0.28337683925E+02 -0.22569835733E+02  0.40659126217E+02  0.00000000000E+00 0.  1.
         11    1    4    4    0    0  0.17800005119E+02  0.11075266168E+02  0.23316714368E+02  0.31355555681E+02  0.51100000000E-03 0. -1.
        -11    1    4    4    0    0 -0.10762199478E+01 -0.54098447661E+00 -0.44157639788E+00  0.12829277284E+01  0.51100000000E-03 0.  1.
         12    1    4    4    0    0  0.17354328375E+01  0.17803402234E+02 -0.30530223652E+00  0.17890390373E+02  0.00000000000E+00 0. -1.
</event>
<event>
 8    1  0.2031623E-013  0.9118800E+02  0.7816164E-02  0.1184000E+00
        -11   -1    0    0    0    0  0.00000000000E+00  0.00000000000E+00  0.45593999997E+02  0.45594000000E+02  0.51100000000E-03 0. -1.
         11   -1    0    0    0    0 -0.00000000000E+00 -0.00000000000E+00 -0.45593999997E+02  0.45594000000E+02  0.51100000000E-03 0.  1.
         23    2    1    2    0    0  0.00000000000E+00  0.00000000000E+00  0.00000000000E+00  0.91188000000E+02  0.91188000000E+02 0.  0.
    9900012    2    3    3    0    0 -0.33228895737E+02 -0.87479991129E+01  0.21736574570E+02  0.50528859891E+02  0.30000000124E+02 0.  0.
        -12    1    3    3    0    0  0.33228895737E+02  0.87479991129E+01 -0.21736574570E+02  0.40659140109E+02  0.00000000000E+00 0.  1.
         11    1    4    4    0    0 -0.17436771952E+02  0.46633501353E+01  0.66466409245E+01  0.19234492103E+02  0.51100000000E-03 0.  1.
        -11    1    4    4    0    0  0.34706204749E+01 -0.11831057437E+01 -0.44189069700E+00  0.36932659436E+01  0.51100000000E-03 0. -1.
         12    1    4    4    0    0 -0.19262744260E+02 -0.12228243505E+02  0.15531824342E+02  0.27601101844E+02  0.00000000000E+00 0. -1.
</event>
<event>
 8    1  0.2031623E-013  0.9118800E+02  0.7816164E-02  0.1184000E+00
        -11   -1    0    0    0    0  0.00000000000E+00  0.00000000000E+00  0.45593999997E+02  0.45594000000E+02  0.51100000000E-03 0. -1.
         11   -1    0    0    0    0 -0.00000000000E+00 -0.00000000000E+00 -0.45593999997E+02  0.45594000000E+02  0.51100000000E-03 0.  1.
         23    2    1    2    0    0  0.00000000000E+00  0.00000000000E+00 -0.71054273576E-14  0.91188000000E+02  0.91188000000E+02 0.  0.
    9900012    2    3    3    0    0 -0.25511541083E+01  0.79343883502E+01 -0.39795761705E+02  0.50528861353E+02  0.30000004570E+02 0.  0.
         12    1    3    3    0    0  0.25511541083E+01 -0.79343883502E+01  0.39795761705E+02  0.40659138647E+02  0.00000000000E+00 0. -1.
         11    1    4    4    0    0  0.73341249494E+00  0.52939239206E+00  0.14076482641E+01  0.16732077244E+01  0.51100000000E-03 0. -1.
        -11    1    4    4    0    0 -0.16833650496E+01  0.17087900925E+01 -0.42687948617E+02  0.42755287847E+02  0.51100000000E-03 0.  1.
        -12    1    4    4    0    0 -0.16012015537E+01  0.56962058657E+01  0.14845386475E+01  0.61003657821E+01  0.00000000000E+00 0.  1.
</event>
<event>
 8    1  0.2031623E-013  0.9118800E+02  0.7816164E-02  0.1184000E+00
        -11   -1    0    0    0    0  0.00000000000E+00  0.00000000000E+00  0.45593999997E+02  0.45594000000E+02  0.51100000000E-03 0.  1.
         11   -1    0    0    0    0 -0.00000000000E+00 -0.00000000000E+00 -0.45593999997E+02  0.45594000000E+02  0.51100000000E-03 0. -1.
         23    2    1    2    0    0  0.00000000000E+00 -0.35527136788E-14  0.71054273576E-14  0.91188000000E+02  0.91188000000E+02 0.  0.
    9900012    2    3    3    0    0  0.15342278104E+02 -0.19387921342E+02  0.32278306537E+02  0.50528855096E+02  0.29999985551E+02 0.  0.
        -12    1    3    3    0    0 -0.15342278104E+02  0.19387921342E+02 -0.32278306537E+02  0.40659144904E+02  0.00000000000E+00 0.  1.
         11    1    4    4    0    0  0.13373119419E+02 -0.96888571825E+00  0.60016117606E+01  0.14690078506E+02  0.51100000000E-03 0. -1.
        -11    1    4    4    0    0  0.21405031623E+01 -0.17948664776E+02  0.28396031141E+02  0.33661118607E+02  0.51100000000E-03 0.  1.
        -12    1    4    4    0    0 -0.17134447717E+00 -0.47037084700E+00 -0.21193363647E+01  0.21776579828E+01  0.00000000000E+00 0.  1.
</event>
<event>
 8    1  0.2031623E-013  0.9118800E+02  0.7816164E-02  0.1184000E+00
        -11   -1    0    0    0    0  0.00000000000E+00  0.00000000000E+00  0.45593999997E+02  0.45594000000E+02  0.51100000000E-03 0. -1.
         11   -1    0    0    0    0 -0.00000000000E+00 -0.00000000000E+00 -0.45593999997E+02  0.45594000000E+02  0.51100000000E-03 0.  1.
         23    2    1    2    0    0 -0.53290705182E-14  0.00000000000E+00  0.00000000000E+00  0.91188000000E+02  0.91188000000E+02 0.  0.
    9900012    2    3    3    0    0 -0.13132125134E+02  0.65924731063E+01 -0.37911115435E+02  0.50528854832E+02  0.29999984749E+02 0.  0.
         12    1    3    3    0    0  0.13132125134E+02 -0.65924731063E+01  0.37911115435E+02  0.40659145168E+02  0.00000000000E+00 0. -1.
         11    1    4    4    0    0 -0.49743622667E+01 -0.25647120236E+01 -0.38194842223E+01  0.67757278362E+01  0.51100000000E-03 0. -1.
        -11    1    4    4    0    0  0.55676353686E+01  0.12160287048E+02 -0.16649610441E+02  0.21356045345E+02  0.51100000000E-03 0.  1.
        -12    1    4    4    0    0 -0.13725398236E+02 -0.30031019179E+01 -0.17442020773E+02  0.22397081651E+02  0.00000000000E+00 0.  1.
</event>
<event>
 8    1  0.2031623E-013  0.9118800E+02  0.7816164E-02  0.1184000E+00
        -11   -1    0    0    0    0  0.00000000000E+00  0.00000000000E+00  0.45593999997E+02  0.45594000000E+02  0.51100000000E-03 0. -1.
         11   -1    0    0    0    0 -0.00000000000E+00 -0.00000000000E+00 -0.45593999997E+02  0.45594000000E+02  0.51100000000E-03 0.  1.
         23    2    1    2    0    0  0.00000000000E+00  0.88817841970E-15  0.71054273576E-14  0.91188000000E+02  0.91188000000E+02 0.  0.
    9900012    2    3    3    0    0 -0.23359959872E+02 -0.49582687805E+01  0.32907337953E+02  0.50528867623E+02  0.30000023627E+02 0.  0.
        -12    1    3    3    0    0  0.23359959872E+02  0.49582687805E+01 -0.32907337953E+02  0.40659132377E+02  0.00000000000E+00 0.  1.
         11    1    4    4    0    0 -0.88191548182E+01  0.90034690220E+00  0.16452825838E+02  0.18689130385E+02  0.51100000000E-03 0. -1.
        -11    1    4    4    0    0 -0.11099073610E+02 -0.86773579381E+01 -0.71167533296E+00  0.14106468652E+02  0.51100000000E-03 0.  1.
        -12    1    4    4    0    0 -0.34417314439E+01  0.28187422554E+01  0.17166187448E+02  0.17733268586E+02  0.00000000000E+00 0.  1.
</event>
<event>
 8    1  0.2031623E-013  0.9118800E+02  0.7816164E-02  0.1184000E+00
        -11   -1    0    0    0    0  0.00000000000E+00  0.00000000000E+00  0.45593999997E+02  0.45594000000E+02  0.51100000000E-03 0. -1.
         11   -1    0    0    0    0 -0.00000000000E+00 -0.00000000000E+00 -0.45593999997E+02  0.45594000000E+02  0.51100000000E-03 0.  1.
         23    2    1    2    0    0  0.00000000000E+00  0.00000000000E+00 -0.35527136788E-14  0.91188000000E+02  0.91188000000E+02 0.  0.
    9900012    2    3    3    0    0  0.26951839854E+02  0.61599470627E+01  0.29813083695E+02  0.50528848770E+02  0.29999966322E+02 0.  0.
        -12    1    3    3    0    0 -0.26951839854E+02 -0.61599470627E+01 -0.29813083695E+02  0.40659151230E+02  0.00000000000E+00 0.  1.
         11    1    4    4    0    0  0.91850929514E+01 -0.31517112970E+01 -0.24273791943E+01  0.10009564758E+02  0.51100000000E-03 0. -1.
        -11    1    4    4    0    0  0.16827598274E+02  0.64594730608E+01  0.32836049640E+02  0.37457963267E+02  0.51100000000E-03 0.  1.
        -12    1    4    4    0    0  0.93914862846E+00  0.28521852990E+01 -0.59558675105E+00  0.30613207450E+01  0.00000000000E+00 0.  1.
</event>
<event>
 8    1  0.2031623E-013  0.9118800E+02  0.7816164E-02  0.1184000E+00
        -11   -1    0    0    0    0  0.00000000000E+00  0.00000000000E+00  0.45593999997E+02  0.45594000000E+02  0.51100000000E-03 0. -1.
         11   -1    0    0    0    0 -0.00000000000E+00 -0.00000000000E+00 -0.45593999997E+02  0.45594000000E+02  0.51100000000E-03 0.  1.
         23    2    1    2    0    0 -0.71054273576E-14  0.00000000000E+00  0.00000000000E+00  0.91188000000E+02  0.91188000000E+02 0.  0.
    9900012    2    3    3    0    0  0.32965151727E+02 -0.79179201750E+01  0.22444815407E+02  0.50528875232E+02  0.30000046754E+02 0.  0.
        -12    1    3    3    0    0 -0.32965151727E+02  0.79179201750E+01 -0.22444815407E+02  0.40659124768E+02  0.00000000000E+00 0.  1.
         11    1    4    4    0    0  0.88954772586E+01  0.45137510850E+01  0.92923697783E+00  0.10018330506E+02  0.51100000000E-03 0. -1.
        -11    1    4    4    0    0  0.13948097977E+02 -0.16855642179E+02  0.85806709302E+01  0.23500851566E+02  0.51100000000E-03 0.  1.
        -12    1    4    4    0    0  0.10121576491E+02  0.44239709191E+01  0.12934907499E+02  0.17009693159E+02  0.00000000000E+00 0.  1.
</event>
<event>
 8    1  0.2031623E-013  0.9118800E+02  0.7816164E-02  0.1184000E+00
        -11   -1    0    0    0    0  0.00000000000E+00  0.00000000000E+00  0.45593999997E+02  0.45594000000E+02  0.51100000000E-03 0. -1.
         11   -1    0    0    0    0 -0.00000000000E+00 -0.00000000000E+00 -0.45593999997E+02  0.45594000000E+02  0.51100000000E-03 0.  1.
         23    2    1    2    0    0  0.55511151231E-15  0.00000000000E+00  0.00000000000E+00  0.91188000000E+02  0.91188000000E+02 0.  0.
    9900012    2    3    3    0    0 -0.76034830593E+00 -0.35984561879E+02  0.18912941279E+02  0.50528853784E+02  0.29999981562E+02 0.  0.
        -12    1    3    3    0    0  0.76034830593E+00  0.35984561879E+02 -0.18912941279E+02  0.40659146216E+02  0.00000000000E+00 0.  1.
         11    1    4    4    0    0  0.10713866501E+01 -0.10021548081E+02  0.11198029221E+02  0.15065694607E+02  0.51100000000E-03 0. -1.
        -11    1    4    4    0    0  0.13996242733E+01  0.37267517261E+01 -0.14289774585E+01  0.42296103098E+01  0.51100000000E-03 0.  1.
        -12    1    4    4    0    0 -0.32313592293E+01 -0.29689765525E+02  0.91438895169E+01  0.31233548868E+02  0.00000000000E+00 0.  1.
</event>
<event>
 8    1  0.2031623E-013  0.9118800E+02  0.7816164E-02  0.1184000E+00
        -11   -1    0    0    0    0  0.00000000000E+00  0.00000000000E+00  0.45593999997E+02  0.45594000000E+02  0.51100000000E-03 0. -1.
         11   -1    0    0    0    0 -0.00000000000E+00 -0.00000000000E+00 -0.45593999997E+02  0.45594000000E+02  0.51100000000E-03 0.  1.
         23    2    1    2    0    0  0.00000000000E+00  0.17763568394E-14  0.00000000000E+00  0.91188000000E+02  0.91188000000E+02 0.  0.
    9900012    2    3    3    0    0  0.14020969271E+02  0.12288307241E+02  0.36132752044E+02  0.50528857800E+02  0.29999993769E+02 0.  0.
        -12    1    3    3    0    0 -0.14020969271E+02 -0.12288307241E+02 -0.36132752044E+02  0.40659142200E+02  0.00000000000E+00 0.  1.
         11    1    4    4    0    0  0.58212452495E+01  0.47921911636E+01  0.11308143531E+02  0.13591398117E+02  0.51100000000E-03 0. -1.
        -11    1    4    4    0    0  0.59246185409E+01 -0.64829839299E+01  0.50814652325E+00  0.87970676160E+01  0.51100000000E-03 0.  1.
        -12    1    4    4    0    0  0.22751054811E+01  0.13979100007E+02  0.24316461990E+02  0.28140392067E+02  0.00000000000E+00 0.  1.
</event>
<event>
 8    1  0.2031623E-013  0.9118800E+02  0.7816164E-02  0.1184000E+00
        -11   -1    0    0    0    0  0.00000000000E+00  0.00000000000E+00  0.45593999997E+02  0.45594000000E+02  0.51100000000E-03 0.  1.
         11   -1    0    0    0    0 -0.00000000000E+00 -0.00000000000E+00 -0.45593999997E+02  0.45594000000E+02  0.51100000000E-03 0. -1.
         23    2    1    2    0    0  0.00000000000E+00  0.00000000000E+00  0.88817841970E-15  0.91188000000E+02  0.91188000000E+02 0.  0.
    9900012    2    3    3    0    0  0.31606571027E+02 -0.25232861250E+02 -0.41825115649E+01  0.50528855617E+02  0.29999987134E+02 0.  0.
         12    1    3    3    0    0 -0.31606571027E+02  0.25232861250E+02  0.41825115649E+01  0.40659144383E+02  0.00000000000E+00 0. -1.
         11    1    4    4    0    0  0.84266716494E+01 -0.34227562712E+00 -0.11454153071E+02  0.14224049020E+02  0.51100000000E-03 0. -1.
        -11    1    4    4    0    0  0.13874504880E+02 -0.75492275603E+01  0.19322338558E+01  0.15913084250E+02  0.51100000000E-03 0.  1.
         12    1    4    4    0    0  0.93053944975E+01 -0.17341358063E+02  0.53394076500E+01  0.20391722347E+02  0.00000000000E+00 0. -1.
</event>
<event>
 8    1  0.2031623E-013  0.9118800E+02  0.7816164E-02  0.1184000E+00
        -11   -1    0    0    0    0  0.00000000000E+00  0.00000000000E+00  0.45593999997E+02  0.45594000000E+02  0.51100000000E-03 0. -1.
         11   -1    0    0    0    0 -0.00000000000E+00 -0.00000000000E+00 -0.45593999997E+02  0.45594000000E+02  0.51100000000E-03 0.  1.
         23    2    1    2    0    0  0.71054273576E-14  0.00000000000E+00  0.00000000000E+00  0.91188000000E+02  0.91188000000E+02 0.  0.
    9900012    2    3    3    0    0  0.38824302203E+02 -0.85476180459E+01  0.85309869652E+01  0.50528856448E+02  0.29999989658E+02 0.  0.
        -12    1    3    3    0    0 -0.38824302203E+02  0.85476180459E+01 -0.85309869652E+01  0.40659143552E+02  0.00000000000E+00 0.  1.
         11    1    4    4    0    0  0.12667613451E+02 -0.11587092998E+02  0.12908530270E+01  0.17216139418E+02  0.51100000000E-03 0. -1.
        -11    1    4    4    0    0  0.19712904442E+02  0.68576170357E+01 -0.25053356384E+01  0.21021470450E+02  0.51100000000E-03 0.  1.
        -12    1    4    4    0    0  0.64437843103E+01 -0.38181420840E+01  0.97454695766E+01  0.12291246580E+02  0.00000000000E+00 0.  1.
</event>
<event>
 8    1  0.2031623E-013  0.9118800E+02  0.7816164E-02  0.1184000E+00
        -11   -1    0    0    0    0  0.00000000000E+00  0.00000000000E+00  0.45593999997E+02  0.45594000000E+02  0.51100000000E-03 0. -1.
         11   -1    0    0    0    0 -0.00000000000E+00 -0.00000000000E+00 -0.45593999997E+02  0.45594000000E+02  0.51100000000E-03 0.  1.
         23    2    1    2    0    0 -0.88817841970E-15  0.00000000000E+00  0.00000000000E+00  0.91188000000E+02  0.91188000000E+02 0.  0.
    9900012    2    3    3    0    0 -0.69833619211E+01  0.20892739597E+02  0.34174445853E+02  0.50528847759E+02  0.29999963249E+02 0.  0.
        -12    1    3    3    0    0  0.69833619211E+01 -0.20892739597E+02 -0.34174445853E+02  0.40659152241E+02  0.00000000000E+00 0.  1.
         11    1    4    4    0    0  0.71066792187E+01  0.12971721327E+02  0.19814989527E+02  0.24726590018E+02  0.51100000000E-03 0. -1.
        -11    1    4    4    0    0 -0.12951539310E+02  0.32701214826E+01  0.15905456754E+02  0.20770643221E+02  0.51100000000E-03 0.  1.
         12    1    4    4    0    0 -0.11385018299E+01  0.46508967883E+01 -0.15460004288E+01  0.50316145200E+01  0.00000000000E+00 0. -1.
</event>
<event>
 8    1  0.2031623E-013  0.9118800E+02  0.7816164E-02  0.1184000E+00
        -11   -1    0    0    0    0  0.00000000000E+00  0.00000000000E+00  0.45593999997E+02  0.45594000000E+02  0.51100000000E-03 0.  1.
         11   -1    0    0    0    0 -0.00000000000E+00 -0.00000000000E+00 -0.45593999997E+02  0.45594000000E+02  0.51100000000E-03 0. -1.
         23    2    1    2    0    0  0.00000000000E+00  0.00000000000E+00 -0.13322676296E-14  0.91188000000E+02  0.91188000000E+02 0.  0.
    9900012    2    3    3    0    0  0.32787638223E+02  0.23815048991E+02  0.33135888964E+01  0.50528860190E+02  0.30000001034E+02 0.  0.
        -12    1    3    3    0    0 -0.32787638223E+02 -0.23815048991E+02 -0.33135888964E+01  0.40659139810E+02  0.00000000000E+00 0.  1.
         11    1    4    4    0    0  0.10348829401E+02  0.21404995424E+02 -0.72385147350E+01  0.24852931314E+02  0.51100000000E-03 0. -1.
        -11    1    4    4    0    0  0.59101453077E+01 -0.19775512578E+01  0.19300767232E+01  0.65242411784E+01  0.51100000000E-03 0.  1.
         12    1    4    4    0    0  0.16528663514E+02  0.43876048254E+01  0.86220269081E+01  0.19151687698E+02  0.00000000000E+00 0. -1.
</event>
<event>
 8    1  0.2031623E-013  0.9118800E+02  0.7816164E-02  0.1184000E+00
        -11   -1    0    0    0    0  0.00000000000E+00  0.00000000000E+00  0.45593999997E+02  0.45594000000E+02  0.51100000000E-03 0. -1.
         11   -1    0    0    0    0 -0.00000000000E+00 -0.00000000000E+00 -0.45593999997E+02  0.45594000000E+02  0.51100000000E-03 0.  1.
         23    2    1    2    0    0  0.00000000000E+00  0.00000000000E+00 -0.71054273576E-14  0.91188000000E+02  0.91188000000E+02 0.  0.
    9900012    2    3    3    0    0  0.89512772949E+01 -0.18603218982E+02  0.35027977346E+02  0.50528876563E+02  0.30000050800E+02 0.  0.
        -12    1    3    3    0    0 -0.89512772949E+01  0.18603218982E+02 -0.35027977346E+02  0.40659123437E+02  0.00000000000E+00 0.  1.
         11    1    4    4    0    0 -0.21088806199E+01 -0.97804807253E+01  0.75411313871E+01  0.12528920287E+02  0.51100000000E-03 0. -1.
        -11    1    4    4    0    0  0.30777531096E+01  0.73732580193E+01  0.10631518134E+02  0.13299123134E+02  0.51100000000E-03 0.  1.
        -12    1    4    4    0    0  0.79824048053E+01 -0.16195996276E+02  0.16855327825E+02  0.24700833142E+02  0.00000000000E+00 0.  1.
</event>
<event>
 8    1  0.2031623E-013  0.9118800E+02  0.7816164E-02  0.1184000E+00
        -11   -1    0    0    0    0  0.00000000000E+00  0.00000000000E+00  0.45593999997E+02  0.45594000000E+02  0.51100000000E-03 0. -1.
         11   -1    0    0    0    0 -0.00000000000E+00 -0.00000000000E+00 -0.45593999997E+02  0.45594000000E+02  0.51100000000E-03 0.  1.
         23    2    1    2    0    0  0.35527136788E-14  0.00000000000E+00 -0.35527136788E-14  0.91188000000E+02  0.91188000000E+02 0.  0.
    9900012    2    3    3    0    0  0.27001145215E+02 -0.55472824538E+01  0.29888645867E+02  0.50528864036E+02  0.30000012725E+02 0.  0.
        -12    1    3    3    0    0 -0.27001145215E+02  0.55472824538E+01 -0.29888645867E+02  0.40659135964E+02  0.00000000000E+00 0.  1.
         11    1    4    4    0    0  0.26031954780E+01  0.43617931374E+01  0.93266753073E+01  0.10620204264E+02  0.51100000000E-03 0. -1.
        -11    1    4    4    0    0  0.87561752533E+01 -0.91327548340E+01 -0.16197597657E+01  0.12755447381E+02  0.51100000000E-03 0.  1.
        -12    1    4    4    0    0  0.15641774484E+02 -0.77632075724E+00  0.22181730326E+02  0.27153212391E+02  0.00000000000E+00 0.  1.
</event>
<event>
 8    1  0.2031623E-013  0.9118800E+02  0.7816164E-02  0.1184000E+00
        -11   -1    0    0    0    0  0.00000000000E+00  0.00000000000E+00  0.45593999997E+02  0.45594000000E+02  0.51100000000E-03 0.  1.
         11   -1    0    0    0    0 -0.00000000000E+00 -0.00000000000E+00 -0.45593999997E+02  0.45594000000E+02  0.51100000000E-03 0. -1.
         23    2    1    2    0    0  0.00000000000E+00  0.00000000000E+00 -0.66613381478E-15  0.91188000000E+02  0.91188000000E+02 0.  0.
    9900012    2    3    3    0    0 -0.19040919667E+02  0.35911090638E+02 -0.10016963490E+01  0.50528850376E+02  0.29999971202E+02 0.  0.
        -12    1    3    3    0    0  0.19040919667E+02 -0.35911090638E+02  0.10016963490E+01  0.40659149624E+02  0.00000000000E+00 0.  1.
         11    1    4    4    0    0 -0.20766633454E+02  0.16778218065E+02 -0.75776743898E+01  0.27752167769E+02  0.51100000000E-03 0. -1.
        -11    1    4    4    0    0 -0.66701252782E+00  0.17493834284E+02  0.83299413349E+01  0.19387291368E+02  0.51100000000E-03 0.  1.
         12    1    4    4    0    0  0.23927263151E+01  0.16390382892E+01 -0.17539632940E+01  0.33893912388E+01  0.00000000000E+00 0. -1.
</event>
<event>
 8    1  0.2031623E-013  0.9118800E+02  0.7816164E-02  0.1184000E+00
        -11   -1    0    0    0    0  0.00000000000E+00  0.00000000000E+00  0.45593999997E+02  0.45594000000E+02  0.51100000000E-03 0. -1.
         11   -1    0    0    0    0 -0.00000000000E+00 -0.00000000000E+00 -0.45593999997E+02  0.45594000000E+02  0.51100000000E-03 0.  1.
         23    2    1    2    0    0  0.35527136788E-14  0.35527136788E-14 -0.71054273576E-14  0.91188000000E+02  0.91188000000E+02 0.  0.
    9900012    2    3    3    0    0 -0.16594581117E+02 -0.18202277520E+02  0.32349060531E+02  0.50528871300E+02  0.30000034804E+02 0.  0.
        -12    1    3    3    0    0  0.16594581117E+02  0.18202277520E+02 -0.32349060531E+02  0.40659128700E+02  0.00000000000E+00 0.  1.
         11    1    4    4    0    0 -0.47109642890E+01  0.18360608251E+01  0.16608393518E+02  0.17360963090E+02  0.51100000000E-03 0. -1.
        -11    1    4    4    0    0 -0.16042512265E+02 -0.17943476195E+02  0.10808426492E+02  0.26384704304E+02  0.51100000000E-03 0.  1.
        -12    1    4    4    0    0  0.41588954367E+01 -0.20948621502E+01  0.49322405206E+01  0.67832039063E+01  0.00000000000E+00 0.  1.
</event>
<event>
 8    1  0.2031623E-013  0.9118800E+02  0.7816164E-02  0.1184000E+00
        -11   -1    0    0    0    0  0.00000000000E+00  0.00000000000E+00  0.45593999997E+02  0.45594000000E+02  0.51100000000E-03 0. -1.
         11   -1    0    0    0    0 -0.00000000000E+00 -0.00000000000E+00 -0.45593999997E+02  0.45594000000E+02  0.51100000000E-03 0.  1.
         23    2    1    2    0    0  0.22204460493E-15 -0.88817841970E-15  0.00000000000E+00  0.91188000000E+02  0.91188000000E+02 0.  0.
    9900012    2    3    3    0    0 -0.68682748753E+00 -0.50808805754E+01  0.40334587817E+02  0.50528855225E+02  0.29999985943E+02 0.  0.
        -12    1    3    3    0    0  0.68682748753E+00  0.50808805754E+01 -0.40334587817E+02  0.40659144775E+02  0.00000000000E+00 0.  1.
         11    1    4    4    0    0 -0.13922937207E+02 -0.49753149378E+01  0.19446828331E+02  0.24429102963E+02  0.51100000000E-03 0. -1.
        -11    1    4    4    0    0  0.87583104765E+01  0.26660926821E+01  0.79273122140E+01  0.12110257297E+02  0.51100000000E-03 0.  1.
        -12    1    4    4    0    0  0.44777992427E+01 -0.27716583197E+01  0.12960447273E+02  0.13989494966E+02  0.00000000000E+00 0.  1.
</event>
<event>
 8    1  0.2031623E-013  0.9118800E+02  0.7816164E-02  0.1184000E+00
        -11   -1    0    0    0    0  0.00000000000E+00  0.00000000000E+00  0.45593999997E+02  0.45594000000E+02  0.51100000000E-03 0. -1.
         11   -1    0    0    0    0 -0.00000000000E+00 -0.00000000000E+00 -0.45593999997E+02  0.45594000000E+02  0.51100000000E-03 0.  1.
         23    2    1    2    0    0  0.00000000000E+00 -0.17763568394E-14  0.00000000000E+00  0.91188000000E+02  0.91188000000E+02 0.  0.
    9900012    2    3    3    0    0 -0.11556633486E+02  0.10906970131E+02 -0.37425221923E+02  0.50528868050E+02  0.30000024924E+02 0.  0.
         12    1    3    3    0    0  0.11556633486E+02 -0.10906970131E+02  0.37425221923E+02  0.40659131950E+02  0.00000000000E+00 0. -1.
         11    1    4    4    0    0  0.25980516996E+01  0.30032410640E+01 -0.20852517783E+02  0.21227266137E+02  0.51100000000E-03 0. -1.
        -11    1    4    4    0    0 -0.13174139127E+02  0.95773747863E+01 -0.42578036250E+01  0.16834872780E+02  0.51100000000E-03 0.  1.
        -12    1    4    4    0    0 -0.98054605810E+00 -0.16736457198E+01 -0.12314900515E+02  0.12466729133E+02  0.00000000000E+00 0.  1.
</event>
<event>
 8    1  0.2031623E-013  0.9118800E+02  0.7816164E-02  0.1184000E+00
        -11   -1    0    0    0    0  0.00000000000E+00  0.00000000000E+00  0.45593999997E+02  0.45594000000E+02  0.51100000000E-03 0.  1.
         11   -1    0    0    0    0 -0.00000000000E+00 -0.00000000000E+00 -0.45593999997E+02  0.45594000000E+02  0.51100000000E-03 0. -1.
         23    2    1    2    0    0  0.44408920985E-15  0.71054273576E-14 -0.44408920985E-15  0.91188000000E+02  0.91188000000E+02 0.  0.
    9900012    2    3    3    0    0 -0.37367985758E+01 -0.40404709690E+02 -0.25808000692E+01  0.50528871163E+02  0.30000034388E+02 0.  0.
         12    1    3    3    0    0  0.37367985758E+01  0.40404709690E+02  0.25808000692E+01  0.40659128837E+02  0.00000000000E+00 0. -1.
         11    1    4    4    0    0 -0.26672483014E+01  0.27437908926E+01 -0.18518386062E+01  0.42511067321E+01  0.51100000000E-03 0. -1.
        -11    1    4    4    0    0 -0.68261048508E+01 -0.34751555065E+02  0.27420752793E+01  0.35521616854E+02  0.51100000000E-03 0.  1.
         12    1    4    4    0    0  0.57565545763E+01 -0.83969455184E+01 -0.34710367423E+01  0.10756147577E+02  0.00000000000E+00 0. -1.
</event>
<event>
 8    1  0.2031623E-013  0.9118800E+02  0.7816164E-02  0.1184000E+00
        -11   -1    0    0    0    0  0.00000000000E+00  0.00000000000E+00  0.45593999997E+02  0.45594000000E+02  0.51100000000E-03 0. -1.
         11   -1    0    0    0    0 -0.00000000000E+00 -0.00000000000E+00 -0.45593999997E+02  0.45594000000E+02  0.51100000000E-03 0.  1.
         23    2    1    2    0    0 -0.35527136788E-14  0.00000000000E+00  0.00000000000E+00  0.91188000000E+02  0.91188000000E+02 0.  0.
    9900012    2    3    3    0    0  0.17221317751E+02  0.10790868927E+02  0.35215780736E+02  0.50528833135E+02  0.29999918797E+02 0.  0.
        -12    1    3    3    0    0 -0.17221317751E+02 -0.10790868927E+02 -0.35215780736E+02  0.40659166865E+02  0.00000000000E+00 0.  1.
         11    1    4    4    0    0  0.20494720744E+02 -0.34634686364E+01  0.19489318384E+02  0.28493204886E+02  0.51100000000E-03 0. -1.
        -11    1    4    4    0    0 -0.88635618139E+00  0.36619471858E+01  0.75684254126E+01  0.84543804007E+01  0.51100000000E-03 0.  1.
         12    1    4    4    0    0 -0.23870468117E+01  0.10592390377E+02  0.81580369402E+01  0.13581247848E+02  0.00000000000E+00 0. -1.
</event>
<event>
 8    1  0.2031623E-013  0.9118800E+02  0.7816164E-02  0.1184000E+00
        -11   -1    0    0    0    0  0.00000000000E+00  0.00000000000E+00  0.45593999997E+02  0.45594000000E+02  0.51100000000E-03 0.  1.
         11   -1    0    0    0    0 -0.00000000000E+00 -0.00000000000E+00 -0.45593999997E+02  0.45594000000E+02  0.51100000000E-03 0. -1.
         23    2    1    2    0    0 -0.71054273576E-14  0.00000000000E+00  0.17763568394E-14  0.91188000000E+02  0.91188000000E+02 0.  0.
    9900012    2    3    3    0    0 -0.35827202114E+02 -0.12530633337E+02  0.14579486423E+02  0.50528848417E+02  0.29999965247E+02 0.  0.
        -12    1    3    3    0    0  0.35827202114E+02  0.12530633337E+02 -0.14579486423E+02  0.40659151583E+02  0.00000000000E+00 0.  1.
         11    1    4    4    0    0 -0.31907105453E+02 -0.70479953807E+01  0.13605998301E+02  0.35395773862E+02  0.51100000000E-03 0. -1.
        -11    1    4    4    0    0  0.46549387642E+01 -0.32451356206E+01 -0.16165167268E+01  0.59002107322E+01  0.51100000000E-03 0.  1.
        -12    1    4    4    0    0 -0.85750354256E+01 -0.22375023352E+01  0.25900048490E+01  0.92328638227E+01  0.00000000000E+00 0.  1.
</event>
<event>
 8    1  0.2031623E-013  0.9118800E+02  0.7816164E-02  0.1184000E+00
        -11   -1    0    0    0    0  0.00000000000E+00  0.00000000000E+00  0.45593999997E+02  0.45594000000E+02  0.51100000000E-03 0. -1.
         11   -1    0    0    0    0 -0.00000000000E+00 -0.00000000000E+00 -0.45593999997E+02  0.45594000000E+02  0.51100000000E-03 0.  1.
         23    2    1    2    0    0  0.00000000000E+00 -0.71054273576E-14  0.00000000000E+00  0.91188000000E+02  0.91188000000E+02 0.  0.
    9900012    2    3    3    0    0  0.10909144126E+02  0.38840319831E+02  0.50583745862E+01  0.50528843299E+02  0.29999949693E+02 0.  0.
        -12    1    3    3    0    0 -0.10909144126E+02 -0.38840319831E+02 -0.50583745862E+01  0.40659156701E+02  0.00000000000E+00 0.  1.
         11    1    4    4    0    0  0.31499288119E+01 -0.21319966460E+01  0.75466699650E+01  0.84510170418E+01  0.51100000000E-03 0. -1.
        -11    1    4    4    0    0  0.24842794230E+01  0.20663017606E+02 -0.33363234848E+01  0.21077547189E+02  0.51100000000E-03 0.  1.
         12    1    4    4    0    0  0.52749358907E+01  0.20309298871E+02  0.84802810596E+00  0.21000279069E+02  0.00000000000E+00 0. -1.
</event>
<event>
 8    1  0.2031623E-013  0.9118800E+02  0.7816164E-02  0.1184000E+00
        -11   -1    0    0    0    0  0.00000000000E+00  0.00000000000E+00  0.45593999997E+02  0.45594000000E+02  0.51100000000E-03 0. -1.
         11   -1    0    0    0    0 -0.00000000000E+00 -0.00000000000E+00 -0.45593999997E+02  0.45594000000E+02  0.51100000000E-03 0.  1.
         23    2    1    2    0    0  0.35527136788E-14  0.00000000000E+00 -0.71054273576E-14  0.91188000000E+02  0.91188000000E+02 0.  0.
    9900012    2    3    3    0    0  0.16381859182E+02 -0.24332949471E+02 -0.28155150717E+02  0.50528803597E+02  0.29999829014E+02 0.  0.
         12    1    3    3    0    0 -0.16381859182E+02  0.24332949471E+02  0.28155150717E+02  0.40659196403E+02  0.00000000000E+00 0. -1.
         11    1    4    4    0    0  0.43418264110E+01  0.69470329087E+01 -0.55835086304E+01  0.99140451736E+01  0.51100000000E-03 0. -1.
        -11    1    4    4    0    0  0.71923727834E+01 -0.17493065900E+02 -0.10331703013E+02  0.21551836772E+02  0.51100000000E-03 0.  1.
         12    1    4    4    0    0  0.48476599873E+01 -0.13786916479E+02 -0.12239939074E+02  0.19062921651E+02  0.00000000000E+00 0. -1.
</event>
<event>
 8    1  0.2031623E-013  0.9118800E+02  0.7816164E-02  0.1184000E+00
        -11   -1    0    0    0    0  0.00000000000E+00  0.00000000000E+00  0.45593999997E+02  0.45594000000E+02  0.51100000000E-03 0. -1.
         11   -1    0    0    0    0 -0.00000000000E+00 -0.00000000000E+00 -0.45593999997E+02  0.45594000000E+02  0.51100000000E-03 0.  1.
         23    2    1    2    0    0  0.00000000000E+00 -0.44408920985E-15  0.00000000000E+00  0.91188000000E+02  0.91188000000E+02 0.  0.
    9900012    2    3    3    0    0  0.38180782750E+02  0.23273242037E+01  0.13783477861E+02  0.50528771389E+02  0.29999731112E+02 0.  0.
        -12    1    3    3    0    0 -0.38180782750E+02 -0.23273242037E+01 -0.13783477861E+02  0.40659228611E+02  0.00000000000E+00 0.  1.
         11    1    4    4    0    0  0.16849282779E+02  0.89488062981E+01  0.36614267130E+00  0.19081758961E+02  0.51100000000E-03 0.  1.
        -11    1    4    4    0    0  0.14281675536E+02 -0.12374464790E+02  0.63832412689E+01  0.19945911970E+02  0.51100000000E-03 0. -1.
         12    1    4    4    0    0  0.70498244349E+01  0.57529826956E+01  0.70340939207E+01  0.11501100458E+02  0.00000000000E+00 0. -1.
</event>
<event>
 8    1  0.2031623E-013  0.9118800E+02  0.7816164E-02  0.1184000E+00
        -11   -1    0    0    0    0  0.00000000000E+00  0.00000000000E+00  0.45593999997E+02  0.45594000000E+02  0.51100000000E-03 0.  1.
         11   -1    0    0    0    0 -0.00000000000E+00 -0.00000000000E+00 -0.45593999997E+02  0.45594000000E+02  0.51100000000E-03 0. -1.
         23    2    1    2    0    0  0.00000000000E+00  0.35527136788E-14  0.17763568394E-14  0.91188000000E+02  0.91188000000E+02 0.  0.
    9900012    2    3    3    0    0 -0.34631815951E+02 -0.14780509683E+02  0.15340788603E+02  0.50528856656E+02  0.29999990290E+02 0.  0.
        -12    1    3    3    0    0  0.34631815951E+02  0.14780509683E+02 -0.15340788603E+02  0.40659143344E+02  0.00000000000E+00 0.  1.
         11    1    4    4    0    0 -0.34003263972E+02 -0.74476315416E+01  0.17394816416E+02  0.38913607064E+02  0.51100000000E-03 0. -1.
        -11    1    4    4    0    0 -0.26799784309E+01 -0.46658153066E+01 -0.48473208346E+01  0.72421430806E+01  0.51100000000E-03 0.  1.
         12    1    4    4    0    0  0.20514264520E+01 -0.26670628345E+01  0.27932930219E+01  0.43731065111E+01  0.00000000000E+00 0. -1.
</event>
<event>
 8    1  0.2031623E-013  0.9118800E+02  0.7816164E-02  0.1184000E+00
        -11   -1    0    0    0    0  0.00000000000E+00  0.00000000000E+00  0.45593999997E+02  0.45594000000E+02  0.51100000000E-03 0. -1.
         11   -1    0    0    0    0 -0.00000000000E+00 -0.00000000000E+00 -0.45593999997E+02  0.45594000000E+02  0.51100000000E-03 0.  1.
         23    2    1    2    0    0  0.00000000000E+00  0.00000000000E+00  0.35527136788E-14  0.91188000000E+02  0.91188000000E+02 0.  0.
    9900012    2    3    3    0    0  0.19549133289E+02 -0.18881282687E+02 -0.30240599549E+02  0.50528864380E+02  0.30000013770E+02 0.  0.
         12    1    3    3    0    0 -0.19549133289E+02  0.18881282687E+02  0.30240599549E+02  0.40659135620E+02  0.00000000000E+00 0. -1.
         11    1    4    4    0    0  0.79588047251E+01 -0.13262780461E+01  0.13760212682E+01  0.81850486192E+01  0.51100000000E-03 0. -1.
        -11    1    4    4    0    0  0.13760952404E+02 -0.19899463936E+02 -0.30561819653E+02  0.38979190561E+02  0.51100000000E-03 0.  1.
        -12    1    4    4    0    0 -0.21706238403E+01  0.23444592947E+01 -0.10548011639E+01  0.33646251999E+01  0.00000000000E+00 0.  1.
</event>
<event>
 8    1  0.2031623E-013  0.9118800E+02  0.7816164E-02  0.1184000E+00
        -11   -1    0    0    0    0  0.00000000000E+00  0.00000000000E+00  0.45593999997E+02  0.45594000000E+02  0.51100000000E-03 0. -1.
         11   -1    0    0    0    0 -0.00000000000E+00 -0.00000000000E+00 -0.45593999997E+02  0.45594000000E+02  0.51100000000E-03 0.  1.
         23    2    1    2    0    0  0.00000000000E+00  0.35527136788E-14  0.00000000000E+00  0.91188000000E+02  0.91188000000E+02 0.  0.
    9900012    2    3    3    0    0 -0.27291675188E+02 -0.23197065986E+02  0.19241273576E+02  0.50528855717E+02  0.29999987439E+02 0.  0.
        -12    1    3    3    0    0  0.27291675188E+02  0.23197065986E+02 -0.19241273576E+02  0.40659144283E+02  0.00000000000E+00 0.  1.
         11    1    4    4    0    0 -0.46221276956E+01 -0.10920422839E+02  0.47446632915E+01  0.12772295386E+02  0.51100000000E-03 0. -1.
        -11    1    4    4    0    0 -0.67946461255E+01  0.59678345533E+01  0.93948341613E+01  0.13040137055E+02  0.51100000000E-03 0.  1.
        -12    1    4    4    0    0 -0.15874901367E+02 -0.18244477701E+02  0.51017761237E+01  0.24716423277E+02  0.00000000000E+00 0.  1.
</event>
<event>
 8    1  0.2031623E-013  0.9118800E+02  0.7816164E-02  0.1184000E+00
        -11   -1    0    0    0    0  0.00000000000E+00  0.00000000000E+00  0.45593999997E+02  0.45594000000E+02  0.51100000000E-03 0. -1.
         11   -1    0    0    0    0 -0.00000000000E+00 -0.00000000000E+00 -0.45593999997E+02  0.45594000000E+02  0.51100000000E-03 0.  1.
         23    2    1    2    0    0  0.00000000000E+00  0.00000000000E+00  0.00000000000E+00  0.91188000000E+02  0.91188000000E+02 0.  0.
    9900012    2    3    3    0    0 -0.22401513254E+02  0.14286763231E+02  0.30777037243E+02  0.50528863005E+02  0.30000009590E+02 0.  0.
        -12    1    3    3    0    0  0.22401513254E+02 -0.14286763231E+02 -0.30777037243E+02  0.40659136995E+02  0.00000000000E+00 0.  1.
         11    1    4    4    0    0 -0.25849691805E+02  0.18180235209E+02  0.31633942265E+02  0.44715029041E+02  0.51100000000E-03 0. -1.
        -11    1    4    4    0    0  0.13035860765E+01 -0.31462786075E+01 -0.57222150384E-01  0.34061239512E+01  0.51100000000E-03 0.  1.
         12    1    4    4    0    0  0.21445924738E+01 -0.74719337028E+00 -0.79968287107E+00  0.24077100128E+01  0.00000000000E+00 0. -1.
</event>
<event>
 8    1  0.2031623E-013  0.9118800E+02  0.7816164E-02  0.1184000E+00
        -11   -1    0    0    0    0  0.00000000000E+00  0.00000000000E+00  0.45593999997E+02  0.45594000000E+02  0.51100000000E-03 0. -1.
         11   -1    0    0    0    0 -0.00000000000E+00 -0.00000000000E+00 -0.45593999997E+02  0.45594000000E+02  0.51100000000E-03 0.  1.
         23    2    1    2    0    0  0.00000000000E+00 -0.88817841970E-15 -0.35527136788E-14  0.91188000000E+02  0.91188000000E+02 0.  0.
    9900012    2    3    3    0    0  0.30582186022E+02  0.68887665141E+01  0.25892865256E+02  0.50528859857E+02  0.30000000022E+02 0.  0.
        -12    1    3    3    0    0 -0.30582186022E+02 -0.68887665141E+01 -0.25892865256E+02  0.40659140143E+02  0.00000000000E+00 0.  1.
         11    1    4    4    0    0  0.26253125595E+02 -0.42180573053E+01  0.68962809894E+01  0.27469570486E+02  0.51100000000E-03 0. -1.
        -11    1    4    4    0    0 -0.26028196411E+00  0.43863355940E+01  0.37496567183E+01  0.57764705842E+01  0.51100000000E-03 0.  1.
         12    1    4    4    0    0  0.45893423915E+01  0.67204882253E+01  0.15246927548E+02  0.17282818787E+02  0.00000000000E+00 0. -1.
</event>
<event>
 8    1  0.2031623E-013  0.9118800E+02  0.7816164E-02  0.1184000E+00
        -11   -1    0    0    0    0  0.00000000000E+00  0.00000000000E+00  0.45593999997E+02  0.45594000000E+02  0.51100000000E-03 0. -1.
         11   -1    0    0    0    0 -0.00000000000E+00 -0.00000000000E+00 -0.45593999997E+02  0.45594000000E+02  0.51100000000E-03 0.  1.
         23    2    1    2    0    0  0.00000000000E+00  0.00000000000E+00  0.00000000000E+00  0.91188000000E+02  0.91188000000E+02 0.  0.
    9900012    2    3    3    0    0  0.51873499279E+01  0.72294592246E+01 -0.39673563663E+02  0.50528864081E+02  0.30000012861E+02 0.  0.
         12    1    3    3    0    0 -0.51873499279E+01 -0.72294592246E+01  0.39673563663E+02  0.40659135919E+02  0.00000000000E+00 0. -1.
         11    1    4    4    0    0 -0.10525379711E+01  0.13620130342E+02 -0.12707268887E+02  0.18657182786E+02  0.51100000000E-03 0. -1.
        -11    1    4    4    0    0  0.75802350086E+01 -0.97622375487E+01 -0.15381400091E+02  0.19731921188E+02  0.51100000000E-03 0.  1.
        -12    1    4    4    0    0 -0.13403471095E+01  0.33715664316E+01 -0.11584894686E+02  0.12139760107E+02  0.00000000000E+00 0.  1.
</event>
<event>
 8    1  0.2031623E-013  0.9118800E+02  0.7816164E-02  0.1184000E+00
        -11   -1    0    0    0    0  0.00000000000E+00  0.00000000000E+00  0.45593999997E+02  0.45594000000E+02  0.51100000000E-03 0.  1.
         11   -1    0    0    0    0 -0.00000000000E+00 -0.00000000000E+00 -0.45593999997E+02  0.45594000000E+02  0.51100000000E-03 0. -1.
         23    2    1    2    0    0 -0.17763568394E-14  0.00000000000E+00  0.17763568394E-14  0.91188000000E+02  0.91188000000E+02 0.  0.
    9900012    2    3    3    0    0  0.15913392639E+02  0.35271224511E+02  0.12484798512E+02  0.50528861573E+02  0.30000005236E+02 0.  0.
        -12    1    3    3    0    0 -0.15913392639E+02 -0.35271224511E+02 -0.12484798512E+02  0.40659138427E+02  0.00000000000E+00 0.  1.
         11    1    4    4    0    0  0.36002988893E+01  0.14884076805E+01 -0.47794646644E+01  0.61661002470E+01  0.51100000000E-03 0. -1.
        -11    1    4    4    0    0  0.10757810245E+02  0.29484731135E+02  0.21569914861E+02  0.38083343849E+02  0.51100000000E-03 0.  1.
        -12    1    4    4    0    0  0.15552835046E+01  0.42980856954E+01 -0.43056516840E+01  0.62794174768E+01  0.00000000000E+00 0.  1.
</event>
<event>
 8    1  0.2031623E-013  0.9118800E+02  0.7816164E-02  0.1184000E+00
        -11   -1    0    0    0    0  0.00000000000E+00  0.00000000000E+00  0.45593999997E+02  0.45594000000E+02  0.51100000000E-03 0. -1.
         11   -1    0    0    0    0 -0.00000000000E+00 -0.00000000000E+00 -0.45593999997E+02  0.45594000000E+02  0.51100000000E-03 0.  1.
         23    2    1    2    0    0  0.00000000000E+00 -0.17763568394E-14  0.00000000000E+00  0.91188000000E+02  0.91188000000E+02 0.  0.
    9900012    2    3    3    0    0  0.11640653911E+02 -0.10652469853E+02  0.37472465238E+02  0.50528860948E+02  0.30000003338E+02 0.  0.
        -12    1    3    3    0    0 -0.11640653911E+02  0.10652469853E+02 -0.37472465238E+02  0.40659139052E+02  0.00000000000E+00 0.  1.
         11    1    4    4    0    0 -0.49204176560E+01  0.29655232930E+01  0.53127253839E+01  0.78249530079E+01  0.51100000000E-03 0. -1.
        -11    1    4    4    0    0  0.19349142995E+02 -0.14941248997E+02  0.30823080921E+02  0.39340724116E+02  0.51100000000E-03 0.  1.
        -12    1    4    4    0    0 -0.27880714279E+01  0.13232558507E+01  0.13366589325E+01  0.33631838242E+01  0.00000000000E+00 0.  1.
</event>
<event>
 8    1  0.2031623E-013  0.9118800E+02  0.7816164E-02  0.1184000E+00
        -11   -1    0    0    0    0  0.00000000000E+00  0.00000000000E+00  0.45593999997E+02  0.45594000000E+02  0.51100000000E-03 0. -1.
         11   -1    0    0    0    0 -0.00000000000E+00 -0.00000000000E+00 -0.45593999997E+02  0.45594000000E+02  0.51100000000E-03 0.  1.
         23    2    1    2    0    0 -0.35527136788E-14  0.16653345369E-15 -0.35527136788E-14  0.91188000000E+02  0.91188000000E+02 0.  0.
    9900012    2    3    3    0    0 -0.29945511130E+02  0.36080129141E+00  0.27500951694E+02  0.50528853938E+02  0.29999982031E+02 0.  0.
        -12    1    3    3    0    0  0.29945511130E+02 -0.36080129141E+00 -0.27500951694E+02  0.40659146062E+02  0.00000000000E+00 0.  1.
         11    1    4    4    0    0 -0.19939281526E+02 -0.82005254485E+01  0.17214840514E+02  0.27589387445E+02  0.51100000000E-03 0. -1.
        -11    1    4    4    0    0 -0.96541446129E-01  0.10304268853E+02  0.38775586021E+01  0.11010119791E+02  0.51100000000E-03 0.  1.
        -12    1    4    4    0    0 -0.99096881584E+01 -0.17429421129E+01  0.64085525775E+01  0.11929346702E+02  0.00000000000E+00 0.  1.
</event>
<event>
 8    1  0.2031623E-013  0.9118800E+02  0.7816164E-02  0.1184000E+00
        -11   -1    0    0    0    0  0.00000000000E+00  0.00000000000E+00  0.45593999997E+02  0.45594000000E+02  0.51100000000E-03 0.  1.
         11   -1    0    0    0    0 -0.00000000000E+00 -0.00000000000E+00 -0.45593999997E+02  0.45594000000E+02  0.51100000000E-03 0. -1.
         23    2    1    2    0    0  0.00000000000E+00  0.00000000000E+00  0.00000000000E+00  0.91188000000E+02  0.91188000000E+02 0.  0.
    9900012    2    3    3    0    0 -0.28423129569E+02  0.28535646818E+02  0.55684542029E+01  0.50528866757E+02  0.30000020996E+02 0.  0.
        -12    1    3    3    0    0  0.28423129569E+02 -0.28535646818E+02 -0.55684542029E+01  0.40659133243E+02  0.00000000000E+00 0.  1.
         11    1    4    4    0    0 -0.11355674115E+02  0.15033676388E+02 -0.69887949152E+01  0.20094925105E+02  0.51100000000E-03 0. -1.
        -11    1    4    4    0    0 -0.17370927360E+02  0.52646291193E+01  0.12761778410E+02  0.22188475061E+02  0.51100000000E-03 0.  1.
        -12    1    4    4    0    0  0.30347190632E+00  0.82373413112E+01 -0.20452929143E+00  0.82454665912E+01  0.00000000000E+00 0.  1.
</event>
<event>
 8    1  0.2031623E-013  0.9118800E+02  0.7816164E-02  0.1184000E+00
        -11   -1    0    0    0    0  0.00000000000E+00  0.00000000000E+00  0.45593999997E+02  0.45594000000E+02  0.51100000000E-03 0. -1.
         11   -1    0    0    0    0 -0.00000000000E+00 -0.00000000000E+00 -0.45593999997E+02  0.45594000000E+02  0.51100000000E-03 0.  1.
         23    2    1    2    0    0  0.00000000000E+00 -0.22204460493E-15  0.00000000000E+00  0.91188000000E+02  0.91188000000E+02 0.  0.
    9900012    2    3    3    0    0 -0.35875897937E+02  0.85422722667E+00 -0.19114289714E+02  0.50528858000E+02  0.29999994376E+02 0.  0.
         12    1    3    3    0    0  0.35875897937E+02 -0.85422722667E+00  0.19114289714E+02  0.40659142000E+02  0.00000000000E+00 0. -1.
         11    1    4    4    0    0 -0.77786765446E+00  0.90081584408E+00  0.35505238884E+01  0.37446985748E+01  0.51100000000E-03 0. -1.
        -11    1    4    4    0    0 -0.13052519671E+02  0.22984025725E+01 -0.20630987773E+02  0.24521186368E+02  0.51100000000E-03 0.  1.
        -12    1    4    4    0    0 -0.22045510612E+02 -0.23449911899E+01 -0.20338258293E+01  0.22262973057E+02  0.00000000000E+00 0.  1.
</event>
<event>
 8    1  0.2031623E-013  0.9118800E+02  0.7816164E-02  0.1184000E+00
        -11   -1    0    0    0    0  0.00000000000E+00  0.00000000000E+00  0.45593999997E+02  0.45594000000E+02  0.51100000000E-03 0.  1.
         11   -1    0    0    0    0 -0.00000000000E+00 -0.00000000000E+00 -0.45593999997E+02  0.45594000000E+02  0.51100000000E-03 0. -1.
         23    2    1    2    0    0 -0.71054273576E-14  0.00000000000E+00  0.17763568394E-14  0.91188000000E+02  0.91188000000E+02 0.  0.
    9900012    2    3    3    0    0  0.37969446285E+02 -0.11457176298E+02 -0.89565456646E+01  0.50528862648E+02  0.30000008505E+02 0.  0.
        -12    1    3    3    0    0 -0.37969446285E+02  0.11457176298E+02  0.89565456646E+01  0.40659137352E+02  0.00000000000E+00 0.  1.
         11    1    4    4    0    0  0.50161251042E+01 -0.74845571155E+01  0.29030852298E+01  0.94661507694E+01  0.51100000000E-03 0. -1.
        -11    1    4    4    0    0  0.66119130715E+01  0.78504683634E+01 -0.14268702823E+01  0.10362586890E+02  0.51100000000E-03 0.  1.
        -12    1    4    4    0    0  0.26341408110E+02 -0.11823087546E+02 -0.10432760612E+02  0.30700124989E+02  0.00000000000E+00 0.  1.
</event>
<event>
 8    1  0.2031623E-013  0.9118800E+02  0.7816164E-02  0.1184000E+00
        -11   -1    0    0    0    0  0.00000000000E+00  0.00000000000E+00  0.45593999997E+02  0.45594000000E+02  0.51100000000E-03 0.  1.
         11   -1    0    0    0    0 -0.00000000000E+00 -0.00000000000E+00 -0.45593999997E+02  0.45594000000E+02  0.51100000000E-03 0. -1.
         23    2    1    2    0    0 -0.17763568394E-14  0.00000000000E+00  0.00000000000E+00  0.91188000000E+02  0.91188000000E+02 0.  0.
    9900012    2    3    3    0    0 -0.49424733364E+01  0.20504159592E+02  0.34760884303E+02  0.50528835218E+02  0.29999925128E+02 0.  0.
        -12    1    3    3    0    0  0.49424733364E+01 -0.20504159592E+02 -0.34760884303E+02  0.40659164782E+02  0.00000000000E+00 0.  1.
         11    1    4    4    0    0 -0.13969833281E+02  0.11269997320E+02  0.21971782385E+02  0.28371258395E+02  0.51100000000E-03 0. -1.
        -11    1    4    4    0    0  0.65326898191E+01  0.59407606585E+01  0.15049066590E+02  0.17448297308E+02  0.51100000000E-03 0.  1.
         12    1    4    4    0    0  0.24946701257E+01  0.32934016139E+01 -0.22599646719E+01  0.47092795144E+01  0.00000000000E+00 0. -1.
</event>
<event>
 8    1  0.2031623E-013  0.9118800E+02  0.7816164E-02  0.1184000E+00
        -11   -1    0    0    0    0  0.00000000000E+00  0.00000000000E+00  0.45593999997E+02  0.45594000000E+02  0.51100000000E-03 0. -1.
         11   -1    0    0    0    0 -0.00000000000E+00 -0.00000000000E+00 -0.45593999997E+02  0.45594000000E+02  0.51100000000E-03 0.  1.
         23    2    1    2    0    0  0.00000000000E+00 -0.71054273576E-14 -0.88817841970E-15  0.91188000000E+02  0.91188000000E+02 0.  0.
    9900012    2    3    3    0    0 -0.12897755288E+02 -0.37839104442E+02 -0.74170169941E+01  0.50528904370E+02  0.30000135321E+02 0.  0.
         12    1    3    3    0    0  0.12897755288E+02  0.37839104442E+02  0.74170169941E+01  0.40659095630E+02  0.00000000000E+00 0. -1.
         11    1    4    4    0    0 -0.84272771367E+01 -0.29998728904E+02  0.76815711702E+00  0.31169420935E+02  0.51100000000E-03 0. -1.
        -11    1    4    4    0    0 -0.76451446109E+01  0.73098597048E+00 -0.65077500003E+01  0.10066448576E+02  0.51100000000E-03 0.  1.
         12    1    4    4    0    0  0.31746664599E+01 -0.85713615079E+01 -0.16774241108E+01  0.92930348583E+01  0.00000000000E+00 0. -1.
</event>
<event>
 8    1  0.2031623E-013  0.9118800E+02  0.7816164E-02  0.1184000E+00
        -11   -1    0    0    0    0  0.00000000000E+00  0.00000000000E+00  0.45593999997E+02  0.45594000000E+02  0.51100000000E-03 0. -1.
         11   -1    0    0    0    0 -0.00000000000E+00 -0.00000000000E+00 -0.45593999997E+02  0.45594000000E+02  0.51100000000E-03 0.  1.
         23    2    1    2    0    0  0.00000000000E+00  0.00000000000E+00  0.71054273576E-14  0.91188000000E+02  0.91188000000E+02 0.  0.
    9900012    2    3    3    0    0 -0.19221814841E+02 -0.77362477192E+01  0.34983401005E+02  0.50528855390E+02  0.29999986444E+02 0.  0.
        -12    1    3    3    0    0  0.19221814841E+02  0.77362477192E+01 -0.34983401005E+02  0.40659144610E+02  0.00000000000E+00 0.  1.
         11    1    4    4    0    0 -0.19966080559E+02  0.11718459897E+01  0.32275949402E+02  0.37970442531E+02  0.51100000000E-03 0. -1.
        -11    1    4    4    0    0  0.20248420141E+01 -0.97766781030E+00 -0.21992767607E+01  0.31452564380E+01  0.51100000000E-03 0.  1.
         12    1    4    4    0    0 -0.12805762962E+01 -0.79304258986E+01  0.49067283631E+01  0.94131564214E+01  0.00000000000E+00 0. -1.
</event>
<event>
 8    1  0.2031623E-013  0.9118800E+02  0.7816164E-02  0.1184000E+00
        -11   -1    0    0    0    0  0.00000000000E+00  0.00000000000E+00  0.45593999997E+02  0.45594000000E+02  0.51100000000E-03 0. -1.
         11   -1    0    0    0    0 -0.00000000000E+00 -0.00000000000E+00 -0.45593999997E+02  0.45594000000E+02  0.51100000000E-03 0.  1.
         23    2    1    2    0    0  0.35527136788E-14 -0.88817841970E-15 -0.35527136788E-14  0.91188000000E+02  0.91188000000E+02 0.  0.
    9900012    2    3    3    0    0  0.25765834400E+02  0.59422566034E+01  0.30886521049E+02  0.50528858120E+02  0.29999994742E+02 0.  0.
        -12    1    3    3    0    0 -0.25765834400E+02 -0.59422566034E+01 -0.30886521049E+02  0.40659141880E+02  0.00000000000E+00 0.  1.
         11    1    4    4    0    0 -0.42687568359E+01  0.41256145588E+01  0.87610237989E+01  0.10582935258E+02  0.51100000000E-03 0. -1.
        -11    1    4    4    0    0  0.63783382574E+00 -0.14054413771E+01  0.61362389216E+01  0.63273632595E+01  0.51100000000E-03 0.  1.
         12    1    4    4    0    0  0.29396757411E+02  0.32220834217E+01  0.15989258329E+02  0.33618559602E+02  0.00000000000E+00 0. -1.
</event>
<event>
 8    1  0.2031623E-013  0.9118800E+02  0.7816164E-02  0.1184000E+00
        -11   -1    0    0    0    0  0.00000000000E+00  0.00000000000E+00  0.45593999997E+02  0.45594000000E+02  0.51100000000E-03 0. -1.
         11   -1    0    0    0    0 -0.00000000000E+00 -0.00000000000E+00 -0.45593999997E+02  0.45594000000E+02  0.51100000000E-03 0.  1.
         23    2    1    2    0    0  0.00000000000E+00 -0.22204460493E-15 -0.71054273576E-14  0.91188000000E+02  0.91188000000E+02 0.  0.
    9900012    2    3    3    0    0 -0.24378776894E+02 -0.10905163938E+01 -0.32521561379E+02  0.50528856584E+02  0.29999990071E+02 0.  0.
         12    1    3    3    0    0  0.24378776894E+02  0.10905163938E+01  0.32521561379E+02  0.40659143416E+02  0.00000000000E+00 0. -1.
         11    1    4    4    0    0  0.35933159720E+01  0.18656094641E+01 -0.62396358488E+01  0.74381095807E+01  0.51100000000E-03 0. -1.
        -11    1    4    4    0    0 -0.29181518547E+02 -0.66031656049E+01 -0.25148690262E+02  0.39084772519E+02  0.51100000000E-03 0.  1.
        -12    1    4    4    0    0  0.12094256806E+01  0.36470397469E+01 -0.11332352674E+01  0.40059744837E+01  0.00000000000E+00 0.  1.
</event>
<event>
 8    1  0.2031623E-013  0.9118800E+02  0.7816164E-02  0.1184000E+00
        -11   -1    0    0    0    0  0.00000000000E+00  0.00000000000E+00  0.45593999997E+02  0.45594000000E+02  0.51100000000E-03 0. -1.
         11   -1    0    0    0    0 -0.00000000000E+00 -0.00000000000E+00 -0.45593999997E+02  0.45594000000E+02  0.51100000000E-03 0.  1.
         23    2    1    2    0    0  0.00000000000E+00  0.00000000000E+00  0.00000000000E+00  0.91188000000E+02  0.91188000000E+02 0.  0.
    9900012    2    3    3    0    0  0.14335555528E+02 -0.11928841245E+02 -0.36129769552E+02  0.50528860146E+02  0.30000000900E+02 0.  0.
         12    1    3    3    0    0 -0.14335555528E+02  0.11928841245E+02  0.36129769552E+02  0.40659139854E+02  0.00000000000E+00 0. -1.
         11    1    4    4    0    0  0.38892707293E+01 -0.68090090433E+00  0.10416090847E+01  0.40835037154E+01  0.51100000000E-03 0. -1.
        -11    1    4    4    0    0  0.16992303001E+02 -0.50337764701E+01 -0.30297303362E+02  0.35099912508E+02  0.51100000000E-03 0.  1.
        -12    1    4    4    0    0 -0.65460182018E+01 -0.62141638705E+01 -0.68740752754E+01  0.11345443923E+02  0.00000000000E+00 0.  1.
</event>
<event>
 8    1  0.2031623E-013  0.9118800E+02  0.7816164E-02  0.1184000E+00
        -11   -1    0    0    0    0  0.00000000000E+00  0.00000000000E+00  0.45593999997E+02  0.45594000000E+02  0.51100000000E-03 0. -1.
         11   -1    0    0    0    0 -0.00000000000E+00 -0.00000000000E+00 -0.45593999997E+02  0.45594000000E+02  0.51100000000E-03 0.  1.
         23    2    1    2    0    0 -0.88817841970E-15  0.00000000000E+00  0.00000000000E+00  0.91188000000E+02  0.91188000000E+02 0.  0.
    9900012    2    3    3    0    0  0.75442690624E+01 -0.20984500239E+02  0.33998522553E+02  0.50528870869E+02  0.30000033493E+02 0.  0.
        -12    1    3    3    0    0 -0.75442690624E+01  0.20984500239E+02 -0.33998522553E+02  0.40659129131E+02  0.00000000000E+00 0.  1.
         11    1    4    4    0    0 -0.85577031399E+01 -0.12437222632E+02  0.18836302497E+02  0.24139699291E+02  0.51100000000E-03 0. -1.
        -11    1    4    4    0    0  0.15787350395E+02 -0.10918027978E+02  0.13753045587E+02  0.23613344333E+02  0.51100000000E-03 0.  1.
        -12    1    4    4    0    0  0.31462180757E+00  0.23707503720E+01  0.14091744684E+01  0.27758272444E+01  0.00000000000E+00 0.  1.
</event>
<event>
 8    1  0.2031623E-013  0.9118800E+02  0.7816164E-02  0.1184000E+00
        -11   -1    0    0    0    0  0.00000000000E+00  0.00000000000E+00  0.45593999997E+02  0.45594000000E+02  0.51100000000E-03 0.  1.
         11   -1    0    0    0    0 -0.00000000000E+00 -0.00000000000E+00 -0.45593999997E+02  0.45594000000E+02  0.51100000000E-03 0. -1.
         23    2    1    2    0    0  0.00000000000E+00  0.00000000000E+00 -0.44408920985E-15  0.91188000000E+02  0.91188000000E+02 0.  0.
    9900012    2    3    3    0    0  0.78596286962E+01 -0.39739236209E+02 -0.34906817779E+01  0.50528861827E+02  0.30000006009E+02 0.  0.
        -12    1    3    3    0    0 -0.78596286962E+01  0.39739236209E+02  0.34906817779E+01  0.40659138173E+02  0.00000000000E+00 0.  1.
         11    1    4    4    0    0 -0.69517630540E+01 -0.14860884641E+02 -0.16546947285E+01  0.16489721549E+02  0.51100000000E-03 0. -1.
        -11    1    4    4    0    0  0.17061232299E+02 -0.15595924816E+02 -0.55817506425E+01  0.23779706872E+02  0.51100000000E-03 0.  1.
        -12    1    4    4    0    0 -0.22498405490E+01 -0.92824267520E+01  0.37457635931E+01  0.10259433405E+02  0.00000000000E+00 0.  1.
</event>
<event>
 8    1  0.2031623E-013  0.9118800E+02  0.7816164E-02  0.1184000E+00
        -11   -1    0    0    0    0  0.00000000000E+00  0.00000000000E+00  0.45593999997E+02  0.45594000000E+02  0.51100000000E-03 0. -1.
         11   -1    0    0    0    0 -0.00000000000E+00 -0.00000000000E+00 -0.45593999997E+02  0.45594000000E+02  0.51100000000E-03 0.  1.
         23    2    1    2    0    0 -0.88817841970E-15  0.00000000000E+00  0.00000000000E+00  0.91188000000E+02  0.91188000000E+02 0.  0.
    9900012    2    3    3    0    0 -0.71270864872E+01  0.41818173342E+01 -0.39810613759E+02  0.50528832203E+02  0.29999915965E+02 0.  0.
         12    1    3    3    0    0  0.71270864872E+01 -0.41818173342E+01  0.39810613759E+02  0.40659167797E+02  0.00000000000E+00 0. -1.
         11    1    4    4    0    0 -0.11731777788E+01 -0.75991451868E+00  0.28433646720E+01  0.31683653665E+01  0.51100000000E-03 0. -1.
        -11    1    4    4    0    0 -0.98063611167E+01  0.74612839476E+01 -0.40395495874E+02  0.42233062447E+02  0.51100000000E-03 0.  1.
        -12    1    4    4    0    0  0.38524524083E+01 -0.25195520947E+01 -0.22584825579E+01  0.51274043902E+01  0.00000000000E+00 0.  1.
</event>
<event>
 8    1  0.2031623E-013  0.9118800E+02  0.7816164E-02  0.1184000E+00
        -11   -1    0    0    0    0  0.00000000000E+00  0.00000000000E+00  0.45593999997E+02  0.45594000000E+02  0.51100000000E-03 0. -1.
         11   -1    0    0    0    0 -0.00000000000E+00 -0.00000000000E+00 -0.45593999997E+02  0.45594000000E+02  0.51100000000E-03 0.  1.
         23    2    1    2    0    0  0.71054273576E-14 -0.35527136788E-14  0.35527136788E-14  0.91188000000E+02  0.91188000000E+02 0.  0.
    9900012    2    3    3    0    0 -0.23658503847E+02  0.18509946635E+02 -0.27401141008E+02  0.50528862561E+02  0.30000008241E+02 0.  0.
         12    1    3    3    0    0  0.23658503847E+02 -0.18509946635E+02  0.27401141008E+02  0.40659137439E+02  0.00000000000E+00 0. -1.
         11    1    4    4    0    0 -0.18325653735E+01  0.98835364143E+01  0.16206371896E+01  0.10181800089E+02  0.51100000000E-03 0. -1.
        -11    1    4    4    0    0 -0.49431681170E+01 -0.44439015778E+01 -0.77145371303E+01  0.10183184947E+02  0.51100000000E-03 0.  1.
         12    1    4    4    0    0 -0.16882770356E+02  0.13070311799E+02 -0.21307241068E+02  0.30163877525E+02  0.00000000000E+00 0. -1.
</event>
<event>
 8    1  0.2031623E-013  0.9118800E+02  0.7816164E-02  0.1184000E+00
        -11   -1    0    0    0    0  0.00000000000E+00  0.00000000000E+00  0.45593999997E+02  0.45594000000E+02  0.51100000000E-03 0.  1.
         11   -1    0    0    0    0 -0.00000000000E+00 -0.00000000000E+00 -0.45593999997E+02  0.45594000000E+02  0.51100000000E-03 0. -1.
         23    2    1    2    0    0 -0.17763568394E-14  0.00000000000E+00  0.88817841970E-15  0.91188000000E+02  0.91188000000E+02 0.  0.
    9900012    2    3    3    0    0 -0.13969323398E+02 -0.37578401876E+02  0.67740857932E+01  0.50528849467E+02  0.29999968438E+02 0.  0.
         12    1    3    3    0    0  0.13969323398E+02  0.37578401876E+02 -0.67740857932E+01  0.40659150533E+02  0.00000000000E+00 0. -1.
         11    1    4    4    0    0 -0.13205274393E+02 -0.43965777001E+01 -0.47742068197E+01  0.14714014350E+02  0.51100000000E-03 0. -1.
        -11    1    4    4    0    0 -0.81560863983E+00 -0.26579251450E+02  0.12046791348E+02  0.29193269895E+02  0.51100000000E-03 0.  1.
        -12    1    4    4    0    0  0.51559634658E-01 -0.66025727264E+01 -0.49849873556E+00  0.66215652222E+01  0.00000000000E+00 0.  1.
</event>
<event>
 8    1  0.2031623E-013  0.9118800E+02  0.7816164E-02  0.1184000E+00
        -11   -1    0    0    0    0  0.00000000000E+00  0.00000000000E+00  0.45593999997E+02  0.45594000000E+02  0.51100000000E-03 0. -1.
         11   -1    0    0    0    0 -0.00000000000E+00 -0.00000000000E+00 -0.45593999997E+02  0.45594000000E+02  0.51100000000E-03 0.  1.
         23    2    1    2    0    0  0.00000000000E+00  0.00000000000E+00 -0.35527136788E-14  0.91188000000E+02  0.91188000000E+02 0.  0.
    9900012    2    3    3    0    0 -0.36142597209E+02 -0.81557553094E+01  0.16743992855E+02  0.50528868499E+02  0.30000026289E+02 0.  0.
        -12    1    3    3    0    0  0.36142597209E+02  0.81557553094E+01 -0.16743992855E+02  0.40659131501E+02  0.00000000000E+00 0.  1.
         11    1    4    4    0    0 -0.18359097214E+01  0.45224561903E+01  0.29015396661E+01  0.56782133804E+01  0.51100000000E-03 0. -1.
        -11    1    4    4    0    0 -0.12845217019E+02 -0.12681046179E+02  0.14838004673E+02  0.23366106124E+02  0.51100000000E-03 0.  1.
        -12    1    4    4    0    0 -0.21461470469E+02  0.28346795359E-02 -0.99555148420E+00  0.21484548994E+02  0.00000000000E+00 0.  1.
</event>
<event>
 8    1  0.2031623E-013  0.9118800E+02  0.7816164E-02  0.1184000E+00
        -11   -1    0    0    0    0  0.00000000000E+00  0.00000000000E+00  0.45593999997E+02  0.45594000000E+02  0.51100000000E-03 0. -1.
         11   -1    0    0    0    0 -0.00000000000E+00 -0.00000000000E+00 -0.45593999997E+02  0.45594000000E+02  0.51100000000E-03 0.  1.
         23    2    1    2    0    0 -0.35527136788E-14  0.17763568394E-14  0.00000000000E+00  0.91188000000E+02  0.91188000000E+02 0.  0.
    9900012    2    3    3    0    0 -0.19048769181E+02  0.86133365891E+01  0.34872922775E+02  0.50528856903E+02  0.29999991042E+02 0.  0.
        -12    1    3    3    0    0  0.19048769181E+02 -0.86133365891E+01 -0.34872922775E+02  0.40659143097E+02  0.00000000000E+00 0.  1.
         11    1    4    4    0    0  0.58886734963E+01  0.12952548083E+01  0.13275741276E+02  0.14580791037E+02  0.51100000000E-03 0. -1.
        -11    1    4    4    0    0 -0.95857717927E+01  0.91789043437E+01  0.97986702415E+01  0.16497067757E+02  0.51100000000E-03 0.  1.
         12    1    4    4    0    0 -0.15351670884E+02 -0.18608225629E+01  0.11798511258E+02  0.19450998109E+02  0.00000000000E+00 0. -1.
</event>
<event>
 8    1  0.2031623E-013  0.9118800E+02  0.7816164E-02  0.1184000E+00
        -11   -1    0    0    0    0  0.00000000000E+00  0.00000000000E+00  0.45593999997E+02  0.45594000000E+02  0.51100000000E-03 0. -1.
         11   -1    0    0    0    0 -0.00000000000E+00 -0.00000000000E+00 -0.45593999997E+02  0.45594000000E+02  0.51100000000E-03 0.  1.
         23    2    1    2    0    0  0.00000000000E+00  0.00000000000E+00  0.00000000000E+00  0.91188000000E+02  0.91188000000E+02 0.  0.
    9900012    2    3    3    0    0 -0.10588847613E+02  0.23307900902E+02  0.31587717219E+02  0.50528858133E+02  0.29999994781E+02 0.  0.
        -12    1    3    3    0    0  0.10588847613E+02 -0.23307900902E+02 -0.31587717219E+02  0.40659141867E+02  0.00000000000E+00 0.  1.
         11    1    4    4    0    0 -0.69357101779E+01  0.17029400779E+02  0.35163161400E+01  0.18720818519E+02  0.51100000000E-03 0. -1.
        -11    1    4    4    0    0 -0.31948433511E+01 -0.28701982722E+01  0.33583070369E+01  0.54519068751E+01  0.51100000000E-03 0.  1.
         12    1    4    4    0    0 -0.45829408395E+00  0.91486983957E+01  0.24713094042E+02  0.26356132739E+02  0.00000000000E+00 0. -1.
</event>
<event>
 8    1  0.2031623E-013  0.9118800E+02  0.7816164E-02  0.1184000E+00
        -11   -1    0    0    0    0  0.00000000000E+00  0.00000000000E+00  0.45593999997E+02  0.45594000000E+02  0.51100000000E-03 0. -1.
         11   -1    0    0    0    0 -0.00000000000E+00 -0.00000000000E+00 -0.45593999997E+02  0.45594000000E+02  0.51100000000E-03 0.  1.
         23    2    1    2    0    0 -0.88817841970E-15  0.00000000000E+00  0.00000000000E+00  0.91188000000E+02  0.91188000000E+02 0.  0.
    9900012    2    3    3    0    0  0.13844524884E+01 -0.17454703444E+02  0.36695692804E+02  0.50528963472E+02  0.30000314968E+02 0.  0.
        -12    1    3    3    0    0 -0.13844524884E+01  0.17454703444E+02 -0.36695692804E+02  0.40659036528E+02  0.00000000000E+00 0.  1.
         11    1    4    4    0    0  0.81012477155E+01 -0.12715456221E+02  0.39073911942E+02  0.41881781674E+02  0.51100000000E-03 0. -1.
        -11    1    4    4    0    0 -0.14556440324E+01 -0.51526461635E+00 -0.69536593396E+00  0.16934967426E+01  0.51100000000E-03 0.  1.
         12    1    4    4    0    0 -0.52611511947E+01 -0.42239826062E+01 -0.16828532036E+01  0.69536850558E+01  0.00000000000E+00 0. -1.
</event>
<event>
 8    1  0.2031623E-013  0.9118800E+02  0.7816164E-02  0.1184000E+00
        -11   -1    0    0    0    0  0.00000000000E+00  0.00000000000E+00  0.45593999997E+02  0.45594000000E+02  0.51100000000E-03 0. -1.
         11   -1    0    0    0    0 -0.00000000000E+00 -0.00000000000E+00 -0.45593999997E+02  0.45594000000E+02  0.51100000000E-03 0.  1.
         23    2    1    2    0    0  0.00000000000E+00 -0.17763568394E-14  0.71054273576E-14  0.91188000000E+02  0.91188000000E+02 0.  0.
    9900012    2    3    3    0    0  0.93442239467E+01 -0.12749682340E+02  0.37460607626E+02  0.50528855338E+02  0.29999986286E+02 0.  0.
        -12    1    3    3    0    0 -0.93442239467E+01  0.12749682340E+02 -0.37460607626E+02  0.40659144662E+02  0.00000000000E+00 0.  1.
         11    1    4    4    0    0  0.99054820742E+01  0.59082048099E+01  0.21841713089E+02  0.24699916804E+02  0.51100000000E-03 0. -1.
        -11    1    4    4    0    0  0.30820595373E+01 -0.76500560499E+01  0.32220430219E+01  0.88546038903E+01  0.51100000000E-03 0.  1.
         12    1    4    4    0    0 -0.36433176648E+01 -0.11007831100E+02  0.12396851515E+02  0.16974334644E+02  0.00000000000E+00 0. -1.
</event>
<event>
 8    1  0.2031623E-013  0.9118800E+02  0.7816164E-02  0.1184000E+00
        -11   -1    0    0    0    0  0.00000000000E+00  0.00000000000E+00  0.45593999997E+02  0.45594000000E+02  0.51100000000E-03 0. -1.
         11   -1    0    0    0    0 -0.00000000000E+00 -0.00000000000E+00 -0.45593999997E+02  0.45594000000E+02  0.51100000000E-03 0.  1.
         23    2    1    2    0    0  0.00000000000E+00  0.00000000000E+00  0.00000000000E+00  0.91188000000E+02  0.91188000000E+02 0.  0.
    9900012    2    3    3    0    0 -0.25138834174E+02 -0.26443729219E+02 -0.17942516787E+02  0.50528859487E+02  0.29999998895E+02 0.  0.
         12    1    3    3    0    0  0.25138834174E+02  0.26443729219E+02  0.17942516787E+02  0.40659140513E+02  0.00000000000E+00 0. -1.
         11    1    4    4    0    0 -0.13490618297E+01  0.37237243491E+01 -0.17130519545E+01  0.43151637406E+01  0.51100000000E-03 0. -1.
        -11    1    4    4    0    0 -0.16475209981E+02 -0.17678229188E+02 -0.19874583991E+02  0.31288199377E+02  0.51100000000E-03 0.  1.
        -12    1    4    4    0    0 -0.73145623627E+01 -0.12489224380E+02  0.36451191588E+01  0.14925496369E+02  0.00000000000E+00 0.  1.
</event>
<event>
 8    1  0.2031623E-013  0.9118800E+02  0.7816164E-02  0.1184000E+00
        -11   -1    0    0    0    0  0.00000000000E+00  0.00000000000E+00  0.45593999997E+02  0.45594000000E+02  0.51100000000E-03 0. -1.
         11   -1    0    0    0    0 -0.00000000000E+00 -0.00000000000E+00 -0.45593999997E+02  0.45594000000E+02  0.51100000000E-03 0.  1.
         23    2    1    2    0    0 -0.55511151231E-16  0.71054273576E-14  0.00000000000E+00  0.91188000000E+02  0.91188000000E+02 0.  0.
    9900012    2    3    3    0    0 -0.41652669169E+00  0.39440814704E+02  0.98699066705E+01  0.50528850763E+02  0.29999972379E+02 0.  0.
        -12    1    3    3    0    0  0.41652669169E+00 -0.39440814704E+02 -0.98699066705E+01  0.40659149237E+02  0.00000000000E+00 0.  1.
         11    1    4    4    0    0 -0.64733725249E+01  0.35978610712E+02  0.15674185595E+02  0.39774930232E+02  0.51100000000E-03 0. -1.
        -11    1    4    4    0    0  0.26858905726E+00  0.14315560055E+01 -0.41536082055E+01  0.44015854035E+01  0.51100000000E-03 0.  1.
         12    1    4    4    0    0  0.57882567759E+01  0.20306479859E+01 -0.16506707191E+01  0.63523351273E+01  0.00000000000E+00 0. -1.
</event>
<event>
 8    1  0.2031623E-013  0.9118800E+02  0.7816164E-02  0.1184000E+00
        -11   -1    0    0    0    0  0.00000000000E+00  0.00000000000E+00  0.45593999997E+02  0.45594000000E+02  0.51100000000E-03 0. -1.
         11   -1    0    0    0    0 -0.00000000000E+00 -0.00000000000E+00 -0.45593999997E+02  0.45594000000E+02  0.51100000000E-03 0.  1.
         23    2    1    2    0    0  0.00000000000E+00  0.88817841970E-15  0.35527136788E-14  0.91188000000E+02  0.91188000000E+02 0.  0.
    9900012    2    3    3    0    0 -0.29793328519E+02  0.69593986690E+01  0.26778542920E+02  0.50528855703E+02  0.29999987395E+02 0.  0.
        -12    1    3    3    0    0  0.29793328519E+02 -0.69593986690E+01 -0.26778542920E+02  0.40659144297E+02  0.00000000000E+00 0.  1.
         11    1    4    4    0    0 -0.17547964006E+02  0.61617949778E+01  0.53728785904E+01  0.19358888984E+02  0.51100000000E-03 0. -1.
        -11    1    4    4    0    0  0.47705759072E+01 -0.48998015617E+00  0.16660797576E+01  0.50768392785E+01  0.51100000000E-03 0.  1.
        -12    1    4    4    0    0 -0.17015940420E+02  0.12875838474E+01  0.19739584572E+02  0.26093127440E+02  0.00000000000E+00 0.  1.
</event>
<event>
 8    1  0.2031623E-013  0.9118800E+02  0.7816164E-02  0.1184000E+00
        -11   -1    0    0    0    0  0.00000000000E+00  0.00000000000E+00  0.45593999997E+02  0.45594000000E+02  0.51100000000E-03 0. -1.
         11   -1    0    0    0    0 -0.00000000000E+00 -0.00000000000E+00 -0.45593999997E+02  0.45594000000E+02  0.51100000000E-03 0.  1.
         23    2    1    2    0    0 -0.35527136788E-14 -0.71054273576E-14  0.00000000000E+00  0.91188000000E+02  0.91188000000E+02 0.  0.
    9900012    2    3    3    0    0 -0.26935110986E+02 -0.21564250305E+02  0.21509268689E+02  0.50528859151E+02  0.29999997876E+02 0.  0.
        -12    1    3    3    0    0  0.26935110986E+02  0.21564250305E+02 -0.21509268689E+02  0.40659140849E+02  0.00000000000E+00 0.  1.
         11    1    4    4    0    0 -0.10508131745E+01  0.52582327185E+01  0.11728206564E+00  0.53634853401E+01  0.51100000000E-03 0.  1.
        -11    1    4    4    0    0 -0.40787197760E+01 -0.70310387377E+01  0.11535426299E+02  0.14111609437E+02  0.51100000000E-03 0. -1.
         12    1    4    4    0    0 -0.21805578035E+02 -0.19791444286E+02  0.98565603242E+01  0.31053764374E+02  0.00000000000E+00 0. -1.
</event>
<event>
 8    1  0.2031623E-013  0.9118800E+02  0.7816164E-02  0.1184000E+00
        -11   -1    0    0    0    0  0.00000000000E+00  0.00000000000E+00  0.45593999997E+02  0.45594000000E+02  0.51100000000E-03 0. -1.
         11   -1    0    0    0    0 -0.00000000000E+00 -0.00000000000E+00 -0.45593999997E+02  0.45594000000E+02  0.51100000000E-03 0.  1.
         23    2    1    2    0    0  0.00000000000E+00  0.88817841970E-15  0.00000000000E+00  0.91188000000E+02  0.91188000000E+02 0.  0.
    9900012    2    3    3    0    0 -0.38022590634E+02 -0.46019994506E+01  0.13648067678E+02  0.50528861436E+02  0.30000004820E+02 0.  0.
        -12    1    3    3    0    0  0.38022590634E+02  0.46019994506E+01 -0.13648067678E+02  0.40659138564E+02  0.00000000000E+00 0.  1.
         11    1    4    4    0    0 -0.17114543803E+02 -0.36694214245E+01  0.94724298359E+01  0.19902240839E+02  0.51100000000E-03 0. -1.
        -11    1    4    4    0    0  0.34638020858E+01  0.40199317533E+01  0.19653157981E+01  0.56586431800E+01  0.51100000000E-03 0.  1.
        -12    1    4    4    0    0 -0.24371848917E+02 -0.49525097795E+01  0.22103220437E+01  0.24967977417E+02  0.00000000000E+00 0.  1.
</event>
<event>
 8    1  0.2031623E-013  0.9118800E+02  0.7816164E-02  0.1184000E+00
        -11   -1    0    0    0    0  0.00000000000E+00  0.00000000000E+00  0.45593999997E+02  0.45594000000E+02  0.51100000000E-03 0. -1.
         11   -1    0    0    0    0 -0.00000000000E+00 -0.00000000000E+00 -0.45593999997E+02  0.45594000000E+02  0.51100000000E-03 0.  1.
         23    2    1    2    0    0  0.35527136788E-14 -0.17763568394E-14  0.00000000000E+00  0.91188000000E+02  0.91188000000E+02 0.  0.
    9900012    2    3    3    0    0 -0.20298701206E+02  0.11745690719E+02  0.33213941065E+02  0.50528875536E+02  0.30000047679E+02 0.  0.
        -12    1    3    3    0    0  0.20298701206E+02 -0.11745690719E+02 -0.33213941065E+02  0.40659124464E+02  0.00000000000E+00 0.  1.
         11    1    4    4    0    0 -0.16003205831E+02  0.95517466017E+01  0.19502232523E+02  0.26975461695E+02  0.51100000000E-03 0. -1.
        -11    1    4    4    0    0  0.43012561065E+01 -0.18230490091E+01 -0.20929046916E+01  0.51190391767E+01  0.51100000000E-03 0.  1.
        -12    1    4    4    0    0 -0.85967514810E+01  0.40169931263E+01  0.15804613234E+02  0.18434374664E+02  0.00000000000E+00 0.  1.
</event>
<event>
 8    1  0.2031623E-013  0.9118800E+02  0.7816164E-02  0.1184000E+00
        -11   -1    0    0    0    0  0.00000000000E+00  0.00000000000E+00  0.45593999997E+02  0.45594000000E+02  0.51100000000E-03 0. -1.
         11   -1    0    0    0    0 -0.00000000000E+00 -0.00000000000E+00 -0.45593999997E+02  0.45594000000E+02  0.51100000000E-03 0.  1.
         23    2    1    2    0    0 -0.17763568394E-14  0.44408920985E-15  0.00000000000E+00  0.91188000000E+02  0.91188000000E+02 0.  0.
    9900012    2    3    3    0    0 -0.15533265981E+02  0.23557266291E+01  0.37501119246E+02  0.50528859026E+02  0.29999997496E+02 0.  0.
        -12    1    3    3    0    0  0.15533265981E+02 -0.23557266291E+01 -0.37501119246E+02  0.40659140974E+02  0.00000000000E+00 0.  1.
         11    1    4    4    0    0  0.41561609506E+01  0.35243778506E+01  0.12126762502E+02  0.13294859237E+02  0.51100000000E-03 0. -1.
        -11    1    4    4    0    0 -0.15052596924E+02 -0.28124381568E+01  0.47527369497E+01  0.16033683024E+02  0.51100000000E-03 0.  1.
        -12    1    4    4    0    0 -0.46368300075E+01  0.16437869353E+01  0.20621619794E+02  0.21200316765E+02  0.00000000000E+00 0.  1.
</event>
<event>
 8    1  0.2031623E-013  0.9118800E+02  0.7816164E-02  0.1184000E+00
        -11   -1    0    0    0    0  0.00000000000E+00  0.00000000000E+00  0.45593999997E+02  0.45594000000E+02  0.51100000000E-03 0. -1.
         11   -1    0    0    0    0 -0.00000000000E+00 -0.00000000000E+00 -0.45593999997E+02  0.45594000000E+02  0.51100000000E-03 0.  1.
         23    2    1    2    0    0  0.00000000000E+00  0.00000000000E+00  0.00000000000E+00  0.91188000000E+02  0.91188000000E+02 0.  0.
    9900012    2    3    3    0    0  0.22046005808E+02 -0.27425731675E+02 -0.20370776479E+02  0.50528860014E+02  0.30000000499E+02 0.  0.
         12    1    3    3    0    0 -0.22046005808E+02  0.27425731675E+02  0.20370776479E+02  0.40659139986E+02  0.00000000000E+00 0. -1.
         11    1    4    4    0    0  0.15832785528E+02 -0.17679587085E+02 -0.24126826374E+02  0.33842999988E+02  0.51100000000E-03 0. -1.
        -11    1    4    4    0    0  0.89290681932E+01 -0.86061392302E+01  0.66945904971E+00  0.12419422971E+02  0.51100000000E-03 0.  1.
         12    1    4    4    0    0 -0.27158479127E+01 -0.11400053598E+01  0.30865908447E+01  0.42664370554E+01  0.00000000000E+00 0. -1.
</event>
<event>
 8    1  0.2031623E-013  0.9118800E+02  0.7816164E-02  0.1184000E+00
        -11   -1    0    0    0    0  0.00000000000E+00  0.00000000000E+00  0.45593999997E+02  0.45594000000E+02  0.51100000000E-03 0. -1.
         11   -1    0    0    0    0 -0.00000000000E+00 -0.00000000000E+00 -0.45593999997E+02  0.45594000000E+02  0.51100000000E-03 0.  1.
         23    2    1    2    0    0  0.71054273576E-14  0.00000000000E+00  0.00000000000E+00  0.91188000000E+02  0.91188000000E+02 0.  0.
    9900012    2    3    3    0    0 -0.32749945836E+02 -0.17320924967E+02 -0.16750899770E+02  0.50528855431E+02  0.29999986569E+02 0.  0.
         12    1    3    3    0    0  0.32749945836E+02  0.17320924967E+02  0.16750899770E+02  0.40659144569E+02  0.00000000000E+00 0. -1.
         11    1    4    4    0    0 -0.61053508320E+00 -0.14204341737E+02 -0.12071117696E+01  0.14268608774E+02  0.51100000000E-03 0. -1.
        -11    1    4    4    0    0 -0.11597898889E+02 -0.33253902425E+00 -0.28305289711E+01  0.11942936631E+02  0.51100000000E-03 0.  1.
         12    1    4    4    0    0 -0.20541511864E+02 -0.27840442056E+01 -0.12713259030E+02  0.24317310027E+02  0.00000000000E+00 0. -1.
</event>
<event>
 8    1  0.2031623E-013  0.9118800E+02  0.7816164E-02  0.1184000E+00
        -11   -1    0    0    0    0  0.00000000000E+00  0.00000000000E+00  0.45593999997E+02  0.45594000000E+02  0.51100000000E-03 0. -1.
         11   -1    0    0    0    0 -0.00000000000E+00 -0.00000000000E+00 -0.45593999997E+02  0.45594000000E+02  0.51100000000E-03 0.  1.
         23    2    1    2    0    0  0.00000000000E+00 -0.17763568394E-14 -0.35527136788E-14  0.91188000000E+02  0.91188000000E+02 0.  0.
    9900012    2    3    3    0    0  0.31431591853E+02 -0.15024857563E+02 -0.20963646764E+02  0.50528858385E+02  0.29999995547E+02 0.  0.
         12    1    3    3    0    0 -0.31431591853E+02  0.15024857563E+02  0.20963646764E+02  0.40659141615E+02  0.00000000000E+00 0. -1.
         11    1    4    4    0    0 -0.25575147541E+00 -0.11974410154E+02 -0.57360544741E+01  0.13279842942E+02  0.51100000000E-03 0. -1.
        -11    1    4    4    0    0  0.22990980162E+02 -0.69385641236E+01 -0.13557363529E+02  0.27577725560E+02  0.51100000000E-03 0.  1.
         12    1    4    4    0    0  0.86963631660E+01  0.38881167146E+01 -0.16702287611E+01  0.96712898838E+01  0.00000000000E+00 0. -1.
</event>
<event>
 8    1  0.2031623E-013  0.9118800E+02  0.7816164E-02  0.1184000E+00
        -11   -1    0    0    0    0  0.00000000000E+00  0.00000000000E+00  0.45593999997E+02  0.45594000000E+02  0.51100000000E-03 0. -1.
         11   -1    0    0    0    0 -0.00000000000E+00 -0.00000000000E+00 -0.45593999997E+02  0.45594000000E+02  0.51100000000E-03 0.  1.
         23    2    1    2    0    0  0.35527136788E-14  0.00000000000E+00  0.00000000000E+00  0.91188000000E+02  0.91188000000E+02 0.  0.
    9900012    2    3    3    0    0 -0.18576522876E+02  0.19297110762E+02  0.30589247995E+02  0.50528834012E+02  0.29999921464E+02 0.  0.
        -12    1    3    3    0    0  0.18576522876E+02 -0.19297110762E+02 -0.30589247995E+02  0.40659165988E+02  0.00000000000E+00 0.  1.
         11    1    4    4    0    0 -0.20829545082E+00  0.15138195010E+01  0.51306384057E+00  0.16119153954E+01  0.51100000000E-03 0. -1.
        -11    1    4    4    0    0 -0.71122204342E+01  0.20998896953E+02  0.29882647291E+02  0.37209003778E+02  0.51100000000E-03 0.  1.
        -12    1    4    4    0    0 -0.11256006991E+02 -0.32156056925E+01  0.19353686316E+00  0.11707914839E+02  0.00000000000E+00 0.  1.
</event>
<event>
 8    1  0.2031623E-013  0.9118800E+02  0.7816164E-02  0.1184000E+00
        -11   -1    0    0    0    0  0.00000000000E+00  0.00000000000E+00  0.45593999997E+02  0.45594000000E+02  0.51100000000E-03 0. -1.
         11   -1    0    0    0    0 -0.00000000000E+00 -0.00000000000E+00 -0.45593999997E+02  0.45594000000E+02  0.51100000000E-03 0.  1.
         23    2    1    2    0    0  0.44408920985E-15  0.71054273576E-14 -0.35527136788E-14  0.91188000000E+02  0.91188000000E+02 0.  0.
    9900012    2    3    3    0    0  0.27604956457E+01 -0.33225499819E+02  0.23272517983E+02  0.50528877189E+02  0.30000052704E+02 0.  0.
        -12    1    3    3    0    0 -0.27604956457E+01  0.33225499819E+02 -0.23272517983E+02  0.40659122811E+02  0.00000000000E+00 0.  1.
         11    1    4    4    0    0  0.10489822383E+02 -0.82139176624E+00  0.82599435627E+01  0.13376760669E+02  0.51100000000E-03 0. -1.
        -11    1    4    4    0    0 -0.18911192194E+01 -0.51262774612E+01 -0.19762898765E-01  0.54640134832E+01  0.51100000000E-03 0.  1.
         12    1    4    4    0    0 -0.58382075181E+01 -0.27277830592E+02  0.15032337319E+02  0.31688103037E+02  0.00000000000E+00 0. -1.
</event>
<event>
 8    1  0.2031623E-013  0.9118800E+02  0.7816164E-02  0.1184000E+00
        -11   -1    0    0    0    0  0.00000000000E+00  0.00000000000E+00  0.45593999997E+02  0.45594000000E+02  0.51100000000E-03 0. -1.
         11   -1    0    0    0    0 -0.00000000000E+00 -0.00000000000E+00 -0.45593999997E+02  0.45594000000E+02  0.51100000000E-03 0.  1.
         23    2    1    2    0    0  0.17763568394E-14  0.00000000000E+00  0.35527136788E-14  0.91188000000E+02  0.91188000000E+02 0.  0.
    9900012    2    3    3    0    0  0.84449000236E+01  0.26392864669E+02  0.29753416476E+02  0.50528862849E+02  0.30000009117E+02 0.  0.
        -12    1    3    3    0    0 -0.84449000236E+01 -0.26392864669E+02 -0.29753416476E+02  0.40659137151E+02  0.00000000000E+00 0.  1.
         11    1    4    4    0    0  0.69849142413E+01  0.27002324697E+02  0.27602095221E+02  0.39240160892E+02  0.51100000000E-03 0. -1.
        -11    1    4    4    0    0 -0.40456908973E+01  0.71328855110E+00 -0.16944718210E+01  0.44438306006E+01  0.51100000000E-03 0.  1.
        -12    1    4    4    0    0  0.55056766795E+01 -0.13227485791E+01  0.38457930763E+01  0.68448713566E+01  0.00000000000E+00 0.  1.
</event>
<event>
 8    1  0.2031623E-013  0.9118800E+02  0.7816164E-02  0.1184000E+00
        -11   -1    0    0    0    0  0.00000000000E+00  0.00000000000E+00  0.45593999997E+02  0.45594000000E+02  0.51100000000E-03 0.  1.
         11   -1    0    0    0    0 -0.00000000000E+00 -0.00000000000E+00 -0.45593999997E+02  0.45594000000E+02  0.51100000000E-03 0. -1.
         23    2    1    2    0    0  0.00000000000E+00  0.00000000000E+00  0.00000000000E+00  0.91188000000E+02  0.91188000000E+02 0.  0.
    9900012    2    3    3    0    0  0.37326135641E+02  0.13409846286E+02  0.89499160620E+01  0.50528863550E+02  0.30000011247E+02 0.  0.
        -12    1    3    3    0    0 -0.37326135641E+02 -0.13409846286E+02 -0.89499160620E+01  0.40659136450E+02  0.00000000000E+00 0.  1.
         11    1    4    4    0    0  0.72271037345E+01  0.13322264897E+01  0.32006602611E+01  0.80156148970E+01  0.51100000000E-03 0. -1.
        -11    1    4    4    0    0 -0.47244454296E+01  0.43981728591E+01  0.11754497115E+01  0.65609443986E+01  0.51100000000E-03 0.  1.
        -12    1    4    4    0    0  0.34823477336E+02  0.76794469377E+01  0.45738060894E+01  0.35952304255E+02  0.00000000000E+00 0.  1.
</event>
<event>
 8    1  0.2031623E-013  0.9118800E+02  0.7816164E-02  0.1184000E+00
        -11   -1    0    0    0    0  0.00000000000E+00  0.00000000000E+00  0.45593999997E+02  0.45594000000E+02  0.51100000000E-03 0. -1.
         11   -1    0    0    0    0 -0.00000000000E+00 -0.00000000000E+00 -0.45593999997E+02  0.45594000000E+02  0.51100000000E-03 0.  1.
         23    2    1    2    0    0  0.13877787808E-14  0.00000000000E+00  0.00000000000E+00  0.91188000000E+02  0.91188000000E+02 0.  0.
    9900012    2    3    3    0    0  0.29651225595E+00 -0.30123120323E+02 -0.27307035085E+02  0.50528874792E+02  0.30000045419E+02 0.  0.
         12    1    3    3    0    0 -0.29651225595E+00  0.30123120323E+02  0.27307035085E+02  0.40659125208E+02  0.00000000000E+00 0. -1.
         11    1    4    4    0    0  0.12492737128E+02 -0.26548292751E+02 -0.15729954715E+02  0.33291317255E+02  0.51100000000E-03 0. -1.
        -11    1    4    4    0    0 -0.96222232226E+01 -0.33441517843E+01 -0.92016848999E+01  0.13727400925E+02  0.51100000000E-03 0.  1.
         12    1    4    4    0    0 -0.25740016491E+01 -0.23067578778E+00 -0.23753954698E+01  0.35101566128E+01  0.00000000000E+00 0. -1.
</event>
<event>
 8    1  0.2031623E-013  0.9118800E+02  0.7816164E-02  0.1184000E+00
        -11   -1    0    0    0    0  0.00000000000E+00  0.00000000000E+00  0.45593999997E+02  0.45594000000E+02  0.51100000000E-03 0. -1.
         11   -1    0    0    0    0 -0.00000000000E+00 -0.00000000000E+00 -0.45593999997E+02  0.45594000000E+02  0.51100000000E-03 0.  1.
         23    2    1    2    0    0 -0.66613381478E-15  0.00000000000E+00 -0.35527136788E-14  0.91188000000E+02  0.91188000000E+02 0.  0.
    9900012    2    3    3    0    0  0.16968012862E+01 -0.29737826647E+02  0.27675773448E+02  0.50528857065E+02  0.29999991535E+02 0.  0.
        -12    1    3    3    0    0 -0.16968012862E+01  0.29737826647E+02 -0.27675773448E+02  0.40659142935E+02  0.00000000000E+00 0.  1.
         11    1    4    4    0    0  0.56293244052E+01 -0.23142331783E+02  0.15903478760E+02  0.28638740380E+02  0.51100000000E-03 0. -1.
        -11    1    4    4    0    0  0.31266069506E+01  0.43836081577E+01  0.30028062691E+01  0.61651064269E+01  0.51100000000E-03 0.  1.
         12    1    4    4    0    0 -0.70591300696E+01 -0.10979103021E+02  0.87694884188E+01  0.15725010258E+02  0.00000000000E+00 0. -1.
</event>
<event>
 8    1  0.2031623E-013  0.9118800E+02  0.7816164E-02  0.1184000E+00
        -11   -1    0    0    0    0  0.00000000000E+00  0.00000000000E+00  0.45593999997E+02  0.45594000000E+02  0.51100000000E-03 0. -1.
         11   -1    0    0    0    0 -0.00000000000E+00 -0.00000000000E+00 -0.45593999997E+02  0.45594000000E+02  0.51100000000E-03 0.  1.
         23    2    1    2    0    0  0.00000000000E+00  0.17763568394E-14  0.00000000000E+00  0.91188000000E+02  0.91188000000E+02 0.  0.
    9900012    2    3    3    0    0 -0.14976682491E+02  0.11552443742E+02  0.35991740771E+02  0.50528863529E+02  0.30000011183E+02 0.  0.
        -12    1    3    3    0    0  0.14976682491E+02 -0.11552443742E+02 -0.35991740771E+02  0.40659136471E+02  0.00000000000E+00 0.  1.
         11    1    4    4    0    0 -0.28133817287E+01 -0.18619802701E+01  0.21738442517E+02  0.21998681110E+02  0.51100000000E-03 0. -1.
        -11    1    4    4    0    0  0.36088548435E+00  0.59017815580E+01 -0.23988923567E+01  0.63809050056E+01  0.51100000000E-03 0.  1.
        -12    1    4    4    0    0 -0.12524186247E+02  0.75126424545E+01  0.16652190610E+02  0.22149277413E+02  0.00000000000E+00 0.  1.
</event>
<event>
 8    1  0.2031623E-013  0.9118800E+02  0.7816164E-02  0.1184000E+00
        -11   -1    0    0    0    0  0.00000000000E+00  0.00000000000E+00  0.45593999997E+02  0.45594000000E+02  0.51100000000E-03 0. -1.
         11   -1    0    0    0    0 -0.00000000000E+00 -0.00000000000E+00 -0.45593999997E+02  0.45594000000E+02  0.51100000000E-03 0.  1.
         23    2    1    2    0    0  0.17763568394E-14  0.00000000000E+00  0.17763568394E-14  0.91188000000E+02  0.91188000000E+02 0.  0.
    9900012    2    3    3    0    0 -0.12822491574E+02 -0.36649580294E+02 -0.12064727189E+02  0.50528859969E+02  0.30000000362E+02 0.  0.
         12    1    3    3    0    0  0.12822491574E+02  0.36649580294E+02  0.12064727189E+02  0.40659140031E+02  0.00000000000E+00 0. -1.
         11    1    4    4    0    0 -0.22109500346E+01  0.35191107080E+01  0.19453641550E+01  0.45887778533E+01  0.51100000000E-03 0. -1.
        -11    1    4    4    0    0 -0.69207965305E+01 -0.19470951796E+02  0.20022791457E-01  0.20664360374E+02  0.51100000000E-03 0.  1.
         12    1    4    4    0    0 -0.36907450094E+01 -0.20697739206E+02 -0.14030114135E+02  0.25275721742E+02  0.00000000000E+00 0. -1.
</event>
<event>
 8    1  0.2031623E-013  0.9118800E+02  0.7816164E-02  0.1184000E+00
        -11   -1    0    0    0    0  0.00000000000E+00  0.00000000000E+00  0.45593999997E+02  0.45594000000E+02  0.51100000000E-03 0. -1.
         11   -1    0    0    0    0 -0.00000000000E+00 -0.00000000000E+00 -0.45593999997E+02  0.45594000000E+02  0.51100000000E-03 0.  1.
         23    2    1    2    0    0  0.35527136788E-14  0.35527136788E-14  0.00000000000E+00  0.91188000000E+02  0.91188000000E+02 0.  0.
    9900012    2    3    3    0    0 -0.27310900273E+02 -0.17427125629E+02  0.24567776729E+02  0.50528860378E+02  0.30000001604E+02 0.  0.
        -12    1    3    3    0    0  0.27310900273E+02  0.17427125629E+02 -0.24567776729E+02  0.40659139622E+02  0.00000000000E+00 0.  1.
         11    1    4    4    0    0 -0.28103629044E+02 -0.17259512312E+02  0.16542380789E+02  0.36896545815E+02  0.51100000000E-03 0. -1.
        -11    1    4    4    0    0  0.41566989006E+01  0.24578372915E+01  0.80240650582E+01  0.93650803638E+01  0.51100000000E-03 0.  1.
        -12    1    4    4    0    0 -0.33639701298E+01 -0.26254506090E+01  0.13308821185E-02  0.42672341986E+01  0.00000000000E+00 0.  1.
</event>
<event>
 8    1  0.2031623E-013  0.9118800E+02  0.7816164E-02  0.1184000E+00
        -11   -1    0    0    0    0  0.00000000000E+00  0.00000000000E+00  0.45593999997E+02  0.45594000000E+02  0.51100000000E-03 0. -1.
         11   -1    0    0    0    0 -0.00000000000E+00 -0.00000000000E+00 -0.45593999997E+02  0.45594000000E+02  0.51100000000E-03 0.  1.
         23    2    1    2    0    0  0.00000000000E+00  0.00000000000E+00  0.00000000000E+00  0.91188000000E+02  0.91188000000E+02 0.  0.
    9900012    2    3    3    0    0  0.24416147614E+02  0.40379439804E+01 -0.32260075306E+02  0.50528859396E+02  0.29999998620E+02 0.  0.
         12    1    3    3    0    0 -0.24416147614E+02 -0.40379439804E+01  0.32260075306E+02  0.40659140604E+02  0.00000000000E+00 0. -1.
         11    1    4    4    0    0  0.19860610857E+01 -0.71800997354E+01 -0.21778465323E+02  0.23017380888E+02  0.51100000000E-03 0. -1.
        -11    1    4    4    0    0  0.16719676111E+02  0.99808972774E+01 -0.69018128115E+01  0.20659160197E+02  0.51100000000E-03 0.  1.
         12    1    4    4    0    0  0.57104104174E+01  0.12371464384E+01 -0.35797971718E+01  0.68523183111E+01  0.00000000000E+00 0. -1.
</event>
<event>
 8    1  0.2031623E-013  0.9118800E+02  0.7816164E-02  0.1184000E+00
        -11   -1    0    0    0    0  0.00000000000E+00  0.00000000000E+00  0.45593999997E+02  0.45594000000E+02  0.51100000000E-03 0.  1.
         11   -1    0    0    0    0 -0.00000000000E+00 -0.00000000000E+00 -0.45593999997E+02  0.45594000000E+02  0.51100000000E-03 0. -1.
         23    2    1    2    0    0 -0.71054273576E-14  0.00000000000E+00  0.00000000000E+00  0.91188000000E+02  0.91188000000E+02 0.  0.
    9900012    2    3    3    0    0 -0.39573862163E+02  0.20039444008E+01  0.91134653137E+01  0.50528909877E+02  0.30000152061E+02 0.  0.
        -12    1    3    3    0    0  0.39573862163E+02 -0.20039444008E+01 -0.91134653137E+01  0.40659090123E+02  0.00000000000E+00 0.  1.
         11    1    4    4    0    0 -0.99719821508E+01 -0.12173161673E+01 -0.68201886803E+01  0.12142374585E+02  0.51100000000E-03 0. -1.
        -11    1    4    4    0    0 -0.38784137778E+01  0.95787989227E+00  0.11515073810E+02  0.12188377761E+02  0.51100000000E-03 0.  1.
         12    1    4    4    0    0 -0.25723466234E+02  0.22633806758E+01  0.44185801835E+01  0.26198157531E+02  0.00000000000E+00 0. -1.
</event>
<event>
 8    1  0.2031623E-013  0.9118800E+02  0.7816164E-02  0.1184000E+00
        -11   -1    0    0    0    0  0.00000000000E+00  0.00000000000E+00  0.45593999997E+02  0.45594000000E+02  0.51100000000E-03 0. -1.
         11   -1    0    0    0    0 -0.00000000000E+00 -0.00000000000E+00 -0.45593999997E+02  0.45594000000E+02  0.51100000000E-03 0.  1.
         23    2    1    2    0    0  0.00000000000E+00  0.88817841970E-15  0.00000000000E+00  0.91188000000E+02  0.91188000000E+02 0.  0.
    9900012    2    3    3    0    0  0.28656362593E+02 -0.70336266314E+01 -0.27973322679E+02  0.50528858318E+02  0.29999995343E+02 0.  0.
         12    1    3    3    0    0 -0.28656362593E+02  0.70336266314E+01  0.27973322679E+02  0.40659141682E+02  0.00000000000E+00 0. -1.
         11    1    4    4    0    0  0.11888808930E+02 -0.71960294479E+01  0.27680211498E+01  0.14169987965E+02  0.51100000000E-03 0. -1.
        -11    1    4    4    0    0  0.14989324807E+02 -0.33616950367E+01 -0.25891803027E+02  0.30105918287E+02  0.51100000000E-03 0.  1.
         12    1    4    4    0    0  0.17782288560E+01  0.35240978532E+01 -0.48495408019E+01  0.62529520654E+01  0.00000000000E+00 0. -1.
</event>
<event>
 8    1  0.2031623E-013  0.9118800E+02  0.7816164E-02  0.1184000E+00
        -11   -1    0    0    0    0  0.00000000000E+00  0.00000000000E+00  0.45593999997E+02  0.45594000000E+02  0.51100000000E-03 0. -1.
         11   -1    0    0    0    0 -0.00000000000E+00 -0.00000000000E+00 -0.45593999997E+02  0.45594000000E+02  0.51100000000E-03 0.  1.
         23    2    1    2    0    0  0.00000000000E+00 -0.17763568394E-14 -0.17763568394E-14  0.91188000000E+02  0.91188000000E+02 0.  0.
    9900012    2    3    3    0    0 -0.38560098025E+02 -0.80866723710E+01 -0.10044430573E+02  0.50528855700E+02  0.29999987384E+02 0.  0.
         12    1    3    3    0    0  0.38560098025E+02  0.80866723710E+01  0.10044430573E+02  0.40659144300E+02  0.00000000000E+00 0. -1.
         11    1    4    4    0    0 -0.24767471009E+02  0.32181577806E+01 -0.73858131524E+01  0.26044853539E+02  0.51100000000E-03 0. -1.
        -11    1    4    4    0    0 -0.58658043209E+01 -0.10005059588E+02  0.56728696996E+01  0.12910860876E+02  0.51100000000E-03 0.  1.
        -12    1    4    4    0    0 -0.79268226954E+01 -0.12997705639E+01 -0.83314871199E+01  0.11573141285E+02  0.00000000000E+00 0.  1.
</event>
<event>
 8    1  0.2031623E-013  0.9118800E+02  0.7816164E-02  0.1184000E+00
        -11   -1    0    0    0    0  0.00000000000E+00  0.00000000000E+00  0.45593999997E+02  0.45594000000E+02  0.51100000000E-03 0. -1.
         11   -1    0    0    0    0 -0.00000000000E+00 -0.00000000000E+00 -0.45593999997E+02  0.45594000000E+02  0.51100000000E-03 0.  1.
         23    2    1    2    0    0 -0.88817841970E-15  0.00000000000E+00  0.00000000000E+00  0.91188000000E+02  0.91188000000E+02 0.  0.
    9900012    2    3    3    0    0 -0.40622840216E+01  0.94693988434E+01  0.39331846640E+02  0.50528858026E+02  0.29999994456E+02 0.  0.
        -12    1    3    3    0    0  0.40622840216E+01 -0.94693988434E+01 -0.39331846640E+02  0.40659141974E+02  0.00000000000E+00 0.  1.
         11    1    4    4    0    0  0.12804481966E+02  0.34083649743E+01  0.12327009159E+02  0.18097703315E+02  0.51100000000E-03 0. -1.
        -11    1    4    4    0    0 -0.14305175775E+02  0.51537587869E+01  0.23610526198E+02  0.28083023897E+02  0.51100000000E-03 0.  1.
         12    1    4    4    0    0 -0.25615902122E+01  0.90727508225E+00  0.33943112839E+01  0.43481308147E+01  0.00000000000E+00 0. -1.
</event>
<event>
 8    1  0.2031623E-013  0.9118800E+02  0.7816164E-02  0.1184000E+00
        -11   -1    0    0    0    0  0.00000000000E+00  0.00000000000E+00  0.45593999997E+02  0.45594000000E+02  0.51100000000E-03 0. -1.
         11   -1    0    0    0    0 -0.00000000000E+00 -0.00000000000E+00 -0.45593999997E+02  0.45594000000E+02  0.51100000000E-03 0.  1.
         23    2    1    2    0    0 -0.35527136788E-14  0.00000000000E+00  0.00000000000E+00  0.91188000000E+02  0.91188000000E+02 0.  0.
    9900012    2    3    3    0    0  0.17669847880E+02 -0.84809560219E+01 -0.35623251626E+02  0.50528853482E+02  0.29999980645E+02 0.  0.
         12    1    3    3    0    0 -0.17669847880E+02  0.84809560219E+01  0.35623251626E+02  0.40659146518E+02  0.00000000000E+00 0. -1.
         11    1    4    4    0    0  0.17573427547E+02 -0.27013700303E+01 -0.10774582870E+02  0.20789766523E+02  0.51100000000E-03 0. -1.
        -11    1    4    4    0    0 -0.16723832384E+01 -0.10175453378E+02 -0.10887866737E+02  0.14996078137E+02  0.51100000000E-03 0.  1.
        -12    1    4    4    0    0  0.17688035720E+01  0.43958673862E+01 -0.13960802019E+02  0.14743008823E+02  0.00000000000E+00 0.  1.
</event>
<event>
 8    1  0.2031623E-013  0.9118800E+02  0.7816164E-02  0.1184000E+00
        -11   -1    0    0    0    0  0.00000000000E+00  0.00000000000E+00  0.45593999997E+02  0.45594000000E+02  0.51100000000E-03 0. -1.
         11   -1    0    0    0    0 -0.00000000000E+00 -0.00000000000E+00 -0.45593999997E+02  0.45594000000E+02  0.51100000000E-03 0.  1.
         23    2    1    2    0    0  0.00000000000E+00  0.55511151231E-15  0.00000000000E+00  0.91188000000E+02  0.91188000000E+02 0.  0.
    9900012    2    3    3    0    0  0.23115626011E+02 -0.17139495503E+00 -0.33448602532E+02  0.50528799891E+02  0.29999817749E+02 0.  0.
         12    1    3    3    0    0 -0.23115626011E+02  0.17139495503E+00  0.33448602532E+02  0.40659200109E+02  0.00000000000E+00 0. -1.
         11    1    4    4    0    0 -0.94549303134E+00 -0.55507278804E+01 -0.10055471790E+02  0.11524627988E+02  0.51100000000E-03 0. -1.
        -11    1    4    4    0    0  0.17388693057E+02  0.10303209224E+02 -0.84354311321E+01  0.21901581341E+02  0.51100000000E-03 0.  1.
         12    1    4    4    0    0  0.66724259853E+01 -0.49238762991E+01 -0.14957699610E+02  0.17102590563E+02  0.00000000000E+00 0. -1.
</event>
<event>
 8    1  0.2031623E-013  0.9118800E+02  0.7816164E-02  0.1184000E+00
        -11   -1    0    0    0    0  0.00000000000E+00  0.00000000000E+00  0.45593999997E+02  0.45594000000E+02  0.51100000000E-03 0. -1.
         11   -1    0    0    0    0 -0.00000000000E+00 -0.00000000000E+00 -0.45593999997E+02  0.45594000000E+02  0.51100000000E-03 0.  1.
         23    2    1    2    0    0  0.22204460493E-15  0.35527136788E-14  0.00000000000E+00  0.91188000000E+02  0.91188000000E+02 0.  0.
    9900012    2    3    3    0    0  0.14744515573E+01  0.18981880618E+02 -0.35925999834E+02  0.50528889541E+02  0.30000090249E+02 0.  0.
         12    1    3    3    0    0 -0.14744515573E+01 -0.18981880618E+02  0.35925999834E+02  0.40659110459E+02  0.00000000000E+00 0. -1.
         11    1    4    4    0    0  0.88107300334E-01 -0.35773788320E+01  0.11318721961E+01  0.37532035827E+01  0.51100000000E-03 0. -1.
        -11    1    4    4    0    0  0.81655057905E+01  0.14472655783E+02 -0.29279737455E+02  0.33666545352E+02  0.51100000000E-03 0.  1.
        -12    1    4    4    0    0 -0.67791615335E+01  0.80866036671E+01 -0.77781345758E+01  0.13109140607E+02  0.00000000000E+00 0.  1.
</event>
<event>
 8    1  0.2031623E-013  0.9118800E+02  0.7816164E-02  0.1184000E+00
        -11   -1    0    0    0    0  0.00000000000E+00  0.00000000000E+00  0.45593999997E+02  0.45594000000E+02  0.51100000000E-03 0. -1.
         11   -1    0    0    0    0 -0.00000000000E+00 -0.00000000000E+00 -0.45593999997E+02  0.45594000000E+02  0.51100000000E-03 0.  1.
         23    2    1    2    0    0  0.88817841970E-15 -0.71054273576E-14 -0.35527136788E-14  0.91188000000E+02  0.91188000000E+02 0.  0.
    9900012    2    3    3    0    0 -0.37588349143E+01  0.29975109657E+02  0.27212620204E+02  0.50528896010E+02  0.30000109912E+02 0.  0.
        -12    1    3    3    0    0  0.37588349143E+01 -0.29975109657E+02 -0.27212620204E+02  0.40659103990E+02  0.00000000000E+00 0.  1.
         11    1    4    4    0    0 -0.10820235241E+02  0.23909352181E+02  0.24139931673E+02  0.35657690809E+02  0.51100000000E-03 0. -1.
        -11    1    4    4    0    0  0.83742426624E+01  0.32241436924E-01  0.16702253901E+01  0.85392407621E+01  0.51100000000E-03 0.  1.
        -12    1    4    4    0    0 -0.13128423361E+01  0.60335160390E+01  0.14024631416E+01  0.63319644389E+01  0.00000000000E+00 0.  1.
</event>
<event>
 8    1  0.2031623E-013  0.9118800E+02  0.7816164E-02  0.1184000E+00
        -11   -1    0    0    0    0  0.00000000000E+00  0.00000000000E+00  0.45593999997E+02  0.45594000000E+02  0.51100000000E-03 0. -1.
         11   -1    0    0    0    0 -0.00000000000E+00 -0.00000000000E+00 -0.45593999997E+02  0.45594000000E+02  0.51100000000E-03 0.  1.
         23    2    1    2    0    0 -0.17763568394E-14 -0.71054273576E-14  0.00000000000E+00  0.91188000000E+02  0.91188000000E+02 0.  0.
    9900012    2    3    3    0    0 -0.91773109439E+01 -0.38091941083E+02  0.10860278925E+02  0.50528872243E+02  0.30000037670E+02 0.  0.
        -12    1    3    3    0    0  0.91773109439E+01  0.38091941083E+02 -0.10860278925E+02  0.40659127757E+02  0.00000000000E+00 0.  1.
         11    1    4    4    0    0 -0.15909745378E+02 -0.21342149909E+02  0.47885671896E+01  0.27046954296E+02  0.51100000000E-03 0. -1.
        -11    1    4    4    0    0  0.65989212542E+01 -0.11819787278E+01 -0.17708121484E+00  0.67062801500E+01  0.51100000000E-03 0.  1.
         12    1    4    4    0    0  0.13351318024E+00 -0.15567812447E+02  0.62487929505E+01  0.16775637796E+02  0.00000000000E+00 0. -1.
</event>
<event>
 8    1  0.2644835E-013  0.9118800E+02  0.7816164E-02  0.1184000E+00
        -11   -1    0    0    0    0  0.00000000000E+00  0.00000000000E+00  0.45593999997E+02  0.45594000000E+02  0.51100000000E-03 0. -1.
         11   -1    0    0    0    0 -0.00000000000E+00 -0.00000000000E+00 -0.45593999997E+02  0.45594000000E+02  0.51100000000E-03 0.  1.
         23    2    1    2    0    0 -0.17763568394E-14  0.17763568394E-14  0.71054273576E-14  0.91188000000E+02  0.91188000000E+02 0.  0.
    9900012    2    3    3    0    0 -0.11309552382E+02 -0.12881274463E+02 -0.36869121807E+02  0.50528863884E+02  0.30000012260E+02 0.  0.
         12    1    3    3    0    0  0.11309552382E+02  0.12881274463E+02  0.36869121807E+02  0.40659136116E+02  0.00000000000E+00 0. -1.
         11    1    4    4    0    0  0.38192760239E+01  0.48995575810E+01 -0.15794766364E+02  0.16972541901E+02  0.51100000000E-03 0. -1.
        -11    1    4    4    0    0 -0.50177989119E+01 -0.12051058050E+02 -0.16565129351E+02  0.21090514852E+02  0.51100000000E-03 0.  1.
         12    1    4    4    0    0 -0.10111029494E+02 -0.57297739949E+01 -0.45092260927E+01  0.12465807131E+02  0.00000000000E+00 0. -1.
</event>
<event>
 8    1  0.2031623E-013  0.9118800E+02  0.7816164E-02  0.1184000E+00
        -11   -1    0    0    0    0  0.00000000000E+00  0.00000000000E+00  0.45593999997E+02  0.45594000000E+02  0.51100000000E-03 0. -1.
         11   -1    0    0    0    0 -0.00000000000E+00 -0.00000000000E+00 -0.45593999997E+02  0.45594000000E+02  0.51100000000E-03 0.  1.
         23    2    1    2    0    0 -0.17763568394E-14  0.17763568394E-14  0.00000000000E+00  0.91188000000E+02  0.91188000000E+02 0.  0.
    9900012    2    3    3    0    0 -0.13767104248E+02  0.55837010907E+01  0.37847777551E+02  0.50528866429E+02  0.30000019996E+02 0.  0.
        -12    1    3    3    0    0  0.13767104248E+02 -0.55837010907E+01 -0.37847777551E+02  0.40659133571E+02  0.00000000000E+00 0.  1.
         11    1    4    4    0    0  0.60128496281E+01  0.43695538775E+01  0.19853727975E+02  0.21199478213E+02  0.51100000000E-03 0. -1.
        -11    1    4    4    0    0 -0.14313193075E+02 -0.45275707689E+01  0.97998153688E+01  0.17927709686E+02  0.51100000000E-03 0.  1.
        -12    1    4    4    0    0 -0.54667608016E+01  0.57417179821E+01  0.81942342064E+01  0.11401678529E+02  0.00000000000E+00 0.  1.
</event>
<event>
 8    1  0.2031623E-013  0.9118800E+02  0.7816164E-02  0.1184000E+00
        -11   -1    0    0    0    0  0.00000000000E+00  0.00000000000E+00  0.45593999997E+02  0.45594000000E+02  0.51100000000E-03 0. -1.
         11   -1    0    0    0    0 -0.00000000000E+00 -0.00000000000E+00 -0.45593999997E+02  0.45594000000E+02  0.51100000000E-03 0.  1.
         23    2    1    2    0    0  0.00000000000E+00 -0.35527136788E-14 -0.35527136788E-14  0.91188000000E+02  0.91188000000E+02 0.  0.
    9900012    2    3    3    0    0 -0.15770494272E+01 -0.28819874642E+02 -0.28637269127E+02  0.50528862745E+02  0.30000008800E+02 0.  0.
         12    1    3    3    0    0  0.15770494272E+01  0.28819874642E+02  0.28637269127E+02  0.40659137255E+02  0.00000000000E+00 0. -1.
         11    1    4    4    0    0  0.73025453941E+00 -0.10175081507E+02 -0.28734905116E+02  0.30491971528E+02  0.51100000000E-03 0.  1.
        -11    1    4    4    0    0  0.14190172250E+01 -0.12080355242E+02  0.18084337240E+01  0.12297114517E+02  0.51100000000E-03 0. -1.
        -12    1    4    4    0    0 -0.37263211916E+01 -0.65644378937E+01 -0.17107977348E+01  0.77397767005E+01  0.00000000000E+00 0.  1.
</event>
<event>
 8    1  0.2031623E-013  0.9118800E+02  0.7816164E-02  0.1184000E+00
        -11   -1    0    0    0    0  0.00000000000E+00  0.00000000000E+00  0.45593999997E+02  0.45594000000E+02  0.51100000000E-03 0. -1.
         11   -1    0    0    0    0 -0.00000000000E+00 -0.00000000000E+00 -0.45593999997E+02  0.45594000000E+02  0.51100000000E-03 0.  1.
         23    2    1    2    0    0  0.00000000000E+00  0.53290705182E-14  0.00000000000E+00  0.91188000000E+02  0.91188000000E+02 0.  0.
    9900012    2    3    3    0    0 -0.37140791466E+01  0.15156529216E+02  0.37545301854E+02  0.50528874910E+02  0.30000045777E+02 0.  0.
        -12    1    3    3    0    0  0.37140791466E+01 -0.15156529216E+02 -0.37545301854E+02  0.40659125090E+02  0.00000000000E+00 0.  1.
         11    1    4    4    0    0 -0.20402850113E+01 -0.80792158379E+01  0.13195158317E+02  0.15606046737E+02  0.51100000000E-03 0. -1.
        -11    1    4    4    0    0  0.23838860667E+01  0.12300721859E+02  0.17065537134E+02  0.21171283120E+02  0.51100000000E-03 0.  1.
         12    1    4    4    0    0 -0.40576802020E+01  0.10935023195E+02  0.72846064023E+01  0.13751545053E+02  0.00000000000E+00 0. -1.
</event>
<event>
 8    1  0.2031623E-013  0.9118800E+02  0.7816164E-02  0.1184000E+00
        -11   -1    0    0    0    0  0.00000000000E+00  0.00000000000E+00  0.45593999997E+02  0.45594000000E+02  0.51100000000E-03 0. -1.
         11   -1    0    0    0    0 -0.00000000000E+00 -0.00000000000E+00 -0.45593999997E+02  0.45594000000E+02  0.51100000000E-03 0.  1.
         23    2    1    2    0    0  0.35527136788E-14  0.00000000000E+00 -0.71054273576E-14  0.91188000000E+02  0.91188000000E+02 0.  0.
    9900012    2    3    3    0    0  0.22195424002E+02 -0.88562795673E+01  0.32895216295E+02  0.50528858475E+02  0.29999995822E+02 0.  0.
        -12    1    3    3    0    0 -0.22195424002E+02  0.88562795673E+01 -0.32895216295E+02  0.40659141525E+02  0.00000000000E+00 0.  1.
         11    1    4    4    0    0  0.74534763053E+01  0.64080956464E+01  0.13756885548E+02  0.16907687574E+02  0.51100000000E-03 0. -1.
        -11    1    4    4    0    0  0.18270677471E+02 -0.14317730664E+02  0.18945771809E+02  0.29962598958E+02  0.51100000000E-03 0.  1.
        -12    1    4    4    0    0 -0.35287297740E+01 -0.94664454934E+00  0.19255893781E+00  0.36585719435E+01  0.00000000000E+00 0.  1.
</event>
<event>
 8    1  0.2031623E-013  0.9118800E+02  0.7816164E-02  0.1184000E+00
        -11   -1    0    0    0    0  0.00000000000E+00  0.00000000000E+00  0.45593999997E+02  0.45594000000E+02  0.51100000000E-03 0.  1.
         11   -1    0    0    0    0 -0.00000000000E+00 -0.00000000000E+00 -0.45593999997E+02  0.45594000000E+02  0.51100000000E-03 0. -1.
         23    2    1    2    0    0 -0.71054273576E-14 -0.44408920985E-15  0.35527136788E-14  0.91188000000E+02  0.91188000000E+02 0.  0.
    9900012    2    3    3    0    0 -0.36183969416E+02  0.37733391626E+01  0.18155936246E+02  0.50528981909E+02  0.30000371010E+02 0.  0.
        -12    1    3    3    0    0  0.36183969416E+02 -0.37733391626E+01 -0.18155936246E+02  0.40659018091E+02  0.00000000000E+00 0.  1.
         11    1    4    4    0    0 -0.14685877275E+02 -0.55835979094E+01  0.72945474994E+01  0.17322297204E+02  0.51100000000E-03 0. -1.
        -11    1    4    4    0    0 -0.21570572343E+02  0.12241731226E+02  0.14369561067E+02  0.28664156365E+02  0.51100000000E-03 0.  1.
        -12    1    4    4    0    0  0.72480202546E-01 -0.28847941540E+01 -0.35081723200E+01  0.45425283398E+01  0.00000000000E+00 0.  1.
</event>
<event>
 8    1  0.2031623E-013  0.9118800E+02  0.7816164E-02  0.1184000E+00
        -11   -1    0    0    0    0  0.00000000000E+00  0.00000000000E+00  0.45593999997E+02  0.45594000000E+02  0.51100000000E-03 0. -1.
         11   -1    0    0    0    0 -0.00000000000E+00 -0.00000000000E+00 -0.45593999997E+02  0.45594000000E+02  0.51100000000E-03 0.  1.
         23    2    1    2    0    0  0.71054273576E-14  0.00000000000E+00  0.17763568394E-14  0.91188000000E+02  0.91188000000E+02 0.  0.
    9900012    2    3    3    0    0 -0.28782258946E+02  0.24235274947E+02 -0.15407728187E+02  0.50528867327E+02  0.30000022728E+02 0.  0.
         12    1    3    3    0    0  0.28782258946E+02 -0.24235274947E+02  0.15407728187E+02  0.40659132673E+02  0.00000000000E+00 0. -1.
         11    1    4    4    0    0 -0.46368337806E+01  0.91554010439E+00  0.40637660277E+01  0.62331882517E+01  0.51100000000E-03 0. -1.
        -11    1    4    4    0    0 -0.64173244057E+01  0.25941699306E+01 -0.15184143473E+02  0.16687419916E+02  0.51100000000E-03 0.  1.
        -12    1    4    4    0    0 -0.17728100760E+02  0.20725564912E+02 -0.42873507415E+01  0.27608259160E+02  0.00000000000E+00 0.  1.
</event>
<event>
 8    1  0.2031623E-013  0.9118800E+02  0.7816164E-02  0.1184000E+00
        -11   -1    0    0    0    0  0.00000000000E+00  0.00000000000E+00  0.45593999997E+02  0.45594000000E+02  0.51100000000E-03 0. -1.
         11   -1    0    0    0    0 -0.00000000000E+00 -0.00000000000E+00 -0.45593999997E+02  0.45594000000E+02  0.51100000000E-03 0.  1.
         23    2    1    2    0    0  0.00000000000E+00 -0.17763568394E-14  0.00000000000E+00  0.91188000000E+02  0.91188000000E+02 0.  0.
    9900012    2    3    3    0    0 -0.13005291874E+02  0.10781225815E+02  0.36983686643E+02  0.50528861734E+02  0.30000005726E+02 0.  0.
        -12    1    3    3    0    0  0.13005291874E+02 -0.10781225815E+02 -0.36983686643E+02  0.40659138266E+02  0.00000000000E+00 0.  1.
         11    1    4    4    0    0 -0.20911014482E+02  0.82601997830E+01  0.16726179430E+02  0.28022607047E+02  0.51100000000E-03 0. -1.
        -11    1    4    4    0    0  0.30350050567E+01  0.35627958729E+01  0.78941908231E+01  0.91773100165E+01  0.51100000000E-03 0.  1.
         12    1    4    4    0    0  0.48707175513E+01 -0.10417698405E+01  0.12363316390E+02  0.13328944671E+02  0.00000000000E+00 0. -1.
</event>
<event>
 8    1  0.2031623E-013  0.9118800E+02  0.7816164E-02  0.1184000E+00
        -11   -1    0    0    0    0  0.00000000000E+00  0.00000000000E+00  0.45593999997E+02  0.45594000000E+02  0.51100000000E-03 0. -1.
         11   -1    0    0    0    0 -0.00000000000E+00 -0.00000000000E+00 -0.45593999997E+02  0.45594000000E+02  0.51100000000E-03 0.  1.
         23    2    1    2    0    0  0.00000000000E+00  0.17763568394E-14  0.00000000000E+00  0.91188000000E+02  0.91188000000E+02 0.  0.
    9900012    2    3    3    0    0 -0.56201151764E+01  0.11525518989E+02 -0.38584307747E+02  0.50528781035E+02  0.29999760432E+02 0.  0.
         12    1    3    3    0    0  0.56201151764E+01 -0.11525518989E+02  0.38584307747E+02  0.40659218965E+02  0.00000000000E+00 0. -1.
         11    1    4    4    0    0 -0.23729015982E+01  0.16747723555E+02 -0.97654559425E+01  0.19531539527E+02  0.51100000000E-03 0. -1.
        -11    1    4    4    0    0 -0.27445144297E-01 -0.52338775103E+01 -0.26543536557E+02  0.27054640272E+02  0.51100000000E-03 0.  1.
         12    1    4    4    0    0 -0.32197684340E+01  0.11672944103E-01 -0.22753152472E+01  0.39426012353E+01  0.00000000000E+00 0. -1.
</event>
<event>
 8    1  0.2031623E-013  0.9118800E+02  0.7816164E-02  0.1184000E+00
        -11   -1    0    0    0    0  0.00000000000E+00  0.00000000000E+00  0.45593999997E+02  0.45594000000E+02  0.51100000000E-03 0. -1.
         11   -1    0    0    0    0 -0.00000000000E+00 -0.00000000000E+00 -0.45593999997E+02  0.45594000000E+02  0.51100000000E-03 0.  1.
         23    2    1    2    0    0 -0.17763568394E-14  0.00000000000E+00  0.00000000000E+00  0.91188000000E+02  0.91188000000E+02 0.  0.
    9900012    2    3    3    0    0 -0.13820338448E+02  0.36179531570E+02 -0.12377618553E+02  0.50528859570E+02  0.29999999148E+02 0.  0.
         12    1    3    3    0    0  0.13820338448E+02 -0.36179531570E+02  0.12377618553E+02  0.40659140430E+02  0.00000000000E+00 0. -1.
         11    1    4    4    0    0  0.65657069516E+00  0.16312296722E+01 -0.94770124356E+01  0.96387634210E+01  0.51100000000E-03 0. -1.
        -11    1    4    4    0    0 -0.29205744301E+01  0.21624350589E+02 -0.72894369100E+01  0.23006046686E+02  0.51100000000E-03 0.  1.
         12    1    4    4    0    0 -0.11556334713E+02  0.12923951309E+02  0.43888307925E+01  0.17884049462E+02  0.00000000000E+00 0. -1.
</event>
<event>
 8    1  0.2031623E-013  0.9118800E+02  0.7816164E-02  0.1184000E+00
        -11   -1    0    0    0    0  0.00000000000E+00  0.00000000000E+00  0.45593999997E+02  0.45594000000E+02  0.51100000000E-03 0. -1.
         11   -1    0    0    0    0 -0.00000000000E+00 -0.00000000000E+00 -0.45593999997E+02  0.45594000000E+02  0.51100000000E-03 0.  1.
         23    2    1    2    0    0  0.00000000000E+00  0.00000000000E+00  0.00000000000E+00  0.91188000000E+02  0.91188000000E+02 0.  0.
    9900012    2    3    3    0    0  0.31388650052E+02  0.10339814139E+02 -0.23685609963E+02  0.50528840788E+02  0.29999942058E+02 0.  0.
         12    1    3    3    0    0 -0.31388650052E+02 -0.10339814139E+02  0.23685609963E+02  0.40659159212E+02  0.00000000000E+00 0. -1.
         11    1    4    4    0    0  0.45315669291E+00  0.30621827275E+01  0.17329471721E+01  0.35475935798E+01  0.51100000000E-03 0. -1.
        -11    1    4    4    0    0  0.20928463430E+02 -0.64825382336E+01 -0.18265388767E+02  0.28524521215E+02  0.51100000000E-03 0.  1.
        -12    1    4    4    0    0  0.10007029929E+02  0.13760169645E+02 -0.71531683687E+01  0.18456725993E+02  0.00000000000E+00 0.  1.
</event>
<event>
 8    1  0.2031623E-013  0.9118800E+02  0.7816164E-02  0.1184000E+00
        -11   -1    0    0    0    0  0.00000000000E+00  0.00000000000E+00  0.45593999997E+02  0.45594000000E+02  0.51100000000E-03 0. -1.
         11   -1    0    0    0    0 -0.00000000000E+00 -0.00000000000E+00 -0.45593999997E+02  0.45594000000E+02  0.51100000000E-03 0.  1.
         23    2    1    2    0    0  0.00000000000E+00  0.17763568394E-14 -0.35527136788E-14  0.91188000000E+02  0.91188000000E+02 0.  0.
    9900012    2    3    3    0    0 -0.31191878908E+02 -0.15846056309E+02  0.20715579577E+02  0.50528855302E+02  0.29999986176E+02 0.  0.
        -12    1    3    3    0    0  0.31191878908E+02  0.15846056309E+02 -0.20715579577E+02  0.40659144698E+02  0.00000000000E+00 0.  1.
         11    1    4    4    0    0 -0.21211220922E+02 -0.11934118453E+02  0.13888222601E+02  0.28021809427E+02  0.51100000000E-03 0. -1.
        -11    1    4    4    0    0 -0.46082475417E+01  0.13941848527E+00 -0.62698670066E+01  0.77824556190E+01  0.51100000000E-03 0.  1.
        -12    1    4    4    0    0 -0.53724104445E+01 -0.40513563411E+01  0.13097223982E+02  0.14724590256E+02  0.00000000000E+00 0.  1.
</event>
<event>
 8    1  0.2031623E-013  0.9118800E+02  0.7816164E-02  0.1184000E+00
        -11   -1    0    0    0    0  0.00000000000E+00  0.00000000000E+00  0.45593999997E+02  0.45594000000E+02  0.51100000000E-03 0. -1.
         11   -1    0    0    0    0 -0.00000000000E+00 -0.00000000000E+00 -0.45593999997E+02  0.45594000000E+02  0.51100000000E-03 0.  1.
         23    2    1    2    0    0  0.00000000000E+00  0.00000000000E+00  0.35527136788E-14  0.91188000000E+02  0.91188000000E+02 0.  0.
    9900012    2    3    3    0    0 -0.11509135123E+02  0.27370897952E+02  0.27776596609E+02  0.50528861234E+02  0.30000004208E+02 0.  0.
        -12    1    3    3    0    0  0.11509135123E+02 -0.27370897952E+02 -0.27776596609E+02  0.40659138766E+02  0.00000000000E+00 0.  1.
         11    1    4    4    0    0  0.36329992465E+01  0.24867990124E+01  0.69608858905E+01  0.82363089727E+01  0.51100000000E-03 0. -1.
        -11    1    4    4    0    0 -0.95460621898E+01  0.16491446552E+01 -0.12459237004E+01  0.97672569104E+01  0.51100000000E-03 0.  1.
        -12    1    4    4    0    0 -0.55960721802E+01  0.23234954285E+02  0.22061634419E+02  0.32525295351E+02  0.00000000000E+00 0.  1.
</event>
<event>
 8    1  0.2031623E-013  0.9118800E+02  0.7816164E-02  0.1184000E+00
        -11   -1    0    0    0    0  0.00000000000E+00  0.00000000000E+00  0.45593999997E+02  0.45594000000E+02  0.51100000000E-03 0. -1.
         11   -1    0    0    0    0 -0.00000000000E+00 -0.00000000000E+00 -0.45593999997E+02  0.45594000000E+02  0.51100000000E-03 0.  1.
         23    2    1    2    0    0 -0.17763568394E-14  0.00000000000E+00  0.71054273576E-14  0.91188000000E+02  0.91188000000E+02 0.  0.
    9900012    2    3    3    0    0  0.15650772423E+02 -0.17280860317E+02  0.33310545109E+02  0.50528840808E+02  0.29999942120E+02 0.  0.
        -12    1    3    3    0    0 -0.15650772423E+02  0.17280860317E+02 -0.33310545109E+02  0.40659159192E+02  0.00000000000E+00 0.  1.
         11    1    4    4    0    0  0.28884571825E+01  0.48327439073E+01 -0.12839999905E+01  0.57747082009E+01  0.51100000000E-03 0.  1.
        -11    1    4    4    0    0  0.12206003334E+02 -0.17092232390E+02  0.18859220214E+02  0.28227665734E+02  0.51100000000E-03 0. -1.
        -12    1    4    4    0    0  0.55631190594E+00 -0.50213718347E+01  0.15735324886E+02  0.16526466873E+02  0.00000000000E+00 0.  1.
</event>
<event>
 8    1  0.2031623E-013  0.9118800E+02  0.7816164E-02  0.1184000E+00
        -11   -1    0    0    0    0  0.00000000000E+00  0.00000000000E+00  0.45593999997E+02  0.45594000000E+02  0.51100000000E-03 0. -1.
         11   -1    0    0    0    0 -0.00000000000E+00 -0.00000000000E+00 -0.45593999997E+02  0.45594000000E+02  0.51100000000E-03 0.  1.
         23    2    1    2    0    0 -0.17763568394E-14  0.00000000000E+00  0.00000000000E+00  0.91188000000E+02  0.91188000000E+02 0.  0.
    9900012    2    3    3    0    0 -0.81069787535E+01 -0.18674819411E+02 -0.35195083112E+02  0.50528857611E+02  0.29999993194E+02 0.  0.
         12    1    3    3    0    0  0.81069787535E+01  0.18674819411E+02  0.35195083112E+02  0.40659142389E+02  0.00000000000E+00 0. -1.
         11    1    4    4    0    0 -0.90665364107E+01 -0.93272391376E+01 -0.30104940499E+02  0.32794922093E+02  0.51100000000E-03 0.  1.
        -11    1    4    4    0    0  0.27218867990E+01  0.31536214483E+01 -0.12449678809E+00  0.41676726956E+01  0.51100000000E-03 0. -1.
        -12    1    4    4    0    0 -0.17623291418E+01 -0.12501201722E+02 -0.49656458254E+01  0.13566262822E+02  0.00000000000E+00 0.  1.
</event>
<event>
 8    1  0.2031623E-013  0.9118800E+02  0.7816164E-02  0.1184000E+00
        -11   -1    0    0    0    0  0.00000000000E+00  0.00000000000E+00  0.45593999997E+02  0.45594000000E+02  0.51100000000E-03 0.  1.
         11   -1    0    0    0    0 -0.00000000000E+00 -0.00000000000E+00 -0.45593999997E+02  0.45594000000E+02  0.51100000000E-03 0. -1.
         23    2    1    2    0    0  0.00000000000E+00  0.00000000000E+00 -0.35527136788E-14  0.91188000000E+02  0.91188000000E+02 0.  0.
    9900012    2    3    3    0    0  0.90851629222E+01  0.35904401407E+02  0.16777947794E+02  0.50528858864E+02  0.29999997004E+02 0.  0.
        -12    1    3    3    0    0 -0.90851629222E+01 -0.35904401407E+02 -0.16777947794E+02  0.40659141136E+02  0.00000000000E+00 0.  1.
         11    1    4    4    0    0  0.11048252778E+02  0.23270336704E+02  0.24154292813E+02  0.35312920034E+02  0.51100000000E-03 0. -1.
        -11    1    4    4    0    0 -0.26485310344E+01  0.95231789741E+01 -0.67499284827E+01  0.11969427271E+02  0.51100000000E-03 0.  1.
         12    1    4    4    0    0  0.68544117814E+00  0.31108857288E+01 -0.62641653671E+00  0.32465115591E+01  0.00000000000E+00 0. -1.
</event>
<event>
 8    1  0.2031623E-013  0.9118800E+02  0.7816164E-02  0.1184000E+00
        -11   -1    0    0    0    0  0.00000000000E+00  0.00000000000E+00  0.45593999997E+02  0.45594000000E+02  0.51100000000E-03 0.  1.
         11   -1    0    0    0    0 -0.00000000000E+00 -0.00000000000E+00 -0.45593999997E+02  0.45594000000E+02  0.51100000000E-03 0. -1.
         23    2    1    2    0    0 -0.88817841970E-15  0.00000000000E+00  0.00000000000E+00  0.91188000000E+02  0.91188000000E+02 0.  0.
    9900012    2    3    3    0    0 -0.35510041619E+01  0.39130292324E+02 -0.10458370375E+02  0.50528844588E+02  0.29999953610E+02 0.  0.
         12    1    3    3    0    0  0.35510041619E+01 -0.39130292324E+02  0.10458370375E+02  0.40659155412E+02  0.00000000000E+00 0. -1.
         11    1    4    4    0    0 -0.25321668346E+00 -0.24724568516E+01  0.45100516308E+00  0.25259785213E+01  0.51100000000E-03 0. -1.
        -11    1    4    4    0    0  0.16074180583E+01  0.30766571242E+02  0.14589400840E+01  0.30843057650E+02  0.51100000000E-03 0.  1.
        -12    1    4    4    0    0 -0.49052055368E+01  0.10836177934E+02 -0.12368315622E+02  0.17159808417E+02  0.00000000000E+00 0.  1.
</event>
<event>
 8    1  0.2031623E-013  0.9118800E+02  0.7816164E-02  0.1184000E+00
        -11   -1    0    0    0    0  0.00000000000E+00  0.00000000000E+00  0.45593999997E+02  0.45594000000E+02  0.51100000000E-03 0. -1.
         11   -1    0    0    0    0 -0.00000000000E+00 -0.00000000000E+00 -0.45593999997E+02  0.45594000000E+02  0.51100000000E-03 0.  1.
         23    2    1    2    0    0  0.88817841970E-15  0.00000000000E+00  0.71054273576E-14  0.91188000000E+02  0.91188000000E+02 0.  0.
    9900012    2    3    3    0    0 -0.46802188695E+01 -0.10559027565E+02  0.38984203050E+02  0.50528860815E+02  0.30000002934E+02 0.  0.
        -12    1    3    3    0    0  0.46802188695E+01  0.10559027565E+02 -0.38984203050E+02  0.40659139185E+02  0.00000000000E+00 0.  1.
         11    1    4    4    0    0  0.29795528486E+01 -0.75602366763E+01  0.17756715562E+02  0.19527822756E+02  0.51100000000E-03 0. -1.
        -11    1    4    4    0    0 -0.13465295783E+02 -0.42655441747E+01  0.20666844908E+02  0.25032529564E+02  0.51100000000E-03 0.  1.
        -12    1    4    4    0    0  0.58055240651E+01  0.12667532857E+01  0.56064258012E+00  0.59685084954E+01  0.00000000000E+00 0.  1.
</event>
<event>
 8    1  0.2031623E-013  0.9118800E+02  0.7816164E-02  0.1184000E+00
        -11   -1    0    0    0    0  0.00000000000E+00  0.00000000000E+00  0.45593999997E+02  0.45594000000E+02  0.51100000000E-03 0. -1.
         11   -1    0    0    0    0 -0.00000000000E+00 -0.00000000000E+00 -0.45593999997E+02  0.45594000000E+02  0.51100000000E-03 0.  1.
         23    2    1    2    0    0  0.17763568394E-14 -0.88817841970E-15 -0.71054273576E-14  0.91188000000E+02  0.91188000000E+02 0.  0.
    9900012    2    3    3    0    0 -0.73758292149E+01 -0.69360727984E+01  0.39378330331E+02  0.50528869880E+02  0.30000030486E+02 0.  0.
        -12    1    3    3    0    0  0.73758292149E+01  0.69360727984E+01 -0.39378330331E+02  0.40659130120E+02  0.00000000000E+00 0.  1.
         11    1    4    4    0    0 -0.57089524673E+01 -0.67387323639E+01  0.15015817249E+02  0.17420603320E+02  0.51100000000E-03 0. -1.
        -11    1    4    4    0    0  0.94527980247E+01  0.29280322327E+01  0.65107724515E+01  0.11845628790E+02  0.51100000000E-03 0.  1.
        -12    1    4    4    0    0 -0.11119674772E+02 -0.31253726672E+01  0.17851740631E+02  0.21262637769E+02  0.00000000000E+00 0.  1.
</event>
<event>
 8    1  0.2031623E-013  0.9118800E+02  0.7816164E-02  0.1184000E+00
        -11   -1    0    0    0    0  0.00000000000E+00  0.00000000000E+00  0.45593999997E+02  0.45594000000E+02  0.51100000000E-03 0. -1.
         11   -1    0    0    0    0 -0.00000000000E+00 -0.00000000000E+00 -0.45593999997E+02  0.45594000000E+02  0.51100000000E-03 0.  1.
         23    2    1    2    0    0 -0.35527136788E-14  0.00000000000E+00  0.35527136788E-14  0.91188000000E+02  0.91188000000E+02 0.  0.
    9900012    2    3    3    0    0 -0.22373085774E+02  0.21448617511E+02  0.26316687784E+02  0.50528853229E+02  0.29999979876E+02 0.  0.
        -12    1    3    3    0    0  0.22373085774E+02 -0.21448617511E+02 -0.26316687784E+02  0.40659146771E+02  0.00000000000E+00 0.  1.
         11    1    4    4    0    0  0.17377598285E+01  0.18110737598E+01 -0.52865222999E+01  0.58521035255E+01  0.51100000000E-03 0.  1.
        -11    1    4    4    0    0 -0.14854628516E+02  0.14766960661E+02  0.18810405089E+02  0.28152343693E+02  0.51100000000E-03 0. -1.
        -12    1    4    4    0    0 -0.92562170868E+01  0.48705830899E+01  0.12792804995E+02  0.16524406011E+02  0.00000000000E+00 0.  1.
</event>
<event>
 8    1  0.2031623E-013  0.9118800E+02  0.7816164E-02  0.1184000E+00
        -11   -1    0    0    0    0  0.00000000000E+00  0.00000000000E+00  0.45593999997E+02  0.45594000000E+02  0.51100000000E-03 0.  1.
         11   -1    0    0    0    0 -0.00000000000E+00 -0.00000000000E+00 -0.45593999997E+02  0.45594000000E+02  0.51100000000E-03 0. -1.
         23    2    1    2    0    0  0.71054273576E-14  0.00000000000E+00 -0.35527136788E-14  0.91188000000E+02  0.91188000000E+02 0.  0.
    9900012    2    3    3    0    0 -0.35909388599E+02 -0.98230297841E+01  0.16345929672E+02  0.50528861783E+02  0.30000005875E+02 0.  0.
         12    1    3    3    0    0  0.35909388599E+02  0.98230297841E+01 -0.16345929672E+02  0.40659138217E+02  0.00000000000E+00 0. -1.
         11    1    4    4    0    0 -0.13083999493E+01  0.41350586523E+01 -0.25803099123E+01  0.50466444287E+01  0.51100000000E-03 0. -1.
        -11    1    4    4    0    0 -0.21693440701E+02 -0.13678851031E+02  0.20006478853E+02  0.32526535803E+02  0.51100000000E-03 0.  1.
        -12    1    4    4    0    0 -0.12907547949E+02 -0.27923740585E+00 -0.10802392690E+01  0.12955681552E+02  0.00000000000E+00 0.  1.
</event>
<event>
 8    1  0.2031623E-013  0.9118800E+02  0.7816164E-02  0.1184000E+00
        -11   -1    0    0    0    0  0.00000000000E+00  0.00000000000E+00  0.45593999997E+02  0.45594000000E+02  0.51100000000E-03 0. -1.
         11   -1    0    0    0    0 -0.00000000000E+00 -0.00000000000E+00 -0.45593999997E+02  0.45594000000E+02  0.51100000000E-03 0.  1.
         23    2    1    2    0    0  0.00000000000E+00  0.35527136788E-14 -0.17763568394E-14  0.91188000000E+02  0.91188000000E+02 0.  0.
    9900012    2    3    3    0    0 -0.32856835606E+02 -0.21233659099E+02  0.11078153910E+02  0.50528863034E+02  0.30000009678E+02 0.  0.
        -12    1    3    3    0    0  0.32856835606E+02  0.21233659099E+02 -0.11078153910E+02  0.40659136966E+02  0.00000000000E+00 0.  1.
         11    1    4    4    0    0 -0.13681231452E+02 -0.78372813156E+01  0.70031531330E+01  0.17252339741E+02  0.51100000000E-03 0. -1.
        -11    1    4    4    0    0  0.45067757589E+01 -0.14961483601E+01  0.48141387455E+01  0.67620573628E+01  0.51100000000E-03 0.  1.
        -12    1    4    4    0    0 -0.23682379912E+02 -0.11900229424E+02 -0.73913796806E+00  0.26514465930E+02  0.00000000000E+00 0.  1.
</event>
<event>
 8    1  0.2031623E-013  0.9118800E+02  0.7816164E-02  0.1184000E+00
        -11   -1    0    0    0    0  0.00000000000E+00  0.00000000000E+00  0.45593999997E+02  0.45594000000E+02  0.51100000000E-03 0. -1.
         11   -1    0    0    0    0 -0.00000000000E+00 -0.00000000000E+00 -0.45593999997E+02  0.45594000000E+02  0.51100000000E-03 0.  1.
         23    2    1    2    0    0 -0.35527136788E-14 -0.17763568394E-14  0.00000000000E+00  0.91188000000E+02  0.91188000000E+02 0.  0.
    9900012    2    3    3    0    0  0.22051163754E+02 -0.13792810800E+02  0.31251761521E+02  0.50528830668E+02  0.29999911297E+02 0.  0.
        -12    1    3    3    0    0 -0.22051163754E+02  0.13792810800E+02 -0.31251761521E+02  0.40659169332E+02  0.00000000000E+00 0.  1.
         11    1    4    4    0    0  0.16125047748E+02 -0.84862753442E+01  0.10253840579E+02  0.20908736953E+02  0.51100000000E-03 0.  1.
        -11    1    4    4    0    0 -0.40194695803E+01 -0.93271863315E+01  0.10598731788E+02  0.14679429701E+02  0.51100000000E-03 0. -1.
        -12    1    4    4    0    0  0.99455855860E+01  0.40206508761E+01  0.10399189153E+02  0.14940664013E+02  0.00000000000E+00 0.  1.
</event>
<event>
 8    1  0.2031623E-013  0.9118800E+02  0.7816164E-02  0.1184000E+00
        -11   -1    0    0    0    0  0.00000000000E+00  0.00000000000E+00  0.45593999997E+02  0.45594000000E+02  0.51100000000E-03 0. -1.
         11   -1    0    0    0    0 -0.00000000000E+00 -0.00000000000E+00 -0.45593999997E+02  0.45594000000E+02  0.51100000000E-03 0.  1.
         23    2    1    2    0    0 -0.88817841970E-15  0.71054273576E-14  0.00000000000E+00  0.91188000000E+02  0.91188000000E+02 0.  0.
    9900012    2    3    3    0    0  0.35873687418E+01  0.36545278301E+02 -0.17456784198E+02  0.50528857177E+02  0.29999991875E+02 0.  0.
         12    1    3    3    0    0 -0.35873687418E+01 -0.36545278301E+02  0.17456784198E+02  0.40659142823E+02  0.00000000000E+00 0. -1.
         11    1    4    4    0    0 -0.98364432053E+01  0.76899618303E+01  0.21236440313E+01  0.12664951327E+02  0.51100000000E-03 0. -1.
        -11    1    4    4    0    0 -0.33090640651E+00  0.25332289542E+01 -0.26363862319E+01  0.36711415948E+01  0.51100000000E-03 0.  1.
         12    1    4    4    0    0  0.13754718354E+02  0.26322087516E+02 -0.16944041998E+02  0.34192764255E+02  0.00000000000E+00 0. -1.
</event>
<event>
 8    1  0.2031623E-013  0.9118800E+02  0.7816164E-02  0.1184000E+00
        -11   -1    0    0    0    0  0.00000000000E+00  0.00000000000E+00  0.45593999997E+02  0.45594000000E+02  0.51100000000E-03 0. -1.
         11   -1    0    0    0    0 -0.00000000000E+00 -0.00000000000E+00 -0.45593999997E+02  0.45594000000E+02  0.51100000000E-03 0.  1.
         23    2    1    2    0    0  0.00000000000E+00  0.00000000000E+00  0.00000000000E+00  0.91188000000E+02  0.91188000000E+02 0.  0.
    9900012    2    3    3    0    0  0.86999512701E+01  0.37393366939E+02  0.13387072470E+02  0.50528846634E+02  0.29999959828E+02 0.  0.
        -12    1    3    3    0    0 -0.86999512701E+01 -0.37393366939E+02 -0.13387072470E+02  0.40659153366E+02  0.00000000000E+00 0.  1.
         11    1    4    4    0    0  0.90395790903E+01  0.14801326967E+02  0.19474234331E+01  0.17452384605E+02  0.51100000000E-03 0. -1.
        -11    1    4    4    0    0 -0.98582889867E+01  0.16777149922E+02  0.46112747424E+01  0.19998061813E+02  0.51100000000E-03 0.  1.
        -12    1    4    4    0    0  0.95186611665E+01  0.58148900498E+01  0.68283742948E+01  0.13078400216E+02  0.00000000000E+00 0.  1.
</event>
<event>
 8    1  0.2031623E-013  0.9118800E+02  0.7816164E-02  0.1184000E+00
        -11   -1    0    0    0    0  0.00000000000E+00  0.00000000000E+00  0.45593999997E+02  0.45594000000E+02  0.51100000000E-03 0. -1.
         11   -1    0    0    0    0 -0.00000000000E+00 -0.00000000000E+00 -0.45593999997E+02  0.45594000000E+02  0.51100000000E-03 0.  1.
         23    2    1    2    0    0 -0.66613381478E-15  0.00000000000E+00  0.00000000000E+00  0.91188000000E+02  0.91188000000E+02 0.  0.
    9900012    2    3    3    0    0 -0.46801018815E+00 -0.63363802101E+01 -0.40159641826E+02  0.50528861060E+02  0.30000003678E+02 0.  0.
         12    1    3    3    0    0  0.46801018815E+00  0.63363802101E+01  0.40159641826E+02  0.40659138940E+02  0.00000000000E+00 0. -1.
         11    1    4    4    0    0  0.10356911081E+02 -0.31354984532E+01 -0.26039520291E+01  0.11130028038E+02  0.51100000000E-03 0. -1.
        -11    1    4    4    0    0 -0.77256574976E+01 -0.58540699598E+00 -0.27045505773E+02  0.28133394176E+02  0.51100000000E-03 0.  1.
         12    1    4    4    0    0 -0.30992637720E+01 -0.26154747609E+01 -0.10510184025E+02  0.11265438846E+02  0.00000000000E+00 0. -1.
</event>
<event>
 8    1  0.2031623E-013  0.9118800E+02  0.7816164E-02  0.1184000E+00
        -11   -1    0    0    0    0  0.00000000000E+00  0.00000000000E+00  0.45593999997E+02  0.45594000000E+02  0.51100000000E-03 0. -1.
         11   -1    0    0    0    0 -0.00000000000E+00 -0.00000000000E+00 -0.45593999997E+02  0.45594000000E+02  0.51100000000E-03 0.  1.
         23    2    1    2    0    0  0.00000000000E+00  0.17763568394E-14 -0.71054273576E-14  0.91188000000E+02  0.91188000000E+02 0.  0.
    9900012    2    3    3    0    0  0.10739753960E+02  0.69814460204E+01  0.38588632851E+02  0.50528862172E+02  0.30000007057E+02 0.  0.
        -12    1    3    3    0    0 -0.10739753960E+02 -0.69814460204E+01 -0.38588632851E+02  0.40659137828E+02  0.00000000000E+00 0.  1.
         11    1    4    4    0    0  0.72815190149E+01 -0.10558437805E+02  0.17474877542E+02  0.21676542008E+02  0.51100000000E-03 0. -1.
        -11    1    4    4    0    0  0.52660680173E+01  0.60837441442E+01  0.92851371143E+01  0.12286463554E+02  0.51100000000E-03 0.  1.
         12    1    4    4    0    0 -0.18078330722E+01  0.11456139682E+02  0.11828618195E+02  0.16565856610E+02  0.00000000000E+00 0. -1.
</event>
<event>
 8    1  0.2031623E-013  0.9118800E+02  0.7816164E-02  0.1184000E+00
        -11   -1    0    0    0    0  0.00000000000E+00  0.00000000000E+00  0.45593999997E+02  0.45594000000E+02  0.51100000000E-03 0. -1.
         11   -1    0    0    0    0 -0.00000000000E+00 -0.00000000000E+00 -0.45593999997E+02  0.45594000000E+02  0.51100000000E-03 0.  1.
         23    2    1    2    0    0 -0.44408920985E-15  0.00000000000E+00  0.00000000000E+00  0.91188000000E+02  0.91188000000E+02 0.  0.
    9900012    2    3    3    0    0  0.33021961880E+01  0.26579241492E+02 -0.30590929841E+02  0.50528861219E+02  0.30000004160E+02 0.  0.
         12    1    3    3    0    0 -0.33021961880E+01 -0.26579241492E+02  0.30590929841E+02  0.40659138781E+02  0.00000000000E+00 0. -1.
         11    1    4    4    0    0  0.97807971804E+01  0.24447648581E+02 -0.11852473309E+02  0.28876160382E+02  0.51100000000E-03 0. -1.
        -11    1    4    4    0    0 -0.54243689423E+01  0.16633164114E+01 -0.41764584433E+01  0.70450837678E+01  0.51100000000E-03 0.  1.
         12    1    4    4    0    0 -0.10542320501E+01  0.46827649939E+00 -0.14561998088E+02  0.14607617069E+02  0.00000000000E+00 0. -1.
</event>
<event>
 8    1  0.2031623E-013  0.9118800E+02  0.7816164E-02  0.1184000E+00
        -11   -1    0    0    0    0  0.00000000000E+00  0.00000000000E+00  0.45593999997E+02  0.45594000000E+02  0.51100000000E-03 0. -1.
         11   -1    0    0    0    0 -0.00000000000E+00 -0.00000000000E+00 -0.45593999997E+02  0.45594000000E+02  0.51100000000E-03 0.  1.
         23    2    1    2    0    0  0.35527136788E-14  0.00000000000E+00 -0.17763568394E-14  0.91188000000E+02  0.91188000000E+02 0.  0.
    9900012    2    3    3    0    0 -0.29833101531E+02 -0.23713643206E+02  0.14170906588E+02  0.50528863086E+02  0.30000009836E+02 0.  0.
        -12    1    3    3    0    0  0.29833101531E+02  0.23713643206E+02 -0.14170906588E+02  0.40659136914E+02  0.00000000000E+00 0.  1.
         11    1    4    4    0    0 -0.10411037386E+02 -0.63014566518E+01 -0.49985061454E+01  0.13156105781E+02  0.51100000000E-03 0. -1.
        -11    1    4    4    0    0 -0.16153720675E+01 -0.73339321140E+01  0.14584571054E+02  0.16404441480E+02  0.51100000000E-03 0.  1.
        -12    1    4    4    0    0 -0.17806692077E+02 -0.10078254440E+02  0.45848416798E+01  0.20968315825E+02  0.00000000000E+00 0.  1.
</event>
<event>
 8    1  0.2031623E-013  0.9118800E+02  0.7816164E-02  0.1184000E+00
        -11   -1    0    0    0    0  0.00000000000E+00  0.00000000000E+00  0.45593999997E+02  0.45594000000E+02  0.51100000000E-03 0. -1.
         11   -1    0    0    0    0 -0.00000000000E+00 -0.00000000000E+00 -0.45593999997E+02  0.45594000000E+02  0.51100000000E-03 0.  1.
         23    2    1    2    0    0  0.35527136788E-14  0.00000000000E+00  0.00000000000E+00  0.91188000000E+02  0.91188000000E+02 0.  0.
    9900012    2    3    3    0    0  0.30657746528E+02 -0.25673884183E+02  0.73567094440E+01  0.50528844511E+02  0.29999953375E+02 0.  0.
        -12    1    3    3    0    0 -0.30657746528E+02  0.25673884183E+02 -0.73567094440E+01  0.40659155489E+02  0.00000000000E+00 0.  1.
         11    1    4    4    0    0  0.15468898672E+02 -0.70938359228E+01  0.15658446162E+02  0.23125662600E+02  0.51100000000E-03 0. -1.
        -11    1    4    4    0    0  0.46104027281E+01 -0.10971985446E+02  0.95360481973E-01  0.11901654163E+02  0.51100000000E-03 0.  1.
         12    1    4    4    0    0  0.10578445129E+02 -0.76080628148E+01 -0.83970971999E+01  0.15501527748E+02  0.00000000000E+00 0. -1.
</event>
<event>
 8    1  0.2031623E-013  0.9118800E+02  0.7816164E-02  0.1184000E+00
        -11   -1    0    0    0    0  0.00000000000E+00  0.00000000000E+00  0.45593999997E+02  0.45594000000E+02  0.51100000000E-03 0. -1.
         11   -1    0    0    0    0 -0.00000000000E+00 -0.00000000000E+00 -0.45593999997E+02  0.45594000000E+02  0.51100000000E-03 0.  1.
         23    2    1    2    0    0  0.00000000000E+00  0.00000000000E+00  0.00000000000E+00  0.91188000000E+02  0.91188000000E+02 0.  0.
    9900012    2    3    3    0    0  0.75142548954E+01  0.26248741279E+02 -0.30128152746E+02  0.50528855478E+02  0.29999986710E+02 0.  0.
         12    1    3    3    0    0 -0.75142548954E+01 -0.26248741279E+02  0.30128152746E+02  0.40659144522E+02  0.00000000000E+00 0. -1.
         11    1    4    4    0    0  0.56531908195E+01  0.77611700010E+01  0.26970986889E+01  0.99733980079E+01  0.51100000000E-03 0. -1.
        -11    1    4    4    0    0 -0.58247178238E+01  0.98958038749E+01 -0.11150761276E+02  0.16006053522E+02  0.51100000000E-03 0.  1.
         12    1    4    4    0    0  0.76857818997E+01  0.85917674033E+01 -0.21674490159E+02  0.24549403947E+02  0.00000000000E+00 0. -1.
</event>
<event>
 8    1  0.2031623E-013  0.9118800E+02  0.7816164E-02  0.1184000E+00
        -11   -1    0    0    0    0  0.00000000000E+00  0.00000000000E+00  0.45593999997E+02  0.45594000000E+02  0.51100000000E-03 0. -1.
         11   -1    0    0    0    0 -0.00000000000E+00 -0.00000000000E+00 -0.45593999997E+02  0.45594000000E+02  0.51100000000E-03 0.  1.
         23    2    1    2    0    0  0.00000000000E+00  0.00000000000E+00 -0.35527136788E-14  0.91188000000E+02  0.91188000000E+02 0.  0.
    9900012    2    3    3    0    0 -0.17085455867E+02 -0.26778957933E+02 -0.25379925839E+02  0.50528855571E+02  0.29999986993E+02 0.  0.
         12    1    3    3    0    0  0.17085455867E+02  0.26778957933E+02  0.25379925839E+02  0.40659144429E+02  0.00000000000E+00 0. -1.
         11    1    4    4    0    0 -0.20833067840E+02 -0.92813929239E+01 -0.11574774722E+02  0.25576090013E+02  0.51100000000E-03 0.  1.
        -11    1    4    4    0    0  0.25070168592E+01 -0.36587507569E+01  0.11064681386E+01  0.45711992558E+01  0.51100000000E-03 0. -1.
         12    1    4    4    0    0  0.12405951135E+01 -0.13838814252E+02 -0.14911619255E+02  0.20381566302E+02  0.00000000000E+00 0. -1.
</event>
<event>
 8    1  0.2031623E-013  0.9118800E+02  0.7816164E-02  0.1184000E+00
        -11   -1    0    0    0    0  0.00000000000E+00  0.00000000000E+00  0.45593999997E+02  0.45594000000E+02  0.51100000000E-03 0. -1.
         11   -1    0    0    0    0 -0.00000000000E+00 -0.00000000000E+00 -0.45593999997E+02  0.45594000000E+02  0.51100000000E-03 0.  1.
         23    2    1    2    0    0 -0.35527136788E-14  0.00000000000E+00  0.00000000000E+00  0.91188000000E+02  0.91188000000E+02 0.  0.
    9900012    2    3    3    0    0 -0.26656388015E+02 -0.91019923315E+01  0.29321590152E+02  0.50528868978E+02  0.30000027746E+02 0.  0.
        -12    1    3    3    0    0  0.26656388015E+02  0.91019923315E+01 -0.29321590152E+02  0.40659131022E+02  0.00000000000E+00 0.  1.
         11    1    4    4    0    0 -0.69600216813E+01  0.66943307059E+01  0.11083094888E+02  0.14700032584E+02  0.51100000000E-03 0. -1.
        -11    1    4    4    0    0 -0.75460215731E+01 -0.14862454461E+02  0.16615089156E+02  0.23534999089E+02  0.51100000000E-03 0.  1.
         12    1    4    4    0    0 -0.12150344760E+02 -0.93386857644E+00  0.16234061084E+01  0.12293837306E+02  0.00000000000E+00 0. -1.
</event>
<event>
 8    1  0.2031623E-013  0.9118800E+02  0.7816164E-02  0.1184000E+00
        -11   -1    0    0    0    0  0.00000000000E+00  0.00000000000E+00  0.45593999997E+02  0.45594000000E+02  0.51100000000E-03 0. -1.
         11   -1    0    0    0    0 -0.00000000000E+00 -0.00000000000E+00 -0.45593999997E+02  0.45594000000E+02  0.51100000000E-03 0.  1.
         23    2    1    2    0    0 -0.17763568394E-14  0.35527136788E-14  0.35527136788E-14  0.91188000000E+02  0.91188000000E+02 0.  0.
    9900012    2    3    3    0    0 -0.12452482841E+02 -0.27492051046E+02  0.27244970179E+02  0.50528860809E+02  0.30000002916E+02 0.  0.
        -12    1    3    3    0    0  0.12452482841E+02  0.27492051046E+02 -0.27244970179E+02  0.40659139191E+02  0.00000000000E+00 0.  1.
         11    1    4    4    0    0 -0.65947910765E+01 -0.96920243523E+01  0.25559647546E+02  0.28119782864E+02  0.51100000000E-03 0. -1.
        -11    1    4    4    0    0 -0.62985591753E+01 -0.13400956099E+02  0.62337472830E+01  0.16066022454E+02  0.51100000000E-03 0.  1.
         12    1    4    4    0    0  0.44086741040E+00 -0.43990705956E+01 -0.45484246493E+01  0.63430554916E+01  0.00000000000E+00 0. -1.
</event>
<event>
 8    1  0.2031623E-013  0.9118800E+02  0.7816164E-02  0.1184000E+00
        -11   -1    0    0    0    0  0.00000000000E+00  0.00000000000E+00  0.45593999997E+02  0.45594000000E+02  0.51100000000E-03 0. -1.
         11   -1    0    0    0    0 -0.00000000000E+00 -0.00000000000E+00 -0.45593999997E+02  0.45594000000E+02  0.51100000000E-03 0.  1.
         23    2    1    2    0    0  0.35527136788E-14 -0.17763568394E-14  0.00000000000E+00  0.91188000000E+02  0.91188000000E+02 0.  0.
    9900012    2    3    3    0    0  0.27598849609E+02 -0.10924369793E+02 -0.27787177232E+02  0.50528861130E+02  0.30000003890E+02 0.  0.
         12    1    3    3    0    0 -0.27598849609E+02  0.10924369793E+02  0.27787177232E+02  0.40659138870E+02  0.00000000000E+00 0. -1.
         11    1    4    4    0    0 -0.76631477069E+00 -0.84258863377E+01  0.64374140323E+00  0.84851165083E+01  0.51100000000E-03 0. -1.
        -11    1    4    4    0    0  0.19909926185E+02  0.30883244791E+01 -0.14529563347E+02  0.24840513685E+02  0.51100000000E-03 0.  1.
         12    1    4    4    0    0  0.84552381942E+01 -0.55868079349E+01 -0.13901355288E+02  0.17203230937E+02  0.00000000000E+00 0. -1.
</event>
<event>
 8    1  0.2031623E-013  0.9118800E+02  0.7816164E-02  0.1184000E+00
        -11   -1    0    0    0    0  0.00000000000E+00  0.00000000000E+00  0.45593999997E+02  0.45594000000E+02  0.51100000000E-03 0. -1.
         11   -1    0    0    0    0 -0.00000000000E+00 -0.00000000000E+00 -0.45593999997E+02  0.45594000000E+02  0.51100000000E-03 0.  1.
         23    2    1    2    0    0  0.71054273576E-14 -0.19984014443E-14 -0.71054273576E-14  0.91188000000E+02  0.91188000000E+02 0.  0.
    9900012    2    3    3    0    0  0.33224637134E+02 -0.12482313746E+01 -0.23403661571E+02  0.50528856266E+02  0.29999989107E+02 0.  0.
         12    1    3    3    0    0 -0.33224637134E+02  0.12482313746E+01  0.23403661571E+02  0.40659143734E+02  0.00000000000E+00 0. -1.
         11    1    4    4    0    0  0.19954269070E+01  0.82872527607E+01 -0.55486021446E+01  0.10170903248E+02  0.51100000000E-03 0. -1.
        -11    1    4    4    0    0  0.27104379404E+02 -0.10488109685E+02 -0.88060662967E+01  0.30367657657E+02  0.51100000000E-03 0.  1.
         12    1    4    4    0    0  0.41248308227E+01  0.95262555004E+00 -0.90489931295E+01  0.99902953616E+01  0.00000000000E+00 0. -1.
</event>
<event>
 8    1  0.2031623E-013  0.9118800E+02  0.7816164E-02  0.1184000E+00
        -11   -1    0    0    0    0  0.00000000000E+00  0.00000000000E+00  0.45593999997E+02  0.45594000000E+02  0.51100000000E-03 0. -1.
         11   -1    0    0    0    0 -0.00000000000E+00 -0.00000000000E+00 -0.45593999997E+02  0.45594000000E+02  0.51100000000E-03 0.  1.
         23    2    1    2    0    0  0.35527136788E-14  0.00000000000E+00 -0.35527136788E-14  0.91188000000E+02  0.91188000000E+02 0.  0.
    9900012    2    3    3    0    0  0.20022003130E+02 -0.18779239102E+02 -0.29993761983E+02  0.50528853569E+02  0.29999980910E+02 0.  0.
         12    1    3    3    0    0 -0.20022003130E+02  0.18779239102E+02  0.29993761983E+02  0.40659146431E+02  0.00000000000E+00 0. -1.
         11    1    4    4    0    0 -0.50017505989E+01 -0.39173281819E-01 -0.71784970532E+01  0.87492779018E+01  0.51100000000E-03 0. -1.
        -11    1    4    4    0    0  0.23146437416E+02 -0.12139151803E+02 -0.23141557264E+02  0.34909142706E+02  0.51100000000E-03 0.  1.
         12    1    4    4    0    0  0.18773163125E+01 -0.66009140170E+01  0.32629233459E+00  0.68704329619E+01  0.00000000000E+00 0. -1.
</event>
<event>
 8    1  0.2031623E-013  0.9118800E+02  0.7816164E-02  0.1184000E+00
        -11   -1    0    0    0    0  0.00000000000E+00  0.00000000000E+00  0.45593999997E+02  0.45594000000E+02  0.51100000000E-03 0. -1.
         11   -1    0    0    0    0 -0.00000000000E+00 -0.00000000000E+00 -0.45593999997E+02  0.45594000000E+02  0.51100000000E-03 0.  1.
         23    2    1    2    0    0  0.17763568394E-14  0.00000000000E+00  0.00000000000E+00  0.91188000000E+02  0.91188000000E+02 0.  0.
    9900012    2    3    3    0    0 -0.13354894859E+02  0.27387685158E+02  0.26920818534E+02  0.50528819172E+02  0.29999876355E+02 0.  0.
        -12    1    3    3    0    0  0.13354894859E+02 -0.27387685158E+02 -0.26920818534E+02  0.40659180828E+02  0.00000000000E+00 0.  1.
         11    1    4    4    0    0 -0.15748185298E+02  0.10387920963E+02  0.12310726394E+02  0.22527055438E+02  0.51100000000E-03 0. -1.
        -11    1    4    4    0    0  0.47588113332E+01  0.59226259660E+01 -0.20376101704E+01  0.78661069854E+01  0.51100000000E-03 0.  1.
         12    1    4    4    0    0 -0.23655208945E+01  0.11077138229E+02  0.16647702311E+02  0.20135656748E+02  0.00000000000E+00 0. -1.
</event>
<event>
 8    1  0.2825194E-013  0.9118800E+02  0.7816164E-02  0.1184000E+00
        -11   -1    0    0    0    0  0.00000000000E+00  0.00000000000E+00  0.45593999997E+02  0.45594000000E+02  0.51100000000E-03 0. -1.
         11   -1    0    0    0    0 -0.00000000000E+00 -0.00000000000E+00 -0.45593999997E+02  0.45594000000E+02  0.51100000000E-03 0.  1.
         23    2    1    2    0    0  0.00000000000E+00  0.17763568394E-14  0.00000000000E+00  0.91188000000E+02  0.91188000000E+02 0.  0.
    9900012    2    3    3    0    0  0.89828164883E+01  0.13773694573E+02 -0.37185473874E+02  0.50528866690E+02  0.30000020792E+02 0.  0.
         12    1    3    3    0    0 -0.89828164883E+01 -0.13773694573E+02  0.37185473874E+02  0.40659133310E+02  0.00000000000E+00 0. -1.
         11    1    4    4    0    0 -0.55417000445E+01  0.24455808040E+01  0.21416716455E+01  0.64248005845E+01  0.51100000000E-03 0. -1.
        -11    1    4    4    0    0  0.47865283926E+01  0.30373175397E+01 -0.21027437791E+02  0.21778183859E+02  0.51100000000E-03 0.  1.
         12    1    4    4    0    0  0.97379881401E+01  0.82907962290E+01 -0.18299707729E+02  0.22325882247E+02  0.00000000000E+00 0. -1.
</event>
<event>
 8    1  0.2031623E-013  0.9118800E+02  0.7816164E-02  0.1184000E+00
        -11   -1    0    0    0    0  0.00000000000E+00  0.00000000000E+00  0.45593999997E+02  0.45594000000E+02  0.51100000000E-03 0.  1.
         11   -1    0    0    0    0 -0.00000000000E+00 -0.00000000000E+00 -0.45593999997E+02  0.45594000000E+02  0.51100000000E-03 0. -1.
         23    2    1    2    0    0  0.71054273576E-14  0.00000000000E+00  0.00000000000E+00  0.91188000000E+02  0.91188000000E+02 0.  0.
    9900012    2    3    3    0    0 -0.37834105106E+02 -0.48026474040E+01 -0.14095238175E+02  0.50528921426E+02  0.30000187167E+02 0.  0.
         12    1    3    3    0    0  0.37834105106E+02  0.48026474040E+01  0.14095238175E+02  0.40659078574E+02  0.00000000000E+00 0. -1.
         11    1    4    4    0    0  0.39653313401E+01 -0.40231152447E+01 -0.21530787810E+01  0.60452508142E+01  0.51100000000E-03 0. -1.
        -11    1    4    4    0    0 -0.31112972541E+02 -0.39905513153E+01 -0.63571287871E+01  0.32005540877E+02  0.51100000000E-03 0.  1.
         12    1    4    4    0    0 -0.10686463905E+02  0.32110191560E+01 -0.55850306069E+01  0.12478129735E+02  0.00000000000E+00 0. -1.
</event>
<event>
 8    1  0.2031623E-013  0.9118800E+02  0.7816164E-02  0.1184000E+00
        -11   -1    0    0    0    0  0.00000000000E+00  0.00000000000E+00  0.45593999997E+02  0.45594000000E+02  0.51100000000E-03 0. -1.
         11   -1    0    0    0    0 -0.00000000000E+00 -0.00000000000E+00 -0.45593999997E+02  0.45594000000E+02  0.51100000000E-03 0.  1.
         23    2    1    2    0    0  0.00000000000E+00  0.88817841970E-15 -0.71054273576E-14  0.91188000000E+02  0.91188000000E+02 0.  0.
    9900012    2    3    3    0    0  0.24876514408E+02  0.36503983223E+01 -0.31953077435E+02  0.50528861611E+02  0.30000005352E+02 0.  0.
         12    1    3    3    0    0 -0.24876514408E+02 -0.36503983223E+01  0.31953077435E+02  0.40659138389E+02  0.00000000000E+00 0. -1.
         11    1    4    4    0    0 -0.86454311615E+00 -0.11606628956E+01 -0.30840996274E+01  0.34067937903E+01  0.51100000000E-03 0. -1.
        -11    1    4    4    0    0  0.69600184474E+01  0.45457507083E+01  0.40303802088E+01  0.92384885765E+01  0.51100000000E-03 0.  1.
        -12    1    4    4    0    0  0.18781039076E+02  0.26531050957E+00 -0.32899358016E+02  0.37883579244E+02  0.00000000000E+00 0.  1.
</event>
<event>
 8    1  0.2031623E-013  0.9118800E+02  0.7816164E-02  0.1184000E+00
        -11   -1    0    0    0    0  0.00000000000E+00  0.00000000000E+00  0.45593999997E+02  0.45594000000E+02  0.51100000000E-03 0.  1.
         11   -1    0    0    0    0 -0.00000000000E+00 -0.00000000000E+00 -0.45593999997E+02  0.45594000000E+02  0.51100000000E-03 0. -1.
         23    2    1    2    0    0  0.35527136788E-14  0.00000000000E+00  0.00000000000E+00  0.91188000000E+02  0.91188000000E+02 0.  0.
    9900012    2    3    3    0    0  0.20271713335E+02  0.20718025139E+02  0.28512917783E+02  0.50528863170E+02  0.30000010092E+02 0.  0.
        -12    1    3    3    0    0 -0.20271713335E+02 -0.20718025139E+02 -0.28512917783E+02  0.40659136830E+02  0.00000000000E+00 0.  1.
         11    1    4    4    0    0  0.24296843333E+02  0.98537883876E+01  0.22229497091E+02  0.34374180466E+02  0.51100000000E-03 0. -1.
        -11    1    4    4    0    0 -0.37873721112E+01  0.39368585525E+01  0.73330380259E+01  0.91442052537E+01  0.51100000000E-03 0.  1.
         12    1    4    4    0    0 -0.23775788664E+00  0.69273781994E+01 -0.10496173339E+01  0.70104774500E+01  0.00000000000E+00 0. -1.
</event>
<event>
 8    1  0.2031623E-013  0.9118800E+02  0.7816164E-02  0.1184000E+00
        -11   -1    0    0    0    0  0.00000000000E+00  0.00000000000E+00  0.45593999997E+02  0.45594000000E+02  0.51100000000E-03 0. -1.
         11   -1    0    0    0    0 -0.00000000000E+00 -0.00000000000E+00 -0.45593999997E+02  0.45594000000E+02  0.51100000000E-03 0.  1.
         23    2    1    2    0    0  0.00000000000E+00 -0.35527136788E-14  0.35527136788E-14  0.91188000000E+02  0.91188000000E+02 0.  0.
    9900012    2    3    3    0    0  0.27192372957E+02  0.22254738384E+02 -0.20456484914E+02  0.50528852166E+02  0.29999976642E+02 0.  0.
         12    1    3    3    0    0 -0.27192372957E+02 -0.22254738384E+02  0.20456484914E+02  0.40659147834E+02  0.00000000000E+00 0. -1.
         11    1    4    4    0    0  0.64049658306E+01  0.84978177302E+01 -0.54002916476E+01  0.11933132179E+02  0.51100000000E-03 0. -1.
        -11    1    4    4    0    0  0.22343403980E+01  0.45461719008E+01  0.68026768100E+01  0.84815309943E+01  0.51100000000E-03 0.  1.
        -12    1    4    4    0    0  0.18553066729E+02  0.92107487531E+01 -0.21858870076E+02  0.30114188992E+02  0.00000000000E+00 0.  1.
</event>
<event>
 8    1  0.2031623E-013  0.9118800E+02  0.7816164E-02  0.1184000E+00
        -11   -1    0    0    0    0  0.00000000000E+00  0.00000000000E+00  0.45593999997E+02  0.45594000000E+02  0.51100000000E-03 0. -1.
         11   -1    0    0    0    0 -0.00000000000E+00 -0.00000000000E+00 -0.45593999997E+02  0.45594000000E+02  0.51100000000E-03 0.  1.
         23    2    1    2    0    0  0.00000000000E+00 -0.17763568394E-14  0.00000000000E+00  0.91188000000E+02  0.91188000000E+02 0.  0.
    9900012    2    3    3    0    0  0.29944960760E+02  0.13080786596E+02 -0.24194167568E+02  0.50528863300E+02  0.30000010487E+02 0.  0.
         12    1    3    3    0    0 -0.29944960760E+02 -0.13080786596E+02  0.24194167568E+02  0.40659136700E+02  0.00000000000E+00 0. -1.
         11    1    4    4    0    0  0.27471366089E+02  0.49936875329E+01 -0.58558825044E+01  0.28529006820E+02  0.51100000000E-03 0. -1.
        -11    1    4    4    0    0  0.51841080069E+01  0.25825625447E+01 -0.68049697987E+01  0.89360069017E+01  0.51100000000E-03 0.  1.
         12    1    4    4    0    0 -0.27105133356E+01  0.55045365186E+01 -0.11533315264E+02  0.13063849579E+02  0.00000000000E+00 0. -1.
</event>
<event>
 8    1  0.2031623E-013  0.9118800E+02  0.7816164E-02  0.1184000E+00
        -11   -1    0    0    0    0  0.00000000000E+00  0.00000000000E+00  0.45593999997E+02  0.45594000000E+02  0.51100000000E-03 0. -1.
         11   -1    0    0    0    0 -0.00000000000E+00 -0.00000000000E+00 -0.45593999997E+02  0.45594000000E+02  0.51100000000E-03 0.  1.
         23    2    1    2    0    0  0.35527136788E-14  0.35527136788E-14  0.00000000000E+00  0.91188000000E+02  0.91188000000E+02 0.  0.
    9900012    2    3    3    0    0  0.27199337396E+02  0.23352146162E+02  0.19184340054E+02  0.50528860948E+02  0.30000003336E+02 0.  0.
        -12    1    3    3    0    0 -0.27199337396E+02 -0.23352146162E+02 -0.19184340054E+02  0.40659139052E+02  0.00000000000E+00 0.  1.
         11    1    4    4    0    0  0.28200928747E+02  0.26375816072E+02  0.18300296782E+02  0.42730281045E+02  0.51100000000E-03 0. -1.
        -11    1    4    4    0    0  0.30206421754E+01 -0.12020402126E+01 -0.18230866415E+00  0.32561352144E+01  0.51100000000E-03 0.  1.
         12    1    4    4    0    0 -0.40222335262E+01 -0.18216296968E+01  0.10663519366E+01  0.45424446880E+01  0.00000000000E+00 0. -1.
</event>
<event>
 8    1  0.2031623E-013  0.9118800E+02  0.7816164E-02  0.1184000E+00
        -11   -1    0    0    0    0  0.00000000000E+00  0.00000000000E+00  0.45593999997E+02  0.45594000000E+02  0.51100000000E-03 0. -1.
         11   -1    0    0    0    0 -0.00000000000E+00 -0.00000000000E+00 -0.45593999997E+02  0.45594000000E+02  0.51100000000E-03 0.  1.
         23    2    1    2    0    0  0.35527136788E-14  0.13877787808E-16  0.00000000000E+00  0.91188000000E+02  0.91188000000E+02 0.  0.
    9900012    2    3    3    0    0 -0.23386141311E+02  0.71955150567E-01 -0.33260329599E+02  0.50528852099E+02  0.29999976441E+02 0.  0.
         12    1    3    3    0    0  0.23386141311E+02 -0.71955150567E-01  0.33260329599E+02  0.40659147901E+02  0.00000000000E+00 0. -1.
         11    1    4    4    0    0  0.26758696295E+01 -0.69850454645E+01 -0.56900617001E+01  0.93982945701E+01  0.51100000000E-03 0. -1.
        -11    1    4    4    0    0 -0.16116603100E+02  0.61558685822E+01 -0.25726423485E+02  0.30975611036E+02  0.51100000000E-03 0.  1.
        -12    1    4    4    0    0 -0.99454078403E+01  0.90113203284E+00 -0.18438444142E+01  0.10154946493E+02  0.00000000000E+00 0.  1.
</event>
<event>
 8    1  0.2031623E-013  0.9118800E+02  0.7816164E-02  0.1184000E+00
        -11   -1    0    0    0    0  0.00000000000E+00  0.00000000000E+00  0.45593999997E+02  0.45594000000E+02  0.51100000000E-03 0. -1.
         11   -1    0    0    0    0 -0.00000000000E+00 -0.00000000000E+00 -0.45593999997E+02  0.45594000000E+02  0.51100000000E-03 0.  1.
         23    2    1    2    0    0  0.00000000000E+00  0.00000000000E+00 -0.35527136788E-14  0.91188000000E+02  0.91188000000E+02 0.  0.
    9900012    2    3    3    0    0  0.22269766936E+01  0.27570131301E+02  0.29800906683E+02  0.50528860754E+02  0.30000002747E+02 0.  0.
        -12    1    3    3    0    0 -0.22269766936E+01 -0.27570131301E+02 -0.29800906683E+02  0.40659139246E+02  0.00000000000E+00 0.  1.
         11    1    4    4    0    0  0.65891385841E+01  0.20330845358E+02  0.16579295998E+02  0.27048716722E+02  0.51100000000E-03 0. -1.
        -11    1    4    4    0    0 -0.52161703343E+01 -0.27811495527E+01 -0.10674225279E+01  0.60068807967E+01  0.51100000000E-03 0.  1.
        -12    1    4    4    0    0  0.85400844386E+00  0.10020435496E+02  0.14289033212E+02  0.17473263235E+02  0.00000000000E+00 0.  1.
</event>
<event>
 8    1  0.2031623E-013  0.9118800E+02  0.7816164E-02  0.1184000E+00
        -11   -1    0    0    0    0  0.00000000000E+00  0.00000000000E+00  0.45593999997E+02  0.45594000000E+02  0.51100000000E-03 0. -1.
         11   -1    0    0    0    0 -0.00000000000E+00 -0.00000000000E+00 -0.45593999997E+02  0.45594000000E+02  0.51100000000E-03 0.  1.
         23    2    1    2    0    0 -0.71054273576E-14  0.17763568394E-14  0.17763568394E-14  0.91188000000E+02  0.91188000000E+02 0.  0.
    9900012    2    3    3    0    0  0.38213962522E+02 -0.11594952830E+02 -0.76429965345E+01  0.50528865002E+02  0.30000015659E+02 0.  0.
         12    1    3    3    0    0 -0.38213962522E+02  0.11594952830E+02  0.76429965345E+01  0.40659134998E+02  0.00000000000E+00 0. -1.
         11    1    4    4    0    0  0.11869127012E+02 -0.17312641187E+02 -0.24706603578E+01  0.21135465071E+02  0.51100000000E-03 0. -1.
        -11    1    4    4    0    0  0.25220788756E+02  0.24919166663E+01 -0.34807557206E+01  0.25581506891E+02  0.51100000000E-03 0.  1.
        -12    1    4    4    0    0  0.11240467543E+01  0.32257716910E+01 -0.16915804561E+01  0.38118930399E+01  0.00000000000E+00 0.  1.
</event>
<event>
 8    1  0.2031623E-013  0.9118800E+02  0.7816164E-02  0.1184000E+00
        -11   -1    0    0    0    0  0.00000000000E+00  0.00000000000E+00  0.45593999997E+02  0.45594000000E+02  0.51100000000E-03 0. -1.
         11   -1    0    0    0    0 -0.00000000000E+00 -0.00000000000E+00 -0.45593999997E+02  0.45594000000E+02  0.51100000000E-03 0.  1.
         23    2    1    2    0    0  0.00000000000E+00  0.17763568394E-14 -0.71054273576E-14  0.91188000000E+02  0.91188000000E+02 0.  0.
    9900012    2    3    3    0    0 -0.17151662457E+02 -0.15273621858E+02  0.33551489758E+02  0.50528861855E+02  0.30000006095E+02 0.  0.
        -12    1    3    3    0    0  0.17151662457E+02  0.15273621858E+02 -0.33551489758E+02  0.40659138145E+02  0.00000000000E+00 0.  1.
         11    1    4    4    0    0 -0.43616470196E+01 -0.12585709285E+02  0.18614244475E+02  0.22889170814E+02  0.51100000000E-03 0. -1.
        -11    1    4    4    0    0  0.30800007902E+01  0.22219352316E+01 -0.16711260799E+01  0.41492244670E+01  0.51100000000E-03 0.  1.
        -12    1    4    4    0    0 -0.15870016227E+02 -0.49098478042E+01  0.16608371363E+02  0.23490466574E+02  0.00000000000E+00 0.  1.
</event>
<event>
 8    1  0.2031623E-013  0.9118800E+02  0.7816164E-02  0.1184000E+00
        -11   -1    0    0    0    0  0.00000000000E+00  0.00000000000E+00  0.45593999997E+02  0.45594000000E+02  0.51100000000E-03 0.  1.
         11   -1    0    0    0    0 -0.00000000000E+00 -0.00000000000E+00 -0.45593999997E+02  0.45594000000E+02  0.51100000000E-03 0. -1.
         23    2    1    2    0    0  0.00000000000E+00  0.00000000000E+00  0.44408920985E-15  0.91188000000E+02  0.91188000000E+02 0.  0.
    9900012    2    3    3    0    0  0.33709477212E+02  0.22611954434E+02  0.23526610695E+01  0.50528876161E+02  0.30000049579E+02 0.  0.
         12    1    3    3    0    0 -0.33709477212E+02 -0.22611954434E+02 -0.23526610695E+01  0.40659123839E+02  0.00000000000E+00 0. -1.
         11    1    4    4    0    0  0.18076349864E+01  0.17987860506E+01 -0.83259183080E+01  0.87077029940E+01  0.51100000000E-03 0. -1.
        -11    1    4    4    0    0  0.19374649261E+02  0.72628036531E+01  0.10856718020E+02  0.23366507598E+02  0.51100000000E-03 0.  1.
        -12    1    4    4    0    0  0.12527192964E+02  0.13550364731E+02 -0.17813864225E+00  0.18454665569E+02  0.00000000000E+00 0.  1.
</event>
<event>
 8    1  0.2031623E-013  0.9118800E+02  0.7816164E-02  0.1184000E+00
        -11   -1    0    0    0    0  0.00000000000E+00  0.00000000000E+00  0.45593999997E+02  0.45594000000E+02  0.51100000000E-03 0.  1.
         11   -1    0    0    0    0 -0.00000000000E+00 -0.00000000000E+00 -0.45593999997E+02  0.45594000000E+02  0.51100000000E-03 0. -1.
         23    2    1    2    0    0 -0.71054273576E-14 -0.35527136788E-14 -0.17763568394E-14  0.91188000000E+02  0.91188000000E+02 0.  0.
    9900012    2    3    3    0    0 -0.36317359922E+02 -0.14385955711E+02 -0.11280915794E+02  0.50528863086E+02  0.30000009836E+02 0.  0.
         12    1    3    3    0    0  0.36317359922E+02  0.14385955711E+02  0.11280915794E+02  0.40659136914E+02  0.00000000000E+00 0. -1.
         11    1    4    4    0    0 -0.26263287100E+02 -0.86133677476E+01 -0.14183929873E+02  0.31066609409E+02  0.51100000000E-03 0. -1.
        -11    1    4    4    0    0 -0.83013794072E+00 -0.92835357709E+01  0.67925377497E+00  0.93452956809E+01  0.51100000000E-03 0.  1.
        -12    1    4    4    0    0 -0.92239348815E+01  0.35109478076E+01  0.22237603046E+01  0.10116957996E+02  0.00000000000E+00 0.  1.
</event>
<event>
 8    1  0.2031623E-013  0.9118800E+02  0.7816164E-02  0.1184000E+00
        -11   -1    0    0    0    0  0.00000000000E+00  0.00000000000E+00  0.45593999997E+02  0.45594000000E+02  0.51100000000E-03 0. -1.
         11   -1    0    0    0    0 -0.00000000000E+00 -0.00000000000E+00 -0.45593999997E+02  0.45594000000E+02  0.51100000000E-03 0.  1.
         23    2    1    2    0    0  0.00000000000E+00  0.35527136788E-14  0.35527136788E-14  0.91188000000E+02  0.91188000000E+02 0.  0.
    9900012    2    3    3    0    0 -0.28934788828E+02 -0.13029984519E+02  0.25419741012E+02  0.50528859156E+02  0.29999997891E+02 0.  0.
        -12    1    3    3    0    0  0.28934788828E+02  0.13029984519E+02 -0.25419741012E+02  0.40659140844E+02  0.00000000000E+00 0.  1.
         11    1    4    4    0    0 -0.83080144796E+01  0.87184257947E+01  0.64468322872E+01  0.13660003651E+02  0.51100000000E-03 0. -1.
        -11    1    4    4    0    0  0.71977625306E+00 -0.33451144182E+01  0.18273016347E+01  0.38790333655E+01  0.51100000000E-03 0.  1.
         12    1    4    4    0    0 -0.21346550601E+02 -0.18403295895E+02  0.17145607090E+02  0.32989822140E+02  0.00000000000E+00 0. -1.
</event>
<event>
 8    1  0.2031623E-013  0.9118800E+02  0.7816164E-02  0.1184000E+00
        -11   -1    0    0    0    0  0.00000000000E+00  0.00000000000E+00  0.45593999997E+02  0.45594000000E+02  0.51100000000E-03 0. -1.
         11   -1    0    0    0    0 -0.00000000000E+00 -0.00000000000E+00 -0.45593999997E+02  0.45594000000E+02  0.51100000000E-03 0.  1.
         23    2    1    2    0    0  0.00000000000E+00 -0.17763568394E-14  0.00000000000E+00  0.91188000000E+02  0.91188000000E+02 0.  0.
    9900012    2    3    3    0    0  0.17580840398E+02 -0.11947048237E+02  0.34660465792E+02  0.50528858352E+02  0.29999995445E+02 0.  0.
        -12    1    3    3    0    0 -0.17580840398E+02  0.11947048237E+02 -0.34660465792E+02  0.40659141648E+02  0.00000000000E+00 0.  1.
         11    1    4    4    0    0  0.11717385618E+02 -0.19177309498E+02  0.27914914474E+02  0.35837254020E+02  0.51100000000E-03 0. -1.
        -11    1    4    4    0    0 -0.91504075257E+00  0.63199863895E+00 -0.16860056458E+01  0.20197369030E+01  0.51100000000E-03 0.  1.
         12    1    4    4    0    0  0.67784955322E+01  0.65982626219E+01  0.84315569636E+01  0.12671867429E+02  0.00000000000E+00 0. -1.
</event>
<event>
 8    1  0.2031623E-013  0.9118800E+02  0.7816164E-02  0.1184000E+00
        -11   -1    0    0    0    0  0.00000000000E+00  0.00000000000E+00  0.45593999997E+02  0.45594000000E+02  0.51100000000E-03 0. -1.
         11   -1    0    0    0    0 -0.00000000000E+00 -0.00000000000E+00 -0.45593999997E+02  0.45594000000E+02  0.51100000000E-03 0.  1.
         23    2    1    2    0    0  0.00000000000E+00 -0.35527136788E-14  0.00000000000E+00  0.91188000000E+02  0.91188000000E+02 0.  0.
    9900012    2    3    3    0    0  0.28313039213E+02 -0.23545790646E+02  0.17237529066E+02  0.50528869969E+02  0.30000030758E+02 0.  0.
        -12    1    3    3    0    0 -0.28313039213E+02  0.23545790646E+02 -0.17237529066E+02  0.40659130031E+02  0.00000000000E+00 0.  1.
         11    1    4    4    0    0  0.62991066633E+01 -0.15613468161E+02  0.91386483194E+01  0.19156566136E+02  0.51100000000E-03 0. -1.
        -11    1    4    4    0    0  0.13748419312E+02  0.52759251079E+01  0.37721771540E+01  0.15201438750E+02  0.51100000000E-03 0.  1.
        -12    1    4    4    0    0  0.82655132368E+01 -0.13208247593E+02  0.43267035924E+01  0.16170865083E+02  0.00000000000E+00 0.  1.
</event>
<event>
 8    1  0.2031623E-013  0.9118800E+02  0.7816164E-02  0.1184000E+00
        -11   -1    0    0    0    0  0.00000000000E+00  0.00000000000E+00  0.45593999997E+02  0.45594000000E+02  0.51100000000E-03 0. -1.
         11   -1    0    0    0    0 -0.00000000000E+00 -0.00000000000E+00 -0.45593999997E+02  0.45594000000E+02  0.51100000000E-03 0.  1.
         23    2    1    2    0    0  0.00000000000E+00  0.00000000000E+00  0.00000000000E+00  0.91188000000E+02  0.91188000000E+02 0.  0.
    9900012    2    3    3    0    0 -0.11267387844E+02  0.10885890252E+02 -0.37519441502E+02  0.50528866635E+02  0.30000020623E+02 0.  0.
         12    1    3    3    0    0  0.11267387844E+02 -0.10885890252E+02  0.37519441502E+02  0.40659133365E+02  0.00000000000E+00 0. -1.
         11    1    4    4    0    0 -0.44726088660E+01 -0.21548207885E+01 -0.30298545792E+01  0.58161414813E+01  0.51100000000E-03 0. -1.
        -11    1    4    4    0    0 -0.97679567657E+01  0.18266700595E+02 -0.19044306771E+02  0.28138424808E+02  0.51100000000E-03 0.  1.
        -12    1    4    4    0    0  0.29731777877E+01 -0.52259895546E+01 -0.15445280151E+02  0.16574300345E+02  0.00000000000E+00 0.  1.
</event>
<event>
 8    1  0.2031623E-013  0.9118800E+02  0.7816164E-02  0.1184000E+00
        -11   -1    0    0    0    0  0.00000000000E+00  0.00000000000E+00  0.45593999997E+02  0.45594000000E+02  0.51100000000E-03 0. -1.
         11   -1    0    0    0    0 -0.00000000000E+00 -0.00000000000E+00 -0.45593999997E+02  0.45594000000E+02  0.51100000000E-03 0.  1.
         23    2    1    2    0    0  0.00000000000E+00  0.00000000000E+00  0.17763568394E-14  0.91188000000E+02  0.91188000000E+02 0.  0.
    9900012    2    3    3    0    0  0.33568360545E+02  0.21849584444E+02  0.69947138230E+01  0.50528865830E+02  0.30000018176E+02 0.  0.
        -12    1    3    3    0    0 -0.33568360545E+02 -0.21849584444E+02 -0.69947138230E+01  0.40659134170E+02  0.00000000000E+00 0.  1.
         11    1    4    4    0    0  0.14126952986E+02  0.11614171545E+02 -0.84495333419E+01  0.20145828236E+02  0.51100000000E-03 0. -1.
        -11    1    4    4    0    0  0.17758788975E+02  0.13450308304E+02  0.14666779357E+02  0.26672078964E+02  0.51100000000E-03 0.  1.
        -12    1    4    4    0    0  0.16826185831E+01 -0.32148954044E+01  0.77746780802E+00  0.37109586295E+01  0.00000000000E+00 0.  1.
</event>
<event>
 8    1  0.2031623E-013  0.9118800E+02  0.7816164E-02  0.1184000E+00
        -11   -1    0    0    0    0  0.00000000000E+00  0.00000000000E+00  0.45593999997E+02  0.45594000000E+02  0.51100000000E-03 0. -1.
         11   -1    0    0    0    0 -0.00000000000E+00 -0.00000000000E+00 -0.45593999997E+02  0.45594000000E+02  0.51100000000E-03 0.  1.
         23    2    1    2    0    0  0.00000000000E+00  0.17763568394E-14  0.00000000000E+00  0.91188000000E+02  0.91188000000E+02 0.  0.
    9900012    2    3    3    0    0 -0.17410353522E+02  0.12756868514E+02 -0.34457325770E+02  0.50528863226E+02  0.30000010261E+02 0.  0.
         12    1    3    3    0    0  0.17410353522E+02 -0.12756868514E+02  0.34457325770E+02  0.40659136774E+02  0.00000000000E+00 0. -1.
         11    1    4    4    0    0 -0.62758831609E+01 -0.38468933321E+01  0.80105624186E+00  0.74045249086E+01  0.51100000000E-03 0. -1.
        -11    1    4    4    0    0 -0.99549856072E+01  0.10925066036E+02 -0.11666329541E+02  0.18829818150E+02  0.51100000000E-03 0.  1.
         12    1    4    4    0    0 -0.11794847539E+01  0.56786958100E+01 -0.23592052471E+02  0.24294520167E+02  0.00000000000E+00 0. -1.
</event>
<event>
 8    1  0.2031623E-013  0.9118800E+02  0.7816164E-02  0.1184000E+00
        -11   -1    0    0    0    0  0.00000000000E+00  0.00000000000E+00  0.45593999997E+02  0.45594000000E+02  0.51100000000E-03 0. -1.
         11   -1    0    0    0    0 -0.00000000000E+00 -0.00000000000E+00 -0.45593999997E+02  0.45594000000E+02  0.51100000000E-03 0.  1.
         23    2    1    2    0    0  0.00000000000E+00 -0.71054273576E-14  0.00000000000E+00  0.91188000000E+02  0.91188000000E+02 0.  0.
    9900012    2    3    3    0    0 -0.24169882793E+01  0.29005804496E+02 -0.28389904747E+02  0.50528865499E+02  0.30000017170E+02 0.  0.
         12    1    3    3    0    0  0.24169882793E+01 -0.29005804496E+02  0.28389904747E+02  0.40659134501E+02  0.00000000000E+00 0. -1.
         11    1    4    4    0    0  0.29195146891E+01  0.18980438690E+02 -0.24763488535E+00  0.19205258191E+02  0.51100000000E-03 0. -1.
        -11    1    4    4    0    0 -0.33780048370E+01  0.10435367195E+02 -0.18767582358E+02  0.21737754092E+02  0.51100000000E-03 0.  1.
        -12    1    4    4    0    0 -0.19584981314E+01 -0.41000138827E+00 -0.93746875043E+01  0.95858532157E+01  0.00000000000E+00 0.  1.
</event>
<event>
 8    1  0.2031623E-013  0.9118800E+02  0.7816164E-02  0.1184000E+00
        -11   -1    0    0    0    0  0.00000000000E+00  0.00000000000E+00  0.45593999997E+02  0.45594000000E+02  0.51100000000E-03 0.  1.
         11   -1    0    0    0    0 -0.00000000000E+00 -0.00000000000E+00 -0.45593999997E+02  0.45594000000E+02  0.51100000000E-03 0. -1.
         23    2    1    2    0    0 -0.17763568394E-14 -0.35527136788E-14 -0.35527136788E-14  0.91188000000E+02  0.91188000000E+02 0.  0.
    9900012    2    3    3    0    0  0.15151102258E+02 -0.29048468150E+02 -0.24078969083E+02  0.50528853998E+02  0.29999982214E+02 0.  0.
        -12    1    3    3    0    0 -0.15151102258E+02  0.29048468150E+02  0.24078969083E+02  0.40659146002E+02  0.00000000000E+00 0.  1.
         11    1    4    4    0    0 -0.53080351322E+01 -0.12265057567E+02 -0.13961685892E+02  0.19327067737E+02  0.51100000000E-03 0. -1.
        -11    1    4    4    0    0  0.11664313745E+02 -0.66583418245E+01  0.14264804585E+01  0.13506464295E+02  0.51100000000E-03 0.  1.
        -12    1    4    4    0    0  0.87948236448E+01 -0.10125068758E+02 -0.11543763649E+02  0.17695321966E+02  0.00000000000E+00 0.  1.
</event>
<event>
 8    1  0.2031623E-013  0.9118800E+02  0.7816164E-02  0.1184000E+00
        -11   -1    0    0    0    0  0.00000000000E+00  0.00000000000E+00  0.45593999997E+02  0.45594000000E+02  0.51100000000E-03 0.  1.
         11   -1    0    0    0    0 -0.00000000000E+00 -0.00000000000E+00 -0.45593999997E+02  0.45594000000E+02  0.51100000000E-03 0. -1.
         23    2    1    2    0    0  0.00000000000E+00  0.71054273576E-14  0.00000000000E+00  0.91188000000E+02  0.91188000000E+02 0.  0.
    9900012    2    3    3    0    0 -0.21629898911E+02  0.27628744073E+02 -0.20541803197E+02  0.50528859520E+02  0.29999998999E+02 0.  0.
        -12    1    3    3    0    0  0.21629898911E+02 -0.27628744073E+02  0.20541803197E+02  0.40659140480E+02  0.00000000000E+00 0.  1.
         11    1    4    4    0    0 -0.18833754140E+02  0.25797675566E+02 -0.21236068395E+02  0.38356237573E+02  0.51100000000E-03 0. -1.
        -11    1    4    4    0    0 -0.25580476726E+01 -0.48045551075E+01 -0.33512194873E+00  0.54534085358E+01  0.51100000000E-03 0.  1.
         12    1    4    4    0    0 -0.23809709900E+00  0.66356236137E+01  0.10293871468E+01  0.67192134115E+01  0.00000000000E+00 0. -1.
</event>
<event>
 8    1  0.2031623E-013  0.9118800E+02  0.7816164E-02  0.1184000E+00
        -11   -1    0    0    0    0  0.00000000000E+00  0.00000000000E+00  0.45593999997E+02  0.45594000000E+02  0.51100000000E-03 0. -1.
         11   -1    0    0    0    0 -0.00000000000E+00 -0.00000000000E+00 -0.45593999997E+02  0.45594000000E+02  0.51100000000E-03 0.  1.
         23    2    1    2    0    0  0.00000000000E+00  0.00000000000E+00  0.00000000000E+00  0.91188000000E+02  0.91188000000E+02 0.  0.
    9900012    2    3    3    0    0 -0.17438631489E+02 -0.12411157085E+02  0.34569129105E+02  0.50528838972E+02  0.29999936540E+02 0.  0.
        -12    1    3    3    0    0  0.17438631489E+02  0.12411157085E+02 -0.34569129105E+02  0.40659161028E+02  0.00000000000E+00 0.  1.
         11    1    4    4    0    0 -0.44729359833E+01  0.46978910793E+01  0.13015156813E+02  0.14542064641E+02  0.51100000000E-03 0. -1.
        -11    1    4    4    0    0 -0.17974078754E+02 -0.11927068045E+02  0.15320953276E+02  0.26458534894E+02  0.51100000000E-03 0.  1.
        -12    1    4    4    0    0  0.50083832477E+01 -0.51819801201E+01  0.62330190158E+01  0.95282394372E+01  0.00000000000E+00 0.  1.
</event>
<event>
 8    1  0.2031623E-013  0.9118800E+02  0.7816164E-02  0.1184000E+00
        -11   -1    0    0    0    0  0.00000000000E+00  0.00000000000E+00  0.45593999997E+02  0.45594000000E+02  0.51100000000E-03 0. -1.
         11   -1    0    0    0    0 -0.00000000000E+00 -0.00000000000E+00 -0.45593999997E+02  0.45594000000E+02  0.51100000000E-03 0.  1.
         23    2    1    2    0    0  0.88817841970E-15  0.00000000000E+00  0.35527136788E-14  0.91188000000E+02  0.91188000000E+02 0.  0.
    9900012    2    3    3    0    0 -0.12251947236E+01 -0.35212357324E+02  0.20291747643E+02  0.50528853024E+02  0.29999979251E+02 0.  0.
        -12    1    3    3    0    0  0.12251947236E+01  0.35212357324E+02 -0.20291747643E+02  0.40659146976E+02  0.00000000000E+00 0.  1.
         11    1    4    4    0    0 -0.71796385717E+01 -0.95189425723E+01  0.54543267392E+01  0.13111337009E+02  0.51100000000E-03 0. -1.
        -11    1    4    4    0    0  0.10560522264E+02 -0.50768220063E+01  0.20382358108E+00  0.11719227640E+02  0.51100000000E-03 0.  1.
        -12    1    4    4    0    0 -0.46060784157E+01 -0.20616592746E+02  0.14633597322E+02  0.25698288375E+02  0.00000000000E+00 0.  1.
</event>
<event>
 8    1  0.2031623E-013  0.9118800E+02  0.7816164E-02  0.1184000E+00
        -11   -1    0    0    0    0  0.00000000000E+00  0.00000000000E+00  0.45593999997E+02  0.45594000000E+02  0.51100000000E-03 0.  1.
         11   -1    0    0    0    0 -0.00000000000E+00 -0.00000000000E+00 -0.45593999997E+02  0.45594000000E+02  0.51100000000E-03 0. -1.
         23    2    1    2    0    0  0.00000000000E+00 -0.88817841970E-15  0.00000000000E+00  0.91188000000E+02  0.91188000000E+02 0.  0.
    9900012    2    3    3    0    0 -0.39856172518E+02  0.53366329363E+01 -0.60143399711E+01  0.50528850671E+02  0.29999972099E+02 0.  0.
         12    1    3    3    0    0  0.39856172518E+02 -0.53366329363E+01  0.60143399711E+01  0.40659149329E+02  0.00000000000E+00 0. -1.
         11    1    4    4    0    0 -0.47888847261E+01  0.25308793777E+01  0.64661447460E+01  0.84350338162E+01  0.51100000000E-03 0. -1.
        -11    1    4    4    0    0 -0.34721788537E+02  0.69648664873E+01 -0.87087118871E+01  0.36468529274E+02  0.51100000000E-03 0.  1.
         12    1    4    4    0    0 -0.34549925485E+00 -0.41591129287E+01 -0.37717728300E+01  0.56252875810E+01  0.00000000000E+00 0. -1.
</event>
<event>
 8    1  0.2031623E-013  0.9118800E+02  0.7816164E-02  0.1184000E+00
        -11   -1    0    0    0    0  0.00000000000E+00  0.00000000000E+00  0.45593999997E+02  0.45594000000E+02  0.51100000000E-03 0. -1.
         11   -1    0    0    0    0 -0.00000000000E+00 -0.00000000000E+00 -0.45593999997E+02  0.45594000000E+02  0.51100000000E-03 0.  1.
         23    2    1    2    0    0  0.00000000000E+00 -0.71054273576E-14  0.00000000000E+00  0.91188000000E+02  0.91188000000E+02 0.  0.
    9900012    2    3    3    0    0  0.19727389839E+02  0.34594610968E+02  0.81981812967E+01  0.50528841198E+02  0.29999943305E+02 0.  0.
        -12    1    3    3    0    0 -0.19727389839E+02 -0.34594610968E+02 -0.81981812967E+01  0.40659158802E+02  0.00000000000E+00 0.  1.
         11    1    4    4    0    0  0.12397155720E+02  0.65896726265E+01  0.11700526525E+02  0.18276093031E+02  0.51100000000E-03 0. -1.
        -11    1    4    4    0    0  0.47594029631E+01  0.28575931640E+02 -0.47197008484E+01  0.29351513794E+02  0.51100000000E-03 0.  1.
        -12    1    4    4    0    0  0.25708311562E+01 -0.57099329794E+00  0.12173556205E+01  0.29012343729E+01  0.00000000000E+00 0.  1.
</event>
<event>
 8    1  0.2031623E-013  0.9118800E+02  0.7816164E-02  0.1184000E+00
        -11   -1    0    0    0    0  0.00000000000E+00  0.00000000000E+00  0.45593999997E+02  0.45594000000E+02  0.51100000000E-03 0. -1.
         11   -1    0    0    0    0 -0.00000000000E+00 -0.00000000000E+00 -0.45593999997E+02  0.45594000000E+02  0.51100000000E-03 0.  1.
         23    2    1    2    0    0  0.00000000000E+00  0.00000000000E+00  0.00000000000E+00  0.91188000000E+02  0.91188000000E+02 0.  0.
    9900012    2    3    3    0    0 -0.92520586315E+01 -0.26654225996E+02 -0.29276485187E+02  0.50528918145E+02  0.30000177193E+02 0.  0.
         12    1    3    3    0    0  0.92520586315E+01  0.26654225996E+02  0.29276485187E+02  0.40659081855E+02  0.00000000000E+00 0. -1.
         11    1    4    4    0    0 -0.96517845379E+01 -0.87138623822E+01  0.77035931338E-01  0.13003625540E+02  0.51100000000E-03 0. -1.
        -11    1    4    4    0    0 -0.26041729823E+01 -0.96475351618E-01 -0.12595927141E+02  0.12862674886E+02  0.51100000000E-03 0.  1.
         12    1    4    4    0    0  0.30038988887E+01 -0.17843888262E+02 -0.16757593977E+02  0.24662617719E+02  0.00000000000E+00 0. -1.
</event>
<event>
 8    1  0.2031623E-013  0.9118800E+02  0.7816164E-02  0.1184000E+00
        -11   -1    0    0    0    0  0.00000000000E+00  0.00000000000E+00  0.45593999997E+02  0.45594000000E+02  0.51100000000E-03 0. -1.
         11   -1    0    0    0    0 -0.00000000000E+00 -0.00000000000E+00 -0.45593999997E+02  0.45594000000E+02  0.51100000000E-03 0.  1.
         23    2    1    2    0    0  0.00000000000E+00 -0.83266726847E-16  0.00000000000E+00  0.91188000000E+02  0.91188000000E+02 0.  0.
    9900012    2    3    3    0    0 -0.18217043257E+02 -0.19575994323E-01  0.36349749195E+02  0.50528864313E+02  0.30000013567E+02 0.  0.
        -12    1    3    3    0    0  0.18217043257E+02  0.19575994323E-01 -0.36349749195E+02  0.40659135687E+02  0.00000000000E+00 0.  1.
         11    1    4    4    0    0  0.47083149794E+00 -0.48392010275E+01  0.12016527286E+02  0.12962888457E+02  0.51100000000E-03 0. -1.
        -11    1    4    4    0    0 -0.20693017666E+02  0.85733415853E+01  0.24640113168E+02  0.33299224364E+02  0.51100000000E-03 0.  1.
        -12    1    4    4    0    0  0.20051429112E+01 -0.37537165521E+01 -0.30689125915E+00  0.42667514918E+01  0.00000000000E+00 0.  1.
</event>
<event>
 8    1  0.2031623E-013  0.9118800E+02  0.7816164E-02  0.1184000E+00
        -11   -1    0    0    0    0  0.00000000000E+00  0.00000000000E+00  0.45593999997E+02  0.45594000000E+02  0.51100000000E-03 0. -1.
         11   -1    0    0    0    0 -0.00000000000E+00 -0.00000000000E+00 -0.45593999997E+02  0.45594000000E+02  0.51100000000E-03 0.  1.
         23    2    1    2    0    0 -0.35527136788E-14  0.00000000000E+00  0.00000000000E+00  0.91188000000E+02  0.91188000000E+02 0.  0.
    9900012    2    3    3    0    0  0.21971573939E+02 -0.21851740535E+02  0.26323318003E+02  0.50528859620E+02  0.29999999301E+02 0.  0.
        -12    1    3    3    0    0 -0.21971573939E+02  0.21851740535E+02 -0.26323318003E+02  0.40659140380E+02  0.00000000000E+00 0.  1.
         11    1    4    4    0    0 -0.23650537348E+01  0.32991191102E+00 -0.35937667424E+01  0.43147978745E+01  0.51100000000E-03 0.  1.
        -11    1    4    4    0    0  0.17692438468E+02 -0.18581099692E+02  0.28806507493E+02  0.38575828169E+02  0.51100000000E-03 0. -1.
         12    1    4    4    0    0  0.66441892058E+01 -0.36005527539E+01  0.11105772526E+01  0.76382335766E+01  0.00000000000E+00 0. -1.
</event>
<event>
 8    1  0.2031623E-013  0.9118800E+02  0.7816164E-02  0.1184000E+00
        -11   -1    0    0    0    0  0.00000000000E+00  0.00000000000E+00  0.45593999997E+02  0.45594000000E+02  0.51100000000E-03 0. -1.
         11   -1    0    0    0    0 -0.00000000000E+00 -0.00000000000E+00 -0.45593999997E+02  0.45594000000E+02  0.51100000000E-03 0.  1.
         23    2    1    2    0    0  0.88817841970E-15  0.00000000000E+00 -0.71054273576E-14  0.91188000000E+02  0.91188000000E+02 0.  0.
    9900012    2    3    3    0    0  0.70802850318E+01  0.19590089976E+02 -0.34917965895E+02  0.50528850923E+02  0.29999972866E+02 0.  0.
         12    1    3    3    0    0 -0.70802850318E+01 -0.19590089976E+02  0.34917965895E+02  0.40659149077E+02  0.00000000000E+00 0. -1.
         11    1    4    4    0    0 -0.73820442229E+01  0.36760232968E+01 -0.18105625888E+01  0.84430954831E+01  0.51100000000E-03 0. -1.
        -11    1    4    4    0    0  0.10011064794E+02  0.13871169706E+02 -0.33019141346E+02  0.37187288995E+02  0.51100000000E-03 0.  1.
         12    1    4    4    0    0  0.44512644604E+01  0.20428969731E+01 -0.88261960985E-01  0.48984664450E+01  0.00000000000E+00 0. -1.
</event>
<event>
 8    1  0.2031623E-013  0.9118800E+02  0.7816164E-02  0.1184000E+00
        -11   -1    0    0    0    0  0.00000000000E+00  0.00000000000E+00  0.45593999997E+02  0.45594000000E+02  0.51100000000E-03 0. -1.
         11   -1    0    0    0    0 -0.00000000000E+00 -0.00000000000E+00 -0.45593999997E+02  0.45594000000E+02  0.51100000000E-03 0.  1.
         23    2    1    2    0    0  0.71054273576E-14  0.22204460493E-15  0.00000000000E+00  0.91188000000E+02  0.91188000000E+02 0.  0.
    9900012    2    3    3    0    0  0.26138013491E+02 -0.11063064960E+01  0.31124667380E+02  0.50528873315E+02  0.30000040927E+02 0.  0.
        -12    1    3    3    0    0 -0.26138013491E+02  0.11063064960E+01 -0.31124667380E+02  0.40659126685E+02  0.00000000000E+00 0.  1.
         11    1    4    4    0    0  0.24945146105E+02  0.63271663239E-01  0.14608943329E+02  0.28908226217E+02  0.51100000000E-03 0. -1.
        -11    1    4    4    0    0 -0.33640682604E+01  0.11696893221E+01  0.16091364118E+02  0.16480810896E+02  0.51100000000E-03 0.  1.
        -12    1    4    4    0    0  0.45569356455E+01 -0.23392674814E+01  0.42435993298E+00  0.51398362016E+01  0.00000000000E+00 0.  1.
</event>
<event>
 8    1  0.2031623E-013  0.9118800E+02  0.7816164E-02  0.1184000E+00
        -11   -1    0    0    0    0  0.00000000000E+00  0.00000000000E+00  0.45593999997E+02  0.45594000000E+02  0.51100000000E-03 0. -1.
         11   -1    0    0    0    0 -0.00000000000E+00 -0.00000000000E+00 -0.45593999997E+02  0.45594000000E+02  0.51100000000E-03 0.  1.
         23    2    1    2    0    0 -0.17763568394E-14  0.00000000000E+00  0.00000000000E+00  0.91188000000E+02  0.91188000000E+02 0.  0.
    9900012    2    3    3    0    0 -0.14834399492E+02 -0.94157319696E+01  0.36666748826E+02  0.50528857286E+02  0.29999992205E+02 0.  0.
        -12    1    3    3    0    0  0.14834399492E+02  0.94157319696E+01 -0.36666748826E+02  0.40659142714E+02  0.00000000000E+00 0.  1.
         11    1    4    4    0    0 -0.37522071948E+01 -0.58243110815E+01  0.25397685273E+02  0.26325730301E+02  0.51100000000E-03 0. -1.
        -11    1    4    4    0    0 -0.36721883398E+01 -0.61276491602E+01 -0.31397658153E+01  0.78032801480E+01  0.51100000000E-03 0.  1.
         12    1    4    4    0    0 -0.74100039575E+01  0.25362282720E+01  0.14408829369E+02  0.16399846837E+02  0.00000000000E+00 0. -1.
</event>
<event>
 8    1  0.2031623E-013  0.9118800E+02  0.7816164E-02  0.1184000E+00
        -11   -1    0    0    0    0  0.00000000000E+00  0.00000000000E+00  0.45593999997E+02  0.45594000000E+02  0.51100000000E-03 0. -1.
         11   -1    0    0    0    0 -0.00000000000E+00 -0.00000000000E+00 -0.45593999997E+02  0.45594000000E+02  0.51100000000E-03 0.  1.
         23    2    1    2    0    0  0.17763568394E-14 -0.35527136788E-14 -0.35527136788E-14  0.91188000000E+02  0.91188000000E+02 0.  0.
    9900012    2    3    3    0    0  0.15510028266E+02 -0.28734681993E+02 -0.24226487457E+02  0.50528860553E+02  0.30000002138E+02 0.  0.
         12    1    3    3    0    0 -0.15510028266E+02  0.28734681993E+02  0.24226487457E+02  0.40659139447E+02  0.00000000000E+00 0. -1.
         11    1    4    4    0    0 -0.36206851669E+01 -0.13212258055E+02 -0.30149355783E+01  0.14027222134E+02  0.51100000000E-03 0. -1.
        -11    1    4    4    0    0  0.19568146219E+02 -0.84217178725E+01 -0.10781348424E+02  0.23876246616E+02  0.51100000000E-03 0.  1.
        -12    1    4    4    0    0 -0.43743278644E+00 -0.71007060654E+01 -0.10430203455E+02  0.12625391803E+02  0.00000000000E+00 0.  1.
</event>
<event>
 8    1  0.2031623E-013  0.9118800E+02  0.7816164E-02  0.1184000E+00
        -11   -1    0    0    0    0  0.00000000000E+00  0.00000000000E+00  0.45593999997E+02  0.45594000000E+02  0.51100000000E-03 0. -1.
         11   -1    0    0    0    0 -0.00000000000E+00 -0.00000000000E+00 -0.45593999997E+02  0.45594000000E+02  0.51100000000E-03 0.  1.
         23    2    1    2    0    0  0.00000000000E+00  0.00000000000E+00  0.00000000000E+00  0.91188000000E+02  0.91188000000E+02 0.  0.
    9900012    2    3    3    0    0 -0.11466059154E+02 -0.34050226737E+02  0.19033585165E+02  0.50528858130E+02  0.29999994771E+02 0.  0.
        -12    1    3    3    0    0  0.11466059154E+02  0.34050226737E+02 -0.19033585165E+02  0.40659141870E+02  0.00000000000E+00 0.  1.
         11    1    4    4    0    0 -0.30101631518E+01  0.58156784401E+00 -0.44266535920E+01  0.53846602161E+01  0.51100000000E-03 0. -1.
        -11    1    4    4    0    0 -0.70946352144E+01 -0.35181156529E+02  0.24402697919E+02  0.43399761399E+02  0.51100000000E-03 0.  1.
        -12    1    4    4    0    0 -0.13612607881E+01  0.54936194717E+00 -0.94245916167E+00  0.17444365146E+01  0.00000000000E+00 0.  1.
</event>
<event>
 8    1  0.2031623E-013  0.9118800E+02  0.7816164E-02  0.1184000E+00
        -11   -1    0    0    0    0  0.00000000000E+00  0.00000000000E+00  0.45593999997E+02  0.45594000000E+02  0.51100000000E-03 0. -1.
         11   -1    0    0    0    0 -0.00000000000E+00 -0.00000000000E+00 -0.45593999997E+02  0.45594000000E+02  0.51100000000E-03 0.  1.
         23    2    1    2    0    0  0.00000000000E+00  0.17763568394E-14  0.00000000000E+00  0.91188000000E+02  0.91188000000E+02 0.  0.
    9900012    2    3    3    0    0  0.20546319610E+02 -0.72722739076E+01  0.34323851778E+02  0.50528880258E+02  0.30000062033E+02 0.  0.
        -12    1    3    3    0    0 -0.20546319610E+02  0.72722739076E+01 -0.34323851778E+02  0.40659119742E+02  0.00000000000E+00 0.  1.
         11    1    4    4    0    0  0.14222667010E+01 -0.15493502820E+02  0.10126367786E+02  0.18563803409E+02  0.51100000000E-03 0. -1.
        -11    1    4    4    0    0  0.12271001875E+02  0.59370700421E+01  0.16634300812E+02  0.21506423493E+02  0.51100000000E-03 0.  1.
         12    1    4    4    0    0  0.68530510336E+01  0.22841588700E+01  0.75631831798E+01  0.10458653356E+02  0.00000000000E+00 0. -1.
</event>
<event>
 8    1  0.2031623E-013  0.9118800E+02  0.7816164E-02  0.1184000E+00
        -11   -1    0    0    0    0  0.00000000000E+00  0.00000000000E+00  0.45593999997E+02  0.45594000000E+02  0.51100000000E-03 0. -1.
         11   -1    0    0    0    0 -0.00000000000E+00 -0.00000000000E+00 -0.45593999997E+02  0.45594000000E+02  0.51100000000E-03 0.  1.
         23    2    1    2    0    0 -0.88817841970E-15 -0.35527136788E-14 -0.35527136788E-14  0.91188000000E+02  0.91188000000E+02 0.  0.
    9900012    2    3    3    0    0  0.72099399434E+01  0.26726156919E+02  0.29780783426E+02  0.50528858850E+02  0.29999996959E+02 0.  0.
        -12    1    3    3    0    0 -0.72099399434E+01 -0.26726156919E+02 -0.29780783426E+02  0.40659141150E+02  0.00000000000E+00 0.  1.
         11    1    4    4    0    0 -0.89005409763E+01  0.15835636454E+02  0.13424720106E+02  0.22587831276E+02  0.51100000000E-03 0. -1.
        -11    1    4    4    0    0  0.13422417402E+02  0.32429289416E+01  0.13593895698E+02  0.19377096726E+02  0.51100000000E-03 0.  1.
         12    1    4    4    0    0  0.26880635179E+01  0.76475915235E+01  0.27621676218E+01  0.85639308473E+01  0.00000000000E+00 0. -1.
</event>
<event>
 8    1  0.2031623E-013  0.9118800E+02  0.7816164E-02  0.1184000E+00
        -11   -1    0    0    0    0  0.00000000000E+00  0.00000000000E+00  0.45593999997E+02  0.45594000000E+02  0.51100000000E-03 0. -1.
         11   -1    0    0    0    0 -0.00000000000E+00 -0.00000000000E+00 -0.45593999997E+02  0.45594000000E+02  0.51100000000E-03 0.  1.
         23    2    1    2    0    0  0.00000000000E+00  0.00000000000E+00  0.17763568394E-14  0.91188000000E+02  0.91188000000E+02 0.  0.
    9900012    2    3    3    0    0  0.35839546858E+02  0.11102673540E+02 -0.15666023021E+02  0.50528846590E+02  0.29999959695E+02 0.  0.
         12    1    3    3    0    0 -0.35839546858E+02 -0.11102673540E+02  0.15666023021E+02  0.40659153410E+02  0.00000000000E+00 0. -1.
         11    1    4    4    0    0  0.12850463713E+01  0.11291337581E+02 -0.63446454940E+01  0.13015382255E+02  0.51100000000E-03 0. -1.
        -11    1    4    4    0    0  0.20136929638E+02 -0.37010173625E+01 -0.99622450565E+00  0.20498437215E+02  0.51100000000E-03 0.  1.
        -12    1    4    4    0    0  0.14417570849E+02  0.35123533214E+01 -0.83251530213E+01  0.17015027120E+02  0.00000000000E+00 0.  1.
</event>
<event>
 8    1  0.2031623E-013  0.9118800E+02  0.7816164E-02  0.1184000E+00
        -11   -1    0    0    0    0  0.00000000000E+00  0.00000000000E+00  0.45593999997E+02  0.45594000000E+02  0.51100000000E-03 0. -1.
         11   -1    0    0    0    0 -0.00000000000E+00 -0.00000000000E+00 -0.45593999997E+02  0.45594000000E+02  0.51100000000E-03 0.  1.
         23    2    1    2    0    0 -0.88817841970E-15  0.00000000000E+00  0.00000000000E+00  0.91188000000E+02  0.91188000000E+02 0.  0.
    9900012    2    3    3    0    0  0.31786669831E+01 -0.36747532581E+02  0.17107914590E+02  0.50528858147E+02  0.29999994823E+02 0.  0.
        -12    1    3    3    0    0 -0.31786669831E+01  0.36747532581E+02 -0.17107914590E+02  0.40659141853E+02  0.00000000000E+00 0.  1.
         11    1    4    4    0    0  0.58370543879E+01 -0.34755709173E+01  0.73305642106E+01  0.99943968820E+01  0.51100000000E-03 0. -1.
        -11    1    4    4    0    0 -0.28378156269E+00 -0.34005866831E+02  0.13049990544E+02  0.36425015640E+02  0.51100000000E-03 0.  1.
        -12    1    4    4    0    0 -0.23746058421E+01  0.73390516713E+00 -0.32726401643E+01  0.41094456250E+01  0.00000000000E+00 0.  1.
</event>
<event>
 8    1  0.2031623E-013  0.9118800E+02  0.7816164E-02  0.1184000E+00
        -11   -1    0    0    0    0  0.00000000000E+00  0.00000000000E+00  0.45593999997E+02  0.45594000000E+02  0.51100000000E-03 0. -1.
         11   -1    0    0    0    0 -0.00000000000E+00 -0.00000000000E+00 -0.45593999997E+02  0.45594000000E+02  0.51100000000E-03 0.  1.
         23    2    1    2    0    0  0.00000000000E+00 -0.17763568394E-14  0.00000000000E+00  0.91188000000E+02  0.91188000000E+02 0.  0.
    9900012    2    3    3    0    0 -0.30433255691E+02  0.15036553104E+02  0.22380449386E+02  0.50528862086E+02  0.30000006797E+02 0.  0.
        -12    1    3    3    0    0  0.30433255691E+02 -0.15036553104E+02 -0.22380449386E+02  0.40659137914E+02  0.00000000000E+00 0.  1.
         11    1    4    4    0    0 -0.19313761087E+01  0.13004061269E+02 -0.11396189439E+00  0.13147197828E+02  0.51100000000E-03 0.  1.
        -11    1    4    4    0    0 -0.21349376027E+02  0.40485102748E+01  0.12988320216E+02  0.25315662236E+02  0.51100000000E-03 0. -1.
        -12    1    4    4    0    0 -0.71525035552E+01 -0.20160184399E+01  0.95060910645E+01  0.12066002022E+02  0.00000000000E+00 0.  1.
</event>
<event>
 8    1  0.2031623E-013  0.9118800E+02  0.7816164E-02  0.1184000E+00
        -11   -1    0    0    0    0  0.00000000000E+00  0.00000000000E+00  0.45593999997E+02  0.45594000000E+02  0.51100000000E-03 0. -1.
         11   -1    0    0    0    0 -0.00000000000E+00 -0.00000000000E+00 -0.45593999997E+02  0.45594000000E+02  0.51100000000E-03 0.  1.
         23    2    1    2    0    0  0.00000000000E+00  0.00000000000E+00  0.00000000000E+00  0.91188000000E+02  0.91188000000E+02 0.  0.
    9900012    2    3    3    0    0 -0.21294281967E+02 -0.56030357295E+01 -0.34180725396E+02  0.50528899635E+02  0.30000120931E+02 0.  0.
         12    1    3    3    0    0  0.21294281967E+02  0.56030357295E+01  0.34180725396E+02  0.40659100365E+02  0.00000000000E+00 0. -1.
         11    1    4    4    0    0 -0.22416297363E+01  0.15428376463E+01  0.23127752479E+01  0.35712996914E+01  0.51100000000E-03 0. -1.
        -11    1    4    4    0    0 -0.23393717409E+02 -0.40426626516E+01 -0.26151656971E+02  0.35320225057E+02  0.51100000000E-03 0.  1.
        -12    1    4    4    0    0  0.43410651784E+01 -0.31032107243E+01 -0.10341843673E+02  0.11637374886E+02  0.00000000000E+00 0.  1.
</event>
<event>
 8    1  0.2031623E-013  0.9118800E+02  0.7816164E-02  0.1184000E+00
        -11   -1    0    0    0    0  0.00000000000E+00  0.00000000000E+00  0.45593999997E+02  0.45594000000E+02  0.51100000000E-03 0. -1.
         11   -1    0    0    0    0 -0.00000000000E+00 -0.00000000000E+00 -0.45593999997E+02  0.45594000000E+02  0.51100000000E-03 0.  1.
         23    2    1    2    0    0 -0.17763568394E-14  0.00000000000E+00  0.35527136788E-14  0.91188000000E+02  0.91188000000E+02 0.  0.
    9900012    2    3    3    0    0  0.11074597753E+02  0.25676196721E+02 -0.29516971942E+02  0.50528862945E+02  0.30000009407E+02 0.  0.
         12    1    3    3    0    0 -0.11074597753E+02 -0.25676196721E+02  0.29516971942E+02  0.40659137055E+02  0.00000000000E+00 0. -1.
         11    1    4    4    0    0  0.16323546679E+02  0.84859295565E+01 -0.21425210156E+02  0.28240198425E+02  0.51100000000E-03 0.  1.
        -11    1    4    4    0    0 -0.71123397242E+01  0.15693785819E+02 -0.93331123073E+01  0.19595593262E+02  0.51100000000E-03 0. -1.
         12    1    4    4    0    0  0.18633907980E+01  0.14964813457E+01  0.12413505210E+01  0.26930712579E+01  0.00000000000E+00 0. -1.
</event>
<event>
 8    1  0.2031623E-013  0.9118800E+02  0.7816164E-02  0.1184000E+00
        -11   -1    0    0    0    0  0.00000000000E+00  0.00000000000E+00  0.45593999997E+02  0.45594000000E+02  0.51100000000E-03 0. -1.
         11   -1    0    0    0    0 -0.00000000000E+00 -0.00000000000E+00 -0.45593999997E+02  0.45594000000E+02  0.51100000000E-03 0.  1.
         23    2    1    2    0    0  0.00000000000E+00  0.35527136788E-14  0.00000000000E+00  0.91188000000E+02  0.91188000000E+02 0.  0.
    9900012    2    3    3    0    0  0.10784616696E+02  0.31070272984E+02  0.23905954998E+02  0.50528874273E+02  0.30000043839E+02 0.  0.
        -12    1    3    3    0    0 -0.10784616696E+02 -0.31070272984E+02 -0.23905954998E+02  0.40659125727E+02  0.00000000000E+00 0.  1.
         11    1    4    4    0    0  0.10642342773E+01 -0.82268814449E+00  0.10116332544E+02  0.10205370879E+02  0.51100000000E-03 0. -1.
        -11    1    4    4    0    0 -0.34975795590E+01  0.13975019075E+02  0.54527602986E+00  0.14416363866E+02  0.51100000000E-03 0.  1.
         12    1    4    4    0    0  0.13217961978E+02  0.17917942053E+02  0.13244346424E+02  0.25907139527E+02  0.00000000000E+00 0. -1.
</event>
<event>
 8    1  0.2031623E-013  0.9118800E+02  0.7816164E-02  0.1184000E+00
        -11   -1    0    0    0    0  0.00000000000E+00  0.00000000000E+00  0.45593999997E+02  0.45594000000E+02  0.51100000000E-03 0.  1.
         11   -1    0    0    0    0 -0.00000000000E+00 -0.00000000000E+00 -0.45593999997E+02  0.45594000000E+02  0.51100000000E-03 0. -1.
         23    2    1    2    0    0  0.00000000000E+00  0.00000000000E+00  0.71054273576E-14  0.91188000000E+02  0.91188000000E+02 0.  0.
    9900012    2    3    3    0    0  0.32592210279E+02  0.98376942206E+01  0.22229092745E+02  0.50528868643E+02  0.30000026728E+02 0.  0.
        -12    1    3    3    0    0 -0.32592210279E+02 -0.98376942206E+01 -0.22229092745E+02  0.40659131357E+02  0.00000000000E+00 0.  1.
         11    1    4    4    0    0 -0.22324063940E+01  0.78382933481E+01  0.25570131242E+01  0.85417092726E+01  0.51100000000E-03 0. -1.
        -11    1    4    4    0    0  0.23335979046E+02  0.46490086782E+00  0.19469337792E+02  0.30394722653E+02  0.51100000000E-03 0.  1.
         12    1    4    4    0    0  0.11488637627E+02  0.15345000046E+01  0.20274182827E+00  0.11592436717E+02  0.00000000000E+00 0. -1.
</event>
<event>
 8    1  0.2031623E-013  0.9118800E+02  0.7816164E-02  0.1184000E+00
        -11   -1    0    0    0    0  0.00000000000E+00  0.00000000000E+00  0.45593999997E+02  0.45594000000E+02  0.51100000000E-03 0. -1.
         11   -1    0    0    0    0 -0.00000000000E+00 -0.00000000000E+00 -0.45593999997E+02  0.45594000000E+02  0.51100000000E-03 0.  1.
         23    2    1    2    0    0  0.00000000000E+00  0.00000000000E+00  0.00000000000E+00  0.91188000000E+02  0.91188000000E+02 0.  0.
    9900012    2    3    3    0    0 -0.21012215596E+02 -0.30426828490E+02 -0.16907399693E+02  0.50528864980E+02  0.30000015592E+02 0.  0.
         12    1    3    3    0    0  0.21012215596E+02  0.30426828490E+02  0.16907399693E+02  0.40659135020E+02  0.00000000000E+00 0. -1.
         11    1    4    4    0    0  0.36459176390E+01 -0.36853216160E+01 -0.51781817864E+01  0.73272012200E+01  0.51100000000E-03 0. -1.
        -11    1    4    4    0    0 -0.20976422520E+02 -0.19633824315E+02  0.32315847573E+00  0.28733287154E+02  0.51100000000E-03 0.  1.
        -12    1    4    4    0    0 -0.36817107145E+01 -0.71076825590E+01 -0.12052376382E+02  0.14468376606E+02  0.00000000000E+00 0.  1.
</event>
<event>
 8    1  0.2031623E-013  0.9118800E+02  0.7816164E-02  0.1184000E+00
        -11   -1    0    0    0    0  0.00000000000E+00  0.00000000000E+00  0.45593999997E+02  0.45594000000E+02  0.51100000000E-03 0. -1.
         11   -1    0    0    0    0 -0.00000000000E+00 -0.00000000000E+00 -0.45593999997E+02  0.45594000000E+02  0.51100000000E-03 0.  1.
         23    2    1    2    0    0 -0.71054273576E-14  0.53290705182E-14  0.17763568394E-14  0.91188000000E+02  0.91188000000E+02 0.  0.
    9900012    2    3    3    0    0 -0.36507285695E+02  0.10086168411E+02  0.14786878539E+02  0.50528874592E+02  0.30000044810E+02 0.  0.
        -12    1    3    3    0    0  0.36507285695E+02 -0.10086168411E+02 -0.14786878539E+02  0.40659125408E+02  0.00000000000E+00 0.  1.
         11    1    4    4    0    0 -0.11299106505E+02  0.11890742085E+02  0.58987634493E+01  0.17431436132E+02  0.51100000000E-03 0. -1.
        -11    1    4    4    0    0 -0.19103745804E+02 -0.70571731831E+01 -0.94493681258E+00  0.20387488882E+02  0.51100000000E-03 0.  1.
        -12    1    4    4    0    0 -0.61044333867E+01  0.52525995091E+01  0.98330519018E+01  0.12709949578E+02  0.00000000000E+00 0.  1.
</event>
<event>
 8    1  0.2031623E-013  0.9118800E+02  0.7816164E-02  0.1184000E+00
        -11   -1    0    0    0    0  0.00000000000E+00  0.00000000000E+00  0.45593999997E+02  0.45594000000E+02  0.51100000000E-03 0.  1.
         11   -1    0    0    0    0 -0.00000000000E+00 -0.00000000000E+00 -0.45593999997E+02  0.45594000000E+02  0.51100000000E-03 0. -1.
         23    2    1    2    0    0  0.17763568394E-14  0.00000000000E+00 -0.22204460493E-15  0.91188000000E+02  0.91188000000E+02 0.  0.
    9900012    2    3    3    0    0  0.14814938266E+02  0.37856193023E+02 -0.76949042950E+00  0.50528857590E+02  0.29999993129E+02 0.  0.
        -12    1    3    3    0    0 -0.14814938266E+02 -0.37856193023E+02  0.76949042950E+00  0.40659142410E+02  0.00000000000E+00 0.  1.
         11    1    4    4    0    0  0.13208005767E+02  0.32093105996E+02  0.44404656827E+01  0.34987663605E+02  0.51100000000E-03 0. -1.
        -11    1    4    4    0    0  0.21467309531E+01 -0.24543454470E+01 -0.64363983436E+01  0.72152262097E+01  0.51100000000E-03 0.  1.
         12    1    4    4    0    0 -0.53979845426E+00  0.82174324745E+01  0.12264422314E+01  0.83259677750E+01  0.00000000000E+00 0. -1.
</event>
<event>
 8    1  0.2031623E-013  0.9118800E+02  0.7816164E-02  0.1184000E+00
        -11   -1    0    0    0    0  0.00000000000E+00  0.00000000000E+00  0.45593999997E+02  0.45594000000E+02  0.51100000000E-03 0. -1.
         11   -1    0    0    0    0 -0.00000000000E+00 -0.00000000000E+00 -0.45593999997E+02  0.45594000000E+02  0.51100000000E-03 0.  1.
         23    2    1    2    0    0  0.00000000000E+00  0.00000000000E+00  0.00000000000E+00  0.91188000000E+02  0.91188000000E+02 0.  0.
    9900012    2    3    3    0    0 -0.31341570080E+02  0.18151464013E+02  0.18476876622E+02  0.50528872727E+02  0.30000039141E+02 0.  0.
        -12    1    3    3    0    0  0.31341570080E+02 -0.18151464013E+02 -0.18476876622E+02  0.40659127273E+02  0.00000000000E+00 0.  1.
         11    1    4    4    0    0 -0.30982449865E+02  0.12988774051E+02  0.31462307005E+01  0.33741950430E+02  0.51100000000E-03 0. -1.
        -11    1    4    4    0    0 -0.11002787779E+01 -0.24482790533E+00  0.47443432425E+01  0.48764071975E+01  0.51100000000E-03 0.  1.
         12    1    4    4    0    0  0.74115856305E+00  0.54075178677E+01  0.10586302680E+02  0.11910515099E+02  0.00000000000E+00 0. -1.
</event>
<event>
 8    1  0.2031623E-013  0.9118800E+02  0.7816164E-02  0.1184000E+00
        -11   -1    0    0    0    0  0.00000000000E+00  0.00000000000E+00  0.45593999997E+02  0.45594000000E+02  0.51100000000E-03 0.  1.
         11   -1    0    0    0    0 -0.00000000000E+00 -0.00000000000E+00 -0.45593999997E+02  0.45594000000E+02  0.51100000000E-03 0. -1.
         23    2    1    2    0    0  0.00000000000E+00  0.00000000000E+00  0.00000000000E+00  0.91188000000E+02  0.91188000000E+02 0.  0.
    9900012    2    3    3    0    0 -0.21913457606E+02 -0.32161826707E+02 -0.11772148181E+02  0.50528853499E+02  0.29999980696E+02 0.  0.
         12    1    3    3    0    0  0.21913457606E+02  0.32161826707E+02  0.11772148181E+02  0.40659146501E+02  0.00000000000E+00 0. -1.
         11    1    4    4    0    0 -0.39732561599E+01 -0.24848921804E+02 -0.83380611081E+01  0.26509978171E+02  0.51100000000E-03 0. -1.
        -11    1    4    4    0    0 -0.14806332482E+02 -0.10752255538E+02 -0.10726068466E+00  0.18298906684E+02  0.51100000000E-03 0.  1.
         12    1    4    4    0    0 -0.31338689638E+01  0.34393506344E+01 -0.33268263880E+01  0.57199686437E+01  0.00000000000E+00 0. -1.
</event>
<event>
 8    1  0.2031623E-013  0.9118800E+02  0.7816164E-02  0.1184000E+00
        -11   -1    0    0    0    0  0.00000000000E+00  0.00000000000E+00  0.45593999997E+02  0.45594000000E+02  0.51100000000E-03 0. -1.
         11   -1    0    0    0    0 -0.00000000000E+00 -0.00000000000E+00 -0.45593999997E+02  0.45594000000E+02  0.51100000000E-03 0.  1.
         23    2    1    2    0    0  0.88817841970E-15  0.00000000000E+00  0.00000000000E+00  0.91188000000E+02  0.91188000000E+02 0.  0.
    9900012    2    3    3    0    0  0.70364807335E+01 -0.18836659193E+02 -0.35338862670E+02  0.50528843523E+02  0.29999950372E+02 0.  0.
         12    1    3    3    0    0 -0.70364807335E+01  0.18836659193E+02  0.35338862670E+02  0.40659156477E+02  0.00000000000E+00 0. -1.
         11    1    4    4    0    0  0.48412203889E+01  0.24230154984E+01 -0.13339536804E+02  0.14396237750E+02  0.51100000000E-03 0. -1.
        -11    1    4    4    0    0 -0.29988827365E+01 -0.70385543844E+01  0.18613515974E+01  0.78739555193E+01  0.51100000000E-03 0.  1.
        -12    1    4    4    0    0  0.51941430812E+01 -0.14221120307E+02 -0.23860677463E+02  0.28258650253E+02  0.00000000000E+00 0.  1.
</event>
<event>
 8    1  0.2031623E-013  0.9118800E+02  0.7816164E-02  0.1184000E+00
        -11   -1    0    0    0    0  0.00000000000E+00  0.00000000000E+00  0.45593999997E+02  0.45594000000E+02  0.51100000000E-03 0. -1.
         11   -1    0    0    0    0 -0.00000000000E+00 -0.00000000000E+00 -0.45593999997E+02  0.45594000000E+02  0.51100000000E-03 0.  1.
         23    2    1    2    0    0 -0.17763568394E-14  0.00000000000E+00  0.00000000000E+00  0.91188000000E+02  0.91188000000E+02 0.  0.
    9900012    2    3    3    0    0  0.11043002191E+02 -0.21448898369E+02  0.32728612886E+02  0.50528865232E+02  0.30000016361E+02 0.  0.
        -12    1    3    3    0    0 -0.11043002191E+02  0.21448898369E+02 -0.32728612886E+02  0.40659134768E+02  0.00000000000E+00 0.  1.
         11    1    4    4    0    0  0.75622926914E+01 -0.87846607371E+01  0.41588869027E+01  0.12314823407E+02  0.51100000000E-03 0. -1.
        -11    1    4    4    0    0  0.80106302034E+01 -0.11837584625E+02  0.30133065380E+02  0.33351165429E+02  0.51100000000E-03 0.  1.
        -12    1    4    4    0    0 -0.45299207041E+01 -0.82665300646E+00 -0.15633393969E+01  0.48628763966E+01  0.00000000000E+00 0.  1.
</event>
<event>
 8    1  0.2031623E-013  0.9118800E+02  0.7816164E-02  0.1184000E+00
        -11   -1    0    0    0    0  0.00000000000E+00  0.00000000000E+00  0.45593999997E+02  0.45594000000E+02  0.51100000000E-03 0. -1.
         11   -1    0    0    0    0 -0.00000000000E+00 -0.00000000000E+00 -0.45593999997E+02  0.45594000000E+02  0.51100000000E-03 0.  1.
         23    2    1    2    0    0  0.00000000000E+00  0.88817841970E-15  0.00000000000E+00  0.91188000000E+02  0.91188000000E+02 0.  0.
    9900012    2    3    3    0    0  0.17419716313E+02 -0.25754148245E+01  0.36648141255E+02  0.50528861601E+02  0.30000005322E+02 0.  0.
        -12    1    3    3    0    0 -0.17419716313E+02  0.25754148245E+01 -0.36648141255E+02  0.40659138399E+02  0.00000000000E+00 0.  1.
         11    1    4    4    0    0  0.19789722255E+01  0.19707118713E+01  0.54228106966E+01  0.60997469179E+01  0.51100000000E-03 0. -1.
        -11    1    4    4    0    0  0.30266308017E+00  0.23980805938E+01  0.27183638839E+02  0.27290888888E+02  0.51100000000E-03 0.  1.
        -12    1    4    4    0    0  0.15138081007E+02 -0.69442072896E+01  0.40416917186E+01  0.17138225795E+02  0.00000000000E+00 0.  1.
</event>
<event>
 8    1  0.2246095E-013  0.9118800E+02  0.7816164E-02  0.1184000E+00
        -11   -1    0    0    0    0  0.00000000000E+00  0.00000000000E+00  0.45593999997E+02  0.45594000000E+02  0.51100000000E-03 0. -1.
         11   -1    0    0    0    0 -0.00000000000E+00 -0.00000000000E+00 -0.45593999997E+02  0.45594000000E+02  0.51100000000E-03 0.  1.
         23    2    1    2    0    0 -0.44408920985E-15  0.35527136788E-14  0.00000000000E+00  0.91188000000E+02  0.91188000000E+02 0.  0.
    9900012    2    3    3    0    0  0.28412568771E+01 -0.20084277207E+02 -0.35237965478E+02  0.50528866431E+02  0.30000020003E+02 0.  0.
         12    1    3    3    0    0 -0.28412568771E+01  0.20084277207E+02  0.35237965478E+02  0.40659133569E+02  0.00000000000E+00 0. -1.
         11    1    4    4    0    0 -0.33349522497E+01  0.15017606030E+01  0.24788622712E+01  0.44183650639E+01  0.51100000000E-03 0. -1.
        -11    1    4    4    0    0  0.10254695816E+02 -0.11418925090E+02 -0.24900739410E+02  0.29250597600E+02  0.51100000000E-03 0.  1.
         12    1    4    4    0    0 -0.40784866892E+01 -0.10167112720E+02 -0.12816088339E+02  0.16859903767E+02  0.00000000000E+00 0. -1.
</event>
<event>
 8    1  0.2031623E-013  0.9118800E+02  0.7816164E-02  0.1184000E+00
        -11   -1    0    0    0    0  0.00000000000E+00  0.00000000000E+00  0.45593999997E+02  0.45594000000E+02  0.51100000000E-03 0. -1.
         11   -1    0    0    0    0 -0.00000000000E+00 -0.00000000000E+00 -0.45593999997E+02  0.45594000000E+02  0.51100000000E-03 0.  1.
         23    2    1    2    0    0  0.88817841970E-15  0.00000000000E+00 -0.71054273576E-14  0.91188000000E+02  0.91188000000E+02 0.  0.
    9900012    2    3    3    0    0 -0.44865966921E+01 -0.21603921071E+02  0.34151234317E+02  0.50528858827E+02  0.29999996892E+02 0.  0.
        -12    1    3    3    0    0  0.44865966921E+01  0.21603921071E+02 -0.34151234317E+02  0.40659141173E+02  0.00000000000E+00 0.  1.
         11    1    4    4    0    0 -0.12076484746E+02 -0.83687655874E+01  0.21888965830E+02  0.26362938885E+02  0.51100000000E-03 0. -1.
        -11    1    4    4    0    0  0.49923928335E+01  0.16290948391E+01  0.10218320550E+01  0.53499604866E+01  0.51100000000E-03 0.  1.
        -12    1    4    4    0    0  0.25974952203E+01 -0.14864250322E+02  0.11240436432E+02  0.18815959456E+02  0.00000000000E+00 0.  1.
</event>
<event>
 8    1  0.2031623E-013  0.9118800E+02  0.7816164E-02  0.1184000E+00
        -11   -1    0    0    0    0  0.00000000000E+00  0.00000000000E+00  0.45593999997E+02  0.45594000000E+02  0.51100000000E-03 0. -1.
         11   -1    0    0    0    0 -0.00000000000E+00 -0.00000000000E+00 -0.45593999997E+02  0.45594000000E+02  0.51100000000E-03 0.  1.
         23    2    1    2    0    0  0.00000000000E+00  0.88817841970E-15 -0.71054273576E-14  0.91188000000E+02  0.91188000000E+02 0.  0.
    9900012    2    3    3    0    0 -0.13855666552E+02 -0.58328088160E+01  0.37777835459E+02  0.50528855810E+02  0.29999987720E+02 0.  0.
        -12    1    3    3    0    0  0.13855666552E+02  0.58328088160E+01 -0.37777835459E+02  0.40659144190E+02  0.00000000000E+00 0.  1.
         11    1    4    4    0    0 -0.36970020472E+01  0.47198915892E+00  0.17503876480E+02  0.17896264694E+02  0.51100000000E-03 0. -1.
        -11    1    4    4    0    0 -0.62731739940E+01 -0.17396924372E+01 -0.39924457838E+01  0.76366789465E+01  0.51100000000E-03 0.  1.
        -12    1    4    4    0    0 -0.38854905106E+01 -0.45651055378E+01  0.24266404762E+02  0.24995912169E+02  0.00000000000E+00 0.  1.
</event>
<event>
 8    1  0.2031623E-013  0.9118800E+02  0.7816164E-02  0.1184000E+00
        -11   -1    0    0    0    0  0.00000000000E+00  0.00000000000E+00  0.45593999997E+02  0.45594000000E+02  0.51100000000E-03 0. -1.
         11   -1    0    0    0    0 -0.00000000000E+00 -0.00000000000E+00 -0.45593999997E+02  0.45594000000E+02  0.51100000000E-03 0.  1.
         23    2    1    2    0    0  0.00000000000E+00  0.17763568394E-14 -0.35527136788E-14  0.91188000000E+02  0.91188000000E+02 0.  0.
    9900012    2    3    3    0    0  0.26843446345E+02  0.10253828189E+02  0.28765439565E+02  0.50528903631E+02  0.30000133075E+02 0.  0.
        -12    1    3    3    0    0 -0.26843446345E+02 -0.10253828189E+02 -0.28765439565E+02  0.40659096369E+02  0.00000000000E+00 0.  1.
         11    1    4    4    0    0  0.20178132602E+02  0.18971633062E+02  0.20224258417E+02  0.34294322054E+02  0.51100000000E-03 0. -1.
        -11    1    4    4    0    0  0.53675825319E+01 -0.76990611109E+01  0.10223507670E+02  0.13878277760E+02  0.51100000000E-03 0.  1.
        -12    1    4    4    0    0  0.12977312111E+01 -0.10187437615E+01 -0.16823265230E+01  0.23563038169E+01  0.00000000000E+00 0.  1.
</event>
<event>
 8    1  0.2031623E-013  0.9118800E+02  0.7816164E-02  0.1184000E+00
        -11   -1    0    0    0    0  0.00000000000E+00  0.00000000000E+00  0.45593999997E+02  0.45594000000E+02  0.51100000000E-03 0. -1.
         11   -1    0    0    0    0 -0.00000000000E+00 -0.00000000000E+00 -0.45593999997E+02  0.45594000000E+02  0.51100000000E-03 0.  1.
         23    2    1    2    0    0  0.00000000000E+00  0.00000000000E+00  0.00000000000E+00  0.91188000000E+02  0.91188000000E+02 0.  0.
    9900012    2    3    3    0    0 -0.25303856607E+02  0.53437776654E+01 -0.31373948898E+02  0.50528858489E+02  0.29999995863E+02 0.  0.
         12    1    3    3    0    0  0.25303856607E+02 -0.53437776654E+01  0.31373948898E+02  0.40659141511E+02  0.00000000000E+00 0. -1.
         11    1    4    4    0    0 -0.18845898026E+01  0.97781110756E+01  0.76873011025E+00  0.99876964899E+01  0.51100000000E-03 0. -1.
        -11    1    4    4    0    0 -0.89955445304E+01 -0.68209211983E-02 -0.16593602249E+02  0.18875049769E+02  0.51100000000E-03 0.  1.
         12    1    4    4    0    0 -0.14423722274E+02 -0.44275124890E+01 -0.15549076759E+02  0.21666112230E+02  0.00000000000E+00 0. -1.
</event>
<event>
 8    1  0.2031623E-013  0.9118800E+02  0.7816164E-02  0.1184000E+00
        -11   -1    0    0    0    0  0.00000000000E+00  0.00000000000E+00  0.45593999997E+02  0.45594000000E+02  0.51100000000E-03 0. -1.
         11   -1    0    0    0    0 -0.00000000000E+00 -0.00000000000E+00 -0.45593999997E+02  0.45594000000E+02  0.51100000000E-03 0.  1.
         23    2    1    2    0    0 -0.88817841970E-15  0.00000000000E+00  0.00000000000E+00  0.91188000000E+02  0.91188000000E+02 0.  0.
    9900012    2    3    3    0    0  0.65999564300E+01  0.11189679609E+02  0.38527883435E+02  0.50528853961E+02  0.29999982099E+02 0.  0.
        -12    1    3    3    0    0 -0.65999564300E+01 -0.11189679609E+02 -0.38527883435E+02  0.40659146039E+02  0.00000000000E+00 0.  1.
         11    1    4    4    0    0 -0.57116114231E+01  0.48217002436E+01  0.14390874375E+02  0.16216305493E+02  0.51100000000E-03 0. -1.
        -11    1    4    4    0    0  0.98583185904E+01  0.62053016756E+01  0.17363882178E+01  0.11777404579E+02  0.51100000000E-03 0.  1.
        -12    1    4    4    0    0  0.24532492626E+01  0.16267769034E+00  0.22400620842E+02  0.22535143889E+02  0.00000000000E+00 0.  1.
</event>
<event>
 8    1  0.2031623E-013  0.9118800E+02  0.7816164E-02  0.1184000E+00
        -11   -1    0    0    0    0  0.00000000000E+00  0.00000000000E+00  0.45593999997E+02  0.45594000000E+02  0.51100000000E-03 0.  1.
         11   -1    0    0    0    0 -0.00000000000E+00 -0.00000000000E+00 -0.45593999997E+02  0.45594000000E+02  0.51100000000E-03 0. -1.
         23    2    1    2    0    0  0.00000000000E+00  0.00000000000E+00  0.00000000000E+00  0.91188000000E+02  0.91188000000E+02 0.  0.
    9900012    2    3    3    0    0  0.31899633438E+02  0.17880252169E+02  0.17772918178E+02  0.50528847873E+02  0.29999963595E+02 0.  0.
        -12    1    3    3    0    0 -0.31899633438E+02 -0.17880252169E+02 -0.17772918178E+02  0.40659152127E+02  0.00000000000E+00 0.  1.
         11    1    4    4    0    0  0.17631998077E+02  0.99155000654E+01  0.10550450560E+01  0.20256298232E+02  0.51100000000E-03 0. -1.
        -11    1    4    4    0    0  0.31273132578E+01  0.70859059660E+01  0.17431571653E+02  0.19074848417E+02  0.51100000000E-03 0.  1.
        -12    1    4    4    0    0  0.11140322103E+02  0.87884613770E+00 -0.71369853148E+00  0.11197701224E+02  0.00000000000E+00 0.  1.
</event>
<event>
 8    1  0.2031623E-013  0.9118800E+02  0.7816164E-02  0.1184000E+00
        -11   -1    0    0    0    0  0.00000000000E+00  0.00000000000E+00  0.45593999997E+02  0.45594000000E+02  0.51100000000E-03 0. -1.
         11   -1    0    0    0    0 -0.00000000000E+00 -0.00000000000E+00 -0.45593999997E+02  0.45594000000E+02  0.51100000000E-03 0.  1.
         23    2    1    2    0    0  0.00000000000E+00  0.00000000000E+00  0.00000000000E+00  0.91188000000E+02  0.91188000000E+02 0.  0.
    9900012    2    3    3    0    0  0.14458734511E+02 -0.14408156683E+02  0.35164134945E+02  0.50528851348E+02  0.29999974157E+02 0.  0.
        -12    1    3    3    0    0 -0.14458734511E+02  0.14408156683E+02 -0.35164134945E+02  0.40659148652E+02  0.00000000000E+00 0.  1.
         11    1    4    4    0    0  0.71904608667E+01 -0.79197488447E+01  0.27957285765E+02  0.29933843336E+02  0.51100000000E-03 0. -1.
        -11    1    4    4    0    0  0.46090869818E+01  0.54064073752E+01  0.26710660541E+01  0.75899616362E+01  0.51100000000E-03 0.  1.
         12    1    4    4    0    0  0.26591866629E+01 -0.11894815213E+02  0.45357831257E+01  0.13005046376E+02  0.00000000000E+00 0. -1.
</event>
<event>
 8    1  0.2031623E-013  0.9118800E+02  0.7816164E-02  0.1184000E+00
        -11   -1    0    0    0    0  0.00000000000E+00  0.00000000000E+00  0.45593999997E+02  0.45594000000E+02  0.51100000000E-03 0.  1.
         11   -1    0    0    0    0 -0.00000000000E+00 -0.00000000000E+00 -0.45593999997E+02  0.45594000000E+02  0.51100000000E-03 0. -1.
         23    2    1    2    0    0  0.00000000000E+00  0.00000000000E+00 -0.26645352591E-14  0.91188000000E+02  0.91188000000E+02 0.  0.
    9900012    2    3    3    0    0  0.11402954363E+02  0.38503531366E+02  0.63731253533E+01  0.50528855608E+02  0.29999987107E+02 0.  0.
         12    1    3    3    0    0 -0.11402954363E+02 -0.38503531366E+02 -0.63731253533E+01  0.40659144392E+02  0.00000000000E+00 0. -1.
         11    1    4    4    0    0 -0.31761606556E+01  0.32400895908E+02  0.87517076649E+01  0.33711992517E+02  0.51100000000E-03 0.  1.
        -11    1    4    4    0    0  0.79118639678E+01  0.70060310527E+00 -0.21673967633E+01  0.82332281121E+01  0.51100000000E-03 0. -1.
        -12    1    4    4    0    0  0.66672510511E+01  0.54020323529E+01 -0.21118554833E+00  0.85836349792E+01  0.00000000000E+00 0.  1.
</event>
<event>
 8    1  0.2031623E-013  0.9118800E+02  0.7816164E-02  0.1184000E+00
        -11   -1    0    0    0    0  0.00000000000E+00  0.00000000000E+00  0.45593999997E+02  0.45594000000E+02  0.51100000000E-03 0. -1.
         11   -1    0    0    0    0 -0.00000000000E+00 -0.00000000000E+00 -0.45593999997E+02  0.45594000000E+02  0.51100000000E-03 0.  1.
         23    2    1    2    0    0  0.00000000000E+00  0.44408920985E-15  0.00000000000E+00  0.91188000000E+02  0.91188000000E+02 0.  0.
    9900012    2    3    3    0    0 -0.15461932976E+02 -0.23841313054E+01  0.37528789040E+02  0.50528862525E+02  0.30000008131E+02 0.  0.
        -12    1    3    3    0    0  0.15461932976E+02  0.23841313054E+01 -0.37528789040E+02  0.40659137475E+02  0.00000000000E+00 0.  1.
         11    1    4    4    0    0 -0.91193977492E+01 -0.75212233736E+01  0.34929135043E+02  0.36875150054E+02  0.51100000000E-03 0. -1.
        -11    1    4    4    0    0 -0.14154310928E+01  0.30614976899E+01 -0.39531793211E+01  0.51965219416E+01  0.51100000000E-03 0.  1.
        -12    1    4    4    0    0 -0.49271041341E+01  0.20755943784E+01  0.65528333173E+01  0.84571905297E+01  0.00000000000E+00 0.  1.
</event>
<event>
 8    1  0.2031623E-013  0.9118800E+02  0.7816164E-02  0.1184000E+00
        -11   -1    0    0    0    0  0.00000000000E+00  0.00000000000E+00  0.45593999997E+02  0.45594000000E+02  0.51100000000E-03 0. -1.
         11   -1    0    0    0    0 -0.00000000000E+00 -0.00000000000E+00 -0.45593999997E+02  0.45594000000E+02  0.51100000000E-03 0.  1.
         23    2    1    2    0    0  0.00000000000E+00  0.00000000000E+00  0.00000000000E+00  0.91188000000E+02  0.91188000000E+02 0.  0.
    9900012    2    3    3    0    0  0.68935858738E+01 -0.21423873604E+02 -0.33862412616E+02  0.50528845132E+02  0.29999955264E+02 0.  0.
         12    1    3    3    0    0 -0.68935858738E+01  0.21423873604E+02  0.33862412616E+02  0.40659154868E+02  0.00000000000E+00 0. -1.
         11    1    4    4    0    0  0.50159568300E+01 -0.67988208776E+01  0.17247504840E+01  0.86231405381E+01  0.51100000000E-03 0. -1.
        -11    1    4    4    0    0  0.21299343667E+01 -0.17592443631E+02 -0.23359426129E+02  0.29320530054E+02  0.51100000000E-03 0.  1.
        -12    1    4    4    0    0 -0.25230532300E+00  0.29673909054E+01 -0.12227736972E+02  0.12585174540E+02  0.00000000000E+00 0.  1.
</event>
<event>
 8    1  0.2031623E-013  0.9118800E+02  0.7816164E-02  0.1184000E+00
        -11   -1    0    0    0    0  0.00000000000E+00  0.00000000000E+00  0.45593999997E+02  0.45594000000E+02  0.51100000000E-03 0. -1.
         11   -1    0    0    0    0 -0.00000000000E+00 -0.00000000000E+00 -0.45593999997E+02  0.45594000000E+02  0.51100000000E-03 0.  1.
         23    2    1    2    0    0  0.71054273576E-14  0.00000000000E+00  0.00000000000E+00  0.91188000000E+02  0.91188000000E+02 0.  0.
    9900012    2    3    3    0    0  0.36123554564E+02  0.16802026867E+02 -0.81207374103E+01  0.50528859856E+02  0.30000000017E+02 0.  0.
         12    1    3    3    0    0 -0.36123554564E+02 -0.16802026867E+02  0.81207374103E+01  0.40659140144E+02  0.00000000000E+00 0. -1.
         11    1    4    4    0    0  0.93488606037E+01  0.30957979728E+01  0.36503719762E+01  0.10502874630E+02  0.51100000000E-03 0. -1.
        -11    1    4    4    0    0  0.28869389191E+02  0.99935573769E+01 -0.15594113688E+02  0.34299988386E+02  0.51100000000E-03 0.  1.
        -12    1    4    4    0    0 -0.20946952309E+01  0.37126715176E+01  0.38230043018E+01  0.57259968389E+01  0.00000000000E+00 0.  1.
</event>
<event>
 8    1  0.2031623E-013  0.9118800E+02  0.7816164E-02  0.1184000E+00
        -11   -1    0    0    0    0  0.00000000000E+00  0.00000000000E+00  0.45593999997E+02  0.45594000000E+02  0.51100000000E-03 0. -1.
         11   -1    0    0    0    0 -0.00000000000E+00 -0.00000000000E+00 -0.45593999997E+02  0.45594000000E+02  0.51100000000E-03 0.  1.
         23    2    1    2    0    0  0.17763568394E-14  0.35527136788E-14  0.00000000000E+00  0.91188000000E+02  0.91188000000E+02 0.  0.
    9900012    2    3    3    0    0  0.10385097181E+02  0.20611769853E+02 -0.33473423393E+02  0.50528863590E+02  0.30000011368E+02 0.  0.
         12    1    3    3    0    0 -0.10385097181E+02 -0.20611769853E+02  0.33473423393E+02  0.40659136410E+02  0.00000000000E+00 0. -1.
         11    1    4    4    0    0  0.10814482652E+02  0.92715745898E+01 -0.28458924329E+02  0.31824919554E+02  0.51100000000E-03 0.  1.
        -11    1    4    4    0    0 -0.57009123004E+01  0.10159165116E+02 -0.61656505787E+01  0.13180450836E+02  0.51100000000E-03 0. -1.
         12    1    4    4    0    0  0.52715268294E+01  0.11810301472E+01  0.11511515145E+01  0.55234932000E+01  0.00000000000E+00 0. -1.
</event>
<event>
 8    1  0.2031623E-013  0.9118800E+02  0.7816164E-02  0.1184000E+00
        -11   -1    0    0    0    0  0.00000000000E+00  0.00000000000E+00  0.45593999997E+02  0.45594000000E+02  0.51100000000E-03 0. -1.
         11   -1    0    0    0    0 -0.00000000000E+00 -0.00000000000E+00 -0.45593999997E+02  0.45594000000E+02  0.51100000000E-03 0.  1.
         23    2    1    2    0    0  0.00000000000E+00  0.00000000000E+00  0.17763568394E-14  0.91188000000E+02  0.91188000000E+02 0.  0.
    9900012    2    3    3    0    0  0.27932160229E+02  0.27138945254E+02  0.11680758261E+02  0.50528830824E+02  0.29999911773E+02 0.  0.
        -12    1    3    3    0    0 -0.27932160229E+02 -0.27138945254E+02 -0.11680758261E+02  0.40659169176E+02  0.00000000000E+00 0.  1.
         11    1    4    4    0    0 -0.24315299298E+01  0.58670604101E+01  0.62997866045E+01  0.89455042998E+01  0.51100000000E-03 0. -1.
        -11    1    4    4    0    0  0.21956290063E+02  0.15306131289E+02  0.12000559110E+02  0.29332060064E+02  0.51100000000E-03 0.  1.
        -12    1    4    4    0    0  0.84074000953E+01  0.59657535542E+01 -0.66195874531E+01  0.12251266460E+02  0.00000000000E+00 0.  1.
</event>
<event>
 8    1  0.2031623E-013  0.9118800E+02  0.7816164E-02  0.1184000E+00
        -11   -1    0    0    0    0  0.00000000000E+00  0.00000000000E+00  0.45593999997E+02  0.45594000000E+02  0.51100000000E-03 0. -1.
         11   -1    0    0    0    0 -0.00000000000E+00 -0.00000000000E+00 -0.45593999997E+02  0.45594000000E+02  0.51100000000E-03 0.  1.
         23    2    1    2    0    0  0.35527136788E-14  0.00000000000E+00 -0.35527136788E-14  0.91188000000E+02  0.91188000000E+02 0.  0.
    9900012    2    3    3    0    0 -0.30239007681E+02 -0.15176030170E+02  0.22548970519E+02  0.50528861436E+02  0.30000004822E+02 0.  0.
        -12    1    3    3    0    0  0.30239007681E+02  0.15176030170E+02 -0.22548970519E+02  0.40659138564E+02  0.00000000000E+00 0.  1.
         11    1    4    4    0    0  0.43650764109E+01 -0.69473988298E+01  0.31720942139E+01  0.87967280586E+01  0.51100000000E-03 0. -1.
        -11    1    4    4    0    0 -0.21561313405E+02 -0.30085748202E+01  0.16683377812E+02  0.27427665844E+02  0.51100000000E-03 0.  1.
        -12    1    4    4    0    0 -0.13042770688E+02 -0.52200565205E+01  0.26934984933E+01  0.14304467534E+02  0.00000000000E+00 0.  1.
</event>
<event>
 8    1  0.2031623E-013  0.9118800E+02  0.7816164E-02  0.1184000E+00
        -11   -1    0    0    0    0  0.00000000000E+00  0.00000000000E+00  0.45593999997E+02  0.45594000000E+02  0.51100000000E-03 0. -1.
         11   -1    0    0    0    0 -0.00000000000E+00 -0.00000000000E+00 -0.45593999997E+02  0.45594000000E+02  0.51100000000E-03 0.  1.
         23    2    1    2    0    0  0.00000000000E+00  0.35527136788E-14 -0.71054273576E-14  0.91188000000E+02  0.91188000000E+02 0.  0.
    9900012    2    3    3    0    0  0.43096711271E+01  0.20198952477E+02 -0.35022765617E+02  0.50528867473E+02  0.30000023170E+02 0.  0.
         12    1    3    3    0    0 -0.43096711271E+01 -0.20198952477E+02  0.35022765617E+02  0.40659132527E+02  0.00000000000E+00 0. -1.
         11    1    4    4    0    0 -0.68820697825E+01  0.70782062323E+01 -0.48675567102E+01  0.11007133893E+02  0.51100000000E-03 0. -1.
        -11    1    4    4    0    0  0.13018975251E+02  0.11948193272E+02 -0.32077026282E+02  0.36622242618E+02  0.51100000000E-03 0.  1.
         12    1    4    4    0    0 -0.18272343413E+01  0.11725529723E+01  0.19218173747E+01  0.28994909609E+01  0.00000000000E+00 0. -1.
</event>
<event>
 8    1  0.2031623E-013  0.9118800E+02  0.7816164E-02  0.1184000E+00
        -11   -1    0    0    0    0  0.00000000000E+00  0.00000000000E+00  0.45593999997E+02  0.45594000000E+02  0.51100000000E-03 0. -1.
         11   -1    0    0    0    0 -0.00000000000E+00 -0.00000000000E+00 -0.45593999997E+02  0.45594000000E+02  0.51100000000E-03 0.  1.
         23    2    1    2    0    0  0.00000000000E+00  0.00000000000E+00  0.00000000000E+00  0.91188000000E+02  0.91188000000E+02 0.  0.
    9900012    2    3    3    0    0  0.20706709426E+02 -0.18805395267E+02  0.29508559459E+02  0.50528858497E+02  0.29999995887E+02 0.  0.
        -12    1    3    3    0    0 -0.20706709426E+02  0.18805395267E+02 -0.29508559459E+02  0.40659141503E+02  0.00000000000E+00 0.  1.
         11    1    4    4    0    0  0.37245713810E+01 -0.60331528482E+01  0.21421980416E+01  0.74067791901E+01  0.51100000000E-03 0. -1.
        -11    1    4    4    0    0 -0.42794668168E+01 -0.32374098344E+01  0.16614260393E+02  0.17459332958E+02  0.51100000000E-03 0.  1.
        -12    1    4    4    0    0  0.21261604861E+02 -0.95348325849E+01  0.10752101025E+02  0.25662746349E+02  0.00000000000E+00 0.  1.
</event>
<event>
 8    1  0.2031623E-013  0.9118800E+02  0.7816164E-02  0.1184000E+00
        -11   -1    0    0    0    0  0.00000000000E+00  0.00000000000E+00  0.45593999997E+02  0.45594000000E+02  0.51100000000E-03 0. -1.
         11   -1    0    0    0    0 -0.00000000000E+00 -0.00000000000E+00 -0.45593999997E+02  0.45594000000E+02  0.51100000000E-03 0.  1.
         23    2    1    2    0    0 -0.88817841970E-15 -0.35527136788E-14  0.00000000000E+00  0.91188000000E+02  0.91188000000E+02 0.  0.
    9900012    2    3    3    0    0 -0.24594119752E+01 -0.30546515134E+02 -0.26721277886E+02  0.50528868357E+02  0.30000025857E+02 0.  0.
         12    1    3    3    0    0  0.24594119752E+01  0.30546515134E+02  0.26721277886E+02  0.40659131643E+02  0.00000000000E+00 0. -1.
         11    1    4    4    0    0  0.48254165532E+01 -0.10047199518E+02 -0.21542093902E+02  0.24254745371E+02  0.51100000000E-03 0. -1.
        -11    1    4    4    0    0  0.10391090559E+01 -0.10609336339E+02  0.28782820724E+01  0.11041841927E+02  0.51100000000E-03 0.  1.
         12    1    4    4    0    0 -0.83239375843E+01 -0.98899792764E+01 -0.80574660564E+01  0.15232281058E+02  0.00000000000E+00 0. -1.
</event>
<event>
 8    1  0.2031623E-013  0.9118800E+02  0.7816164E-02  0.1184000E+00
        -11   -1    0    0    0    0  0.00000000000E+00  0.00000000000E+00  0.45593999997E+02  0.45594000000E+02  0.51100000000E-03 0. -1.
         11   -1    0    0    0    0 -0.00000000000E+00 -0.00000000000E+00 -0.45593999997E+02  0.45594000000E+02  0.51100000000E-03 0.  1.
         23    2    1    2    0    0  0.00000000000E+00  0.00000000000E+00  0.00000000000E+00  0.91188000000E+02  0.91188000000E+02 0.  0.
    9900012    2    3    3    0    0  0.11898518119E+01 -0.32124060655E+02  0.24895670571E+02  0.50528862853E+02  0.30000009129E+02 0.  0.
        -12    1    3    3    0    0 -0.11898518119E+01  0.32124060655E+02 -0.24895670571E+02  0.40659137147E+02  0.00000000000E+00 0.  1.
         11    1    4    4    0    0 -0.11581111636E+01 -0.36724769759E+02  0.23861460151E+02  0.43811176841E+02  0.51100000000E-03 0. -1.
        -11    1    4    4    0    0  0.28265700437E+01  0.32315467351E+01  0.22300014686E+01  0.48379023682E+01  0.51100000000E-03 0.  1.
         12    1    4    4    0    0 -0.47860706825E+00  0.13691623688E+01 -0.11957910486E+01  0.18797836445E+01  0.00000000000E+00 0. -1.
</event>
<event>
 8    1  0.2031623E-013  0.9118800E+02  0.7816164E-02  0.1184000E+00
        -11   -1    0    0    0    0  0.00000000000E+00  0.00000000000E+00  0.45593999997E+02  0.45594000000E+02  0.51100000000E-03 0. -1.
         11   -1    0    0    0    0 -0.00000000000E+00 -0.00000000000E+00 -0.45593999997E+02  0.45594000000E+02  0.51100000000E-03 0.  1.
         23    2    1    2    0    0  0.88817841970E-15  0.35527136788E-14  0.00000000000E+00  0.91188000000E+02  0.91188000000E+02 0.  0.
    9900012    2    3    3    0    0 -0.61125328806E+01  0.22595890214E+02  0.33244984697E+02  0.50528851948E+02  0.29999975981E+02 0.  0.
        -12    1    3    3    0    0  0.61125328806E+01 -0.22595890214E+02 -0.33244984697E+02  0.40659148052E+02  0.00000000000E+00 0.  1.
         11    1    4    4    0    0 -0.10762528192E+02  0.15262111101E+02  0.93120396513E+01  0.20868112782E+02  0.51100000000E-03 0. -1.
        -11    1    4    4    0    0  0.42866319151E+01  0.11811114475E+02  0.20342305759E+02  0.23909977879E+02  0.51100000000E-03 0.  1.
        -12    1    4    4    0    0  0.36336339608E+00 -0.44773353616E+01  0.35906392869E+01  0.57507612875E+01  0.00000000000E+00 0.  1.
</event>
<event>
 8    1  0.2031623E-013  0.9118800E+02  0.7816164E-02  0.1184000E+00
        -11   -1    0    0    0    0  0.00000000000E+00  0.00000000000E+00  0.45593999997E+02  0.45594000000E+02  0.51100000000E-03 0.  1.
         11   -1    0    0    0    0 -0.00000000000E+00 -0.00000000000E+00 -0.45593999997E+02  0.45594000000E+02  0.51100000000E-03 0. -1.
         23    2    1    2    0    0  0.00000000000E+00  0.71054273576E-14  0.00000000000E+00  0.91188000000E+02  0.91188000000E+02 0.  0.
    9900012    2    3    3    0    0  0.96123526858E+01  0.36060987067E+02  0.16136108400E+02  0.50528854575E+02  0.29999983965E+02 0.  0.
        -12    1    3    3    0    0 -0.96123526858E+01 -0.36060987067E+02 -0.16136108400E+02  0.40659145425E+02  0.00000000000E+00 0.  1.
         11    1    4    4    0    0  0.12069773845E+02  0.91549561362E+01  0.17346309294E+02  0.23030134800E+02  0.51100000000E-03 0. -1.
        -11    1    4    4    0    0 -0.52590214719E+00  0.75317083669E+01 -0.25838894568E+01  0.79799554496E+01  0.51100000000E-03 0.  1.
         12    1    4    4    0    0 -0.19315190116E+01  0.19374322564E+02  0.13736885630E+01  0.19518764325E+02  0.00000000000E+00 0. -1.
</event>
<event>
 8    1  0.2696310E-013  0.9118800E+02  0.7816164E-02  0.1184000E+00
        -11   -1    0    0    0    0  0.00000000000E+00  0.00000000000E+00  0.45593999997E+02  0.45594000000E+02  0.51100000000E-03 0. -1.
         11   -1    0    0    0    0 -0.00000000000E+00 -0.00000000000E+00 -0.45593999997E+02  0.45594000000E+02  0.51100000000E-03 0.  1.
         23    2    1    2    0    0  0.00000000000E+00 -0.35527136788E-14  0.71054273576E-14  0.91188000000E+02  0.91188000000E+02 0.  0.
    9900012    2    3    3    0    0 -0.47344094905E+01  0.23431642034E+02 -0.32889355192E+02  0.50528853839E+02  0.29999981728E+02 0.  0.
         12    1    3    3    0    0  0.47344094905E+01 -0.23431642034E+02  0.32889355192E+02  0.40659146161E+02  0.00000000000E+00 0. -1.
         11    1    4    4    0    0 -0.14235427521E+01 -0.42581017019E+01  0.42632800497E+00  0.45099512082E+01  0.51100000000E-03 0. -1.
        -11    1    4    4    0    0  0.85012662067E+00  0.20528135268E+02 -0.13613677849E+02  0.24646688980E+02  0.51100000000E-03 0.  1.
         12    1    4    4    0    0 -0.41609933591E+01  0.71616084680E+01 -0.19702005348E+02  0.21372213650E+02  0.00000000000E+00 0. -1.
</event>
<event>
 8    1  0.2031623E-013  0.9118800E+02  0.7816164E-02  0.1184000E+00
        -11   -1    0    0    0    0  0.00000000000E+00  0.00000000000E+00  0.45593999997E+02  0.45594000000E+02  0.51100000000E-03 0. -1.
         11   -1    0    0    0    0 -0.00000000000E+00 -0.00000000000E+00 -0.45593999997E+02  0.45594000000E+02  0.51100000000E-03 0.  1.
         23    2    1    2    0    0  0.35527136788E-14 -0.35527136788E-14  0.00000000000E+00  0.91188000000E+02  0.91188000000E+02 0.  0.
    9900012    2    3    3    0    0 -0.18706123837E+02  0.14479478512E+02  0.33069456572E+02  0.50528888783E+02  0.30000087944E+02 0.  0.
        -12    1    3    3    0    0  0.18706123837E+02 -0.14479478512E+02 -0.33069456572E+02  0.40659111217E+02  0.00000000000E+00 0.  1.
         11    1    4    4    0    0 -0.14665661692E+02  0.16990484586E+02  0.22828351028E+02  0.32013931503E+02  0.51100000000E-03 0. -1.
        -11    1    4    4    0    0  0.33363934652E+01 -0.61535722986E+01  0.32454452042E+01  0.77156262366E+01  0.51100000000E-03 0.  1.
        -12    1    4    4    0    0 -0.73768556096E+01  0.36425662249E+01  0.69956603403E+01  0.10799331043E+02  0.00000000000E+00 0.  1.
</event>
<event>
 8    1  0.2031623E-013  0.9118800E+02  0.7816164E-02  0.1184000E+00
        -11   -1    0    0    0    0  0.00000000000E+00  0.00000000000E+00  0.45593999997E+02  0.45594000000E+02  0.51100000000E-03 0. -1.
         11   -1    0    0    0    0 -0.00000000000E+00 -0.00000000000E+00 -0.45593999997E+02  0.45594000000E+02  0.51100000000E-03 0.  1.
         23    2    1    2    0    0  0.00000000000E+00 -0.35527136788E-14  0.00000000000E+00  0.91188000000E+02  0.91188000000E+02 0.  0.
    9900012    2    3    3    0    0 -0.20323991361E+01 -0.21655278804E+02 -0.34352347187E+02  0.50528861992E+02  0.30000006510E+02 0.  0.
         12    1    3    3    0    0  0.20323991361E+01  0.21655278804E+02  0.34352347187E+02  0.40659138008E+02  0.00000000000E+00 0. -1.
         11    1    4    4    0    0 -0.11633489321E+01 -0.17507346813E+02 -0.25784802038E+01  0.17734405363E+02  0.51100000000E-03 0. -1.
        -11    1    4    4    0    0  0.11727028790E+01 -0.19028535823E+01 -0.27282953979E+02  0.27374361396E+02  0.51100000000E-03 0.  1.
        -12    1    4    4    0    0 -0.20417530830E+01 -0.22450784092E+01 -0.44909130045E+01  0.54200952325E+01  0.00000000000E+00 0.  1.
</event>
<event>
 8    1  0.2031623E-013  0.9118800E+02  0.7816164E-02  0.1184000E+00
        -11   -1    0    0    0    0  0.00000000000E+00  0.00000000000E+00  0.45593999997E+02  0.45594000000E+02  0.51100000000E-03 0. -1.
         11   -1    0    0    0    0 -0.00000000000E+00 -0.00000000000E+00 -0.45593999997E+02  0.45594000000E+02  0.51100000000E-03 0.  1.
         23    2    1    2    0    0  0.35527136788E-14  0.00000000000E+00  0.71054273576E-14  0.91188000000E+02  0.91188000000E+02 0.  0.
    9900012    2    3    3    0    0  0.17300576768E+02 -0.20416551175E+02  0.30610780145E+02  0.50528863518E+02  0.30000011148E+02 0.  0.
        -12    1    3    3    0    0 -0.17300576768E+02  0.20416551175E+02 -0.30610780145E+02  0.40659136482E+02  0.00000000000E+00 0.  1.
         11    1    4    4    0    0  0.56652338666E+01 -0.17916224878E+01  0.11906195934E+02  0.13306475408E+02  0.51100000000E-03 0. -1.
        -11    1    4    4    0    0  0.78313358649E+01 -0.69229053216E+01 -0.41656806065E+01  0.11252081350E+02  0.51100000000E-03 0.  1.
        -12    1    4    4    0    0  0.38040070363E+01 -0.11702023366E+02  0.22870264818E+02  0.25970306760E+02  0.00000000000E+00 0.  1.
</event>
<event>
 8    1  0.2031623E-013  0.9118800E+02  0.7816164E-02  0.1184000E+00
        -11   -1    0    0    0    0  0.00000000000E+00  0.00000000000E+00  0.45593999997E+02  0.45594000000E+02  0.51100000000E-03 0. -1.
         11   -1    0    0    0    0 -0.00000000000E+00 -0.00000000000E+00 -0.45593999997E+02  0.45594000000E+02  0.51100000000E-03 0.  1.
         23    2    1    2    0    0 -0.17763568394E-14  0.00000000000E+00 -0.35527136788E-14  0.91188000000E+02  0.91188000000E+02 0.  0.
    9900012    2    3    3    0    0 -0.91278154534E+01  0.33340752774E+02 -0.21406610119E+02  0.50528858748E+02  0.29999996652E+02 0.  0.
         12    1    3    3    0    0  0.91278154534E+01 -0.33340752774E+02  0.21406610119E+02  0.40659141252E+02  0.00000000000E+00 0. -1.
         11    1    4    4    0    0 -0.12408164641E+02  0.26228986930E+02 -0.15461262170E+02  0.32878152826E+02  0.51100000000E-03 0.  1.
        -11    1    4    4    0    0  0.82140052560E+01  0.66144574262E+01 -0.91263781673E+00  0.10585548518E+02  0.51100000000E-03 0. -1.
        -12    1    4    4    0    0 -0.49336560682E+01  0.49730841840E+00 -0.50327101325E+01  0.70651574038E+01  0.00000000000E+00 0.  1.
</event>
<event>
 8    1  0.2031623E-013  0.9118800E+02  0.7816164E-02  0.1184000E+00
        -11   -1    0    0    0    0  0.00000000000E+00  0.00000000000E+00  0.45593999997E+02  0.45594000000E+02  0.51100000000E-03 0. -1.
         11   -1    0    0    0    0 -0.00000000000E+00 -0.00000000000E+00 -0.45593999997E+02  0.45594000000E+02  0.51100000000E-03 0.  1.
         23    2    1    2    0    0  0.22204460493E-14  0.12767564783E-14 -0.71054273576E-14  0.91188000000E+02  0.91188000000E+02 0.  0.
    9900012    2    3    3    0    0  0.19993599646E+01  0.33929259787E+00 -0.40608535295E+02  0.50528859594E+02  0.29999999222E+02 0.  0.
         12    1    3    3    0    0 -0.19993599646E+01 -0.33929259787E+00  0.40608535295E+02  0.40659140406E+02  0.00000000000E+00 0. -1.
         11    1    4    4    0    0 -0.62327678812E+01 -0.71397618781E+01 -0.31055239864E+01  0.99733582422E+01  0.51100000000E-03 0. -1.
        -11    1    4    4    0    0  0.26878066344E+01  0.86934982733E+01 -0.17009243427E+02  0.19290297534E+02  0.51100000000E-03 0.  1.
         12    1    4    4    0    0  0.55443212114E+01 -0.12144437973E+01 -0.20493767882E+02  0.21265203818E+02  0.00000000000E+00 0. -1.
</event>
<event>
 8    1  0.2031623E-013  0.9118800E+02  0.7816164E-02  0.1184000E+00
        -11   -1    0    0    0    0  0.00000000000E+00  0.00000000000E+00  0.45593999997E+02  0.45594000000E+02  0.51100000000E-03 0. -1.
         11   -1    0    0    0    0 -0.00000000000E+00 -0.00000000000E+00 -0.45593999997E+02  0.45594000000E+02  0.51100000000E-03 0.  1.
         23    2    1    2    0    0  0.00000000000E+00  0.44408920985E-15  0.00000000000E+00  0.91188000000E+02  0.91188000000E+02 0.  0.
    9900012    2    3    3    0    0  0.14533361048E+02  0.27711084278E+01 -0.37871738263E+02  0.50528853621E+02  0.29999981065E+02 0.  0.
         12    1    3    3    0    0 -0.14533361048E+02 -0.27711084278E+01  0.37871738263E+02  0.40659146379E+02  0.00000000000E+00 0. -1.
         11    1    4    4    0    0  0.15010506860E+01 -0.81653841023E+01 -0.15871449824E+02  0.17911716012E+02  0.51100000000E-03 0. -1.
        -11    1    4    4    0    0  0.58185051676E+01  0.13432264666E+02 -0.80267681744E+01  0.16694602242E+02  0.51100000000E-03 0.  1.
        -12    1    4    4    0    0  0.72138051945E+01 -0.24957721357E+01 -0.13973520264E+02  0.15922535367E+02  0.00000000000E+00 0.  1.
</event>
<event>
 8    1  0.2031623E-013  0.9118800E+02  0.7816164E-02  0.1184000E+00
        -11   -1    0    0    0    0  0.00000000000E+00  0.00000000000E+00  0.45593999997E+02  0.45594000000E+02  0.51100000000E-03 0. -1.
         11   -1    0    0    0    0 -0.00000000000E+00 -0.00000000000E+00 -0.45593999997E+02  0.45594000000E+02  0.51100000000E-03 0.  1.
         23    2    1    2    0    0  0.17763568394E-14 -0.44408920985E-15 -0.71054273576E-14  0.91188000000E+02  0.91188000000E+02 0.  0.
    9900012    2    3    3    0    0  0.43186306301E+01 -0.19054839034E+01 -0.40384215415E+02  0.50528852271E+02  0.29999976962E+02 0.  0.
         12    1    3    3    0    0 -0.43186306301E+01  0.19054839034E+01  0.40384215415E+02  0.40659147729E+02  0.00000000000E+00 0. -1.
         11    1    4    4    0    0 -0.93456827541E+01  0.56398015402E+00 -0.21185668001E+02  0.23162305340E+02  0.51100000000E-03 0. -1.
        -11    1    4    4    0    0  0.13560399654E+02 -0.64356496254E+00 -0.20864748178E+02  0.24892495485E+02  0.51100000000E-03 0.  1.
        -12    1    4    4    0    0  0.10391372980E+00 -0.18258990949E+01  0.16662007648E+01  0.24740514458E+01  0.00000000000E+00 0.  1.
</event>
<event>
 8    1  0.2031623E-013  0.9118800E+02  0.7816164E-02  0.1184000E+00
        -11   -1    0    0    0    0  0.00000000000E+00  0.00000000000E+00  0.45593999997E+02  0.45594000000E+02  0.51100000000E-03 0. -1.
         11   -1    0    0    0    0 -0.00000000000E+00 -0.00000000000E+00 -0.45593999997E+02  0.45594000000E+02  0.51100000000E-03 0.  1.
         23    2    1    2    0    0  0.00000000000E+00  0.71054273576E-14 -0.88817841970E-15  0.91188000000E+02  0.91188000000E+02 0.  0.
    9900012    2    3    3    0    0  0.16742378362E+02 -0.36391401990E+02  0.69660116493E+01  0.50528847398E+02  0.29999962152E+02 0.  0.
        -12    1    3    3    0    0 -0.16742378362E+02  0.36391401990E+02 -0.69660116493E+01  0.40659152602E+02  0.00000000000E+00 0.  1.
         11    1    4    4    0    0  0.16025873944E+02 -0.34374087417E+02  0.33126287168E+01  0.38070724064E+02  0.51100000000E-03 0.  1.
        -11    1    4    4    0    0 -0.13978722318E+01  0.46801453147E+01  0.16284237809E+01  0.51487446252E+01  0.51100000000E-03 0. -1.
         12    1    4    4    0    0  0.21143766490E+01 -0.66974598872E+01  0.20249591516E+01  0.73093787096E+01  0.00000000000E+00 0. -1.
</event>
<event>
 8    1  0.2031623E-013  0.9118800E+02  0.7816164E-02  0.1184000E+00
        -11   -1    0    0    0    0  0.00000000000E+00  0.00000000000E+00  0.45593999997E+02  0.45594000000E+02  0.51100000000E-03 0. -1.
         11   -1    0    0    0    0 -0.00000000000E+00 -0.00000000000E+00 -0.45593999997E+02  0.45594000000E+02  0.51100000000E-03 0.  1.
         23    2    1    2    0    0  0.44408920985E-15  0.00000000000E+00  0.00000000000E+00  0.91188000000E+02  0.91188000000E+02 0.  0.
    9900012    2    3    3    0    0 -0.33046345271E+01 -0.33223186546E+02 -0.23204791137E+02  0.50528891976E+02  0.30000097649E+02 0.  0.
         12    1    3    3    0    0  0.33046345271E+01  0.33223186546E+02  0.23204791137E+02  0.40659108024E+02  0.00000000000E+00 0. -1.
         11    1    4    4    0    0 -0.81391882075E+01 -0.54505665404E+01  0.33103395869E+01  0.10339894039E+02  0.51100000000E-03 0. -1.
        -11    1    4    4    0    0  0.46098587660E+01 -0.10381121064E+02 -0.47092793404E+01  0.12296169507E+02  0.51100000000E-03 0.  1.
         12    1    4    4    0    0  0.22469491450E+00 -0.17391498942E+02 -0.21805851384E+02  0.27892828430E+02  0.00000000000E+00 0. -1.
</event>
<event>
 8    1  0.2031623E-013  0.9118800E+02  0.7816164E-02  0.1184000E+00
        -11   -1    0    0    0    0  0.00000000000E+00  0.00000000000E+00  0.45593999997E+02  0.45594000000E+02  0.51100000000E-03 0. -1.
         11   -1    0    0    0    0 -0.00000000000E+00 -0.00000000000E+00 -0.45593999997E+02  0.45594000000E+02  0.51100000000E-03 0.  1.
         23    2    1    2    0    0 -0.71054273576E-14  0.17763568394E-14  0.00000000000E+00  0.91188000000E+02  0.91188000000E+02 0.  0.
    9900012    2    3    3    0    0  0.34645117424E+02 -0.15127168308E+02 -0.14968346038E+02  0.50528846474E+02  0.29999959343E+02 0.  0.
         12    1    3    3    0    0 -0.34645117424E+02  0.15127168308E+02  0.14968346038E+02  0.40659153526E+02  0.00000000000E+00 0. -1.
         11    1    4    4    0    0  0.20528132538E+02  0.48844461064E+01 -0.91570134564E+01  0.23002454977E+02  0.51100000000E-03 0. -1.
        -11    1    4    4    0    0  0.55244363652E+01 -0.90486754256E+01 -0.81886207998E+01  0.13395948454E+02  0.51100000000E-03 0.  1.
         12    1    4    4    0    0  0.85925485209E+01 -0.10962938988E+02  0.23772882183E+01  0.14130443044E+02  0.00000000000E+00 0. -1.
</event>
<event>
 8    1  0.2031623E-013  0.9118800E+02  0.7816164E-02  0.1184000E+00
        -11   -1    0    0    0    0  0.00000000000E+00  0.00000000000E+00  0.45593999997E+02  0.45594000000E+02  0.51100000000E-03 0. -1.
         11   -1    0    0    0    0 -0.00000000000E+00 -0.00000000000E+00 -0.45593999997E+02  0.45594000000E+02  0.51100000000E-03 0.  1.
         23    2    1    2    0    0 -0.33306690739E-15  0.88817841970E-15  0.00000000000E+00  0.91188000000E+02  0.91188000000E+02 0.  0.
    9900012    2    3    3    0    0 -0.36177053343E+00 -0.69603006216E+01  0.40057328786E+02  0.50528852787E+02  0.29999978530E+02 0.  0.
        -12    1    3    3    0    0  0.36177053343E+00  0.69603006216E+01 -0.40057328786E+02  0.40659147213E+02  0.00000000000E+00 0.  1.
         11    1    4    4    0    0  0.10309148511E+02 -0.13369023529E+02  0.16742224767E+02  0.23776278589E+02  0.51100000000E-03 0. -1.
        -11    1    4    4    0    0 -0.33264344014E+01  0.41209961169E+01  0.76997177573E+01  0.93452356110E+01  0.51100000000E-03 0.  1.
         12    1    4    4    0    0 -0.73444846435E+01  0.22877267906E+01  0.15615386262E+02  0.17407338586E+02  0.00000000000E+00 0. -1.
</event>
<event>
 8    1  0.2031623E-013  0.9118800E+02  0.7816164E-02  0.1184000E+00
        -11   -1    0    0    0    0  0.00000000000E+00  0.00000000000E+00  0.45593999997E+02  0.45594000000E+02  0.51100000000E-03 0. -1.
         11   -1    0    0    0    0 -0.00000000000E+00 -0.00000000000E+00 -0.45593999997E+02  0.45594000000E+02  0.51100000000E-03 0.  1.
         23    2    1    2    0    0  0.00000000000E+00  0.00000000000E+00  0.00000000000E+00  0.91188000000E+02  0.91188000000E+02 0.  0.
    9900012    2    3    3    0    0  0.13447288995E+02 -0.17501425600E+02 -0.34147277602E+02  0.50528855310E+02  0.29999986199E+02 0.  0.
         12    1    3    3    0    0 -0.13447288995E+02  0.17501425600E+02  0.34147277602E+02  0.40659144690E+02  0.00000000000E+00 0. -1.
         11    1    4    4    0    0  0.83232585567E+01 -0.64504524901E+00 -0.27815192621E+02  0.29040965155E+02  0.51100000000E-03 0. -1.
        -11    1    4    4    0    0  0.43410965194E+01 -0.16775509376E+02 -0.84134778044E+01  0.19262643714E+02  0.51100000000E-03 0.  1.
         12    1    4    4    0    0  0.78293391900E+00 -0.80870975059E-01  0.20813928233E+01  0.22252464405E+01  0.00000000000E+00 0. -1.
</event>
<event>
 8    1  0.2465908E-013  0.9118800E+02  0.7816164E-02  0.1184000E+00
        -11   -1    0    0    0    0  0.00000000000E+00  0.00000000000E+00  0.45593999997E+02  0.45594000000E+02  0.51100000000E-03 0. -1.
         11   -1    0    0    0    0 -0.00000000000E+00 -0.00000000000E+00 -0.45593999997E+02  0.45594000000E+02  0.51100000000E-03 0.  1.
         23    2    1    2    0    0  0.00000000000E+00  0.44408920985E-15  0.00000000000E+00  0.91188000000E+02  0.91188000000E+02 0.  0.
    9900012    2    3    3    0    0 -0.16305736185E+02  0.18781313764E+01 -0.37198864643E+02  0.50528930400E+02  0.30000214443E+02 0.  0.
         12    1    3    3    0    0  0.16305736185E+02 -0.18781313764E+01  0.37198864643E+02  0.40659069600E+02  0.00000000000E+00 0. -1.
         11    1    4    4    0    0 -0.12769327002E+02  0.71523943332E+01 -0.36757312661E+01  0.15090508851E+02  0.51100000000E-03 0. -1.
        -11    1    4    4    0    0 -0.63364248421E+01 -0.40672249457E+01 -0.16398891562E+02  0.18044839796E+02  0.51100000000E-03 0.  1.
         12    1    4    4    0    0  0.28000156596E+01 -0.12070380110E+01 -0.17124241815E+02  0.17393581753E+02  0.00000000000E+00 0. -1.
</event>
<event>
 8    1  0.2031623E-013  0.9118800E+02  0.7816164E-02  0.1184000E+00
        -11   -1    0    0    0    0  0.00000000000E+00  0.00000000000E+00  0.45593999997E+02  0.45594000000E+02  0.51100000000E-03 0. -1.
         11   -1    0    0    0    0 -0.00000000000E+00 -0.00000000000E+00 -0.45593999997E+02  0.45594000000E+02  0.51100000000E-03 0.  1.
         23    2    1    2    0    0 -0.88817841970E-15  0.00000000000E+00  0.00000000000E+00  0.91188000000E+02  0.91188000000E+02 0.  0.
    9900012    2    3    3    0    0  0.31445113442E+01 -0.26235576414E+02 -0.30902632465E+02  0.50528854477E+02  0.29999983668E+02 0.  0.
         12    1    3    3    0    0 -0.31445113442E+01  0.26235576414E+02  0.30902632465E+02  0.40659145523E+02  0.00000000000E+00 0. -1.
         11    1    4    4    0    0  0.13801047915E+02 -0.17454386988E+02 -0.25686809345E+02  0.33984359980E+02  0.51100000000E-03 0. -1.
        -11    1    4    4    0    0 -0.84236638036E+01 -0.26556101021E+01 -0.46980903321E+01  0.10004120647E+02  0.51100000000E-03 0.  1.
         12    1    4    4    0    0 -0.22328727673E+01 -0.61255793244E+01 -0.51773278865E+00  0.65403738498E+01  0.00000000000E+00 0. -1.
</event>
<event>
 8    1  0.2031623E-013  0.9118800E+02  0.7816164E-02  0.1184000E+00
        -11   -1    0    0    0    0  0.00000000000E+00  0.00000000000E+00  0.45593999997E+02  0.45594000000E+02  0.51100000000E-03 0. -1.
         11   -1    0    0    0    0 -0.00000000000E+00 -0.00000000000E+00 -0.45593999997E+02  0.45594000000E+02  0.51100000000E-03 0.  1.
         23    2    1    2    0    0  0.17763568394E-14 -0.35527136788E-14  0.71054273576E-14  0.91188000000E+02  0.91188000000E+02 0.  0.
    9900012    2    3    3    0    0 -0.12871945043E+02  0.19328576581E+02 -0.33374917688E+02  0.50528856226E+02  0.29999988983E+02 0.  0.
         12    1    3    3    0    0  0.12871945043E+02 -0.19328576581E+02  0.33374917688E+02  0.40659143774E+02  0.00000000000E+00 0. -1.
         11    1    4    4    0    0 -0.77326564890E+00  0.11088072163E+02 -0.35394218736E+01  0.11664938556E+02  0.51100000000E-03 0. -1.
        -11    1    4    4    0    0 -0.14543865807E+02 -0.17225605534E+01 -0.17667964568E+02  0.22948817392E+02  0.51100000000E-03 0.  1.
        -12    1    4    4    0    0  0.24451864134E+01  0.99630649715E+01 -0.12167531246E+02  0.15915100277E+02  0.00000000000E+00 0.  1.
</event>
<event>
 8    1  0.3457617E-013  0.9118800E+02  0.7816164E-02  0.1184000E+00
        -11   -1    0    0    0    0  0.00000000000E+00  0.00000000000E+00  0.45593999997E+02  0.45594000000E+02  0.51100000000E-03 0. -1.
         11   -1    0    0    0    0 -0.00000000000E+00 -0.00000000000E+00 -0.45593999997E+02  0.45594000000E+02  0.51100000000E-03 0.  1.
         23    2    1    2    0    0  0.00000000000E+00  0.00000000000E+00  0.00000000000E+00  0.91188000000E+02  0.91188000000E+02 0.  0.
    9900012    2    3    3    0    0 -0.66553213989E+01  0.18314309870E+02 -0.35685556099E+02  0.50528853882E+02  0.29999981860E+02 0.  0.
         12    1    3    3    0    0  0.66553213989E+01 -0.18314309870E+02  0.35685556099E+02  0.40659146118E+02  0.00000000000E+00 0. -1.
         11    1    4    4    0    0  0.90807636853E+01  0.14131757203E+01 -0.38420243372E+01  0.99608476544E+01  0.51100000000E-03 0. -1.
        -11    1    4    4    0    0 -0.63502143373E+01  0.73887999261E+01 -0.21713563030E+02  0.23799126164E+02  0.51100000000E-03 0.  1.
         12    1    4    4    0    0 -0.93858707469E+01  0.95123342235E+01 -0.10129968732E+02  0.16768880063E+02  0.00000000000E+00 0. -1.
</event>
<event>
 8    1  0.2031623E-013  0.9118800E+02  0.7816164E-02  0.1184000E+00
        -11   -1    0    0    0    0  0.00000000000E+00  0.00000000000E+00  0.45593999997E+02  0.45594000000E+02  0.51100000000E-03 0. -1.
         11   -1    0    0    0    0 -0.00000000000E+00 -0.00000000000E+00 -0.45593999997E+02  0.45594000000E+02  0.51100000000E-03 0.  1.
         23    2    1    2    0    0  0.13322676296E-14  0.00000000000E+00  0.00000000000E+00  0.91188000000E+02  0.91188000000E+02 0.  0.
    9900012    2    3    3    0    0  0.18602048062E+01 -0.20927498054E+02  0.34810085070E+02  0.50528898199E+02  0.30000116565E+02 0.  0.
        -12    1    3    3    0    0 -0.18602048062E+01  0.20927498054E+02 -0.34810085070E+02  0.40659101801E+02  0.00000000000E+00 0.  1.
         11    1    4    4    0    0  0.14502588556E+02 -0.55585376264E+01  0.18327344332E+02  0.24023196413E+02  0.51100000000E-03 0. -1.
        -11    1    4    4    0    0 -0.11132980449E+02 -0.95094175655E+01  0.12596588777E+02  0.19314407192E+02  0.51100000000E-03 0.  1.
         12    1    4    4    0    0 -0.15094033010E+01 -0.58595428619E+01  0.38861519606E+01  0.71912945939E+01  0.00000000000E+00 0. -1.
</event>
<event>
 8    1  0.2031623E-013  0.9118800E+02  0.7816164E-02  0.1184000E+00
        -11   -1    0    0    0    0  0.00000000000E+00  0.00000000000E+00  0.45593999997E+02  0.45594000000E+02  0.51100000000E-03 0. -1.
         11   -1    0    0    0    0 -0.00000000000E+00 -0.00000000000E+00 -0.45593999997E+02  0.45594000000E+02  0.51100000000E-03 0.  1.
         23    2    1    2    0    0  0.00000000000E+00  0.00000000000E+00  0.00000000000E+00  0.91188000000E+02  0.91188000000E+02 0.  0.
    9900012    2    3    3    0    0 -0.30553577936E+02  0.25991918914E+02  0.66380226538E+01  0.50528876568E+02  0.30000050815E+02 0.  0.
        -12    1    3    3    0    0  0.30553577936E+02 -0.25991918914E+02 -0.66380226538E+01  0.40659123432E+02  0.00000000000E+00 0.  1.
         11    1    4    4    0    0 -0.34381696000E+02  0.23279463195E+02  0.53955041983E+01  0.41870585049E+02  0.51100000000E-03 0. -1.
        -11    1    4    4    0    0  0.25663470299E+01  0.40397450928E+01  0.33683079414E+01  0.58524504391E+01  0.51100000000E-03 0.  1.
         12    1    4    4    0    0  0.12617710347E+01 -0.13272893736E+01 -0.21257894860E+01  0.28058410796E+01  0.00000000000E+00 0. -1.
</event>
<event>
 8    1  0.2031623E-013  0.9118800E+02  0.7816164E-02  0.1184000E+00
        -11   -1    0    0    0    0  0.00000000000E+00  0.00000000000E+00  0.45593999997E+02  0.45594000000E+02  0.51100000000E-03 0.  1.
         11   -1    0    0    0    0 -0.00000000000E+00 -0.00000000000E+00 -0.45593999997E+02  0.45594000000E+02  0.51100000000E-03 0. -1.
         23    2    1    2    0    0  0.88817841970E-15  0.00000000000E+00  0.00000000000E+00  0.91188000000E+02  0.91188000000E+02 0.  0.
    9900012    2    3    3    0    0  0.75271900683E+01  0.37444955471E+02 -0.13942112595E+02  0.50528858541E+02  0.29999996023E+02 0.  0.
         12    1    3    3    0    0 -0.75271900683E+01 -0.37444955471E+02  0.13942112595E+02  0.40659141459E+02  0.00000000000E+00 0. -1.
         11    1    4    4    0    0  0.14717154775E+02  0.73986992681E+01 -0.34144738914E+01  0.16822426334E+02  0.51100000000E-03 0. -1.
        -11    1    4    4    0    0 -0.31933817931E+01  0.23243836840E+02 -0.10763540611E+02  0.25813319141E+02  0.51100000000E-03 0.  1.
         12    1    4    4    0    0 -0.39965829139E+01  0.68024193631E+01  0.23590190782E+00  0.78931130670E+01  0.00000000000E+00 0. -1.
</event>
<event>
 8    1  0.2031623E-013  0.9118800E+02  0.7816164E-02  0.1184000E+00
        -11   -1    0    0    0    0  0.00000000000E+00  0.00000000000E+00  0.45593999997E+02  0.45594000000E+02  0.51100000000E-03 0.  1.
         11   -1    0    0    0    0 -0.00000000000E+00 -0.00000000000E+00 -0.45593999997E+02  0.45594000000E+02  0.51100000000E-03 0. -1.
         23    2    1    2    0    0  0.00000000000E+00 -0.17763568394E-14  0.00000000000E+00  0.91188000000E+02  0.91188000000E+02 0.  0.
    9900012    2    3    3    0    0 -0.33017070549E+02 -0.54614998573E+01 -0.23091352975E+02  0.50528861906E+02  0.30000006249E+02 0.  0.
         12    1    3    3    0    0  0.33017070549E+02  0.54614998573E+01  0.23091352975E+02  0.40659138094E+02  0.00000000000E+00 0. -1.
         11    1    4    4    0    0 -0.32172611049E+01 -0.69900954912E+01 -0.17720460787E+02  0.19319082141E+02  0.51100000000E-03 0. -1.
        -11    1    4    4    0    0 -0.29614362947E+02  0.68034592447E+00 -0.44681976777E+01  0.29957272140E+02  0.51100000000E-03 0.  1.
        -12    1    4    4    0    0 -0.18544649762E+00  0.84824970942E+00 -0.90269450949E+00  0.12525076249E+01  0.00000000000E+00 0.  1.
</event>
<event>
 8    1  0.2031623E-013  0.9118800E+02  0.7816164E-02  0.1184000E+00
        -11   -1    0    0    0    0  0.00000000000E+00  0.00000000000E+00  0.45593999997E+02  0.45594000000E+02  0.51100000000E-03 0. -1.
         11   -1    0    0    0    0 -0.00000000000E+00 -0.00000000000E+00 -0.45593999997E+02  0.45594000000E+02  0.51100000000E-03 0.  1.
         23    2    1    2    0    0 -0.88817841970E-15 -0.35527136788E-14  0.35527136788E-14  0.91188000000E+02  0.91188000000E+02 0.  0.
    9900012    2    3    3    0    0 -0.71184327905E+01  0.24440682362E+02 -0.31704030660E+02  0.50528873106E+02  0.30000040293E+02 0.  0.
         12    1    3    3    0    0  0.71184327905E+01 -0.24440682362E+02  0.31704030660E+02  0.40659126894E+02  0.00000000000E+00 0. -1.
         11    1    4    4    0    0  0.49950298060E+01  0.25115953979E+02 -0.17192663457E+02  0.30843948256E+02  0.51100000000E-03 0. -1.
        -11    1    4    4    0    0 -0.22102397317E+01 -0.20890352465E+01 -0.51686502934E+01  0.59970137610E+01  0.51100000000E-03 0.  1.
         12    1    4    4    0    0 -0.99032228648E+01  0.14137636289E+01 -0.93427169099E+01  0.13687911088E+02  0.00000000000E+00 0. -1.
</event>
<event>
 8    1  0.2031623E-013  0.9118800E+02  0.7816164E-02  0.1184000E+00
        -11   -1    0    0    0    0  0.00000000000E+00  0.00000000000E+00  0.45593999997E+02  0.45594000000E+02  0.51100000000E-03 0.  1.
         11   -1    0    0    0    0 -0.00000000000E+00 -0.00000000000E+00 -0.45593999997E+02  0.45594000000E+02  0.51100000000E-03 0. -1.
         23    2    1    2    0    0  0.44408920985E-15  0.00000000000E+00  0.00000000000E+00  0.91188000000E+02  0.91188000000E+02 0.  0.
    9900012    2    3    3    0    0  0.25112239068E+01 -0.38088816034E+02  0.14003636683E+02  0.50528855977E+02  0.29999988227E+02 0.  0.
        -12    1    3    3    0    0 -0.25112239068E+01  0.38088816034E+02 -0.14003636683E+02  0.40659144023E+02  0.00000000000E+00 0.  1.
         11    1    4    4    0    0 -0.72962757566E+01 -0.23979544211E+02  0.42632307257E+01  0.25424974277E+02  0.51100000000E-03 0. -1.
        -11    1    4    4    0    0  0.91220251626E+01 -0.49508948773E+01 -0.16102131517E+01  0.10503118099E+02  0.51100000000E-03 0.  1.
        -12    1    4    4    0    0  0.68547450080E+00 -0.91583769448E+01  0.11350619109E+02  0.14600763601E+02  0.00000000000E+00 0.  1.
</event>
<event>
 8    1  0.2031623E-013  0.9118800E+02  0.7816164E-02  0.1184000E+00
        -11   -1    0    0    0    0  0.00000000000E+00  0.00000000000E+00  0.45593999997E+02  0.45594000000E+02  0.51100000000E-03 0. -1.
         11   -1    0    0    0    0 -0.00000000000E+00 -0.00000000000E+00 -0.45593999997E+02  0.45594000000E+02  0.51100000000E-03 0.  1.
         23    2    1    2    0    0  0.88817841970E-15  0.13322676296E-14  0.71054273576E-14  0.91188000000E+02  0.91188000000E+02 0.  0.
    9900012    2    3    3    0    0  0.57508981491E+01  0.38261830612E+01  0.40068103033E+02  0.50528863426E+02  0.30000010868E+02 0.  0.
        -12    1    3    3    0    0 -0.57508981491E+01 -0.38261830612E+01 -0.40068103033E+02  0.40659136574E+02  0.00000000000E+00 0.  1.
         11    1    4    4    0    0 -0.15882437299E+00 -0.40812254779E+01  0.20830748794E+02  0.21227381425E+02  0.51100000000E-03 0. -1.
        -11    1    4    4    0    0  0.91892129218E+01 -0.10769996693E+01  0.18177928396E+01  0.94289942984E+01  0.51100000000E-03 0.  1.
        -12    1    4    4    0    0 -0.32794903997E+01  0.89844082083E+01  0.17419561399E+02  0.19872487702E+02  0.00000000000E+00 0.  1.
</event>
<event>
 8    1  0.2031623E-013  0.9118800E+02  0.7816164E-02  0.1184000E+00
        -11   -1    0    0    0    0  0.00000000000E+00  0.00000000000E+00  0.45593999997E+02  0.45594000000E+02  0.51100000000E-03 0. -1.
         11   -1    0    0    0    0 -0.00000000000E+00 -0.00000000000E+00 -0.45593999997E+02  0.45594000000E+02  0.51100000000E-03 0.  1.
         23    2    1    2    0    0  0.00000000000E+00 -0.35527136788E-14  0.00000000000E+00  0.91188000000E+02  0.91188000000E+02 0.  0.
    9900012    2    3    3    0    0  0.25299849055E+02  0.21579641843E+02  0.23396564409E+02  0.50528898554E+02  0.30000117644E+02 0.  0.
        -12    1    3    3    0    0 -0.25299849055E+02 -0.21579641843E+02 -0.23396564409E+02  0.40659101446E+02  0.00000000000E+00 0.  1.
         11    1    4    4    0    0  0.13759627811E+02  0.18511914844E+02 -0.10202406942E+00  0.23065748587E+02  0.51100000000E-03 0. -1.
        -11    1    4    4    0    0  0.94576716413E+01  0.49948931419E+01  0.14434205627E+02  0.17965043911E+02  0.51100000000E-03 0.  1.
         12    1    4    4    0    0  0.20825496033E+01 -0.19271661432E+01  0.90643828508E+01  0.94981060565E+01  0.00000000000E+00 0. -1.
</event>
<event>
 8    1  0.2031623E-013  0.9118800E+02  0.7816164E-02  0.1184000E+00
        -11   -1    0    0    0    0  0.00000000000E+00  0.00000000000E+00  0.45593999997E+02  0.45594000000E+02  0.51100000000E-03 0. -1.
         11   -1    0    0    0    0 -0.00000000000E+00 -0.00000000000E+00 -0.45593999997E+02  0.45594000000E+02  0.51100000000E-03 0.  1.
         23    2    1    2    0    0  0.00000000000E+00  0.00000000000E+00  0.35527136788E-14  0.91188000000E+02  0.91188000000E+02 0.  0.
    9900012    2    3    3    0    0 -0.30281567291E+02 -0.10651226297E+02  0.24954826603E+02  0.50528864372E+02  0.30000013745E+02 0.  0.
        -12    1    3    3    0    0  0.30281567291E+02  0.10651226297E+02 -0.24954826603E+02  0.40659135628E+02  0.00000000000E+00 0.  1.
         11    1    4    4    0    0 -0.38163020362E+01 -0.53824343318E+01  0.19895005267E+02  0.20960581943E+02  0.51100000000E-03 0. -1.
        -11    1    4    4    0    0 -0.24615205239E+02 -0.52151732048E+01  0.10865224975E+01  0.25185052947E+02  0.51100000000E-03 0.  1.
        -12    1    4    4    0    0 -0.18500600152E+01 -0.53618760183E-01  0.39732988388E+01  0.43832294822E+01  0.00000000000E+00 0.  1.
</event>
<event>
 8    1  0.2031623E-013  0.9118800E+02  0.7816164E-02  0.1184000E+00
        -11   -1    0    0    0    0  0.00000000000E+00  0.00000000000E+00  0.45593999997E+02  0.45594000000E+02  0.51100000000E-03 0. -1.
         11   -1    0    0    0    0 -0.00000000000E+00 -0.00000000000E+00 -0.45593999997E+02  0.45594000000E+02  0.51100000000E-03 0.  1.
         23    2    1    2    0    0 -0.71054273576E-14  0.00000000000E+00  0.71054273576E-14  0.91188000000E+02  0.91188000000E+02 0.  0.
    9900012    2    3    3    0    0  0.31997631166E+02 -0.12165716739E+02 -0.21938830397E+02  0.50528863964E+02  0.30000012505E+02 0.  0.
         12    1    3    3    0    0 -0.31997631166E+02  0.12165716739E+02  0.21938830397E+02  0.40659136036E+02  0.00000000000E+00 0. -1.
         11    1    4    4    0    0  0.24481898730E+01 -0.29721772210E+01  0.65720601058E+01  0.76170496508E+01  0.51100000000E-03 0. -1.
        -11    1    4    4    0    0  0.46807688951E+01 -0.24217896458E+01 -0.12921672702E+01  0.54262656637E+01  0.51100000000E-03 0.  1.
         12    1    4    4    0    0  0.24868672398E+02 -0.67717498722E+01 -0.27218723232E+02  0.37485548650E+02  0.00000000000E+00 0. -1.
</event>
<event>
 8    1  0.2031623E-013  0.9118800E+02  0.7816164E-02  0.1184000E+00
        -11   -1    0    0    0    0  0.00000000000E+00  0.00000000000E+00  0.45593999997E+02  0.45594000000E+02  0.51100000000E-03 0. -1.
         11   -1    0    0    0    0 -0.00000000000E+00 -0.00000000000E+00 -0.45593999997E+02  0.45594000000E+02  0.51100000000E-03 0.  1.
         23    2    1    2    0    0  0.34694469520E-15  0.00000000000E+00  0.00000000000E+00  0.91188000000E+02  0.91188000000E+02 0.  0.
    9900012    2    3    3    0    0 -0.91984345822E-01 -0.34464536153E+02 -0.21572042577E+02  0.50528859154E+02  0.29999997885E+02 0.  0.
         12    1    3    3    0    0  0.91984345822E-01  0.34464536153E+02  0.21572042577E+02  0.40659140846E+02  0.00000000000E+00 0. -1.
         11    1    4    4    0    0  0.16990626907E+01  0.20312246893E+01 -0.99791940165E+00  0.28299348329E+01  0.51100000000E-03 0. -1.
        -11    1    4    4    0    0 -0.12650200373E+01 -0.36869078858E+02 -0.11556885559E+02  0.38658645289E+02  0.51100000000E-03 0.  1.
        -12    1    4    4    0    0 -0.52602699921E+00  0.37331801510E+00 -0.90172376165E+01  0.90402790320E+01  0.00000000000E+00 0.  1.
</event>
<event>
 8    1  0.2031623E-013  0.9118800E+02  0.7816164E-02  0.1184000E+00
        -11   -1    0    0    0    0  0.00000000000E+00  0.00000000000E+00  0.45593999997E+02  0.45594000000E+02  0.51100000000E-03 0. -1.
         11   -1    0    0    0    0 -0.00000000000E+00 -0.00000000000E+00 -0.45593999997E+02  0.45594000000E+02  0.51100000000E-03 0.  1.
         23    2    1    2    0    0  0.35527136788E-14  0.17763568394E-14  0.00000000000E+00  0.91188000000E+02  0.91188000000E+02 0.  0.
    9900012    2    3    3    0    0  0.18584571764E+02  0.76691414263E+01  0.35340680175E+02  0.50528859415E+02  0.29999998678E+02 0.  0.
        -12    1    3    3    0    0 -0.18584571764E+02 -0.76691414263E+01 -0.35340680175E+02  0.40659140585E+02  0.00000000000E+00 0.  1.
         11    1    4    4    0    0  0.33452630657E+01  0.14750601052E+02  0.20497893498E+02  0.25474195856E+02  0.51100000000E-03 0. -1.
        -11    1    4    4    0    0  0.42436807926E+01 -0.78925240597E+01  0.84121828959E+01  0.12290874014E+02  0.51100000000E-03 0.  1.
        -12    1    4    4    0    0  0.10995627906E+02  0.81106443355E+00  0.64306037809E+01  0.12763789545E+02  0.00000000000E+00 0.  1.
</event>
<event>
 8    1  0.2035747E-013  0.9118800E+02  0.7816164E-02  0.1184000E+00
        -11   -1    0    0    0    0  0.00000000000E+00  0.00000000000E+00  0.45593999997E+02  0.45594000000E+02  0.51100000000E-03 0. -1.
         11   -1    0    0    0    0 -0.00000000000E+00 -0.00000000000E+00 -0.45593999997E+02  0.45594000000E+02  0.51100000000E-03 0.  1.
         23    2    1    2    0    0  0.35527136788E-14  0.71054273576E-14 -0.35527136788E-14  0.91188000000E+02  0.91188000000E+02 0.  0.
    9900012    2    3    3    0    0  0.23932718953E+02  0.24887246691E+02 -0.21471282502E+02  0.50528855191E+02  0.29999985838E+02 0.  0.
         12    1    3    3    0    0 -0.23932718953E+02 -0.24887246691E+02  0.21471282502E+02  0.40659144809E+02  0.00000000000E+00 0. -1.
         11    1    4    4    0    0  0.21824932113E+01 -0.48502251488E+01 -0.86014491764E+01  0.10113005923E+02  0.51100000000E-03 0. -1.
        -11    1    4    4    0    0  0.10472276242E+02  0.19489684691E+02 -0.11959018370E+02  0.25150238561E+02  0.51100000000E-03 0.  1.
         12    1    4    4    0    0  0.11277949499E+02  0.10247787149E+02 -0.91081495527E+00  0.15265610706E+02  0.00000000000E+00 0. -1.
</event>
<event>
 8    1  0.2031623E-013  0.9118800E+02  0.7816164E-02  0.1184000E+00
        -11   -1    0    0    0    0  0.00000000000E+00  0.00000000000E+00  0.45593999997E+02  0.45594000000E+02  0.51100000000E-03 0. -1.
         11   -1    0    0    0    0 -0.00000000000E+00 -0.00000000000E+00 -0.45593999997E+02  0.45594000000E+02  0.51100000000E-03 0.  1.
         23    2    1    2    0    0  0.35527136788E-14  0.00000000000E+00 -0.35527136788E-14  0.91188000000E+02  0.91188000000E+02 0.  0.
    9900012    2    3    3    0    0  0.30800546682E+02  0.11427241154E+02 -0.23956439877E+02  0.50528849396E+02  0.29999968223E+02 0.  0.
         12    1    3    3    0    0 -0.30800546682E+02 -0.11427241154E+02  0.23956439877E+02  0.40659150604E+02  0.00000000000E+00 0. -1.
         11    1    4    4    0    0  0.22016781076E+01 -0.71924818130E+01  0.45628807449E+00  0.75357401884E+01  0.51100000000E-03 0. -1.
        -11    1    4    4    0    0  0.13202251413E+02  0.14126772792E+02 -0.13971496346E+02  0.23855143309E+02  0.51100000000E-03 0.  1.
         12    1    4    4    0    0  0.15396617161E+02  0.44929501751E+01 -0.10441231605E+02  0.19137965898E+02  0.00000000000E+00 0. -1.
</event>
<event>
 8    1  0.2031623E-013  0.9118800E+02  0.7816164E-02  0.1184000E+00
        -11   -1    0    0    0    0  0.00000000000E+00  0.00000000000E+00  0.45593999997E+02  0.45594000000E+02  0.51100000000E-03 0. -1.
         11   -1    0    0    0    0 -0.00000000000E+00 -0.00000000000E+00 -0.45593999997E+02  0.45594000000E+02  0.51100000000E-03 0.  1.
         23    2    1    2    0    0 -0.35527136788E-14 -0.88817841970E-15  0.00000000000E+00  0.91188000000E+02  0.91188000000E+02 0.  0.
    9900012    2    3    3    0    0  0.16721656345E+02  0.36092243050E+01  0.36885302351E+02  0.50528858094E+02  0.29999994664E+02 0.  0.
        -12    1    3    3    0    0 -0.16721656345E+02 -0.36092243050E+01 -0.36885302351E+02  0.40659141906E+02  0.00000000000E+00 0.  1.
         11    1    4    4    0    0  0.17009410867E+02  0.61360104332E+01  0.25426050274E+02  0.31200235815E+02  0.51100000000E-03 0. -1.
        -11    1    4    4    0    0 -0.67986859733E+01 -0.51075506956E+01  0.54489195264E+01  0.10099501440E+02  0.51100000000E-03 0.  1.
        -12    1    4    4    0    0  0.65109314508E+01  0.25807645674E+01  0.60103325503E+01  0.92291208398E+01  0.00000000000E+00 0.  1.
</event>
<event>
 8    1  0.2031623E-013  0.9118800E+02  0.7816164E-02  0.1184000E+00
        -11   -1    0    0    0    0  0.00000000000E+00  0.00000000000E+00  0.45593999997E+02  0.45594000000E+02  0.51100000000E-03 0. -1.
         11   -1    0    0    0    0 -0.00000000000E+00 -0.00000000000E+00 -0.45593999997E+02  0.45594000000E+02  0.51100000000E-03 0.  1.
         23    2    1    2    0    0 -0.88817841970E-15 -0.22204460493E-14  0.00000000000E+00  0.91188000000E+02  0.91188000000E+02 0.  0.
    9900012    2    3    3    0    0  0.70512632006E+01  0.20802823699E+01  0.39988971038E+02  0.50528859673E+02  0.29999999463E+02 0.  0.
        -12    1    3    3    0    0 -0.70512632006E+01 -0.20802823699E+01 -0.39988971038E+02  0.40659140327E+02  0.00000000000E+00 0.  1.
         11    1    4    4    0    0  0.10065302259E+02 -0.68265423491E+01  0.36261082385E+02  0.38246281989E+02  0.51100000000E-03 0. -1.
        -11    1    4    4    0    0 -0.25086178001E+01  0.85304838571E+01  0.54635103174E+01  0.10436103840E+02  0.51100000000E-03 0.  1.
         12    1    4    4    0    0 -0.50542125834E+00  0.37634086179E+00 -0.17356216651E+01  0.18464738441E+01  0.00000000000E+00 0. -1.
</event>
<event>
 8    1  0.2031623E-013  0.9118800E+02  0.7816164E-02  0.1184000E+00
        -11   -1    0    0    0    0  0.00000000000E+00  0.00000000000E+00  0.45593999997E+02  0.45594000000E+02  0.51100000000E-03 0. -1.
         11   -1    0    0    0    0 -0.00000000000E+00 -0.00000000000E+00 -0.45593999997E+02  0.45594000000E+02  0.51100000000E-03 0.  1.
         23    2    1    2    0    0  0.00000000000E+00  0.00000000000E+00 -0.35527136788E-14  0.91188000000E+02  0.91188000000E+02 0.  0.
    9900012    2    3    3    0    0  0.36462104961E+02 -0.60648414204E+01  0.16938064252E+02  0.50528863016E+02  0.30000009625E+02 0.  0.
        -12    1    3    3    0    0 -0.36462104961E+02  0.60648414204E+01 -0.16938064252E+02  0.40659136984E+02  0.00000000000E+00 0.  1.
         11    1    4    4    0    0  0.12727660364E+02 -0.81772965883E+00  0.44391985153E+00  0.12761625493E+02  0.51100000000E-03 0. -1.
        -11    1    4    4    0    0  0.12500508816E+02 -0.14693641155E+02  0.90245508573E+01  0.21298082766E+02  0.51100000000E-03 0.  1.
        -12    1    4    4    0    0  0.11233935781E+02  0.94465293939E+01  0.74695935427E+01  0.16469154757E+02  0.00000000000E+00 0.  1.
</event>
<event>
 8    1  0.2031623E-013  0.9118800E+02  0.7816164E-02  0.1184000E+00
        -11   -1    0    0    0    0  0.00000000000E+00  0.00000000000E+00  0.45593999997E+02  0.45594000000E+02  0.51100000000E-03 0. -1.
         11   -1    0    0    0    0 -0.00000000000E+00 -0.00000000000E+00 -0.45593999997E+02  0.45594000000E+02  0.51100000000E-03 0.  1.
         23    2    1    2    0    0  0.00000000000E+00  0.00000000000E+00  0.00000000000E+00  0.91188000000E+02  0.91188000000E+02 0.  0.
    9900012    2    3    3    0    0 -0.15135343124E+02  0.28652186376E+02 -0.24558895666E+02  0.50528858938E+02  0.29999997226E+02 0.  0.
         12    1    3    3    0    0  0.15135343124E+02 -0.28652186376E+02  0.24558895666E+02  0.40659141062E+02  0.00000000000E+00 0. -1.
         11    1    4    4    0    0 -0.10365845959E+02  0.91123543746E+01  0.27423940858E+01  0.14071477900E+02  0.51100000000E-03 0. -1.
        -11    1    4    4    0    0 -0.47401477134E+01  0.19524330602E+02 -0.17465829598E+02  0.26621864879E+02  0.51100000000E-03 0.  1.
        -12    1    4    4    0    0 -0.29349451180E-01  0.15501399308E-01 -0.98354601531E+01  0.98355161587E+01  0.00000000000E+00 0.  1.
</event>
<event>
 8    1  0.2031623E-013  0.9118800E+02  0.7816164E-02  0.1184000E+00
        -11   -1    0    0    0    0  0.00000000000E+00  0.00000000000E+00  0.45593999997E+02  0.45594000000E+02  0.51100000000E-03 0. -1.
         11   -1    0    0    0    0 -0.00000000000E+00 -0.00000000000E+00 -0.45593999997E+02  0.45594000000E+02  0.51100000000E-03 0.  1.
         23    2    1    2    0    0  0.00000000000E+00  0.00000000000E+00 -0.17763568394E-14  0.91188000000E+02  0.91188000000E+02 0.  0.
    9900012    2    3    3    0    0  0.30286232996E+02  0.26591600180E+02  0.53662362844E+01  0.50528860793E+02  0.30000002866E+02 0.  0.
        -12    1    3    3    0    0 -0.30286232996E+02 -0.26591600180E+02 -0.53662362844E+01  0.40659139207E+02  0.00000000000E+00 0.  1.
         11    1    4    4    0    0  0.62878044334E+01  0.15261061069E+02  0.18388710093E+01  0.16607766749E+02  0.51100000000E-03 0. -1.
        -11    1    4    4    0    0  0.20120520091E+02 -0.10886033940E+01 -0.92142117588E+00  0.20171004024E+02  0.51100000000E-03 0.  1.
        -12    1    4    4    0    0  0.38779084714E+01  0.12419142506E+02  0.44487864510E+01  0.13750090021E+02  0.00000000000E+00 0.  1.
</event>
<event>
 8    1  0.2031623E-013  0.9118800E+02  0.7816164E-02  0.1184000E+00
        -11   -1    0    0    0    0  0.00000000000E+00  0.00000000000E+00  0.45593999997E+02  0.45594000000E+02  0.51100000000E-03 0. -1.
         11   -1    0    0    0    0 -0.00000000000E+00 -0.00000000000E+00 -0.45593999997E+02  0.45594000000E+02  0.51100000000E-03 0.  1.
         23    2    1    2    0    0 -0.17763568394E-14  0.00000000000E+00 -0.71054273576E-14  0.91188000000E+02  0.91188000000E+02 0.  0.
    9900012    2    3    3    0    0  0.12770869342E+02  0.25910215602E+01  0.38514386284E+02  0.50528850386E+02  0.29999971233E+02 0.  0.
        -12    1    3    3    0    0 -0.12770869342E+02 -0.25910215602E+01 -0.38514386284E+02  0.40659149614E+02  0.00000000000E+00 0.  1.
         11    1    4    4    0    0 -0.28315967493E+01  0.52891475044E+00  0.23856389847E+02  0.24029669739E+02  0.51100000000E-03 0. -1.
        -11    1    4    4    0    0  0.14326012547E+02 -0.44767222963E+01  0.12386800226E+02  0.19460434171E+02  0.51100000000E-03 0.  1.
        -12    1    4    4    0    0  0.12764535448E+01  0.65388291061E+01  0.22711962112E+01  0.70387464765E+01  0.00000000000E+00 0.  1.
</event>
<event>
 8    1  0.2031623E-013  0.9118800E+02  0.7816164E-02  0.1184000E+00
        -11   -1    0    0    0    0  0.00000000000E+00  0.00000000000E+00  0.45593999997E+02  0.45594000000E+02  0.51100000000E-03 0. -1.
         11   -1    0    0    0    0 -0.00000000000E+00 -0.00000000000E+00 -0.45593999997E+02  0.45594000000E+02  0.51100000000E-03 0.  1.
         23    2    1    2    0    0  0.71054273576E-14  0.71054273576E-14  0.00000000000E+00  0.91188000000E+02  0.91188000000E+02 0.  0.
    9900012    2    3    3    0    0  0.34824180134E+02  0.18891087132E+02  0.91415955581E+01  0.50528862474E+02  0.30000007976E+02 0.  0.
        -12    1    3    3    0    0 -0.34824180134E+02 -0.18891087132E+02 -0.91415955581E+01  0.40659137526E+02  0.00000000000E+00 0.  1.
         11    1    4    4    0    0  0.35905232508E+01  0.84652862652E+01  0.27331277446E+01  0.95928575667E+01  0.51100000000E-03 0. -1.
        -11    1    4    4    0    0  0.98964039305E+01 -0.70916854301E+01 -0.13761731425E+01  0.12252537116E+02  0.51100000000E-03 0.  1.
        -12    1    4    4    0    0  0.21337252952E+02  0.17517486297E+02  0.77846409560E+01  0.28683467791E+02  0.00000000000E+00 0.  1.
</event>
<event>
 8    1  0.2031623E-013  0.9118800E+02  0.7816164E-02  0.1184000E+00
        -11   -1    0    0    0    0  0.00000000000E+00  0.00000000000E+00  0.45593999997E+02  0.45594000000E+02  0.51100000000E-03 0. -1.
         11   -1    0    0    0    0 -0.00000000000E+00 -0.00000000000E+00 -0.45593999997E+02  0.45594000000E+02  0.51100000000E-03 0.  1.
         23    2    1    2    0    0 -0.17763568394E-14 -0.17763568394E-14  0.00000000000E+00  0.91188000000E+02  0.91188000000E+02 0.  0.
    9900012    2    3    3    0    0  0.12263763564E+02  0.15963341483E+02  0.35326153466E+02  0.50528864658E+02  0.30000014614E+02 0.  0.
        -12    1    3    3    0    0 -0.12263763564E+02 -0.15963341483E+02 -0.35326153466E+02  0.40659135342E+02  0.00000000000E+00 0.  1.
         11    1    4    4    0    0  0.12451646873E+02  0.80490882501E+00  0.28143997758E+02  0.30785970801E+02  0.51100000000E-03 0.  1.
        -11    1    4    4    0    0 -0.31824005677E+01  0.14300888800E+02  0.77537475085E+01  0.16575997543E+02  0.51100000000E-03 0. -1.
        -12    1    4    4    0    0  0.29945172587E+01  0.85754385793E+00 -0.57159180023E+00  0.31668963145E+01  0.00000000000E+00 0.  1.
</event>
<event>
 8    1  0.2031623E-013  0.9118800E+02  0.7816164E-02  0.1184000E+00
        -11   -1    0    0    0    0  0.00000000000E+00  0.00000000000E+00  0.45593999997E+02  0.45594000000E+02  0.51100000000E-03 0. -1.
         11   -1    0    0    0    0 -0.00000000000E+00 -0.00000000000E+00 -0.45593999997E+02  0.45594000000E+02  0.51100000000E-03 0.  1.
         23    2    1    2    0    0  0.35527136788E-14  0.00000000000E+00  0.00000000000E+00  0.91188000000E+02  0.91188000000E+02 0.  0.
    9900012    2    3    3    0    0  0.22818165096E+02  0.12337238628E+02  0.31309574432E+02  0.50528861219E+02  0.30000004162E+02 0.  0.
        -12    1    3    3    0    0 -0.22818165096E+02 -0.12337238628E+02 -0.31309574432E+02  0.40659138781E+02  0.00000000000E+00 0.  1.
         11    1    4    4    0    0  0.16023690110E+02  0.10231836724E+02  0.29306421224E+02  0.34933013794E+02  0.51100000000E-03 0. -1.
        -11    1    4    4    0    0  0.93720425133E+01 -0.22317027894E+01 -0.10620868519E+01  0.96924561879E+01  0.51100000000E-03 0.  1.
        -12    1    4    4    0    0 -0.25775675279E+01  0.43371046933E+01  0.30652400593E+01  0.59033912375E+01  0.00000000000E+00 0.  1.
</event>
<event>
 8    1  0.2031623E-013  0.9118800E+02  0.7816164E-02  0.1184000E+00
        -11   -1    0    0    0    0  0.00000000000E+00  0.00000000000E+00  0.45593999997E+02  0.45594000000E+02  0.51100000000E-03 0.  1.
         11   -1    0    0    0    0 -0.00000000000E+00 -0.00000000000E+00 -0.45593999997E+02  0.45594000000E+02  0.51100000000E-03 0. -1.
         23    2    1    2    0    0  0.00000000000E+00  0.00000000000E+00 -0.35527136788E-14  0.91188000000E+02  0.91188000000E+02 0.  0.
    9900012    2    3    3    0    0  0.28620854984E+02 -0.23714371737E+02 -0.16481535067E+02  0.50528858776E+02  0.29999996736E+02 0.  0.
         12    1    3    3    0    0 -0.28620854984E+02  0.23714371737E+02  0.16481535067E+02  0.40659141224E+02  0.00000000000E+00 0. -1.
         11    1    4    4    0    0  0.20008693162E+02 -0.12489487489E+02 -0.15394752169E+02  0.28166176425E+02  0.51100000000E-03 0. -1.
        -11    1    4    4    0    0 -0.53231184332E+01 -0.27652757361E+01 -0.85360944941E+00  0.60589594077E+01  0.51100000000E-03 0.  1.
        -12    1    4    4    0    0  0.13935280255E+02 -0.84596085123E+01 -0.23317344803E+00  0.16303722944E+02  0.00000000000E+00 0.  1.
</event>
<event>
 8    1  0.2031623E-013  0.9118800E+02  0.7816164E-02  0.1184000E+00
        -11   -1    0    0    0    0  0.00000000000E+00  0.00000000000E+00  0.45593999997E+02  0.45594000000E+02  0.51100000000E-03 0. -1.
         11   -1    0    0    0    0 -0.00000000000E+00 -0.00000000000E+00 -0.45593999997E+02  0.45594000000E+02  0.51100000000E-03 0.  1.
         23    2    1    2    0    0  0.35527136788E-14  0.88817841970E-15  0.35527136788E-14  0.91188000000E+02  0.91188000000E+02 0.  0.
    9900012    2    3    3    0    0  0.29576489364E+02 -0.61944390137E+01  0.27203403653E+02  0.50528868577E+02  0.30000026526E+02 0.  0.
        -12    1    3    3    0    0 -0.29576489364E+02  0.61944390137E+01 -0.27203403653E+02  0.40659131423E+02  0.00000000000E+00 0.  1.
         11    1    4    4    0    0  0.22160445625E+02 -0.64214421040E+01  0.10854204951E+02  0.25497726063E+02  0.51100000000E-03 0. -1.
        -11    1    4    4    0    0  0.38976247733E+01  0.88064514142E+01  0.92448624624E+01  0.13349627246E+02  0.51100000000E-03 0.  1.
        -12    1    4    4    0    0  0.35184189656E+01 -0.85794483240E+01  0.71043362392E+01  0.11681515268E+02  0.00000000000E+00 0.  1.
</event>
<event>
 8    1  0.2031623E-013  0.9118800E+02  0.7816164E-02  0.1184000E+00
        -11   -1    0    0    0    0  0.00000000000E+00  0.00000000000E+00  0.45593999997E+02  0.45594000000E+02  0.51100000000E-03 0. -1.
         11   -1    0    0    0    0 -0.00000000000E+00 -0.00000000000E+00 -0.45593999997E+02  0.45594000000E+02  0.51100000000E-03 0.  1.
         23    2    1    2    0    0  0.35527136788E-14  0.00000000000E+00  0.35527136788E-14  0.91188000000E+02  0.91188000000E+02 0.  0.
    9900012    2    3    3    0    0 -0.21132397134E+02  0.25144938785E+02 -0.23964947446E+02  0.50528869891E+02  0.30000030521E+02 0.  0.
         12    1    3    3    0    0  0.21132397134E+02 -0.25144938785E+02  0.23964947446E+02  0.40659130109E+02  0.00000000000E+00 0. -1.
         11    1    4    4    0    0 -0.24456941641E+02  0.21299668761E+02 -0.17264498908E+02  0.36740724088E+02  0.51100000000E-03 0. -1.
        -11    1    4    4    0    0  0.26062206674E+01  0.37336636245E+01 -0.96926645235E+01  0.10708892382E+02  0.51100000000E-03 0.  1.
         12    1    4    4    0    0  0.71832383878E+00  0.11160639909E+00  0.29922159852E+01  0.30792534205E+01  0.00000000000E+00 0. -1.
</event>
<event>
 8    1  0.2031623E-013  0.9118800E+02  0.7816164E-02  0.1184000E+00
        -11   -1    0    0    0    0  0.00000000000E+00  0.00000000000E+00  0.45593999997E+02  0.45594000000E+02  0.51100000000E-03 0. -1.
         11   -1    0    0    0    0 -0.00000000000E+00 -0.00000000000E+00 -0.45593999997E+02  0.45594000000E+02  0.51100000000E-03 0.  1.
         23    2    1    2    0    0  0.35527136788E-14  0.17763568394E-14 -0.35527136788E-14  0.91188000000E+02  0.91188000000E+02 0.  0.
    9900012    2    3    3    0    0 -0.26660122720E+02 -0.14731853126E+02 -0.26932819174E+02  0.50528851108E+02  0.29999973427E+02 0.  0.
         12    1    3    3    0    0  0.26660122720E+02  0.14731853126E+02  0.26932819174E+02  0.40659148892E+02  0.00000000000E+00 0. -1.
         11    1    4    4    0    0 -0.29914305226E+01 -0.41030284304E+01 -0.22655654049E+02  0.23217712194E+02  0.51100000000E-03 0. -1.
        -11    1    4    4    0    0 -0.22569905419E+02 -0.11698264866E+02 -0.37907444508E+01  0.25702524686E+02  0.51100000000E-03 0.  1.
         12    1    4    4    0    0 -0.10987867776E+01  0.10694401698E+01 -0.48642067434E+00  0.16086142272E+01  0.00000000000E+00 0. -1.
</event>
<event>
 8    1  0.2031623E-013  0.9118800E+02  0.7816164E-02  0.1184000E+00
        -11   -1    0    0    0    0  0.00000000000E+00  0.00000000000E+00  0.45593999997E+02  0.45594000000E+02  0.51100000000E-03 0. -1.
         11   -1    0    0    0    0 -0.00000000000E+00 -0.00000000000E+00 -0.45593999997E+02  0.45594000000E+02  0.51100000000E-03 0.  1.
         23    2    1    2    0    0  0.10658141036E-13  0.00000000000E+00  0.35527136788E-14  0.91188000000E+02  0.91188000000E+02 0.  0.
    9900012    2    3    3    0    0 -0.31785783081E+02  0.16667816752E+02 -0.19105323075E+02  0.50528862144E+02  0.30000006973E+02 0.  0.
         12    1    3    3    0    0  0.31785783081E+02 -0.16667816752E+02  0.19105323075E+02  0.40659137856E+02  0.00000000000E+00 0. -1.
         11    1    4    4    0    0 -0.38406677981E+01 -0.68853281429E+01 -0.45055233138E+01  0.90806504923E+01  0.51100000000E-03 0. -1.
        -11    1    4    4    0    0 -0.16165028760E+02  0.21315066869E+02 -0.91062182480E+01  0.28258864830E+02  0.51100000000E-03 0.  1.
         12    1    4    4    0    0 -0.11780086523E+02  0.22380780263E+01 -0.54935815136E+01  0.13189346822E+02  0.00000000000E+00 0. -1.
</event>
<event>
 8    1  0.2031623E-013  0.9118800E+02  0.7816164E-02  0.1184000E+00
        -11   -1    0    0    0    0  0.00000000000E+00  0.00000000000E+00  0.45593999997E+02  0.45594000000E+02  0.51100000000E-03 0. -1.
         11   -1    0    0    0    0 -0.00000000000E+00 -0.00000000000E+00 -0.45593999997E+02  0.45594000000E+02  0.51100000000E-03 0.  1.
         23    2    1    2    0    0  0.00000000000E+00  0.00000000000E+00  0.00000000000E+00  0.91188000000E+02  0.91188000000E+02 0.  0.
    9900012    2    3    3    0    0  0.13570767106E+02  0.29127305485E+02 -0.24911830189E+02  0.50528869069E+02  0.30000028024E+02 0.  0.
         12    1    3    3    0    0 -0.13570767106E+02 -0.29127305485E+02  0.24911830189E+02  0.40659130931E+02  0.00000000000E+00 0. -1.
         11    1    4    4    0    0  0.26445138614E+01  0.40498985778E+01 -0.22423752087E+02  0.22939481031E+02  0.51100000000E-03 0. -1.
        -11    1    4    4    0    0  0.84198771294E+01  0.17795963652E+02 -0.27827468599E+01  0.19883016208E+02  0.51100000000E-03 0.  1.
         12    1    4    4    0    0  0.25063761151E+01  0.72814432549E+01  0.29466875821E+00  0.77063718300E+01  0.00000000000E+00 0. -1.
</event>
<event>
 8    1  0.2031623E-013  0.9118800E+02  0.7816164E-02  0.1184000E+00
        -11   -1    0    0    0    0  0.00000000000E+00  0.00000000000E+00  0.45593999997E+02  0.45594000000E+02  0.51100000000E-03 0. -1.
         11   -1    0    0    0    0 -0.00000000000E+00 -0.00000000000E+00 -0.45593999997E+02  0.45594000000E+02  0.51100000000E-03 0.  1.
         23    2    1    2    0    0  0.00000000000E+00  0.00000000000E+00 -0.35527136788E-14  0.91188000000E+02  0.91188000000E+02 0.  0.
    9900012    2    3    3    0    0 -0.25618433840E+02 -0.11185318620E+02 -0.29525417698E+02  0.50528858405E+02  0.29999995606E+02 0.  0.
         12    1    3    3    0    0  0.25618433840E+02  0.11185318620E+02  0.29525417698E+02  0.40659141595E+02  0.00000000000E+00 0. -1.
         11    1    4    4    0    0 -0.27140329916E+02 -0.79877493891E+01 -0.12541375074E+02  0.30946530295E+02  0.51100000000E-03 0. -1.
        -11    1    4    4    0    0  0.60377482423E-01  0.25380222282E+01 -0.13715696368E+01  0.28855512127E+01  0.51100000000E-03 0.  1.
         12    1    4    4    0    0  0.14615185939E+01 -0.57355914590E+01 -0.15612472987E+02  0.16696776897E+02  0.00000000000E+00 0. -1.
</event>
<event>
 8    1  0.2031623E-013  0.9118800E+02  0.7816164E-02  0.1184000E+00
        -11   -1    0    0    0    0  0.00000000000E+00  0.00000000000E+00  0.45593999997E+02  0.45594000000E+02  0.51100000000E-03 0. -1.
         11   -1    0    0    0    0 -0.00000000000E+00 -0.00000000000E+00 -0.45593999997E+02  0.45594000000E+02  0.51100000000E-03 0.  1.
         23    2    1    2    0    0  0.35527136788E-14  0.00000000000E+00  0.00000000000E+00  0.91188000000E+02  0.91188000000E+02 0.  0.
    9900012    2    3    3    0    0  0.16418535528E+02  0.33308651974E+02  0.16556852974E+02  0.50528880659E+02  0.30000063251E+02 0.  0.
        -12    1    3    3    0    0 -0.16418535528E+02 -0.33308651974E+02 -0.16556852974E+02  0.40659119341E+02  0.00000000000E+00 0.  1.
         11    1    4    4    0    0  0.13544003164E+02  0.23034179114E+02  0.11019364987E+02  0.28903976095E+02  0.51100000000E-03 0. -1.
        -11    1    4    4    0    0  0.45047902779E+01 -0.42703596443E+01  0.24097004157E+01  0.66585105913E+01  0.51100000000E-03 0.  1.
        -12    1    4    4    0    0 -0.16302579137E+01  0.14544832504E+02  0.31277875718E+01  0.14966393972E+02  0.00000000000E+00 0.  1.
</event>
<event>
 8    1  0.2031623E-013  0.9118800E+02  0.7816164E-02  0.1184000E+00
        -11   -1    0    0    0    0  0.00000000000E+00  0.00000000000E+00  0.45593999997E+02  0.45594000000E+02  0.51100000000E-03 0. -1.
         11   -1    0    0    0    0 -0.00000000000E+00 -0.00000000000E+00 -0.45593999997E+02  0.45594000000E+02  0.51100000000E-03 0.  1.
         23    2    1    2    0    0  0.00000000000E+00  0.00000000000E+00 -0.71054273576E-14  0.91188000000E+02  0.91188000000E+02 0.  0.
    9900012    2    3    3    0    0 -0.17205989817E+02  0.12957123031E+02  0.34485249961E+02  0.50528860957E+02  0.30000003365E+02 0.  0.
        -12    1    3    3    0    0  0.17205989817E+02 -0.12957123031E+02 -0.34485249961E+02  0.40659139043E+02  0.00000000000E+00 0.  1.
         11    1    4    4    0    0 -0.11361061772E+02  0.11205675384E+02  0.25120502188E+02  0.29760385008E+02  0.51100000000E-03 0. -1.
        -11    1    4    4    0    0 -0.82391608604E-02  0.59568550485E+01 -0.28416218205E+01  0.65999246044E+01  0.51100000000E-03 0.  1.
        -12    1    4    4    0    0 -0.58366888837E+01 -0.42054074016E+01  0.12206369594E+02  0.14168551345E+02  0.00000000000E+00 0.  1.
</event>
<event>
 8    1  0.2031623E-013  0.9118800E+02  0.7816164E-02  0.1184000E+00
        -11   -1    0    0    0    0  0.00000000000E+00  0.00000000000E+00  0.45593999997E+02  0.45594000000E+02  0.51100000000E-03 0. -1.
         11   -1    0    0    0    0 -0.00000000000E+00 -0.00000000000E+00 -0.45593999997E+02  0.45594000000E+02  0.51100000000E-03 0.  1.
         23    2    1    2    0    0  0.00000000000E+00  0.00000000000E+00  0.00000000000E+00  0.91188000000E+02  0.91188000000E+02 0.  0.
    9900012    2    3    3    0    0 -0.99990596023E+01 -0.48645970294E+01 -0.39109063136E+02  0.50528876589E+02  0.30000050881E+02 0.  0.
         12    1    3    3    0    0  0.99990596023E+01  0.48645970294E+01  0.39109063136E+02  0.40659123411E+02  0.00000000000E+00 0. -1.
         11    1    4    4    0    0 -0.18761375150E+02 -0.31258607061E+01 -0.15302424435E+02  0.24411562763E+02  0.51100000000E-03 0. -1.
        -11    1    4    4    0    0  0.45433434577E+01  0.21017600018E+01 -0.12093459705E+02  0.13088587883E+02  0.51100000000E-03 0.  1.
         12    1    4    4    0    0  0.42189720900E+01 -0.38404963251E+01 -0.11713178996E+02  0.13028725943E+02  0.00000000000E+00 0. -1.
</event>
<event>
 8    1  0.2031623E-013  0.9118800E+02  0.7816164E-02  0.1184000E+00
        -11   -1    0    0    0    0  0.00000000000E+00  0.00000000000E+00  0.45593999997E+02  0.45594000000E+02  0.51100000000E-03 0. -1.
         11   -1    0    0    0    0 -0.00000000000E+00 -0.00000000000E+00 -0.45593999997E+02  0.45594000000E+02  0.51100000000E-03 0.  1.
         23    2    1    2    0    0  0.00000000000E+00 -0.17763568394E-14  0.00000000000E+00  0.91188000000E+02  0.91188000000E+02 0.  0.
    9900012    2    3    3    0    0  0.95541490100E+01 -0.12261917211E+02 -0.37570317833E+02  0.50528866228E+02  0.30000019387E+02 0.  0.
         12    1    3    3    0    0 -0.95541490100E+01  0.12261917211E+02  0.37570317833E+02  0.40659133772E+02  0.00000000000E+00 0. -1.
         11    1    4    4    0    0  0.12387353700E+02 -0.10801048212E+02 -0.39560491084E+02  0.42838553071E+02  0.51100000000E-03 0. -1.
        -11    1    4    4    0    0 -0.37081971725E+01 -0.35116352994E+01  0.82074863091E+00  0.51726141672E+01  0.51100000000E-03 0.  1.
         12    1    4    4    0    0  0.87499248203E+00  0.20507662998E+01  0.11694246201E+01  0.25176989896E+01  0.00000000000E+00 0. -1.
</event>
<event>
 8    1  0.2031623E-013  0.9118800E+02  0.7816164E-02  0.1184000E+00
        -11   -1    0    0    0    0  0.00000000000E+00  0.00000000000E+00  0.45593999997E+02  0.45594000000E+02  0.51100000000E-03 0. -1.
         11   -1    0    0    0    0 -0.00000000000E+00 -0.00000000000E+00 -0.45593999997E+02  0.45594000000E+02  0.51100000000E-03 0.  1.
         23    2    1    2    0    0  0.00000000000E+00  0.17763568394E-14  0.71054273576E-14  0.91188000000E+02  0.91188000000E+02 0.  0.
    9900012    2    3    3    0    0 -0.19376468479E+02  0.13904470180E+02 -0.32930009352E+02  0.50528839438E+02  0.29999937955E+02 0.  0.
         12    1    3    3    0    0  0.19376468479E+02 -0.13904470180E+02  0.32930009352E+02  0.40659160562E+02  0.00000000000E+00 0. -1.
         11    1    4    4    0    0 -0.40447773809E+00  0.17431412560E+02 -0.14653631651E+02  0.22776010777E+02  0.51100000000E-03 0.  1.
        -11    1    4    4    0    0 -0.11988457695E+02 -0.72192695909E+00 -0.15765799176E+02  0.19819301712E+02  0.51100000000E-03 0. -1.
        -12    1    4    4    0    0 -0.69835330462E+01 -0.28050154207E+01 -0.25105785241E+01  0.79335269486E+01  0.00000000000E+00 0.  1.
</event>
<event>
 8    1  0.2031623E-013  0.9118800E+02  0.7816164E-02  0.1184000E+00
        -11   -1    0    0    0    0  0.00000000000E+00  0.00000000000E+00  0.45593999997E+02  0.45594000000E+02  0.51100000000E-03 0. -1.
         11   -1    0    0    0    0 -0.00000000000E+00 -0.00000000000E+00 -0.45593999997E+02  0.45594000000E+02  0.51100000000E-03 0.  1.
         23    2    1    2    0    0  0.00000000000E+00 -0.17763568394E-14  0.00000000000E+00  0.91188000000E+02  0.91188000000E+02 0.  0.
    9900012    2    3    3    0    0 -0.14656082126E+02  0.12729500934E+02  0.35725723500E+02  0.50528828133E+02  0.29999903594E+02 0.  0.
        -12    1    3    3    0    0  0.14656082126E+02 -0.12729500934E+02 -0.35725723500E+02  0.40659171867E+02  0.00000000000E+00 0.  1.
         11    1    4    4    0    0  0.31727076076E+01  0.70329846891E+01  0.24492397539E+02  0.25678911283E+02  0.51100000000E-03 0. -1.
        -11    1    4    4    0    0 -0.69567738148E+01 -0.34419697428E+01  0.55997844666E+01  0.95708643264E+01  0.51100000000E-03 0.  1.
         12    1    4    4    0    0 -0.10872015919E+02  0.91384859873E+01  0.56335414943E+01  0.15279052525E+02  0.00000000000E+00 0. -1.
</event>
<event>
 8    1  0.2031623E-013  0.9118800E+02  0.7816164E-02  0.1184000E+00
        -11   -1    0    0    0    0  0.00000000000E+00  0.00000000000E+00  0.45593999997E+02  0.45594000000E+02  0.51100000000E-03 0. -1.
         11   -1    0    0    0    0 -0.00000000000E+00 -0.00000000000E+00 -0.45593999997E+02  0.45594000000E+02  0.51100000000E-03 0.  1.
         23    2    1    2    0    0  0.88817841970E-15  0.35527136788E-14  0.71054273576E-14  0.91188000000E+02  0.91188000000E+02 0.  0.
    9900012    2    3    3    0    0 -0.66860035002E+01  0.11342580594E+02  0.38468304156E+02  0.50528841105E+02  0.29999943024E+02 0.  0.
        -12    1    3    3    0    0  0.66860035002E+01 -0.11342580594E+02 -0.38468304156E+02  0.40659158895E+02  0.00000000000E+00 0.  1.
         11    1    4    4    0    0  0.79284891584E+01  0.34081199541E+01  0.19549785910E+02  0.21369846779E+02  0.51100000000E-03 0. -1.
        -11    1    4    4    0    0 -0.26009182110E+01  0.64087505189E+01  0.26784050431E+00  0.69216036835E+01  0.51100000000E-03 0.  1.
         12    1    4    4    0    0 -0.12013574448E+02  0.15257101211E+01  0.18650677742E+02  0.22237390643E+02  0.00000000000E+00 0. -1.
</event>
<event>
 8    1  0.2031623E-013  0.9118800E+02  0.7816164E-02  0.1184000E+00
        -11   -1    0    0    0    0  0.00000000000E+00  0.00000000000E+00  0.45593999997E+02  0.45594000000E+02  0.51100000000E-03 0. -1.
         11   -1    0    0    0    0 -0.00000000000E+00 -0.00000000000E+00 -0.45593999997E+02  0.45594000000E+02  0.51100000000E-03 0.  1.
         23    2    1    2    0    0  0.00000000000E+00 -0.44408920985E-15  0.00000000000E+00  0.91188000000E+02  0.91188000000E+02 0.  0.
    9900012    2    3    3    0    0  0.13136191248E+01  0.15252751170E+01 -0.40609282110E+02  0.50528857697E+02  0.29999993455E+02 0.  0.
         12    1    3    3    0    0 -0.13136191248E+01 -0.15252751170E+01  0.40609282110E+02  0.40659142303E+02  0.00000000000E+00 0. -1.
         11    1    4    4    0    0 -0.94156664468E+01 -0.36732677917E+01 -0.33213707256E+02  0.34717402277E+02  0.51100000000E-03 0. -1.
        -11    1    4    4    0    0  0.35970856406E+01 -0.10304376287E+01 -0.46170345083E+01  0.59428810122E+01  0.51100000000E-03 0.  1.
         12    1    4    4    0    0  0.71321999310E+01  0.62289805373E+01 -0.27785403456E+01  0.98685744078E+01  0.00000000000E+00 0. -1.
</event>
<event>
 8    1  0.2031623E-013  0.9118800E+02  0.7816164E-02  0.1184000E+00
        -11   -1    0    0    0    0  0.00000000000E+00  0.00000000000E+00  0.45593999997E+02  0.45594000000E+02  0.51100000000E-03 0.  1.
         11   -1    0    0    0    0 -0.00000000000E+00 -0.00000000000E+00 -0.45593999997E+02  0.45594000000E+02  0.51100000000E-03 0. -1.
         23    2    1    2    0    0  0.00000000000E+00  0.00000000000E+00  0.22204460493E-15  0.91188000000E+02  0.91188000000E+02 0.  0.
    9900012    2    3    3    0    0  0.36009628221E+02  0.18803230003E+02 -0.17062660348E+01  0.50528854326E+02  0.29999983209E+02 0.  0.
        -12    1    3    3    0    0 -0.36009628221E+02 -0.18803230003E+02  0.17062660348E+01  0.40659145674E+02  0.00000000000E+00 0.  1.
         11    1    4    4    0    0  0.26687717858E+02  0.92737429996E+01 -0.72443843802E+01  0.29167065314E+02  0.51100000000E-03 0. -1.
        -11    1    4    4    0    0  0.13320641645E+02  0.78986720620E+01  0.67244208543E+01  0.16883315737E+02  0.51100000000E-03 0.  1.
         12    1    4    4    0    0 -0.39987312822E+01  0.16308149416E+01 -0.11863025089E+01  0.44784732759E+01  0.00000000000E+00 0. -1.
</event>
<event>
 8    1  0.2031623E-013  0.9118800E+02  0.7816164E-02  0.1184000E+00
        -11   -1    0    0    0    0  0.00000000000E+00  0.00000000000E+00  0.45593999997E+02  0.45594000000E+02  0.51100000000E-03 0. -1.
         11   -1    0    0    0    0 -0.00000000000E+00 -0.00000000000E+00 -0.45593999997E+02  0.45594000000E+02  0.51100000000E-03 0.  1.
         23    2    1    2    0    0  0.00000000000E+00  0.00000000000E+00 -0.17763568394E-14  0.91188000000E+02  0.91188000000E+02 0.  0.
    9900012    2    3    3    0    0 -0.37418209728E+02 -0.41519513857E+01  0.15355922825E+02  0.50528862215E+02  0.30000007190E+02 0.  0.
        -12    1    3    3    0    0  0.37418209728E+02  0.41519513857E+01 -0.15355922825E+02  0.40659137785E+02  0.00000000000E+00 0.  1.
         11    1    4    4    0    0 -0.27763412711E+02 -0.15168235192E+01  0.48228474341E+01  0.28219987537E+02  0.51100000000E-03 0. -1.
        -11    1    4    4    0    0 -0.11627142544E+01 -0.45718106826E+01  0.12516350086E+02  0.13375813138E+02  0.51100000000E-03 0.  1.
        -12    1    4    4    0    0 -0.84920827624E+01  0.19366828161E+01 -0.19832746950E+01  0.89330615407E+01  0.00000000000E+00 0.  1.
</event>
<event>
 8    1  0.2031623E-013  0.9118800E+02  0.7816164E-02  0.1184000E+00
        -11   -1    0    0    0    0  0.00000000000E+00  0.00000000000E+00  0.45593999997E+02  0.45594000000E+02  0.51100000000E-03 0. -1.
         11   -1    0    0    0    0 -0.00000000000E+00 -0.00000000000E+00 -0.45593999997E+02  0.45594000000E+02  0.51100000000E-03 0.  1.
         23    2    1    2    0    0  0.35527136788E-14 -0.17763568394E-14  0.00000000000E+00  0.91188000000E+02  0.91188000000E+02 0.  0.
    9900012    2    3    3    0    0 -0.18774745280E+02  0.10035578580E+02 -0.34640466654E+02  0.50528858005E+02  0.29999994391E+02 0.  0.
         12    1    3    3    0    0  0.18774745280E+02 -0.10035578580E+02  0.34640466654E+02  0.40659141995E+02  0.00000000000E+00 0. -1.
         11    1    4    4    0    0 -0.24397332554E+00 -0.14873219248E+01 -0.25857538560E+01  0.29929538514E+01  0.51100000000E-03 0. -1.
        -11    1    4    4    0    0  0.81079664129E+00 -0.32170113050E+01 -0.20221333757E+02  0.20491678606E+02  0.51100000000E-03 0.  1.
        -12    1    4    4    0    0 -0.19341568595E+02  0.14739911810E+02 -0.11833379042E+02  0.27044225547E+02  0.00000000000E+00 0.  1.
</event>
<event>
 8    1  0.2031623E-013  0.9118800E+02  0.7816164E-02  0.1184000E+00
        -11   -1    0    0    0    0  0.00000000000E+00  0.00000000000E+00  0.45593999997E+02  0.45594000000E+02  0.51100000000E-03 0. -1.
         11   -1    0    0    0    0 -0.00000000000E+00 -0.00000000000E+00 -0.45593999997E+02  0.45594000000E+02  0.51100000000E-03 0.  1.
         23    2    1    2    0    0  0.00000000000E+00  0.00000000000E+00  0.00000000000E+00  0.91188000000E+02  0.91188000000E+02 0.  0.
    9900012    2    3    3    0    0  0.13579504284E+02 -0.45545021555E+01 -0.38052850677E+02  0.50528857472E+02  0.29999992772E+02 0.  0.
         12    1    3    3    0    0 -0.13579504284E+02  0.45545021555E+01  0.38052850677E+02  0.40659142528E+02  0.00000000000E+00 0. -1.
         11    1    4    4    0    0  0.19613499761E+01 -0.28728717138E+01  0.22209493187E+01  0.41270936202E+01  0.51100000000E-03 0. -1.
        -11    1    4    4    0    0  0.14918692776E+02 -0.92666134377E+00 -0.40334861726E+02  0.43015429395E+02  0.51100000000E-03 0.  1.
        -12    1    4    4    0    0 -0.33005384678E+01 -0.75496909795E+00  0.61061729938E-01  0.33863344565E+01  0.00000000000E+00 0.  1.
</event>
<event>
 8    1  0.2031623E-013  0.9118800E+02  0.7816164E-02  0.1184000E+00
        -11   -1    0    0    0    0  0.00000000000E+00  0.00000000000E+00  0.45593999997E+02  0.45594000000E+02  0.51100000000E-03 0. -1.
         11   -1    0    0    0    0 -0.00000000000E+00 -0.00000000000E+00 -0.45593999997E+02  0.45594000000E+02  0.51100000000E-03 0.  1.
         23    2    1    2    0    0 -0.44408920985E-15 -0.13322676296E-14  0.71054273576E-14  0.91188000000E+02  0.91188000000E+02 0.  0.
    9900012    2    3    3    0    0 -0.16598570445E+01  0.28819409601E+01  0.40522964601E+02  0.50528789860E+02  0.29999787259E+02 0.  0.
        -12    1    3    3    0    0  0.16598570445E+01 -0.28819409601E+01 -0.40522964601E+02  0.40659210140E+02  0.00000000000E+00 0.  1.
         11    1    4    4    0    0 -0.56915367850E+01  0.88556700194E+01  0.37853923363E+02  0.39290405912E+02  0.51100000000E-03 0. -1.
        -11    1    4    4    0    0  0.25732507638E+01  0.84893498996E+00 -0.15137190207E+01  0.31038130816E+01  0.51100000000E-03 0.  1.
         12    1    4    4    0    0  0.14584289767E+01 -0.68226640492E+01  0.41827602588E+01  0.81345708671E+01  0.00000000000E+00 0. -1.
</event>
<event>
 8    1  0.2031623E-013  0.9118800E+02  0.7816164E-02  0.1184000E+00
        -11   -1    0    0    0    0  0.00000000000E+00  0.00000000000E+00  0.45593999997E+02  0.45594000000E+02  0.51100000000E-03 0.  1.
         11   -1    0    0    0    0 -0.00000000000E+00 -0.00000000000E+00 -0.45593999997E+02  0.45594000000E+02  0.51100000000E-03 0. -1.
         23    2    1    2    0    0  0.00000000000E+00  0.88817841970E-15  0.00000000000E+00  0.91188000000E+02  0.91188000000E+02 0.  0.
    9900012    2    3    3    0    0  0.39968435825E+02  0.37407406215E+01 -0.64574313719E+01  0.50528838393E+02  0.29999934779E+02 0.  0.
        -12    1    3    3    0    0 -0.39968435825E+02 -0.37407406215E+01  0.64574313719E+01  0.40659161607E+02  0.00000000000E+00 0.  1.
         11    1    4    4    0    0  0.36179362554E+02 -0.12246206205E+01 -0.11425664617E+02  0.37960397557E+02  0.51100000000E-03 0. -1.
        -11    1    4    4    0    0  0.43106103025E+01 -0.18520770214E+01  0.23459194619E+01  0.52454636454E+01  0.51100000000E-03 0.  1.
         12    1    4    4    0    0 -0.52153703203E+00  0.68174382634E+01  0.26223137831E+01  0.73229771902E+01  0.00000000000E+00 0. -1.
</event>
<event>
 8    1  0.2031623E-013  0.9118800E+02  0.7816164E-02  0.1184000E+00
        -11   -1    0    0    0    0  0.00000000000E+00  0.00000000000E+00  0.45593999997E+02  0.45594000000E+02  0.51100000000E-03 0.  1.
         11   -1    0    0    0    0 -0.00000000000E+00 -0.00000000000E+00 -0.45593999997E+02  0.45594000000E+02  0.51100000000E-03 0. -1.
         23    2    1    2    0    0  0.88817841970E-15  0.00000000000E+00 -0.88817841970E-15  0.91188000000E+02  0.91188000000E+02 0.  0.
    9900012    2    3    3    0    0  0.47968616283E+01  0.39961375276E+02  0.57657735494E+01  0.50528861543E+02  0.30000005147E+02 0.  0.
         12    1    3    3    0    0 -0.47968616283E+01 -0.39961375276E+02 -0.57657735494E+01  0.40659138457E+02  0.00000000000E+00 0. -1.
         11    1    4    4    0    0  0.54508548076E+01  0.18233239787E+02 -0.26034187943E+01  0.19207827596E+02  0.51100000000E-03 0. -1.
        -11    1    4    4    0    0 -0.12447987977E+01  0.13077141205E+01  0.10616415434E+02  0.10768840105E+02  0.51100000000E-03 0.  1.
        -12    1    4    4    0    0  0.59080561833E+00  0.20420421368E+02 -0.22472230904E+01  0.20552193843E+02  0.00000000000E+00 0.  1.
</event>
<event>
 8    1  0.2031623E-013  0.9118800E+02  0.7816164E-02  0.1184000E+00
        -11   -1    0    0    0    0  0.00000000000E+00  0.00000000000E+00  0.45593999997E+02  0.45594000000E+02  0.51100000000E-03 0. -1.
         11   -1    0    0    0    0 -0.00000000000E+00 -0.00000000000E+00 -0.45593999997E+02  0.45594000000E+02  0.51100000000E-03 0.  1.
         23    2    1    2    0    0 -0.88817841970E-15 -0.35527136788E-14  0.00000000000E+00  0.91188000000E+02  0.91188000000E+02 0.  0.
    9900012    2    3    3    0    0  0.37171206214E+01 -0.16039121288E+02  0.37176533477E+02  0.50528867708E+02  0.30000023885E+02 0.  0.
        -12    1    3    3    0    0 -0.37171206214E+01  0.16039121288E+02 -0.37176533477E+02  0.40659132292E+02  0.00000000000E+00 0.  1.
         11    1    4    4    0    0  0.81742104016E+01 -0.97868163835E+01  0.33979591502E+02  0.36293417165E+02  0.51100000000E-03 0. -1.
        -11    1    4    4    0    0 -0.56682503110E+01 -0.73607602521E+01  0.59483320358E+01  0.11031432697E+02  0.51100000000E-03 0.  1.
         12    1    4    4    0    0  0.12111605308E+01  0.11084553476E+01 -0.27513900612E+01  0.32040178460E+01  0.00000000000E+00 0. -1.
</event>
<event>
 8    1  0.2031623E-013  0.9118800E+02  0.7816164E-02  0.1184000E+00
        -11   -1    0    0    0    0  0.00000000000E+00  0.00000000000E+00  0.45593999997E+02  0.45594000000E+02  0.51100000000E-03 0. -1.
         11   -1    0    0    0    0 -0.00000000000E+00 -0.00000000000E+00 -0.45593999997E+02  0.45594000000E+02  0.51100000000E-03 0.  1.
         23    2    1    2    0    0  0.88817841970E-15  0.00000000000E+00  0.00000000000E+00  0.91188000000E+02  0.91188000000E+02 0.  0.
    9900012    2    3    3    0    0 -0.49661613159E+01  0.12764141903E+02  0.38282881715E+02  0.50528866842E+02  0.30000021254E+02 0.  0.
        -12    1    3    3    0    0  0.49661613159E+01 -0.12764141903E+02 -0.38282881715E+02  0.40659133158E+02  0.00000000000E+00 0.  1.
         11    1    4    4    0    0 -0.11730934074E+02  0.19764014267E+01  0.33955220913E+02  0.35978854961E+02  0.51100000000E-03 0. -1.
        -11    1    4    4    0    0  0.14222810348E+01  0.10973837378E+01 -0.12202034229E+01  0.21716424808E+01  0.51100000000E-03 0.  1.
         12    1    4    4    0    0  0.53424917237E+01  0.96903567387E+01  0.55478642253E+01  0.12378369400E+02  0.00000000000E+00 0. -1.
</event>
<event>
 8    1  0.2031623E-013  0.9118800E+02  0.7816164E-02  0.1184000E+00
        -11   -1    0    0    0    0  0.00000000000E+00  0.00000000000E+00  0.45593999997E+02  0.45594000000E+02  0.51100000000E-03 0. -1.
         11   -1    0    0    0    0 -0.00000000000E+00 -0.00000000000E+00 -0.45593999997E+02  0.45594000000E+02  0.51100000000E-03 0.  1.
         23    2    1    2    0    0  0.00000000000E+00  0.24424906542E-14  0.17763568394E-14  0.91188000000E+02  0.91188000000E+02 0.  0.
    9900012    2    3    3    0    0 -0.38645451359E+02  0.14929257664E+01 -0.12548531476E+02  0.50528863508E+02  0.30000011119E+02 0.  0.
         12    1    3    3    0    0  0.38645451359E+02 -0.14929257664E+01  0.12548531476E+02  0.40659136492E+02  0.00000000000E+00 0. -1.
         11    1    4    4    0    0 -0.17848642360E+02  0.40406608838E+01 -0.18522287056E+00  0.18301237178E+02  0.51100000000E-03 0. -1.
        -11    1    4    4    0    0 -0.10195607380E+02 -0.73903137500E+01 -0.15679603172E+02  0.20110124392E+02  0.51100000000E-03 0.  1.
        -12    1    4    4    0    0 -0.10601201619E+02  0.48425786326E+01  0.33162945661E+01  0.12117501939E+02  0.00000000000E+00 0.  1.
</event>
<event>
 8    1  0.2031623E-013  0.9118800E+02  0.7816164E-02  0.1184000E+00
        -11   -1    0    0    0    0  0.00000000000E+00  0.00000000000E+00  0.45593999997E+02  0.45594000000E+02  0.51100000000E-03 0. -1.
         11   -1    0    0    0    0 -0.00000000000E+00 -0.00000000000E+00 -0.45593999997E+02  0.45594000000E+02  0.51100000000E-03 0.  1.
         23    2    1    2    0    0  0.00000000000E+00  0.00000000000E+00  0.00000000000E+00  0.91188000000E+02  0.91188000000E+02 0.  0.
    9900012    2    3    3    0    0 -0.99393065488E+01 -0.44765080959E+01 -0.39170613434E+02  0.50528857164E+02  0.29999991835E+02 0.  0.
         12    1    3    3    0    0  0.99393065488E+01  0.44765080959E+01  0.39170613434E+02  0.40659142836E+02  0.00000000000E+00 0. -1.
         11    1    4    4    0    0 -0.58144486911E+01  0.10949113545E+02 -0.24908036311E+02  0.27822673742E+02  0.51100000000E-03 0. -1.
        -11    1    4    4    0    0 -0.61986438171E+01 -0.12305431315E+02 -0.12333504635E+02  0.18492218955E+02  0.51100000000E-03 0.  1.
        -12    1    4    4    0    0  0.20737859594E+01 -0.31201903257E+01 -0.19290724874E+01  0.42139644677E+01  0.00000000000E+00 0.  1.
</event>
<event>
 8    1  0.2031623E-013  0.9118800E+02  0.7816164E-02  0.1184000E+00
        -11   -1    0    0    0    0  0.00000000000E+00  0.00000000000E+00  0.45593999997E+02  0.45594000000E+02  0.51100000000E-03 0. -1.
         11   -1    0    0    0    0 -0.00000000000E+00 -0.00000000000E+00 -0.45593999997E+02  0.45594000000E+02  0.51100000000E-03 0.  1.
         23    2    1    2    0    0  0.00000000000E+00  0.00000000000E+00  0.00000000000E+00  0.91188000000E+02  0.91188000000E+02 0.  0.
    9900012    2    3    3    0    0  0.18703177977E+02 -0.75774355487E+01 -0.35297868392E+02  0.50528857007E+02  0.29999991357E+02 0.  0.
         12    1    3    3    0    0 -0.18703177977E+02  0.75774355487E+01  0.35297868392E+02  0.40659142993E+02  0.00000000000E+00 0. -1.
         11    1    4    4    0    0  0.92726176773E+00 -0.20889023326E+01  0.27573903503E+01  0.35814144058E+01  0.51100000000E-03 0. -1.
        -11    1    4    4    0    0  0.74186378108E+01 -0.12213470292E+02 -0.26119517875E+02  0.29773045827E+02  0.51100000000E-03 0.  1.
        -12    1    4    4    0    0  0.10357278398E+02  0.67249370757E+01 -0.11935740867E+02  0.17174396774E+02  0.00000000000E+00 0.  1.
</event>
<event>
 8    1  0.2031623E-013  0.9118800E+02  0.7816164E-02  0.1184000E+00
        -11   -1    0    0    0    0  0.00000000000E+00  0.00000000000E+00  0.45593999997E+02  0.45594000000E+02  0.51100000000E-03 0. -1.
         11   -1    0    0    0    0 -0.00000000000E+00 -0.00000000000E+00 -0.45593999997E+02  0.45594000000E+02  0.51100000000E-03 0.  1.
         23    2    1    2    0    0  0.00000000000E+00  0.00000000000E+00  0.00000000000E+00  0.91188000000E+02  0.91188000000E+02 0.  0.
    9900012    2    3    3    0    0  0.18295061406E+02  0.69108202577E+01  0.35646837854E+02  0.50528858870E+02  0.29999997021E+02 0.  0.
        -12    1    3    3    0    0 -0.18295061406E+02 -0.69108202577E+01 -0.35646837854E+02  0.40659141130E+02  0.00000000000E+00 0.  1.
         11    1    4    4    0    0 -0.34905993488E+01  0.14449330860E+01  0.18329971732E+02  0.18715233886E+02  0.51100000000E-03 0. -1.
        -11    1    4    4    0    0  0.20792159161E+02  0.80722790090E+01  0.18305546376E+02  0.28854264839E+02  0.51100000000E-03 0.  1.
        -12    1    4    4    0    0  0.99350159323E+00 -0.26063918372E+01 -0.98868025451E+00  0.29593601455E+01  0.00000000000E+00 0.  1.
</event>
<event>
 8    1  0.2031623E-013  0.9118800E+02  0.7816164E-02  0.1184000E+00
        -11   -1    0    0    0    0  0.00000000000E+00  0.00000000000E+00  0.45593999997E+02  0.45594000000E+02  0.51100000000E-03 0. -1.
         11   -1    0    0    0    0 -0.00000000000E+00 -0.00000000000E+00 -0.45593999997E+02  0.45594000000E+02  0.51100000000E-03 0.  1.
         23    2    1    2    0    0  0.17763568394E-14 -0.88817841970E-15  0.00000000000E+00  0.91188000000E+02  0.91188000000E+02 0.  0.
    9900012    2    3    3    0    0  0.82953181477E+01 -0.61356312300E+01  0.39328198119E+02  0.50528862760E+02  0.30000008846E+02 0.  0.
        -12    1    3    3    0    0 -0.82953181477E+01  0.61356312300E+01 -0.39328198119E+02  0.40659137240E+02  0.00000000000E+00 0.  1.
         11    1    4    4    0    0 -0.37093952826E+01  0.22319930367E+01  0.14463512776E+02  0.15097503382E+02  0.51100000000E-03 0. -1.
        -11    1    4    4    0    0  0.68184477399E+01  0.56714666094E+00 -0.15958114014E+01  0.70256315878E+01  0.51100000000E-03 0.  1.
        -12    1    4    4    0    0  0.51862656903E+01 -0.89347709277E+01  0.26460496745E+02  0.28405727791E+02  0.00000000000E+00 0.  1.
</event>
<event>
 8    1  0.2031623E-013  0.9118800E+02  0.7816164E-02  0.1184000E+00
        -11   -1    0    0    0    0  0.00000000000E+00  0.00000000000E+00  0.45593999997E+02  0.45594000000E+02  0.51100000000E-03 0. -1.
         11   -1    0    0    0    0 -0.00000000000E+00 -0.00000000000E+00 -0.45593999997E+02  0.45594000000E+02  0.51100000000E-03 0.  1.
         23    2    1    2    0    0  0.35527136788E-14  0.00000000000E+00  0.00000000000E+00  0.91188000000E+02  0.91188000000E+02 0.  0.
    9900012    2    3    3    0    0  0.23386809054E+02  0.29572344583E+02 -0.15221665704E+02  0.50528861929E+02  0.30000006319E+02 0.  0.
         12    1    3    3    0    0 -0.23386809054E+02 -0.29572344583E+02  0.15221665704E+02  0.40659138071E+02  0.00000000000E+00 0. -1.
         11    1    4    4    0    0  0.18503558248E+02  0.18312021923E+02  0.39616095493E+01  0.26332606503E+02  0.51100000000E-03 0. -1.
        -11    1    4    4    0    0  0.48376048667E+01  0.63687066031E+01 -0.17102836822E+02  0.18880409749E+02  0.51100000000E-03 0.  1.
         12    1    4    4    0    0  0.45645939006E-01  0.48916160571E+01 -0.20804384313E+01  0.53158456776E+01  0.00000000000E+00 0. -1.
</event>
<event>
 8    1  0.2031623E-013  0.9118800E+02  0.7816164E-02  0.1184000E+00
        -11   -1    0    0    0    0  0.00000000000E+00  0.00000000000E+00  0.45593999997E+02  0.45594000000E+02  0.51100000000E-03 0.  1.
         11   -1    0    0    0    0 -0.00000000000E+00 -0.00000000000E+00 -0.45593999997E+02  0.45594000000E+02  0.51100000000E-03 0. -1.
         23    2    1    2    0    0  0.35527136788E-14  0.00000000000E+00  0.00000000000E+00  0.91188000000E+02  0.91188000000E+02 0.  0.
    9900012    2    3    3    0    0  0.21251897109E+02 -0.30542800613E+02  0.16390844421E+02  0.50528861042E+02  0.30000003623E+02 0.  0.
        -12    1    3    3    0    0 -0.21251897109E+02  0.30542800613E+02 -0.16390844421E+02  0.40659138958E+02  0.00000000000E+00 0.  1.
         11    1    4    4    0    0  0.16472576372E+02 -0.95351154493E+01  0.65058129083E+01  0.20114417735E+02  0.51100000000E-03 0. -1.
        -11    1    4    4    0    0 -0.30518381357E+01 -0.14183537001E+02 -0.19826725090E+01  0.14642999296E+02  0.51100000000E-03 0.  1.
        -12    1    4    4    0    0  0.78311588721E+01 -0.68241481630E+01  0.11867704021E+02  0.15771444010E+02  0.00000000000E+00 0.  1.
</event>
<event>
 8    1  0.2031623E-013  0.9118800E+02  0.7816164E-02  0.1184000E+00
        -11   -1    0    0    0    0  0.00000000000E+00  0.00000000000E+00  0.45593999997E+02  0.45594000000E+02  0.51100000000E-03 0. -1.
         11   -1    0    0    0    0 -0.00000000000E+00 -0.00000000000E+00 -0.45593999997E+02  0.45594000000E+02  0.51100000000E-03 0.  1.
         23    2    1    2    0    0  0.00000000000E+00 -0.35527136788E-14  0.00000000000E+00  0.91188000000E+02  0.91188000000E+02 0.  0.
    9900012    2    3    3    0    0  0.11366626079E+02 -0.23139252734E+02 -0.31441067132E+02  0.50528857019E+02  0.29999991395E+02 0.  0.
         12    1    3    3    0    0 -0.11366626079E+02  0.23139252734E+02  0.31441067132E+02  0.40659142981E+02  0.00000000000E+00 0. -1.
         11    1    4    4    0    0  0.32053382180E+00 -0.24834213266E+02 -0.13558674316E+02  0.28296263710E+02  0.51100000000E-03 0. -1.
        -11    1    4    4    0    0  0.90398012850E+01  0.14911450487E+01 -0.18015720576E+02  0.20211573639E+02  0.51100000000E-03 0.  1.
         12    1    4    4    0    0  0.20062909723E+01  0.20381548317E+00  0.13332775938E+00  0.20210196704E+01  0.00000000000E+00 0. -1.
</event>
<event>
 8    1  0.2031623E-013  0.9118800E+02  0.7816164E-02  0.1184000E+00
        -11   -1    0    0    0    0  0.00000000000E+00  0.00000000000E+00  0.45593999997E+02  0.45594000000E+02  0.51100000000E-03 0.  1.
         11   -1    0    0    0    0 -0.00000000000E+00 -0.00000000000E+00 -0.45593999997E+02  0.45594000000E+02  0.51100000000E-03 0. -1.
         23    2    1    2    0    0  0.00000000000E+00  0.00000000000E+00  0.00000000000E+00  0.91188000000E+02  0.91188000000E+02 0.  0.
    9900012    2    3    3    0    0 -0.24596228437E+02  0.29628357758E+02  0.13051932530E+02  0.50528843842E+02  0.29999951341E+02 0.  0.
        -12    1    3    3    0    0  0.24596228437E+02 -0.29628357758E+02 -0.13051932530E+02  0.40659156158E+02  0.00000000000E+00 0.  1.
         11    1    4    4    0    0 -0.82227724824E+01  0.20127961181E+02 -0.20387250826E+01  0.21838159465E+02  0.51100000000E-03 0. -1.
        -11    1    4    4    0    0 -0.16403139084E+02  0.12858110839E+02  0.11624080326E+02  0.23864476316E+02  0.51100000000E-03 0.  1.
        -12    1    4    4    0    0  0.29683129306E-01 -0.33577142627E+01  0.34665772865E+01  0.48262080603E+01  0.00000000000E+00 0.  1.
</event>
<event>
 8    1  0.2031623E-013  0.9118800E+02  0.7816164E-02  0.1184000E+00
        -11   -1    0    0    0    0  0.00000000000E+00  0.00000000000E+00  0.45593999997E+02  0.45594000000E+02  0.51100000000E-03 0. -1.
         11   -1    0    0    0    0 -0.00000000000E+00 -0.00000000000E+00 -0.45593999997E+02  0.45594000000E+02  0.51100000000E-03 0.  1.
         23    2    1    2    0    0 -0.35527136788E-14  0.00000000000E+00  0.00000000000E+00  0.91188000000E+02  0.91188000000E+02 0.  0.
    9900012    2    3    3    0    0 -0.17647902424E+02 -0.11440942364E+02  0.34796868150E+02  0.50528860128E+02  0.30000000844E+02 0.  0.
        -12    1    3    3    0    0  0.17647902424E+02  0.11440942364E+02 -0.34796868150E+02  0.40659139872E+02  0.00000000000E+00 0.  1.
         11    1    4    4    0    0 -0.19248592123E+02 -0.90423443576E+01  0.24702795888E+02  0.32596018395E+02  0.51100000000E-03 0. -1.
        -11    1    4    4    0    0  0.39612468169E+01 -0.66154223428E+01  0.10562594016E+02  0.13077602293E+02  0.51100000000E-03 0.  1.
        -12    1    4    4    0    0 -0.23605571174E+01  0.42168243362E+01 -0.46852175513E+00  0.48552394402E+01  0.00000000000E+00 0.  1.
</event>
<event>
 8    1  0.2031623E-013  0.9118800E+02  0.7816164E-02  0.1184000E+00
        -11   -1    0    0    0    0  0.00000000000E+00  0.00000000000E+00  0.45593999997E+02  0.45594000000E+02  0.51100000000E-03 0. -1.
         11   -1    0    0    0    0 -0.00000000000E+00 -0.00000000000E+00 -0.45593999997E+02  0.45594000000E+02  0.51100000000E-03 0.  1.
         23    2    1    2    0    0  0.00000000000E+00  0.00000000000E+00  0.00000000000E+00  0.91188000000E+02  0.91188000000E+02 0.  0.
    9900012    2    3    3    0    0 -0.22752843945E+02 -0.14654967616E+02 -0.30343156480E+02  0.50528842009E+02  0.29999945769E+02 0.  0.
         12    1    3    3    0    0  0.22752843945E+02  0.14654967616E+02  0.30343156480E+02  0.40659157991E+02  0.00000000000E+00 0. -1.
         11    1    4    4    0    0 -0.93532812472E+01 -0.17696390839E+02 -0.84782125204E+01  0.21737667920E+02  0.51100000000E-03 0. -1.
        -11    1    4    4    0    0 -0.13961249375E+02  0.29367414870E+01 -0.11270803269E+02  0.18181637475E+02  0.51100000000E-03 0.  1.
        -12    1    4    4    0    0  0.56168667756E+00  0.10468173511E+00 -0.10594140690E+02  0.10609536614E+02  0.00000000000E+00 0.  1.
</event>
<event>
 8    1  0.2031623E-013  0.9118800E+02  0.7816164E-02  0.1184000E+00
        -11   -1    0    0    0    0  0.00000000000E+00  0.00000000000E+00  0.45593999997E+02  0.45594000000E+02  0.51100000000E-03 0. -1.
         11   -1    0    0    0    0 -0.00000000000E+00 -0.00000000000E+00 -0.45593999997E+02  0.45594000000E+02  0.51100000000E-03 0.  1.
         23    2    1    2    0    0 -0.17763568394E-14 -0.17763568394E-14 -0.71054273576E-14  0.91188000000E+02  0.91188000000E+02 0.  0.
    9900012    2    3    3    0    0  0.12545429399E+02 -0.65211981816E+01  0.38121543580E+02  0.50528857000E+02  0.29999991338E+02 0.  0.
        -12    1    3    3    0    0 -0.12545429399E+02  0.65211981816E+01 -0.38121543580E+02  0.40659143000E+02  0.00000000000E+00 0.  1.
         11    1    4    4    0    0  0.14565386720E+02 -0.12162881286E+02  0.13830763163E+02  0.23481400755E+02  0.51100000000E-03 0. -1.
        -11    1    4    4    0    0  0.12490367178E+01  0.25786778253E+01  0.21667497979E+02  0.21856123650E+02  0.51100000000E-03 0.  1.
        -12    1    4    4    0    0 -0.32689940393E+01  0.30630052788E+01  0.26232824377E+01  0.51913325952E+01  0.00000000000E+00 0.  1.
</event>
<event>
 8    1  0.2186257E-013  0.9118800E+02  0.7816164E-02  0.1184000E+00
        -11   -1    0    0    0    0  0.00000000000E+00  0.00000000000E+00  0.45593999997E+02  0.45594000000E+02  0.51100000000E-03 0. -1.
         11   -1    0    0    0    0 -0.00000000000E+00 -0.00000000000E+00 -0.45593999997E+02  0.45594000000E+02  0.51100000000E-03 0.  1.
         23    2    1    2    0    0 -0.35527136788E-14  0.00000000000E+00  0.00000000000E+00  0.91188000000E+02  0.91188000000E+02 0.  0.
    9900012    2    3    3    0    0  0.17356457190E+02  0.16624804076E+02 -0.32795355486E+02  0.50528855171E+02  0.29999985778E+02 0.  0.
         12    1    3    3    0    0 -0.17356457190E+02 -0.16624804076E+02  0.32795355486E+02  0.40659144829E+02  0.00000000000E+00 0. -1.
         11    1    4    4    0    0 -0.10919401744E+01  0.30349734756E-01  0.34449974937E+01  0.36140368625E+01  0.51100000000E-03 0. -1.
        -11    1    4    4    0    0  0.10351731898E+02  0.34671135803E+00 -0.20153505580E+02  0.22659266305E+02  0.51100000000E-03 0.  1.
         12    1    4    4    0    0  0.80966654665E+01  0.16247742983E+02 -0.16086847400E+02  0.24255552003E+02  0.00000000000E+00 0. -1.
</event>
<event>
 8    1 -0.2031623E-013  0.9118800E+02  0.7816164E-02  0.1184000E+00
        -11   -1    0    0    0    0  0.00000000000E+00  0.00000000000E+00  0.45593999997E+02  0.45594000000E+02  0.51100000000E-03 0.  1.
         11   -1    0    0    0    0 -0.00000000000E+00 -0.00000000000E+00 -0.45593999997E+02  0.45594000000E+02  0.51100000000E-03 0. -1.
         23    2    1    2    0    0 -0.22204460493E-15  0.00000000000E+00  0.88817841970E-15  0.91188000000E+02  0.91188000000E+02 0.  0.
    9900012    2    3    3    0    0 -0.15900770361E+01  0.40280795195E+02  0.53004661308E+01  0.50528858989E+02  0.29999997383E+02 0.  0.
        -12    1    3    3    0    0  0.15900770361E+01 -0.40280795195E+02 -0.53004661308E+01  0.40659141011E+02  0.00000000000E+00 0.  1.
         11    1    4    4    0    0 -0.84641270931E+01  0.29531856913E+02  0.12783985760E+02  0.33274649695E+02  0.51100000000E-03 0. -1.
        -11    1    4    4    0    0 -0.14423600511E+01 -0.22534468577E+00  0.21996751373E+00  0.14763362465E+01  0.51100000000E-03 0.  1.
         12    1    4    4    0    0  0.83164101081E+01  0.10974282968E+02 -0.77034871425E+01  0.15777873048E+02  0.00000000000E+00 0. -1.
</event>
<event>
 8    1  0.2031623E-013  0.9118800E+02  0.7816164E-02  0.1184000E+00
        -11   -1    0    0    0    0  0.00000000000E+00  0.00000000000E+00  0.45593999997E+02  0.45594000000E+02  0.51100000000E-03 0. -1.
         11   -1    0    0    0    0 -0.00000000000E+00 -0.00000000000E+00 -0.45593999997E+02  0.45594000000E+02  0.51100000000E-03 0.  1.
         23    2    1    2    0    0  0.00000000000E+00  0.35527136788E-14  0.00000000000E+00  0.91188000000E+02  0.91188000000E+02 0.  0.
    9900012    2    3    3    0    0  0.25245411504E+02 -0.26826882805E+02  0.17209054382E+02  0.50528880533E+02  0.30000062869E+02 0.  0.
        -12    1    3    3    0    0 -0.25245411504E+02  0.26826882805E+02 -0.17209054382E+02  0.40659119467E+02  0.00000000000E+00 0.  1.
         11    1    4    4    0    0  0.22724109340E+02 -0.19267377447E+02  0.21963122543E+02  0.37013453380E+02  0.51100000000E-03 0. -1.
        -11    1    4    4    0    0  0.14035771314E+00  0.14471592293E+01  0.16585891606E+01  0.22056491986E+01  0.51100000000E-03 0.  1.
         12    1    4    4    0    0  0.23809444517E+01 -0.90066645871E+01 -0.64126573217E+01  0.11309777955E+02  0.00000000000E+00 0. -1.
</event>
<event>
 8    1  0.2031623E-013  0.9118800E+02  0.7816164E-02  0.1184000E+00
        -11   -1    0    0    0    0  0.00000000000E+00  0.00000000000E+00  0.45593999997E+02  0.45594000000E+02  0.51100000000E-03 0. -1.
         11   -1    0    0    0    0 -0.00000000000E+00 -0.00000000000E+00 -0.45593999997E+02  0.45594000000E+02  0.51100000000E-03 0.  1.
         23    2    1    2    0    0 -0.26645352591E-14  0.00000000000E+00  0.00000000000E+00  0.91188000000E+02  0.91188000000E+02 0.  0.
    9900012    2    3    3    0    0  0.73422181744E+01 -0.27710275800E+02 -0.28833952063E+02  0.50528876249E+02  0.30000049846E+02 0.  0.
         12    1    3    3    0    0 -0.73422181744E+01  0.27710275800E+02  0.28833952063E+02  0.40659123751E+02  0.00000000000E+00 0. -1.
         11    1    4    4    0    0  0.17052961506E+02 -0.11170899511E+02 -0.15414573587E+02  0.25557808418E+02  0.51100000000E-03 0.  1.
        -11    1    4    4    0    0 -0.83620847915E+01 -0.75056194036E+01 -0.42071242564E+01  0.11998278187E+02  0.51100000000E-03 0. -1.
        -12    1    4    4    0    0 -0.13486585397E+01 -0.90337568857E+01 -0.92122542202E+01  0.12972789644E+02  0.00000000000E+00 0.  1.
</event>
<event>
 8    1  0.2031623E-013  0.9118800E+02  0.7816164E-02  0.1184000E+00
        -11   -1    0    0    0    0  0.00000000000E+00  0.00000000000E+00  0.45593999997E+02  0.45594000000E+02  0.51100000000E-03 0. -1.
         11   -1    0    0    0    0 -0.00000000000E+00 -0.00000000000E+00 -0.45593999997E+02  0.45594000000E+02  0.51100000000E-03 0.  1.
         23    2    1    2    0    0 -0.35527136788E-14  0.17763568394E-14  0.00000000000E+00  0.91188000000E+02  0.91188000000E+02 0.  0.
    9900012    2    3    3    0    0 -0.17054205621E+02  0.76405961696E+01 -0.36110110856E+02  0.50528871318E+02  0.30000034858E+02 0.  0.
         12    1    3    3    0    0  0.17054205621E+02 -0.76405961696E+01  0.36110110856E+02  0.40659128682E+02  0.00000000000E+00 0. -1.
         11    1    4    4    0    0 -0.68300979087E+01 -0.78462919380E+01 -0.45935707663E+01  0.11371694125E+02  0.51100000000E-03 0. -1.
        -11    1    4    4    0    0 -0.12180519227E+02  0.14496635634E+02 -0.31734136093E+02  0.36953658644E+02  0.51100000000E-03 0.  1.
         12    1    4    4    0    0  0.19564115149E+01  0.99025247354E+00  0.21759600334E+00  0.22035185494E+01  0.00000000000E+00 0. -1.
</event>
<event>
 8    1  0.2031623E-013  0.9118800E+02  0.7816164E-02  0.1184000E+00
        -11   -1    0    0    0    0  0.00000000000E+00  0.00000000000E+00  0.45593999997E+02  0.45594000000E+02  0.51100000000E-03 0. -1.
         11   -1    0    0    0    0 -0.00000000000E+00 -0.00000000000E+00 -0.45593999997E+02  0.45594000000E+02  0.51100000000E-03 0.  1.
         23    2    1    2    0    0  0.35527136788E-14  0.35527136788E-14  0.00000000000E+00  0.91188000000E+02  0.91188000000E+02 0.  0.
    9900012    2    3    3    0    0  0.24142986304E+02  0.26632802072E+02 -0.18999347921E+02  0.50528866275E+02  0.30000019529E+02 0.  0.
         12    1    3    3    0    0 -0.24142986304E+02 -0.26632802072E+02  0.18999347921E+02  0.40659133725E+02  0.00000000000E+00 0. -1.
         11    1    4    4    0    0  0.65718020163E+01  0.89202263043E+01 -0.12899935516E+02  0.17004921512E+02  0.51100000000E-03 0. -1.
        -11    1    4    4    0    0  0.22419729814E+02  0.13932713679E+02 -0.27937146150E+01  0.26543730654E+02  0.51100000000E-03 0.  1.
        -12    1    4    4    0    0 -0.48485455263E+01  0.37798620884E+01 -0.33056977899E+01  0.69802141089E+01  0.00000000000E+00 0.  1.
</event>
<event>
 8    1  0.2031623E-013  0.9118800E+02  0.7816164E-02  0.1184000E+00
        -11   -1    0    0    0    0  0.00000000000E+00  0.00000000000E+00  0.45593999997E+02  0.45594000000E+02  0.51100000000E-03 0. -1.
         11   -1    0    0    0    0 -0.00000000000E+00 -0.00000000000E+00 -0.45593999997E+02  0.45594000000E+02  0.51100000000E-03 0.  1.
         23    2    1    2    0    0  0.00000000000E+00  0.00000000000E+00  0.00000000000E+00  0.91188000000E+02  0.91188000000E+02 0.  0.
    9900012    2    3    3    0    0 -0.61179104220E+01 -0.30832541330E+01  0.40077803458E+02  0.50528860634E+02  0.30000002382E+02 0.  0.
        -12    1    3    3    0    0  0.61179104220E+01  0.30832541330E+01 -0.40077803458E+02  0.40659139366E+02  0.00000000000E+00 0.  1.
         11    1    4    4    0    0  0.10823944461E+01 -0.19661524711E+01  0.14926264944E+02  0.15094062366E+02  0.51100000000E-03 0. -1.
        -11    1    4    4    0    0 -0.51264964337E+01  0.10370192427E+01 -0.37139753874E+01  0.64148256433E+01  0.51100000000E-03 0.  1.
        -12    1    4    4    0    0 -0.20738084344E+01 -0.21541209046E+01  0.28865513902E+02  0.29019972624E+02  0.00000000000E+00 0.  1.
</event>
<event>
 8    1  0.2031623E-013  0.9118800E+02  0.7816164E-02  0.1184000E+00
        -11   -1    0    0    0    0  0.00000000000E+00  0.00000000000E+00  0.45593999997E+02  0.45594000000E+02  0.51100000000E-03 0. -1.
         11   -1    0    0    0    0 -0.00000000000E+00 -0.00000000000E+00 -0.45593999997E+02  0.45594000000E+02  0.51100000000E-03 0.  1.
         23    2    1    2    0    0  0.71054273576E-14 -0.22204460493E-14  0.35527136788E-14  0.91188000000E+02  0.91188000000E+02 0.  0.
    9900012    2    3    3    0    0 -0.36254306596E+02  0.23093755831E+01 -0.18260827960E+02  0.50528858345E+02  0.29999995425E+02 0.  0.
         12    1    3    3    0    0  0.36254306596E+02 -0.23093755831E+01  0.18260827960E+02  0.40659141655E+02  0.00000000000E+00 0. -1.
         11    1    4    4    0    0 -0.19080624102E+02 -0.59941223931E+01  0.18640266976E+00  0.20000861621E+02  0.51100000000E-03 0. -1.
        -11    1    4    4    0    0 -0.18158572164E+02  0.80049735237E+01 -0.20312675191E+02  0.28397501964E+02  0.51100000000E-03 0.  1.
         12    1    4    4    0    0  0.98488966978E+00  0.29852445247E+00  0.18654445607E+01  0.21304947593E+01  0.00000000000E+00 0. -1.
</event>
<event>
 8    1  0.2031623E-013  0.9118800E+02  0.7816164E-02  0.1184000E+00
        -11   -1    0    0    0    0  0.00000000000E+00  0.00000000000E+00  0.45593999997E+02  0.45594000000E+02  0.51100000000E-03 0.  1.
         11   -1    0    0    0    0 -0.00000000000E+00 -0.00000000000E+00 -0.45593999997E+02  0.45594000000E+02  0.51100000000E-03 0. -1.
         23    2    1    2    0    0  0.71054273576E-14 -0.88817841970E-15  0.17763568394E-14  0.91188000000E+02  0.91188000000E+02 0.  0.
    9900012    2    3    3    0    0  0.40182145941E+02 -0.56160512233E+01  0.26499691994E+01  0.50528840877E+02  0.29999942331E+02 0.  0.
         12    1    3    3    0    0 -0.40182145941E+02  0.56160512233E+01 -0.26499691994E+01  0.40659159123E+02  0.00000000000E+00 0. -1.
         11    1    4    4    0    0  0.25448573659E+02  0.37994424488E+01 -0.11128125904E+02  0.28033923211E+02  0.51100000000E-03 0. -1.
        -11    1    4    4    0    0  0.22367237466E+01 -0.29591240626E+01  0.31177373093E+01  0.48455788640E+01  0.51100000000E-03 0.  1.
         12    1    4    4    0    0  0.12496848536E+02 -0.64563696096E+01  0.10660357794E+02  0.17649338802E+02  0.00000000000E+00 0. -1.
</event>
<event>
 8    1  0.2031623E-013  0.9118800E+02  0.7816164E-02  0.1184000E+00
        -11   -1    0    0    0    0  0.00000000000E+00  0.00000000000E+00  0.45593999997E+02  0.45594000000E+02  0.51100000000E-03 0. -1.
         11   -1    0    0    0    0 -0.00000000000E+00 -0.00000000000E+00 -0.45593999997E+02  0.45594000000E+02  0.51100000000E-03 0.  1.
         23    2    1    2    0    0  0.00000000000E+00  0.00000000000E+00  0.00000000000E+00  0.91188000000E+02  0.91188000000E+02 0.  0.
    9900012    2    3    3    0    0 -0.24281470523E+02 -0.12010987169E+02 -0.30320162327E+02  0.50528857522E+02  0.29999992924E+02 0.  0.
         12    1    3    3    0    0  0.24281470523E+02  0.12010987169E+02  0.30320162327E+02  0.40659142478E+02  0.00000000000E+00 0. -1.
         11    1    4    4    0    0 -0.98483322525E+01 -0.28314660689E+01  0.14802927663E+01  0.10353652263E+02  0.51100000000E-03 0. -1.
        -11    1    4    4    0    0 -0.84768308839E+01 -0.71753887239E+00 -0.27813842823E+02  0.29085759002E+02  0.51100000000E-03 0.  1.
        -12    1    4    4    0    0 -0.59563073865E+01 -0.84619822272E+01 -0.39866122699E+01  0.11089446257E+02  0.00000000000E+00 0.  1.
</event>
<event>
 8    1  0.2031623E-013  0.9118800E+02  0.7816164E-02  0.1184000E+00
        -11   -1    0    0    0    0  0.00000000000E+00  0.00000000000E+00  0.45593999997E+02  0.45594000000E+02  0.51100000000E-03 0.  1.
         11   -1    0    0    0    0 -0.00000000000E+00 -0.00000000000E+00 -0.45593999997E+02  0.45594000000E+02  0.51100000000E-03 0. -1.
         23    2    1    2    0    0  0.00000000000E+00  0.26645352591E-14 -0.35527136788E-14  0.91188000000E+02  0.91188000000E+02 0.  0.
    9900012    2    3    3    0    0  0.29675849572E+02 -0.37106427196E+01 -0.27545244379E+02  0.50528863203E+02  0.30000010191E+02 0.  0.
         12    1    3    3    0    0 -0.29675849572E+02  0.37106427196E+01  0.27545244379E+02  0.40659136797E+02  0.00000000000E+00 0. -1.
         11    1    4    4    0    0  0.19195685532E+02  0.72790078085E+01 -0.24239980679E+02  0.31765310659E+02  0.51100000000E-03 0. -1.
        -11    1    4    4    0    0  0.77229775558E+01 -0.73709029950E+00 -0.45811567789E+00  0.77715863679E+01  0.51100000000E-03 0.  1.
         12    1    4    4    0    0  0.27571864842E+01 -0.10252560229E+02 -0.28471480220E+01  0.10991966176E+02  0.00000000000E+00 0. -1.
</event>
<event>
 8    1  0.2031623E-013  0.9118800E+02  0.7816164E-02  0.1184000E+00
        -11   -1    0    0    0    0  0.00000000000E+00  0.00000000000E+00  0.45593999997E+02  0.45594000000E+02  0.51100000000E-03 0. -1.
         11   -1    0    0    0    0 -0.00000000000E+00 -0.00000000000E+00 -0.45593999997E+02  0.45594000000E+02  0.51100000000E-03 0.  1.
         23    2    1    2    0    0  0.00000000000E+00  0.00000000000E+00  0.17763568394E-14  0.91188000000E+02  0.91188000000E+02 0.  0.
    9900012    2    3    3    0    0 -0.89602136134E+01 -0.37319275240E+02 -0.13421992489E+02  0.50528885219E+02  0.30000077111E+02 0.  0.
         12    1    3    3    0    0  0.89602136134E+01  0.37319275240E+02  0.13421992489E+02  0.40659114781E+02  0.00000000000E+00 0. -1.
         11    1    4    4    0    0 -0.12705566388E+02 -0.14430190215E+02  0.23724151810E+01  0.19372407206E+02  0.51100000000E-03 0. -1.
        -11    1    4    4    0    0  0.25853230877E+01 -0.91076892285E+01 -0.14430840911E+02  0.17259289331E+02  0.51100000000E-03 0.  1.
         12    1    4    4    0    0  0.11600296870E+01 -0.13781395796E+02 -0.13635667584E+01  0.13897188682E+02  0.00000000000E+00 0. -1.
</event>
<event>
 8    1  0.2031623E-013  0.9118800E+02  0.7816164E-02  0.1184000E+00
        -11   -1    0    0    0    0  0.00000000000E+00  0.00000000000E+00  0.45593999997E+02  0.45594000000E+02  0.51100000000E-03 0.  1.
         11   -1    0    0    0    0 -0.00000000000E+00 -0.00000000000E+00 -0.45593999997E+02  0.45594000000E+02  0.51100000000E-03 0. -1.
         23    2    1    2    0    0  0.71054273576E-14 -0.44408920985E-15  0.35527136788E-14  0.91188000000E+02  0.91188000000E+02 0.  0.
    9900012    2    3    3    0    0  0.35887024155E+02 -0.26863612838E+01  0.18922751642E+02  0.50528861183E+02  0.30000004053E+02 0.  0.
        -12    1    3    3    0    0 -0.35887024155E+02  0.26863612838E+01 -0.18922751642E+02  0.40659138817E+02  0.00000000000E+00 0.  1.
         11    1    4    4    0    0  0.25558697417E+01  0.41771978500E+01  0.44837556819E+00  0.49175698191E+01  0.51100000000E-03 0. -1.
        -11    1    4    4    0    0  0.34882103814E+02 -0.36804448312E+01  0.10071795203E+02  0.36493121263E+02  0.51100000000E-03 0.  1.
        -12    1    4    4    0    0 -0.15509494012E+01 -0.31831143026E+01  0.84025808702E+01  0.91181701009E+01  0.00000000000E+00 0.  1.
</event>
<event>
 8    1  0.2031623E-013  0.9118800E+02  0.7816164E-02  0.1184000E+00
        -11   -1    0    0    0    0  0.00000000000E+00  0.00000000000E+00  0.45593999997E+02  0.45594000000E+02  0.51100000000E-03 0. -1.
         11   -1    0    0    0    0 -0.00000000000E+00 -0.00000000000E+00 -0.45593999997E+02  0.45594000000E+02  0.51100000000E-03 0.  1.
         23    2    1    2    0    0  0.00000000000E+00  0.00000000000E+00  0.71054273576E-14  0.91188000000E+02  0.91188000000E+02 0.  0.
    9900012    2    3    3    0    0 -0.15635424778E+02 -0.18755339961E+02 -0.32510556716E+02  0.50528861015E+02  0.30000003540E+02 0.  0.
         12    1    3    3    0    0  0.15635424778E+02  0.18755339961E+02  0.32510556716E+02  0.40659138985E+02  0.00000000000E+00 0. -1.
         11    1    4    4    0    0 -0.77651001126E+01 -0.15503473571E+02 -0.13275215978E+02  0.21837715816E+02  0.51100000000E-03 0. -1.
        -11    1    4    4    0    0 -0.69213740914E+01  0.61013122643E+01 -0.16492523730E+02  0.18898009681E+02  0.51100000000E-03 0.  1.
        -12    1    4    4    0    0 -0.94895057417E+00 -0.93531786545E+01 -0.27428170075E+01  0.97931355179E+01  0.00000000000E+00 0.  1.
</event>
<event>
 8    1  0.2031623E-013  0.9118800E+02  0.7816164E-02  0.1184000E+00
        -11   -1    0    0    0    0  0.00000000000E+00  0.00000000000E+00  0.45593999997E+02  0.45594000000E+02  0.51100000000E-03 0. -1.
         11   -1    0    0    0    0 -0.00000000000E+00 -0.00000000000E+00 -0.45593999997E+02  0.45594000000E+02  0.51100000000E-03 0.  1.
         23    2    1    2    0    0  0.00000000000E+00  0.00000000000E+00 -0.71054273576E-14  0.91188000000E+02  0.91188000000E+02 0.  0.
    9900012    2    3    3    0    0  0.16106057567E+02  0.17147451203E+02  0.33162096949E+02  0.50528870064E+02  0.30000031047E+02 0.  0.
        -12    1    3    3    0    0 -0.16106057567E+02 -0.17147451203E+02 -0.33162096949E+02  0.40659129936E+02  0.00000000000E+00 0.  1.
         11    1    4    4    0    0 -0.78629232003E+01  0.31459120681E+01  0.69878652869E+01  0.10979644144E+02  0.51100000000E-03 0. -1.
        -11    1    4    4    0    0  0.41045777328E+01  0.76433225723E+01  0.93238195046E+01  0.12735837182E+02  0.51100000000E-03 0.  1.
         12    1    4    4    0    0  0.19864403034E+02  0.63582165625E+01  0.16850412157E+02  0.26813388738E+02  0.00000000000E+00 0. -1.
</event>
<event>
 8    1  0.2031623E-013  0.9118800E+02  0.7816164E-02  0.1184000E+00
        -11   -1    0    0    0    0  0.00000000000E+00  0.00000000000E+00  0.45593999997E+02  0.45594000000E+02  0.51100000000E-03 0. -1.
         11   -1    0    0    0    0 -0.00000000000E+00 -0.00000000000E+00 -0.45593999997E+02  0.45594000000E+02  0.51100000000E-03 0.  1.
         23    2    1    2    0    0  0.00000000000E+00  0.00000000000E+00  0.00000000000E+00  0.91188000000E+02  0.91188000000E+02 0.  0.
    9900012    2    3    3    0    0  0.17578971764E+02 -0.20035878010E+02 -0.30703588902E+02  0.50528843253E+02  0.29999949552E+02 0.  0.
         12    1    3    3    0    0 -0.17578971764E+02  0.20035878010E+02  0.30703588902E+02  0.40659156747E+02  0.00000000000E+00 0. -1.
         11    1    4    4    0    0  0.11195561897E+02 -0.15903444672E+02 -0.61514121762E+01  0.20398530110E+02  0.51100000000E-03 0. -1.
        -11    1    4    4    0    0  0.57729752180E+01 -0.80167972913E+01 -0.69115374285E+01  0.12056767044E+02  0.51100000000E-03 0.  1.
         12    1    4    4    0    0  0.61043464906E+00  0.38843639527E+01 -0.17640639297E+02  0.18073546099E+02  0.00000000000E+00 0. -1.
</event>
<event>
 8    1  0.2031623E-013  0.9118800E+02  0.7816164E-02  0.1184000E+00
        -11   -1    0    0    0    0  0.00000000000E+00  0.00000000000E+00  0.45593999997E+02  0.45594000000E+02  0.51100000000E-03 0.  1.
         11   -1    0    0    0    0 -0.00000000000E+00 -0.00000000000E+00 -0.45593999997E+02  0.45594000000E+02  0.51100000000E-03 0. -1.
         23    2    1    2    0    0 -0.35527136788E-14  0.00000000000E+00 -0.14432899320E-14  0.91188000000E+02  0.91188000000E+02 0.  0.
    9900012    2    3    3    0    0 -0.10393482244E+02  0.39304367793E+02 -0.55540040844E+00  0.50528852562E+02  0.29999977847E+02 0.  0.
        -12    1    3    3    0    0  0.10393482244E+02 -0.39304367793E+02  0.55540040844E+00  0.40659147438E+02  0.00000000000E+00 0.  1.
         11    1    4    4    0    0  0.27566463903E+01  0.21780547264E+02 -0.31904921187E+01  0.22184917819E+02  0.51100000000E-03 0. -1.
        -11    1    4    4    0    0 -0.51615506760E+01  0.93043593718E+01  0.10095906869E+02  0.14667652998E+02  0.51100000000E-03 0.  1.
         12    1    4    4    0    0 -0.79885779586E+01  0.82194611578E+01 -0.74608151587E+01  0.13676281745E+02  0.00000000000E+00 0. -1.
</event>
<event>
 8    1  0.2031623E-013  0.9118800E+02  0.7816164E-02  0.1184000E+00
        -11   -1    0    0    0    0  0.00000000000E+00  0.00000000000E+00  0.45593999997E+02  0.45594000000E+02  0.51100000000E-03 0. -1.
         11   -1    0    0    0    0 -0.00000000000E+00 -0.00000000000E+00 -0.45593999997E+02  0.45594000000E+02  0.51100000000E-03 0.  1.
         23    2    1    2    0    0  0.00000000000E+00 -0.88817841970E-15  0.00000000000E+00  0.91188000000E+02  0.91188000000E+02 0.  0.
    9900012    2    3    3    0    0 -0.20346733939E+02  0.50577581442E+01  0.34836695625E+02  0.50528857590E+02  0.29999993130E+02 0.  0.
        -12    1    3    3    0    0  0.20346733939E+02 -0.50577581442E+01 -0.34836695625E+02  0.40659142410E+02  0.00000000000E+00 0.  1.
         11    1    4    4    0    0 -0.17327303907E+01  0.68045960404E+01  0.22529851888E+02  0.23598709885E+02  0.51100000000E-03 0. -1.
        -11    1    4    4    0    0 -0.11007818605E+02 -0.55535130317E+01  0.13566236743E+02  0.18331839980E+02  0.51100000000E-03 0.  1.
        -12    1    4    4    0    0 -0.76061849431E+01  0.38066751355E+01 -0.12593930061E+01  0.85983077242E+01  0.00000000000E+00 0.  1.
</event>
<event>
 8    1  0.2506537E-013  0.9118800E+02  0.7816164E-02  0.1184000E+00
        -11   -1    0    0    0    0  0.00000000000E+00  0.00000000000E+00  0.45593999997E+02  0.45594000000E+02  0.51100000000E-03 0. -1.
         11   -1    0    0    0    0 -0.00000000000E+00 -0.00000000000E+00 -0.45593999997E+02  0.45594000000E+02  0.51100000000E-03 0.  1.
         23    2    1    2    0    0  0.17763568394E-14 -0.35527136788E-14 -0.35527136788E-14  0.91188000000E+02  0.91188000000E+02 0.  0.
    9900012    2    3    3    0    0  0.60629485788E+01 -0.29053452797E+02 -0.27790339730E+02  0.50528862685E+02  0.30000008618E+02 0.  0.
         12    1    3    3    0    0 -0.60629485788E+01  0.29053452797E+02  0.27790339730E+02  0.40659137315E+02  0.00000000000E+00 0. -1.
         11    1    4    4    0    0 -0.37173687496E+01  0.19842373226E+01 -0.12480988229E+02  0.13173120193E+02  0.51100000000E-03 0. -1.
        -11    1    4    4    0    0  0.41528891773E+01 -0.94863737344E+01 -0.10132575737E+02  0.14488162978E+02  0.51100000000E-03 0.  1.
         12    1    4    4    0    0  0.56274281511E+01 -0.21551316385E+02 -0.51767757632E+01  0.22867579514E+02  0.00000000000E+00 0. -1.
</event>
<event>
 8    1  0.2031623E-013  0.9118800E+02  0.7816164E-02  0.1184000E+00
        -11   -1    0    0    0    0  0.00000000000E+00  0.00000000000E+00  0.45593999997E+02  0.45594000000E+02  0.51100000000E-03 0. -1.
         11   -1    0    0    0    0 -0.00000000000E+00 -0.00000000000E+00 -0.45593999997E+02  0.45594000000E+02  0.51100000000E-03 0.  1.
         23    2    1    2    0    0  0.00000000000E+00  0.35527136788E-14  0.00000000000E+00  0.91188000000E+02  0.91188000000E+02 0.  0.
    9900012    2    3    3    0    0  0.21223793568E+02 -0.23600858700E+02 -0.25410936153E+02  0.50528860548E+02  0.30000002121E+02 0.  0.
         12    1    3    3    0    0 -0.21223793568E+02  0.23600858700E+02  0.25410936153E+02  0.40659139452E+02  0.00000000000E+00 0. -1.
         11    1    4    4    0    0  0.14895144891E+02 -0.39561705426E+01  0.20001972890E+01  0.15540830613E+02  0.51100000000E-03 0. -1.
        -11    1    4    4    0    0  0.10476154053E+01 -0.69046262062E+01 -0.14510112991E+02  0.16103252478E+02  0.51100000000E-03 0.  1.
         12    1    4    4    0    0  0.52810332726E+01 -0.12740061951E+02 -0.12901020451E+02  0.18884777457E+02  0.00000000000E+00 0. -1.
</event>
<event>
 8    1  0.2031623E-013  0.9118800E+02  0.7816164E-02  0.1184000E+00
        -11   -1    0    0    0    0  0.00000000000E+00  0.00000000000E+00  0.45593999997E+02  0.45594000000E+02  0.51100000000E-03 0.  1.
         11   -1    0    0    0    0 -0.00000000000E+00 -0.00000000000E+00 -0.45593999997E+02  0.45594000000E+02  0.51100000000E-03 0. -1.
         23    2    1    2    0    0 -0.17763568394E-14  0.00000000000E+00  0.00000000000E+00  0.91188000000E+02  0.91188000000E+02 0.  0.
    9900012    2    3    3    0    0  0.99779842971E+01  0.39106657201E+02 -0.49271924766E+01  0.50528830877E+02  0.29999911934E+02 0.  0.
         12    1    3    3    0    0 -0.99779842971E+01 -0.39106657201E+02  0.49271924766E+01  0.40659169123E+02  0.00000000000E+00 0. -1.
         11    1    4    4    0    0  0.16401732526E+02  0.37820623779E+02 -0.42193350781E+01  0.41439343644E+02  0.51100000000E-03 0. -1.
        -11    1    4    4    0    0 -0.76061569816E+00 -0.15735755302E+01  0.15694106120E+01  0.23489840612E+01  0.51100000000E-03 0.  1.
         12    1    4    4    0    0 -0.56631325304E+01  0.28596089519E+01 -0.22772680106E+01  0.67405031716E+01  0.00000000000E+00 0. -1.
</event>
<event>
 8    1  0.2031623E-013  0.9118800E+02  0.7816164E-02  0.1184000E+00
        -11   -1    0    0    0    0  0.00000000000E+00  0.00000000000E+00  0.45593999997E+02  0.45594000000E+02  0.51100000000E-03 0. -1.
         11   -1    0    0    0    0 -0.00000000000E+00 -0.00000000000E+00 -0.45593999997E+02  0.45594000000E+02  0.51100000000E-03 0.  1.
         23    2    1    2    0    0 -0.88817841970E-15  0.00000000000E+00  0.00000000000E+00  0.91188000000E+02  0.91188000000E+02 0.  0.
    9900012    2    3    3    0    0 -0.61432932599E+01  0.28022881395E+02  0.28812085331E+02  0.50528951869E+02  0.30000279700E+02 0.  0.
        -12    1    3    3    0    0  0.61432932599E+01 -0.28022881395E+02 -0.28812085331E+02  0.40659048131E+02  0.00000000000E+00 0.  1.
         11    1    4    4    0    0  0.29971945354E+01  0.13299588480E+02  0.12816974094E+02  0.18711949498E+02  0.51100000000E-03 0. -1.
        -11    1    4    4    0    0 -0.12570039389E+02  0.12895020270E+02  0.30037590045E+01  0.18256779739E+02  0.51100000000E-03 0.  1.
        -12    1    4    4    0    0  0.34295515939E+01  0.18282726451E+01  0.12991352233E+02  0.13560222632E+02  0.00000000000E+00 0.  1.
</event>
<event>
 8    1  0.2031623E-013  0.9118800E+02  0.7816164E-02  0.1184000E+00
        -11   -1    0    0    0    0  0.00000000000E+00  0.00000000000E+00  0.45593999997E+02  0.45594000000E+02  0.51100000000E-03 0. -1.
         11   -1    0    0    0    0 -0.00000000000E+00 -0.00000000000E+00 -0.45593999997E+02  0.45594000000E+02  0.51100000000E-03 0.  1.
         23    2    1    2    0    0 -0.17763568394E-14  0.00000000000E+00  0.00000000000E+00  0.91188000000E+02  0.91188000000E+02 0.  0.
    9900012    2    3    3    0    0 -0.14961159768E+02  0.26592445680E+02 -0.26873329193E+02  0.50528803122E+02  0.29999827570E+02 0.  0.
         12    1    3    3    0    0  0.14961159768E+02 -0.26592445680E+02  0.26873329193E+02  0.40659196878E+02  0.00000000000E+00 0. -1.
         11    1    4    4    0    0 -0.12091995026E+02  0.44455650101E+01 -0.67475470364E+01  0.14543341543E+02  0.51100000000E-03 0. -1.
        -11    1    4    4    0    0 -0.50460747348E+00  0.23185438812E+02 -0.22619528563E+02  0.32395405141E+02  0.51100000000E-03 0.  1.
        -12    1    4    4    0    0 -0.23645572683E+01 -0.10385581425E+01  0.24937464061E+01  0.35900564380E+01  0.00000000000E+00 0.  1.
</event>
<event>
 8    1  0.2031623E-013  0.9118800E+02  0.7816164E-02  0.1184000E+00
        -11   -1    0    0    0    0  0.00000000000E+00  0.00000000000E+00  0.45593999997E+02  0.45594000000E+02  0.51100000000E-03 0.  1.
         11   -1    0    0    0    0 -0.00000000000E+00 -0.00000000000E+00 -0.45593999997E+02  0.45594000000E+02  0.51100000000E-03 0. -1.
         23    2    1    2    0    0  0.00000000000E+00 -0.17763568394E-14  0.00000000000E+00  0.91188000000E+02  0.91188000000E+02 0.  0.
    9900012    2    3    3    0    0  0.35036274130E+02 -0.15042125561E+02  0.14119477778E+02  0.50528859588E+02  0.29999999205E+02 0.  0.
        -12    1    3    3    0    0 -0.35036274130E+02  0.15042125561E+02 -0.14119477778E+02  0.40659140412E+02  0.00000000000E+00 0.  1.
         11    1    4    4    0    0  0.21985361991E+01  0.10469959678E+01 -0.11372809782E+01  0.26875956280E+01  0.51100000000E-03 0. -1.
        -11    1    4    4    0    0  0.26573529932E+02  0.14763428409E+01  0.10362643434E+02  0.28560750348E+02  0.51100000000E-03 0.  1.
        -12    1    4    4    0    0  0.62642079985E+01 -0.17565464370E+02  0.48941153214E+01  0.19280513612E+02  0.00000000000E+00 0.  1.
</event>
<event>
 8    1  0.2031623E-013  0.9118800E+02  0.7816164E-02  0.1184000E+00
        -11   -1    0    0    0    0  0.00000000000E+00  0.00000000000E+00  0.45593999997E+02  0.45594000000E+02  0.51100000000E-03 0. -1.
         11   -1    0    0    0    0 -0.00000000000E+00 -0.00000000000E+00 -0.45593999997E+02  0.45594000000E+02  0.51100000000E-03 0.  1.
         23    2    1    2    0    0  0.35527136788E-14  0.00000000000E+00  0.00000000000E+00  0.91188000000E+02  0.91188000000E+02 0.  0.
    9900012    2    3    3    0    0 -0.20340692082E+02  0.17343094401E+02 -0.30637242611E+02  0.50528839746E+02  0.29999938891E+02 0.  0.
         12    1    3    3    0    0  0.20340692082E+02 -0.17343094401E+02  0.30637242611E+02  0.40659160254E+02  0.00000000000E+00 0. -1.
         11    1    4    4    0    0  0.18713914099E+01 -0.13384767926E+01  0.34611737756E+01  0.41561220024E+01  0.51100000000E-03 0. -1.
        -11    1    4    4    0    0 -0.14795018142E+02  0.49113179368E+01 -0.19623040759E+02  0.25061471118E+02  0.51100000000E-03 0.  1.
        -12    1    4    4    0    0 -0.74170653499E+01  0.13770253257E+02 -0.14475375628E+02  0.21311246625E+02  0.00000000000E+00 0.  1.
</event>
<event>
 8    1  0.2031623E-013  0.9118800E+02  0.7816164E-02  0.1184000E+00
        -11   -1    0    0    0    0  0.00000000000E+00  0.00000000000E+00  0.45593999997E+02  0.45594000000E+02  0.51100000000E-03 0. -1.
         11   -1    0    0    0    0 -0.00000000000E+00 -0.00000000000E+00 -0.45593999997E+02  0.45594000000E+02  0.51100000000E-03 0.  1.
         23    2    1    2    0    0 -0.17763568394E-14 -0.35527136788E-14  0.00000000000E+00  0.91188000000E+02  0.91188000000E+02 0.  0.
    9900012    2    3    3    0    0 -0.14359483828E+02 -0.31407251688E+02  0.21460558854E+02  0.50528858092E+02  0.29999994655E+02 0.  0.
        -12    1    3    3    0    0  0.14359483828E+02  0.31407251688E+02 -0.21460558854E+02  0.40659141908E+02  0.00000000000E+00 0.  1.
         11    1    4    4    0    0 -0.67095917702E+01 -0.17528481579E+02  0.21978919302E+02  0.28902234898E+02  0.51100000000E-03 0. -1.
        -11    1    4    4    0    0 -0.68672775173E+01 -0.17045305011E+01 -0.49631176020E+01  0.86427693085E+01  0.51100000000E-03 0.  1.
         12    1    4    4    0    0 -0.78261454074E+00 -0.12174239607E+02  0.44447571548E+01  0.12983853885E+02  0.00000000000E+00 0. -1.
</event>
<event>
 8    1  0.2031623E-013  0.9118800E+02  0.7816164E-02  0.1184000E+00
        -11   -1    0    0    0    0  0.00000000000E+00  0.00000000000E+00  0.45593999997E+02  0.45594000000E+02  0.51100000000E-03 0. -1.
         11   -1    0    0    0    0 -0.00000000000E+00 -0.00000000000E+00 -0.45593999997E+02  0.45594000000E+02  0.51100000000E-03 0.  1.
         23    2    1    2    0    0  0.88817841970E-15  0.22204460493E-15  0.00000000000E+00  0.91188000000E+02  0.91188000000E+02 0.  0.
    9900012    2    3    3    0    0  0.42105472557E+01  0.16633139552E+01 -0.40406334627E+02  0.50528841136E+02  0.29999943117E+02 0.  0.
         12    1    3    3    0    0 -0.42105472557E+01 -0.16633139552E+01  0.40406334627E+02  0.40659158864E+02  0.00000000000E+00 0. -1.
         11    1    4    4    0    0 -0.24263372842E+01 -0.38257887695E+00 -0.21703828756E+00  0.24658842416E+01  0.51100000000E-03 0. -1.
        -11    1    4    4    0    0  0.14133277502E+02 -0.52087860013E+01 -0.29522128924E+02  0.33142677638E+02  0.51100000000E-03 0.  1.
        -12    1    4    4    0    0 -0.74963929618E+01  0.72546788334E+01 -0.10667167416E+02  0.14920279256E+02  0.00000000000E+00 0.  1.
</event>
<event>
 8    1  0.2031623E-013  0.9118800E+02  0.7816164E-02  0.1184000E+00
        -11   -1    0    0    0    0  0.00000000000E+00  0.00000000000E+00  0.45593999997E+02  0.45594000000E+02  0.51100000000E-03 0. -1.
         11   -1    0    0    0    0 -0.00000000000E+00 -0.00000000000E+00 -0.45593999997E+02  0.45594000000E+02  0.51100000000E-03 0.  1.
         23    2    1    2    0    0  0.00000000000E+00  0.00000000000E+00  0.00000000000E+00  0.91188000000E+02  0.91188000000E+02 0.  0.
    9900012    2    3    3    0    0 -0.25013744743E+02 -0.14028408321E+02 -0.28821553176E+02  0.50528860885E+02  0.30000003147E+02 0.  0.
         12    1    3    3    0    0  0.25013744743E+02  0.14028408321E+02  0.28821553176E+02  0.40659139115E+02  0.00000000000E+00 0. -1.
         11    1    4    4    0    0  0.37581780134E+01 -0.43774750547E+01 -0.33273139383E+01  0.66601207302E+01  0.51100000000E-03 0. -1.
        -11    1    4    4    0    0 -0.18284690658E+02 -0.19011314056E+01 -0.24719421334E+02  0.30805746289E+02  0.51100000000E-03 0.  1.
        -12    1    4    4    0    0 -0.10487232099E+02 -0.77498018605E+01 -0.77481790376E+00  0.13062993867E+02  0.00000000000E+00 0.  1.
</event>
<event>
 8    1  0.2031623E-013  0.9118800E+02  0.7816164E-02  0.1184000E+00
        -11   -1    0    0    0    0  0.00000000000E+00  0.00000000000E+00  0.45593999997E+02  0.45594000000E+02  0.51100000000E-03 0. -1.
         11   -1    0    0    0    0 -0.00000000000E+00 -0.00000000000E+00 -0.45593999997E+02  0.45594000000E+02  0.51100000000E-03 0.  1.
         23    2    1    2    0    0  0.00000000000E+00  0.88817841970E-15 -0.35527136788E-14  0.91188000000E+02  0.91188000000E+02 0.  0.
    9900012    2    3    3    0    0 -0.32314947101E+02 -0.65957927264E+01  0.23778261304E+02  0.50528855906E+02  0.29999988013E+02 0.  0.
        -12    1    3    3    0    0  0.32314947101E+02  0.65957927264E+01 -0.23778261304E+02  0.40659144094E+02  0.00000000000E+00 0.  1.
         11    1    4    4    0    0 -0.17617161780E+02 -0.14595023285E+02  0.12568245221E+02  0.26102488043E+02  0.51100000000E-03 0. -1.
        -11    1    4    4    0    0 -0.83173574797E+01  0.57016590326E+01 -0.13287845873E+01  0.10171185767E+02  0.51100000000E-03 0.  1.
        -12    1    4    4    0    0 -0.63804278413E+01  0.22975715256E+01  0.12538800670E+02  0.14255182096E+02  0.00000000000E+00 0.  1.
</event>
<event>
 8    1  0.2031623E-013  0.9118800E+02  0.7816164E-02  0.1184000E+00
        -11   -1    0    0    0    0  0.00000000000E+00  0.00000000000E+00  0.45593999997E+02  0.45594000000E+02  0.51100000000E-03 0. -1.
         11   -1    0    0    0    0 -0.00000000000E+00 -0.00000000000E+00 -0.45593999997E+02  0.45594000000E+02  0.51100000000E-03 0.  1.
         23    2    1    2    0    0  0.00000000000E+00 -0.71054273576E-14  0.00000000000E+00  0.91188000000E+02  0.91188000000E+02 0.  0.
    9900012    2    3    3    0    0 -0.46118667918E+01 -0.36499783667E+02 -0.17310769791E+02  0.50528852520E+02  0.29999977719E+02 0.  0.
         12    1    3    3    0    0  0.46118667918E+01  0.36499783667E+02  0.17310769791E+02  0.40659147480E+02  0.00000000000E+00 0. -1.
         11    1    4    4    0    0  0.51467315413E+01 -0.59598154609E+01 -0.16459525067E+02  0.18246210883E+02  0.51100000000E-03 0. -1.
        -11    1    4    4    0    0 -0.32462095921E+01 -0.60687050373E+01 -0.10299919585E+01  0.69590186982E+01  0.51100000000E-03 0.  1.
         12    1    4    4    0    0 -0.65123887410E+01 -0.24471263169E+02  0.17874723388E+00  0.25323622939E+02  0.00000000000E+00 0. -1.
</event>
<event>
 8    1  0.2031623E-013  0.9118800E+02  0.7816164E-02  0.1184000E+00
        -11   -1    0    0    0    0  0.00000000000E+00  0.00000000000E+00  0.45593999997E+02  0.45594000000E+02  0.51100000000E-03 0. -1.
         11   -1    0    0    0    0 -0.00000000000E+00 -0.00000000000E+00 -0.45593999997E+02  0.45594000000E+02  0.51100000000E-03 0.  1.
         23    2    1    2    0    0  0.00000000000E+00  0.00000000000E+00 -0.71054273576E-14  0.91188000000E+02  0.91188000000E+02 0.  0.
    9900012    2    3    3    0    0  0.17569946596E+02  0.11727146546E+02 -0.34740989859E+02  0.50528863685E+02  0.30000011657E+02 0.  0.
         12    1    3    3    0    0 -0.17569946596E+02 -0.11727146546E+02  0.34740989859E+02  0.40659136315E+02  0.00000000000E+00 0. -1.
         11    1    4    4    0    0 -0.82245563394E+00 -0.27684289254E+01  0.14669991069E+01  0.32392466139E+01  0.51100000000E-03 0. -1.
        -11    1    4    4    0    0  0.21247965619E+02  0.10383950727E+02 -0.22288711497E+02  0.32497525077E+02  0.51100000000E-03 0.  1.
         12    1    4    4    0    0 -0.28555633896E+01  0.41116247436E+01 -0.13919277469E+02  0.14792091994E+02  0.00000000000E+00 0. -1.
</event>
<event>
 8    1  0.2031623E-013  0.9118800E+02  0.7816164E-02  0.1184000E+00
        -11   -1    0    0    0    0  0.00000000000E+00  0.00000000000E+00  0.45593999997E+02  0.45594000000E+02  0.51100000000E-03 0. -1.
         11   -1    0    0    0    0 -0.00000000000E+00 -0.00000000000E+00 -0.45593999997E+02  0.45594000000E+02  0.51100000000E-03 0.  1.
         23    2    1    2    0    0  0.35527136788E-14  0.00000000000E+00  0.00000000000E+00  0.91188000000E+02  0.91188000000E+02 0.  0.
    9900012    2    3    3    0    0  0.18186787718E+02  0.13544648368E+02 -0.33748317122E+02  0.50528860124E+02  0.30000000832E+02 0.  0.
         12    1    3    3    0    0 -0.18186787718E+02 -0.13544648368E+02  0.33748317122E+02  0.40659139876E+02  0.00000000000E+00 0. -1.
         11    1    4    4    0    0  0.13443489906E+02 -0.21741858507E+01 -0.12252485364E+02  0.18318785517E+02  0.51100000000E-03 0. -1.
        -11    1    4    4    0    0 -0.41325028059E+01  0.58588671425E+01 -0.26424602208E+00  0.71745194861E+01  0.51100000000E-03 0.  1.
        -12    1    4    4    0    0  0.88758006183E+01  0.98599670762E+01 -0.21231585735E+02  0.25035555121E+02  0.00000000000E+00 0.  1.
</event>
<event>
 8    1  0.2031623E-013  0.9118800E+02  0.7816164E-02  0.1184000E+00
        -11   -1    0    0    0    0  0.00000000000E+00  0.00000000000E+00  0.45593999997E+02  0.45594000000E+02  0.51100000000E-03 0. -1.
         11   -1    0    0    0    0 -0.00000000000E+00 -0.00000000000E+00 -0.45593999997E+02  0.45594000000E+02  0.51100000000E-03 0.  1.
         23    2    1    2    0    0  0.00000000000E+00  0.00000000000E+00 -0.71054273576E-14  0.91188000000E+02  0.91188000000E+02 0.  0.
    9900012    2    3    3    0    0 -0.52561584005E+01  0.74189477590E+01 -0.39629503979E+02  0.50528861143E+02  0.30000003930E+02 0.  0.
         12    1    3    3    0    0  0.52561584005E+01 -0.74189477590E+01  0.39629503979E+02  0.40659138857E+02  0.00000000000E+00 0. -1.
         11    1    4    4    0    0 -0.14576498362E+02  0.77139902869E+01 -0.31866447033E+02  0.35881059035E+02  0.51100000000E-03 0. -1.
        -11    1    4    4    0    0  0.16108848294E+01 -0.35321222565E+01 -0.13499294300E+01  0.41101274062E+01  0.51100000000E-03 0.  1.
         12    1    4    4    0    0  0.77094551321E+01  0.32370797285E+01 -0.64131275153E+01  0.10537674702E+02  0.00000000000E+00 0. -1.
</event>
<event>
 8    1  0.2031623E-013  0.9118800E+02  0.7816164E-02  0.1184000E+00
        -11   -1    0    0    0    0  0.00000000000E+00  0.00000000000E+00  0.45593999997E+02  0.45594000000E+02  0.51100000000E-03 0. -1.
         11   -1    0    0    0    0 -0.00000000000E+00 -0.00000000000E+00 -0.45593999997E+02  0.45594000000E+02  0.51100000000E-03 0.  1.
         23    2    1    2    0    0  0.66960326173E-15 -0.35527136788E-14  0.00000000000E+00  0.91188000000E+02  0.91188000000E+02 0.  0.
    9900012    2    3    3    0    0  0.14525391540E-01  0.21591680315E+02  0.34452361876E+02  0.50528854550E+02  0.29999983891E+02 0.  0.
        -12    1    3    3    0    0 -0.14525391540E-01 -0.21591680315E+02 -0.34452361876E+02  0.40659145450E+02  0.00000000000E+00 0.  1.
         11    1    4    4    0    0  0.87730763653E+00  0.37242729192E+01  0.19607361368E+02  0.19977199442E+02  0.51100000000E-03 0. -1.
        -11    1    4    4    0    0 -0.49164210402E+01  0.20856240070E+02  0.10330498727E+02  0.23788088404E+02  0.51100000000E-03 0.  1.
        -12    1    4    4    0    0  0.40536387953E+01 -0.29888326738E+01  0.45145017816E+01  0.67635667048E+01  0.00000000000E+00 0.  1.
</event>
<event>
 8    1  0.2031623E-013  0.9118800E+02  0.7816164E-02  0.1184000E+00
        -11   -1    0    0    0    0  0.00000000000E+00  0.00000000000E+00  0.45593999997E+02  0.45594000000E+02  0.51100000000E-03 0.  1.
         11   -1    0    0    0    0 -0.00000000000E+00 -0.00000000000E+00 -0.45593999997E+02  0.45594000000E+02  0.51100000000E-03 0. -1.
         23    2    1    2    0    0  0.00000000000E+00  0.35527136788E-14  0.22204460493E-15  0.91188000000E+02  0.91188000000E+02 0.  0.
    9900012    2    3    3    0    0  0.25186843036E+02  0.31897894032E+02  0.11455804167E+01  0.50528867443E+02  0.30000023080E+02 0.  0.
        -12    1    3    3    0    0 -0.25186843036E+02 -0.31897894032E+02 -0.11455804167E+01  0.40659132557E+02  0.00000000000E+00 0.  1.
         11    1    4    4    0    0  0.19682726194E+02  0.31444776326E+02  0.98444808210E+01  0.38380951936E+02  0.51100000000E-03 0. -1.
        -11    1    4    4    0    0 -0.12270886406E+01 -0.10109760497E+01 -0.15611951893E+01  0.22282616061E+01  0.51100000000E-03 0.  1.
         12    1    4    4    0    0  0.67312054833E+01  0.14640937557E+01 -0.71377052150E+01  0.99196539012E+01  0.00000000000E+00 0. -1.
</event>
<event>
 8    1  0.2215418E-013  0.9118800E+02  0.7816164E-02  0.1184000E+00
        -11   -1    0    0    0    0  0.00000000000E+00  0.00000000000E+00  0.45593999997E+02  0.45594000000E+02  0.51100000000E-03 0. -1.
         11   -1    0    0    0    0 -0.00000000000E+00 -0.00000000000E+00 -0.45593999997E+02  0.45594000000E+02  0.51100000000E-03 0.  1.
         23    2    1    2    0    0 -0.35527136788E-14  0.35527136788E-14 -0.35527136788E-14  0.91188000000E+02  0.91188000000E+02 0.  0.
    9900012    2    3    3    0    0 -0.21192129696E+02 -0.23932523476E+02 -0.25125556821E+02  0.50528860234E+02  0.30000001167E+02 0.  0.
         12    1    3    3    0    0  0.21192129696E+02  0.23932523476E+02  0.25125556821E+02  0.40659139766E+02  0.00000000000E+00 0. -1.
         11    1    4    4    0    0 -0.40320099116E+01 -0.61831343247E+01  0.56447827923E+01  0.92925683768E+01  0.51100000000E-03 0. -1.
        -11    1    4    4    0    0 -0.17297494665E+02 -0.17259554875E+02 -0.23348900129E+02  0.33797436200E+02  0.51100000000E-03 0.  1.
         12    1    4    4    0    0  0.13737488138E+00 -0.48983427601E+00 -0.74214394840E+01  0.74388556574E+01  0.00000000000E+00 0. -1.
</event>
<event>
 8    1  0.2031623E-013  0.9118800E+02  0.7816164E-02  0.1184000E+00
        -11   -1    0    0    0    0  0.00000000000E+00  0.00000000000E+00  0.45593999997E+02  0.45594000000E+02  0.51100000000E-03 0. -1.
         11   -1    0    0    0    0 -0.00000000000E+00 -0.00000000000E+00 -0.45593999997E+02  0.45594000000E+02  0.51100000000E-03 0.  1.
         23    2    1    2    0    0  0.35527136788E-14  0.00000000000E+00 -0.35527136788E-14  0.91188000000E+02  0.91188000000E+02 0.  0.
    9900012    2    3    3    0    0 -0.16637725306E+02  0.19270834602E+02  0.31701523775E+02  0.50528861061E+02  0.30000003682E+02 0.  0.
        -12    1    3    3    0    0  0.16637725306E+02 -0.19270834602E+02 -0.31701523775E+02  0.40659138939E+02  0.00000000000E+00 0.  1.
         11    1    4    4    0    0 -0.23030051411E+02  0.14491585512E+02  0.30917139726E+02  0.41185663134E+02  0.51100000000E-03 0. -1.
        -11    1    4    4    0    0  0.11870203239E+01 -0.81128275911E+00 -0.63843479099E+00  0.15731485016E+01  0.51100000000E-03 0.  1.
         12    1    4    4    0    0  0.52053057817E+01  0.55905318485E+01  0.14228188401E+01  0.77700494260E+01  0.00000000000E+00 0. -1.
</event>
<event>
 8    1  0.2031623E-013  0.9118800E+02  0.7816164E-02  0.1184000E+00
        -11   -1    0    0    0    0  0.00000000000E+00  0.00000000000E+00  0.45593999997E+02  0.45594000000E+02  0.51100000000E-03 0. -1.
         11   -1    0    0    0    0 -0.00000000000E+00 -0.00000000000E+00 -0.45593999997E+02  0.45594000000E+02  0.51100000000E-03 0.  1.
         23    2    1    2    0    0  0.00000000000E+00  0.00000000000E+00  0.00000000000E+00  0.91188000000E+02  0.91188000000E+02 0.  0.
    9900012    2    3    3    0    0 -0.24428164041E+02  0.21234949774E+02 -0.24607061610E+02  0.50528858698E+02  0.29999996500E+02 0.  0.
         12    1    3    3    0    0  0.24428164041E+02 -0.21234949774E+02  0.24607061610E+02  0.40659141302E+02  0.00000000000E+00 0. -1.
         11    1    4    4    0    0  0.28196432731E+01  0.25029356191E+01 -0.15102818186E+01  0.40615300483E+01  0.51100000000E-03 0. -1.
        -11    1    4    4    0    0 -0.17754563962E+02  0.23691733837E+02 -0.17238391730E+02  0.34259085560E+02  0.51100000000E-03 0.  1.
        -12    1    4    4    0    0 -0.94932433522E+01 -0.49597196827E+01 -0.58583880614E+01  0.12208243090E+02  0.00000000000E+00 0.  1.
</event>
<event>
 8    1  0.2031623E-013  0.9118800E+02  0.7816164E-02  0.1184000E+00
        -11   -1    0    0    0    0  0.00000000000E+00  0.00000000000E+00  0.45593999997E+02  0.45594000000E+02  0.51100000000E-03 0. -1.
         11   -1    0    0    0    0 -0.00000000000E+00 -0.00000000000E+00 -0.45593999997E+02  0.45594000000E+02  0.51100000000E-03 0.  1.
         23    2    1    2    0    0 -0.35527136788E-14  0.35527136788E-14  0.00000000000E+00  0.91188000000E+02  0.91188000000E+02 0.  0.
    9900012    2    3    3    0    0  0.11257139205E+02 -0.21801185698E+02 -0.32421401107E+02  0.50528903470E+02  0.30000132586E+02 0.  0.
         12    1    3    3    0    0 -0.11257139205E+02  0.21801185698E+02  0.32421401107E+02  0.40659096530E+02  0.00000000000E+00 0. -1.
         11    1    4    4    0    0 -0.68158317828E+01 -0.14328486075E+02 -0.11803572451E+02  0.19775879221E+02  0.51100000000E-03 0. -1.
        -11    1    4    4    0    0  0.16127591027E+02 -0.67301916347E+01 -0.22116522863E+02  0.28187501762E+02  0.51100000000E-03 0.  1.
         12    1    4    4    0    0  0.19453799605E+01 -0.74250798860E+00  0.14986942068E+01  0.25655224867E+01  0.00000000000E+00 0. -1.
</event>
<event>
 8    1  0.2031623E-013  0.9118800E+02  0.7816164E-02  0.1184000E+00
        -11   -1    0    0    0    0  0.00000000000E+00  0.00000000000E+00  0.45593999997E+02  0.45594000000E+02  0.51100000000E-03 0. -1.
         11   -1    0    0    0    0 -0.00000000000E+00 -0.00000000000E+00 -0.45593999997E+02  0.45594000000E+02  0.51100000000E-03 0.  1.
         23    2    1    2    0    0  0.00000000000E+00  0.00000000000E+00  0.00000000000E+00  0.91188000000E+02  0.91188000000E+02 0.  0.
    9900012    2    3    3    0    0  0.28008038706E+02  0.44493683841E+01  0.29136191134E+02  0.50528871320E+02  0.30000034865E+02 0.  0.
        -12    1    3    3    0    0 -0.28008038706E+02 -0.44493683841E+01 -0.29136191134E+02  0.40659128680E+02  0.00000000000E+00 0.  1.
         11    1    4    4    0    0  0.36363266843E+01 -0.16471586127E+01  0.59742131409E+01  0.71852088462E+01  0.51100000000E-03 0. -1.
        -11    1    4    4    0    0  0.77153065691E+01  0.14169138709E+02  0.38351827838E+01  0.16583096046E+02  0.51100000000E-03 0.  1.
        -12    1    4    4    0    0  0.16656405453E+02 -0.80726117125E+01  0.19326795210E+02  0.26760566428E+02  0.00000000000E+00 0.  1.
</event>
<event>
 8    1  0.2031623E-013  0.9118800E+02  0.7816164E-02  0.1184000E+00
        -11   -1    0    0    0    0  0.00000000000E+00  0.00000000000E+00  0.45593999997E+02  0.45594000000E+02  0.51100000000E-03 0. -1.
         11   -1    0    0    0    0 -0.00000000000E+00 -0.00000000000E+00 -0.45593999997E+02  0.45594000000E+02  0.51100000000E-03 0.  1.
         23    2    1    2    0    0  0.00000000000E+00  0.00000000000E+00  0.35527136788E-14  0.91188000000E+02  0.91188000000E+02 0.  0.
    9900012    2    3    3    0    0 -0.33404033899E+02  0.11304944529E+02  0.20236849651E+02  0.50528913251E+02  0.30000162317E+02 0.  0.
        -12    1    3    3    0    0  0.33404033899E+02 -0.11304944529E+02 -0.20236849651E+02  0.40659086749E+02  0.00000000000E+00 0.  1.
         11    1    4    4    0    0 -0.13231279938E+02  0.62326127333E+00  0.83609802835E+01  0.15664010182E+02  0.51100000000E-03 0. -1.
        -11    1    4    4    0    0  0.52442153198E+01  0.19424555933E+01  0.29941963600E+00  0.56004089522E+01  0.51100000000E-03 0.  1.
        -12    1    4    4    0    0 -0.25416969281E+02  0.87392276619E+01  0.11576449731E+02  0.29264494117E+02  0.00000000000E+00 0.  1.
</event>
<event>
 8    1  0.2031623E-013  0.9118800E+02  0.7816164E-02  0.1184000E+00
        -11   -1    0    0    0    0  0.00000000000E+00  0.00000000000E+00  0.45593999997E+02  0.45594000000E+02  0.51100000000E-03 0. -1.
         11   -1    0    0    0    0 -0.00000000000E+00 -0.00000000000E+00 -0.45593999997E+02  0.45594000000E+02  0.51100000000E-03 0.  1.
         23    2    1    2    0    0  0.00000000000E+00 -0.88817841970E-15  0.00000000000E+00  0.91188000000E+02  0.91188000000E+02 0.  0.
    9900012    2    3    3    0    0  0.32059838767E+02 -0.18382295793E+01  0.24938981749E+02  0.50528866212E+02  0.30000019337E+02 0.  0.
        -12    1    3    3    0    0 -0.32059838767E+02  0.18382295793E+01 -0.24938981749E+02  0.40659133788E+02  0.00000000000E+00 0.  1.
         11    1    4    4    0    0  0.12081558730E+02  0.77900892308E+01  0.19226606871E+00  0.14376596192E+02  0.51100000000E-03 0. -1.
        -11    1    4    4    0    0  0.16723585713E+02 -0.11904317149E+02  0.14415059631E+02  0.25083560958E+02  0.51100000000E-03 0.  1.
        -12    1    4    4    0    0  0.32546943247E+01  0.22759983393E+01  0.10331656049E+02  0.11068709062E+02  0.00000000000E+00 0.  1.
</event>
<event>
 8    1  0.2031623E-013  0.9118800E+02  0.7816164E-02  0.1184000E+00
        -11   -1    0    0    0    0  0.00000000000E+00  0.00000000000E+00  0.45593999997E+02  0.45594000000E+02  0.51100000000E-03 0. -1.
         11   -1    0    0    0    0 -0.00000000000E+00 -0.00000000000E+00 -0.45593999997E+02  0.45594000000E+02  0.51100000000E-03 0.  1.
         23    2    1    2    0    0  0.00000000000E+00 -0.71054273576E-14  0.00000000000E+00  0.91188000000E+02  0.91188000000E+02 0.  0.
    9900012    2    3    3    0    0 -0.54221172878E+01  0.37058362610E+02  0.15825440922E+02  0.50528853727E+02  0.29999981389E+02 0.  0.
        -12    1    3    3    0    0  0.54221172878E+01 -0.37058362610E+02 -0.15825440922E+02  0.40659146273E+02  0.00000000000E+00 0.  1.
         11    1    4    4    0    0  0.37368535827E+01  0.30347474765E+02  0.11866053878E+02  0.32798422739E+02  0.51100000000E-03 0.  1.
        -11    1    4    4    0    0 -0.23329662737E+01 -0.14933225573E+01  0.62308669827E+01  0.68188303624E+01  0.51100000000E-03 0. -1.
        -12    1    4    4    0    0 -0.68260045969E+01  0.82042104032E+01 -0.22714799386E+01  0.10911600625E+02  0.00000000000E+00 0.  1.
</event>
<event>
 8    1  0.2031623E-013  0.9118800E+02  0.7816164E-02  0.1184000E+00
        -11   -1    0    0    0    0  0.00000000000E+00  0.00000000000E+00  0.45593999997E+02  0.45594000000E+02  0.51100000000E-03 0. -1.
         11   -1    0    0    0    0 -0.00000000000E+00 -0.00000000000E+00 -0.45593999997E+02  0.45594000000E+02  0.51100000000E-03 0.  1.
         23    2    1    2    0    0 -0.35527136788E-14  0.00000000000E+00  0.00000000000E+00  0.91188000000E+02  0.91188000000E+02 0.  0.
    9900012    2    3    3    0    0 -0.26422425304E+02  0.11208020427E+02 -0.28799320871E+02  0.50528866175E+02  0.30000019224E+02 0.  0.
         12    1    3    3    0    0  0.26422425304E+02 -0.11208020427E+02  0.28799320871E+02  0.40659133825E+02  0.00000000000E+00 0. -1.
         11    1    4    4    0    0  0.40673962552E+01  0.39786281465E+00 -0.13014263994E+02  0.13640860482E+02  0.51100000000E-03 0. -1.
        -11    1    4    4    0    0 -0.20921804597E+02  0.45257722342E+01 -0.13213143478E+02  0.25155350976E+02  0.51100000000E-03 0.  1.
         12    1    4    4    0    0 -0.95680169616E+01  0.62843853782E+01 -0.25719133986E+01  0.11732654716E+02  0.00000000000E+00 0. -1.
</event>
<event>
 8    1  0.2031623E-013  0.9118800E+02  0.7816164E-02  0.1184000E+00
        -11   -1    0    0    0    0  0.00000000000E+00  0.00000000000E+00  0.45593999997E+02  0.45594000000E+02  0.51100000000E-03 0. -1.
         11   -1    0    0    0    0 -0.00000000000E+00 -0.00000000000E+00 -0.45593999997E+02  0.45594000000E+02  0.51100000000E-03 0.  1.
         23    2    1    2    0    0  0.55511151231E-15  0.00000000000E+00  0.00000000000E+00  0.91188000000E+02  0.91188000000E+02 0.  0.
    9900012    2    3    3    0    0 -0.58025806210E+00 -0.13307044898E+02 -0.38415513293E+02  0.50528858286E+02  0.29999995247E+02 0.  0.
         12    1    3    3    0    0  0.58025806210E+00  0.13307044898E+02  0.38415513293E+02  0.40659141714E+02  0.00000000000E+00 0. -1.
         11    1    4    4    0    0 -0.51844591810E+01 -0.97080339035E+00 -0.62174399018E+00  0.53110867130E+01  0.51100000000E-03 0. -1.
        -11    1    4    4    0    0  0.72793733628E+01 -0.11522497378E+02 -0.39606134858E+02  0.41885595866E+02  0.51100000000E-03 0.  1.
         12    1    4    4    0    0 -0.26751722439E+01 -0.81374412906E+00  0.18123655551E+01  0.33321757078E+01  0.00000000000E+00 0. -1.
</event>
<event>
 8    1  0.2031623E-013  0.9118800E+02  0.7816164E-02  0.1184000E+00
        -11   -1    0    0    0    0  0.00000000000E+00  0.00000000000E+00  0.45593999997E+02  0.45594000000E+02  0.51100000000E-03 0. -1.
         11   -1    0    0    0    0 -0.00000000000E+00 -0.00000000000E+00 -0.45593999997E+02  0.45594000000E+02  0.51100000000E-03 0.  1.
         23    2    1    2    0    0 -0.35527136788E-14 -0.35527136788E-14 -0.35527136788E-14  0.91188000000E+02  0.91188000000E+02 0.  0.
    9900012    2    3    3    0    0 -0.20589159597E+02 -0.21340124281E+02 -0.27818175067E+02  0.50528864971E+02  0.30000015565E+02 0.  0.
         12    1    3    3    0    0  0.20589159597E+02  0.21340124281E+02  0.27818175067E+02  0.40659135029E+02  0.00000000000E+00 0. -1.
         11    1    4    4    0    0  0.11174039679E+01  0.27577371132E+01 -0.11318020138E+02  0.11702618755E+02  0.51100000000E-03 0. -1.
        -11    1    4    4    0    0 -0.15741105799E+02 -0.82180091905E+01 -0.54245153669E+01  0.18567268352E+02  0.51100000000E-03 0.  1.
         12    1    4    4    0    0 -0.59654577656E+01 -0.15879852204E+02 -0.11075639562E+02  0.20258977863E+02  0.00000000000E+00 0. -1.
</event>
<event>
 8    1  0.2031623E-013  0.9118800E+02  0.7816164E-02  0.1184000E+00
        -11   -1    0    0    0    0  0.00000000000E+00  0.00000000000E+00  0.45593999997E+02  0.45594000000E+02  0.51100000000E-03 0. -1.
         11   -1    0    0    0    0 -0.00000000000E+00 -0.00000000000E+00 -0.45593999997E+02  0.45594000000E+02  0.51100000000E-03 0.  1.
         23    2    1    2    0    0 -0.44408920985E-15  0.00000000000E+00  0.71054273576E-14  0.91188000000E+02  0.91188000000E+02 0.  0.
    9900012    2    3    3    0    0 -0.29424260527E+01  0.34229248669E+01 -0.40407810882E+02  0.50528862454E+02  0.30000007916E+02 0.  0.
         12    1    3    3    0    0  0.29424260527E+01 -0.34229248669E+01  0.40407810882E+02  0.40659137546E+02  0.00000000000E+00 0. -1.
         11    1    4    4    0    0  0.60601100247E+01 -0.80267309994E+00 -0.56924104938E+01  0.83530087459E+01  0.51100000000E-03 0. -1.
        -11    1    4    4    0    0 -0.98784592141E+01  0.79457239472E-01 -0.32107112246E+01  0.10387441298E+02  0.51100000000E-03 0.  1.
        -12    1    4    4    0    0  0.87592313668E+00  0.41461407274E+01 -0.31504689163E+02  0.31788412410E+02  0.00000000000E+00 0.  1.
</event>
<event>
 8    1  0.2031623E-013  0.9118800E+02  0.7816164E-02  0.1184000E+00
        -11   -1    0    0    0    0  0.00000000000E+00  0.00000000000E+00  0.45593999997E+02  0.45594000000E+02  0.51100000000E-03 0. -1.
         11   -1    0    0    0    0 -0.00000000000E+00 -0.00000000000E+00 -0.45593999997E+02  0.45594000000E+02  0.51100000000E-03 0.  1.
         23    2    1    2    0    0 -0.17763568394E-14  0.00000000000E+00 -0.35527136788E-14  0.91188000000E+02  0.91188000000E+02 0.  0.
    9900012    2    3    3    0    0 -0.12577514232E+02 -0.36871251220E+02  0.11639703347E+02  0.50528859271E+02  0.29999998240E+02 0.  0.
        -12    1    3    3    0    0  0.12577514232E+02  0.36871251220E+02 -0.11639703347E+02  0.40659140729E+02  0.00000000000E+00 0.  1.
         11    1    4    4    0    0 -0.19480101798E+02 -0.34739918685E+02  0.68912782505E+01  0.40420613955E+02  0.51100000000E-03 0. -1.
        -11    1    4    4    0    0  0.30063253100E+01 -0.29097021195E-01 -0.70099095634E+00  0.30871065884E+01  0.51100000000E-03 0.  1.
         12    1    4    4    0    0  0.38962622555E+01 -0.21022355141E+01  0.54494160526E+01  0.70211387278E+01  0.00000000000E+00 0. -1.
</event>
<event>
 8    1  0.2031623E-013  0.9118800E+02  0.7816164E-02  0.1184000E+00
        -11   -1    0    0    0    0  0.00000000000E+00  0.00000000000E+00  0.45593999997E+02  0.45594000000E+02  0.51100000000E-03 0. -1.
         11   -1    0    0    0    0 -0.00000000000E+00 -0.00000000000E+00 -0.45593999997E+02  0.45594000000E+02  0.51100000000E-03 0.  1.
         23    2    1    2    0    0  0.00000000000E+00  0.00000000000E+00  0.00000000000E+00  0.91188000000E+02  0.91188000000E+02 0.  0.
    9900012    2    3    3    0    0  0.33622360158E+02 -0.16025505156E+02 -0.16305915349E+02  0.50528895319E+02  0.30000107811E+02 0.  0.
         12    1    3    3    0    0 -0.33622360158E+02  0.16025505156E+02  0.16305915349E+02  0.40659104681E+02  0.00000000000E+00 0. -1.
         11    1    4    4    0    0  0.98727112460E+01 -0.41350595864E+01  0.71805984974E+01  0.12889148155E+02  0.51100000000E-03 0. -1.
        -11    1    4    4    0    0  0.13190366181E+02 -0.13186532119E+02 -0.16585606508E+02  0.24959021071E+02  0.51100000000E-03 0.  1.
         12    1    4    4    0    0  0.10559282731E+02  0.12960865493E+01 -0.69009073387E+01  0.12680726093E+02  0.00000000000E+00 0. -1.
</event>
<event>
 8    1  0.2031623E-013  0.9118800E+02  0.7816164E-02  0.1184000E+00
        -11   -1    0    0    0    0  0.00000000000E+00  0.00000000000E+00  0.45593999997E+02  0.45594000000E+02  0.51100000000E-03 0.  1.
         11   -1    0    0    0    0 -0.00000000000E+00 -0.00000000000E+00 -0.45593999997E+02  0.45594000000E+02  0.51100000000E-03 0. -1.
         23    2    1    2    0    0 -0.35527136788E-14 -0.35527136788E-14  0.00000000000E+00  0.91188000000E+02  0.91188000000E+02 0.  0.
    9900012    2    3    3    0    0  0.19214305003E+02  0.29775537164E+02 -0.19934931271E+02  0.50528762244E+02  0.29999703316E+02 0.  0.
         12    1    3    3    0    0 -0.19214305003E+02 -0.29775537164E+02  0.19934931271E+02  0.40659237756E+02  0.00000000000E+00 0. -1.
         11    1    4    4    0    0  0.46113672772E+01 -0.30947294661E+01  0.40302405735E+01  0.68618436280E+01  0.51100000000E-03 0. -1.
        -11    1    4    4    0    0  0.53295211873E+01  0.19601255295E+02 -0.13122050185E+02  0.24182663346E+02  0.51100000000E-03 0.  1.
        -12    1    4    4    0    0  0.92734165381E+01  0.13269011335E+02 -0.10843121659E+02  0.19484255270E+02  0.00000000000E+00 0.  1.
</event>
<event>
 8    1  0.2031623E-013  0.9118800E+02  0.7816164E-02  0.1184000E+00
        -11   -1    0    0    0    0  0.00000000000E+00  0.00000000000E+00  0.45593999997E+02  0.45594000000E+02  0.51100000000E-03 0. -1.
         11   -1    0    0    0    0 -0.00000000000E+00 -0.00000000000E+00 -0.45593999997E+02  0.45594000000E+02  0.51100000000E-03 0.  1.
         23    2    1    2    0    0  0.00000000000E+00 -0.31086244690E-14 -0.71054273576E-14  0.91188000000E+02  0.91188000000E+02 0.  0.
    9900012    2    3    3    0    0  0.11473456014E+02 -0.58111818997E+00  0.39002451806E+02  0.50528817296E+02  0.29999870653E+02 0.  0.
        -12    1    3    3    0    0 -0.11473456014E+02  0.58111818997E+00 -0.39002451806E+02  0.40659182704E+02  0.00000000000E+00 0.  1.
         11    1    4    4    0    0  0.93058703294E+01  0.10158326033E+02  0.23312900331E+02  0.27079182640E+02  0.51100000000E-03 0. -1.
        -11    1    4    4    0    0  0.77124464715E+01 -0.72209532294E+01  0.75215565774E+01  0.12969109828E+02  0.51100000000E-03 0.  1.
         12    1    4    4    0    0 -0.55448607864E+01 -0.35184909937E+01  0.81679948981E+01  0.10480524828E+02  0.00000000000E+00 0. -1.
</event>
<event>
 8    1  0.2031623E-013  0.9118800E+02  0.7816164E-02  0.1184000E+00
        -11   -1    0    0    0    0  0.00000000000E+00  0.00000000000E+00  0.45593999997E+02  0.45594000000E+02  0.51100000000E-03 0. -1.
         11   -1    0    0    0    0 -0.00000000000E+00 -0.00000000000E+00 -0.45593999997E+02  0.45594000000E+02  0.51100000000E-03 0.  1.
         23    2    1    2    0    0 -0.35527136788E-14  0.00000000000E+00  0.00000000000E+00  0.91188000000E+02  0.91188000000E+02 0.  0.
    9900012    2    3    3    0    0 -0.29228640194E+02 -0.34684593822E+01 -0.28050350349E+02  0.50528858682E+02  0.29999996449E+02 0.  0.
         12    1    3    3    0    0  0.29228640194E+02  0.34684593822E+01  0.28050350349E+02  0.40659141318E+02  0.00000000000E+00 0. -1.
         11    1    4    4    0    0 -0.28319033457E+01  0.13495935848E+01  0.30852389791E+01  0.43999749116E+01  0.51100000000E-03 0. -1.
        -11    1    4    4    0    0 -0.24536934970E+02 -0.99258163693E+01 -0.30902013485E+02  0.40688050408E+02  0.51100000000E-03 0.  1.
        -12    1    4    4    0    0 -0.18598018785E+01  0.51077634024E+01 -0.23357584249E+00  0.54408333623E+01  0.00000000000E+00 0.  1.
</event>
<event>
 8    1  0.2031623E-013  0.9118800E+02  0.7816164E-02  0.1184000E+00
        -11   -1    0    0    0    0  0.00000000000E+00  0.00000000000E+00  0.45593999997E+02  0.45594000000E+02  0.51100000000E-03 0.  1.
         11   -1    0    0    0    0 -0.00000000000E+00 -0.00000000000E+00 -0.45593999997E+02  0.45594000000E+02  0.51100000000E-03 0. -1.
         23    2    1    2    0    0 -0.71054273576E-14  0.22204460493E-15 -0.35527136788E-14  0.91188000000E+02  0.91188000000E+02 0.  0.
    9900012    2    3    3    0    0 -0.39224675203E+02  0.16286368926E+01 -0.10580151934E+02  0.50528840910E+02  0.29999942431E+02 0.  0.
        -12    1    3    3    0    0  0.39224675203E+02 -0.16286368926E+01  0.10580151934E+02  0.40659159090E+02  0.00000000000E+00 0.  1.
         11    1    4    4    0    0 -0.18565862029E+02  0.28161190653E+01 -0.63333498546E+01  0.19817494294E+02  0.51100000000E-03 0. -1.
        -11    1    4    4    0    0 -0.88992977963E+01 -0.96976113964E+01  0.43238955444E+01  0.13854141655E+02  0.51100000000E-03 0.  1.
        -12    1    4    4    0    0 -0.11759515378E+02  0.85101292236E+01 -0.85706976241E+01  0.16857204961E+02  0.00000000000E+00 0.  1.
</event>
<event>
 8    1  0.2031623E-013  0.9118800E+02  0.7816164E-02  0.1184000E+00
        -11   -1    0    0    0    0  0.00000000000E+00  0.00000000000E+00  0.45593999997E+02  0.45594000000E+02  0.51100000000E-03 0. -1.
         11   -1    0    0    0    0 -0.00000000000E+00 -0.00000000000E+00 -0.45593999997E+02  0.45594000000E+02  0.51100000000E-03 0.  1.
         23    2    1    2    0    0  0.35527136788E-14 -0.88817841970E-15  0.00000000000E+00  0.91188000000E+02  0.91188000000E+02 0.  0.
    9900012    2    3    3    0    0  0.17312209900E+02  0.36180507354E+01  0.36610967332E+02  0.50528857956E+02  0.29999994244E+02 0.  0.
        -12    1    3    3    0    0 -0.17312209900E+02 -0.36180507354E+01 -0.36610967332E+02  0.40659142044E+02  0.00000000000E+00 0.  1.
         11    1    4    4    0    0  0.98459512587E+01 -0.35300139864E+01  0.15393241435E+01  0.10572288022E+02  0.51100000000E-03 0. -1.
        -11    1    4    4    0    0 -0.15527755237E+01  0.84358684941E+01  0.24724694273E+02  0.26170317083E+02  0.51100000000E-03 0.  1.
        -12    1    4    4    0    0  0.90190341645E+01 -0.12878037723E+01  0.10346948916E+02  0.13786252851E+02  0.00000000000E+00 0.  1.
</event>
<event>
 8    1  0.2031623E-013  0.9118800E+02  0.7816164E-02  0.1184000E+00
        -11   -1    0    0    0    0  0.00000000000E+00  0.00000000000E+00  0.45593999997E+02  0.45594000000E+02  0.51100000000E-03 0. -1.
         11   -1    0    0    0    0 -0.00000000000E+00 -0.00000000000E+00 -0.45593999997E+02  0.45594000000E+02  0.51100000000E-03 0.  1.
         23    2    1    2    0    0  0.00000000000E+00 -0.22204460493E-15  0.00000000000E+00  0.91188000000E+02  0.91188000000E+02 0.  0.
    9900012    2    3    3    0    0  0.10851935971E+02  0.87126523791E+00 -0.39174501923E+02  0.50528865499E+02  0.30000017171E+02 0.  0.
         12    1    3    3    0    0 -0.10851935971E+02 -0.87126523791E+00  0.39174501923E+02  0.40659134501E+02  0.00000000000E+00 0. -1.
         11    1    4    4    0    0  0.11739997877E+01 -0.43721797714E+01 -0.22611673657E+01  0.50603467837E+01  0.51100000000E-03 0. -1.
        -11    1    4    4    0    0  0.14732791037E+02  0.40794500110E+01 -0.37255649395E+02  0.40270093820E+02  0.51100000000E-03 0.  1.
        -12    1    4    4    0    0 -0.50548548533E+01  0.11639949983E+01  0.34231483805E+00  0.51984248953E+01  0.00000000000E+00 0.  1.
</event>
<event>
 8    1  0.2031623E-013  0.9118800E+02  0.7816164E-02  0.1184000E+00
        -11   -1    0    0    0    0  0.00000000000E+00  0.00000000000E+00  0.45593999997E+02  0.45594000000E+02  0.51100000000E-03 0. -1.
         11   -1    0    0    0    0 -0.00000000000E+00 -0.00000000000E+00 -0.45593999997E+02  0.45594000000E+02  0.51100000000E-03 0.  1.
         23    2    1    2    0    0 -0.19984014443E-14  0.71054273576E-14 -0.17763568394E-14  0.91188000000E+02  0.91188000000E+02 0.  0.
    9900012    2    3    3    0    0  0.17164084471E+01 -0.39268717333E+02  0.10401386613E+02  0.50528842822E+02  0.29999948243E+02 0.  0.
        -12    1    3    3    0    0 -0.17164084471E+01  0.39268717333E+02 -0.10401386613E+02  0.40659157178E+02  0.00000000000E+00 0.  1.
         11    1    4    4    0    0  0.91523105246E+01 -0.15817373017E+02  0.37247317068E+01  0.18650139507E+02  0.51100000000E-03 0. -1.
        -11    1    4    4    0    0 -0.12147940715E+02 -0.70760764792E+01  0.41078424747E+01  0.14646422498E+02  0.51100000000E-03 0.  1.
         12    1    4    4    0    0  0.47120386371E+01 -0.16375267837E+02  0.25688124317E+01  0.17232280817E+02  0.00000000000E+00 0. -1.
</event>
<event>
 8    1  0.2031623E-013  0.9118800E+02  0.7816164E-02  0.1184000E+00
        -11   -1    0    0    0    0  0.00000000000E+00  0.00000000000E+00  0.45593999997E+02  0.45594000000E+02  0.51100000000E-03 0. -1.
         11   -1    0    0    0    0 -0.00000000000E+00 -0.00000000000E+00 -0.45593999997E+02  0.45594000000E+02  0.51100000000E-03 0.  1.
         23    2    1    2    0    0  0.00000000000E+00  0.00000000000E+00  0.00000000000E+00  0.91188000000E+02  0.91188000000E+02 0.  0.
    9900012    2    3    3    0    0 -0.33203390541E+02 -0.14116125148E+02 -0.18746571874E+02  0.50528879379E+02  0.30000059361E+02 0.  0.
         12    1    3    3    0    0  0.33203390541E+02  0.14116125148E+02  0.18746571874E+02  0.40659120621E+02  0.00000000000E+00 0. -1.
         11    1    4    4    0    0  0.27883033522E+00  0.37170662627E+01  0.27753366723E+01  0.46472380898E+01  0.51100000000E-03 0. -1.
        -11    1    4    4    0    0 -0.23679033279E+02 -0.11560677838E+02 -0.21861615707E+02  0.34238518231E+02  0.51100000000E-03 0.  1.
        -12    1    4    4    0    0 -0.98031875978E+01 -0.62725135730E+01  0.33970716034E+00  0.11643123059E+02  0.00000000000E+00 0.  1.
</event>
<event>
 8    1  0.2031623E-013  0.9118800E+02  0.7816164E-02  0.1184000E+00
        -11   -1    0    0    0    0  0.00000000000E+00  0.00000000000E+00  0.45593999997E+02  0.45594000000E+02  0.51100000000E-03 0. -1.
         11   -1    0    0    0    0 -0.00000000000E+00 -0.00000000000E+00 -0.45593999997E+02  0.45594000000E+02  0.51100000000E-03 0.  1.
         23    2    1    2    0    0 -0.88817841970E-15  0.88817841970E-15  0.71054273576E-14  0.91188000000E+02  0.91188000000E+02 0.  0.
    9900012    2    3    3    0    0  0.58871679386E+01 -0.66981004583E+01 -0.39669160373E+02  0.50528861042E+02  0.30000003623E+02 0.  0.
         12    1    3    3    0    0 -0.58871679386E+01  0.66981004583E+01  0.39669160373E+02  0.40659138958E+02  0.00000000000E+00 0. -1.
         11    1    4    4    0    0 -0.27436481951E+01 -0.82222417459E+01 -0.72506507109E-01  0.86682248587E+01  0.51100000000E-03 0. -1.
        -11    1    4    4    0    0  0.22131038237E+01  0.41902904873E+01 -0.27538234100E+02  0.27942990185E+02  0.51100000000E-03 0.  1.
         12    1    4    4    0    0  0.64177123100E+01 -0.26661491998E+01 -0.12058419766E+02  0.13917645998E+02  0.00000000000E+00 0. -1.
</event>
<event>
 8    1  0.2031623E-013  0.9118800E+02  0.7816164E-02  0.1184000E+00
        -11   -1    0    0    0    0  0.00000000000E+00  0.00000000000E+00  0.45593999997E+02  0.45594000000E+02  0.51100000000E-03 0. -1.
         11   -1    0    0    0    0 -0.00000000000E+00 -0.00000000000E+00 -0.45593999997E+02  0.45594000000E+02  0.51100000000E-03 0.  1.
         23    2    1    2    0    0  0.35527136788E-14  0.00000000000E+00  0.00000000000E+00  0.91188000000E+02  0.91188000000E+02 0.  0.
    9900012    2    3    3    0    0  0.19334506619E+02 -0.27122102794E+02 -0.23318118548E+02  0.50528852705E+02  0.29999978281E+02 0.  0.
         12    1    3    3    0    0 -0.19334506619E+02  0.27122102794E+02  0.23318118548E+02  0.40659147295E+02  0.00000000000E+00 0. -1.
         11    1    4    4    0    0 -0.15814214090E+01 -0.60248414062E+01  0.43747155397E+01  0.76116846990E+01  0.51100000000E-03 0. -1.
        -11    1    4    4    0    0  0.22543557956E+02 -0.21251577868E+02 -0.25199724658E+02  0.39935794600E+02  0.51100000000E-03 0.  1.
        -12    1    4    4    0    0 -0.16276299274E+01  0.15431648071E+00 -0.24931094297E+01  0.29813734059E+01  0.00000000000E+00 0.  1.
</event>
<event>
 8    1  0.2031623E-013  0.9118800E+02  0.7816164E-02  0.1184000E+00
        -11   -1    0    0    0    0  0.00000000000E+00  0.00000000000E+00  0.45593999997E+02  0.45594000000E+02  0.51100000000E-03 0. -1.
         11   -1    0    0    0    0 -0.00000000000E+00 -0.00000000000E+00 -0.45593999997E+02  0.45594000000E+02  0.51100000000E-03 0.  1.
         23    2    1    2    0    0  0.00000000000E+00  0.00000000000E+00  0.00000000000E+00  0.91188000000E+02  0.91188000000E+02 0.  0.
    9900012    2    3    3    0    0  0.21113471511E+01  0.17625542986E+02  0.36579354282E+02  0.50528847130E+02  0.29999961338E+02 0.  0.
        -12    1    3    3    0    0 -0.21113471511E+01 -0.17625542986E+02 -0.36579354282E+02  0.40659152870E+02  0.00000000000E+00 0.  1.
         11    1    4    4    0    0 -0.74417143952E+01  0.90782812261E+01  0.10035950646E+01  0.11781405115E+02  0.51100000000E-03 0.  1.
        -11    1    4    4    0    0  0.65203085980E+01  0.65272119275E+01  0.33050437433E+02  0.34313996191E+02  0.51100000000E-03 0. -1.
        -12    1    4    4    0    0  0.30327529483E+01  0.20200498325E+01  0.25253217843E+01  0.44334458253E+01  0.00000000000E+00 0.  1.
</event>
<event>
 8    1  0.2031623E-013  0.9118800E+02  0.7816164E-02  0.1184000E+00
        -11   -1    0    0    0    0  0.00000000000E+00  0.00000000000E+00  0.45593999997E+02  0.45594000000E+02  0.51100000000E-03 0. -1.
         11   -1    0    0    0    0 -0.00000000000E+00 -0.00000000000E+00 -0.45593999997E+02  0.45594000000E+02  0.51100000000E-03 0.  1.
         23    2    1    2    0    0  0.00000000000E+00 -0.88817841970E-15  0.00000000000E+00  0.91188000000E+02  0.91188000000E+02 0.  0.
    9900012    2    3    3    0    0 -0.18207621426E+02 -0.50521589471E+01  0.36001733061E+02  0.50528848860E+02  0.29999966594E+02 0.  0.
        -12    1    3    3    0    0  0.18207621426E+02  0.50521589471E+01 -0.36001733061E+02  0.40659151140E+02  0.00000000000E+00 0.  1.
         11    1    4    4    0    0 -0.12126340871E+02  0.19761881521E+01  0.29939110736E+02  0.32362073704E+02  0.51100000000E-03 0. -1.
        -11    1    4    4    0    0  0.27695511650E+00 -0.84820631665E+01 -0.10092554660E+01  0.85463849992E+01  0.51100000000E-03 0.  1.
         12    1    4    4    0    0 -0.63582356717E+01  0.14537160672E+01  0.70718777914E+01  0.96203901562E+01  0.00000000000E+00 0. -1.
</event>
<event>
 8    1  0.2031623E-013  0.9118800E+02  0.7816164E-02  0.1184000E+00
        -11   -1    0    0    0    0  0.00000000000E+00  0.00000000000E+00  0.45593999997E+02  0.45594000000E+02  0.51100000000E-03 0. -1.
         11   -1    0    0    0    0 -0.00000000000E+00 -0.00000000000E+00 -0.45593999997E+02  0.45594000000E+02  0.51100000000E-03 0.  1.
         23    2    1    2    0    0  0.00000000000E+00  0.00000000000E+00  0.35527136788E-14  0.91188000000E+02  0.91188000000E+02 0.  0.
    9900012    2    3    3    0    0  0.75397357336E+01  0.28406846052E+02  0.28095720913E+02  0.50528855258E+02  0.29999986041E+02 0.  0.
        -12    1    3    3    0    0 -0.75397357336E+01 -0.28406846052E+02 -0.28095720913E+02  0.40659144742E+02  0.00000000000E+00 0.  1.
         11    1    4    4    0    0 -0.66310740531E+01  0.30347468503E+01  0.10267765761E+02  0.12593960677E+02  0.51100000000E-03 0. -1.
        -11    1    4    4    0    0  0.64183861918E+01  0.56573726852E+01 -0.21441508435E+01  0.88203701797E+01  0.51100000000E-03 0.  1.
        -12    1    4    4    0    0  0.77524235949E+01  0.19714726517E+02  0.19972105995E+02  0.29114524401E+02  0.00000000000E+00 0.  1.
</event>
<event>
 8    1  0.2031623E-013  0.9118800E+02  0.7816164E-02  0.1184000E+00
        -11   -1    0    0    0    0  0.00000000000E+00  0.00000000000E+00  0.45593999997E+02  0.45594000000E+02  0.51100000000E-03 0. -1.
         11   -1    0    0    0    0 -0.00000000000E+00 -0.00000000000E+00 -0.45593999997E+02  0.45594000000E+02  0.51100000000E-03 0.  1.
         23    2    1    2    0    0  0.35527136788E-14  0.00000000000E+00 -0.71054273576E-14  0.91188000000E+02  0.91188000000E+02 0.  0.
    9900012    2    3    3    0    0  0.20003156911E+02 -0.91666208135E+01 -0.34190821400E+02  0.50528862139E+02  0.30000006959E+02 0.  0.
         12    1    3    3    0    0 -0.20003156911E+02  0.91666208135E+01  0.34190821400E+02  0.40659137861E+02  0.00000000000E+00 0. -1.
         11    1    4    4    0    0  0.60567190004E+01  0.35476772833E+01 -0.20199980230E+01  0.73041256444E+01  0.51100000000E-03 0. -1.
        -11    1    4    4    0    0  0.96536860931E+01 -0.18699965479E+02 -0.20208287015E+02  0.29176312797E+02  0.51100000000E-03 0.  1.
        -12    1    4    4    0    0  0.42927518177E+01  0.59856673820E+01 -0.11962536362E+02  0.14048423698E+02  0.00000000000E+00 0.  1.
</event>
<event>
 8    1  0.2031623E-013  0.9118800E+02  0.7816164E-02  0.1184000E+00
        -11   -1    0    0    0    0  0.00000000000E+00  0.00000000000E+00  0.45593999997E+02  0.45594000000E+02  0.51100000000E-03 0. -1.
         11   -1    0    0    0    0 -0.00000000000E+00 -0.00000000000E+00 -0.45593999997E+02  0.45594000000E+02  0.51100000000E-03 0.  1.
         23    2    1    2    0    0  0.00000000000E+00 -0.35527136788E-14  0.00000000000E+00  0.91188000000E+02  0.91188000000E+02 0.  0.
    9900012    2    3    3    0    0  0.19047957007E+02  0.31853575935E+02  0.16603921232E+02  0.50528866140E+02  0.30000019118E+02 0.  0.
        -12    1    3    3    0    0 -0.19047957007E+02 -0.31853575935E+02 -0.16603921232E+02  0.40659133860E+02  0.00000000000E+00 0.  1.
         11    1    4    4    0    0  0.81512022852E+01 -0.31248550866E+00  0.12892272565E+02  0.15256160658E+02  0.51100000000E-03 0. -1.
        -11    1    4    4    0    0  0.39306582116E+01  0.20722749403E+02  0.53929160077E+01  0.21770759292E+02  0.51100000000E-03 0.  1.
         12    1    4    4    0    0  0.69660965099E+01  0.11443312040E+02 -0.16812673403E+01  0.13501946190E+02  0.00000000000E+00 0. -1.
</event>
<event>
 8    1  0.2031623E-013  0.9118800E+02  0.7816164E-02  0.1184000E+00
        -11   -1    0    0    0    0  0.00000000000E+00  0.00000000000E+00  0.45593999997E+02  0.45594000000E+02  0.51100000000E-03 0.  1.
         11   -1    0    0    0    0 -0.00000000000E+00 -0.00000000000E+00 -0.45593999997E+02  0.45594000000E+02  0.51100000000E-03 0. -1.
         23    2    1    2    0    0  0.00000000000E+00  0.00000000000E+00 -0.35527136788E-14  0.91188000000E+02  0.91188000000E+02 0.  0.
    9900012    2    3    3    0    0 -0.24623730659E+02  0.21662591755E+02  0.24032673174E+02  0.50528863598E+02  0.30000011392E+02 0.  0.
        -12    1    3    3    0    0  0.24623730659E+02 -0.21662591755E+02 -0.24032673174E+02  0.40659136402E+02  0.00000000000E+00 0.  1.
         11    1    4    4    0    0 -0.23046111188E+02  0.13797906530E+02  0.27552104149E+02  0.38478876137E+02  0.51100000000E-03 0. -1.
        -11    1    4    4    0    0  0.32950259753E+01  0.45419331060E+01 -0.14031266679E+01  0.57840398706E+01  0.51100000000E-03 0.  1.
         12    1    4    4    0    0 -0.48726454460E+01  0.33227521184E+01 -0.21163043068E+01  0.62659475901E+01  0.00000000000E+00 0. -1.
</event>
<event>
 8    1  0.2031623E-013  0.9118800E+02  0.7816164E-02  0.1184000E+00
        -11   -1    0    0    0    0  0.00000000000E+00  0.00000000000E+00  0.45593999997E+02  0.45594000000E+02  0.51100000000E-03 0.  1.
         11   -1    0    0    0    0 -0.00000000000E+00 -0.00000000000E+00 -0.45593999997E+02  0.45594000000E+02  0.51100000000E-03 0. -1.
         23    2    1    2    0    0  0.00000000000E+00  0.35527136788E-14  0.35527136788E-14  0.91188000000E+02  0.91188000000E+02 0.  0.
    9900012    2    3    3    0    0  0.13981214638E+02 -0.27947072870E+02  0.26012589858E+02  0.50528830360E+02  0.29999910362E+02 0.  0.
        -12    1    3    3    0    0 -0.13981214638E+02  0.27947072870E+02 -0.26012589858E+02  0.40659169640E+02  0.00000000000E+00 0.  1.
         11    1    4    4    0    0  0.32613249988E+01 -0.25659735159E+02  0.14507302778E+02  0.29656703851E+02  0.51100000000E-03 0. -1.
        -11    1    4    4    0    0  0.15836716275E+01  0.50348921117E+01  0.58185635303E+01  0.78558154394E+01  0.51100000000E-03 0.  1.
        -12    1    4    4    0    0  0.91362180114E+01 -0.73222298228E+01  0.56867235490E+01  0.13016311069E+02  0.00000000000E+00 0.  1.
</event>
<event>
 8    1  0.2031623E-013  0.9118800E+02  0.7816164E-02  0.1184000E+00
        -11   -1    0    0    0    0  0.00000000000E+00  0.00000000000E+00  0.45593999997E+02  0.45594000000E+02  0.51100000000E-03 0. -1.
         11   -1    0    0    0    0 -0.00000000000E+00 -0.00000000000E+00 -0.45593999997E+02  0.45594000000E+02  0.51100000000E-03 0.  1.
         23    2    1    2    0    0  0.00000000000E+00  0.00000000000E+00  0.35527136788E-14  0.91188000000E+02  0.91188000000E+02 0.  0.
    9900012    2    3    3    0    0  0.17711752865E+01  0.28929243361E+02 -0.28515401313E+02  0.50528852254E+02  0.29999976912E+02 0.  0.
         12    1    3    3    0    0 -0.17711752865E+01 -0.28929243361E+02  0.28515401313E+02  0.40659147746E+02  0.00000000000E+00 0. -1.
         11    1    4    4    0    0  0.79445291480E+01  0.56900657532E+01  0.29436798085E+01  0.10205765171E+02  0.51100000000E-03 0. -1.
        -11    1    4    4    0    0 -0.57035131067E+01  0.19689779230E+02 -0.30255117339E+02  0.36545719221E+02  0.51100000000E-03 0.  1.
        -12    1    4    4    0    0 -0.46984075473E+00  0.35493983775E+01 -0.12039637830E+01  0.37773678624E+01  0.00000000000E+00 0.  1.
</event>
<event>
 8    1  0.2031623E-013  0.9118800E+02  0.7816164E-02  0.1184000E+00
        -11   -1    0    0    0    0  0.00000000000E+00  0.00000000000E+00  0.45593999997E+02  0.45594000000E+02  0.51100000000E-03 0. -1.
         11   -1    0    0    0    0 -0.00000000000E+00 -0.00000000000E+00 -0.45593999997E+02  0.45594000000E+02  0.51100000000E-03 0.  1.
         23    2    1    2    0    0  0.00000000000E+00 -0.35527136788E-14  0.00000000000E+00  0.91188000000E+02  0.91188000000E+02 0.  0.
    9900012    2    3    3    0    0  0.27995750250E+02 -0.25632600130E+02 -0.14573016063E+02  0.50528867955E+02  0.30000024635E+02 0.  0.
         12    1    3    3    0    0 -0.27995750250E+02  0.25632600130E+02  0.14573016063E+02  0.40659132045E+02  0.00000000000E+00 0. -1.
         11    1    4    4    0    0  0.18361927916E+02 -0.11479039236E+00 -0.19996320630E+01  0.18470844655E+02  0.51100000000E-03 0. -1.
        -11    1    4    4    0    0  0.22425898192E+01 -0.15162886303E+02 -0.11742377870E+02  0.19308696704E+02  0.51100000000E-03 0.  1.
         12    1    4    4    0    0  0.73912325156E+01 -0.10354923435E+02 -0.83100613022E+00  0.12749326595E+02  0.00000000000E+00 0. -1.
</event>
<event>
 8    1  0.2031623E-013  0.9118800E+02  0.7816164E-02  0.1184000E+00
        -11   -1    0    0    0    0  0.00000000000E+00  0.00000000000E+00  0.45593999997E+02  0.45594000000E+02  0.51100000000E-03 0. -1.
         11   -1    0    0    0    0 -0.00000000000E+00 -0.00000000000E+00 -0.45593999997E+02  0.45594000000E+02  0.51100000000E-03 0.  1.
         23    2    1    2    0    0  0.00000000000E+00  0.00000000000E+00  0.00000000000E+00  0.91188000000E+02  0.91188000000E+02 0.  0.
    9900012    2    3    3    0    0  0.51278835025E+01 -0.25517600366E+02  0.31236556701E+02  0.50528860902E+02  0.30000003199E+02 0.  0.
        -12    1    3    3    0    0 -0.51278835025E+01  0.25517600366E+02 -0.31236556701E+02  0.40659139098E+02  0.00000000000E+00 0.  1.
         11    1    4    4    0    0  0.75761115480E+01  0.28893446622E+01  0.37678071809E+01  0.89410374106E+01  0.51100000000E-03 0. -1.
        -11    1    4    4    0    0 -0.33898287128E+01 -0.10314200771E+02  0.18310784146E+02  0.21287519643E+02  0.51100000000E-03 0.  1.
         12    1    4    4    0    0  0.94160066736E+00 -0.18092744257E+02  0.91579653741E+01  0.20300303849E+02  0.00000000000E+00 0. -1.
</event>
<event>
 8    1  0.2031623E-013  0.9118800E+02  0.7816164E-02  0.1184000E+00
        -11   -1    0    0    0    0  0.00000000000E+00  0.00000000000E+00  0.45593999997E+02  0.45594000000E+02  0.51100000000E-03 0. -1.
         11   -1    0    0    0    0 -0.00000000000E+00 -0.00000000000E+00 -0.45593999997E+02  0.45594000000E+02  0.51100000000E-03 0.  1.
         23    2    1    2    0    0 -0.35527136788E-14  0.00000000000E+00  0.00000000000E+00  0.91188000000E+02  0.91188000000E+02 0.  0.
    9900012    2    3    3    0    0  0.28423911688E+02  0.26837887262E+02 -0.11179173909E+02  0.50528869690E+02  0.30000029909E+02 0.  0.
         12    1    3    3    0    0 -0.28423911688E+02 -0.26837887262E+02  0.11179173909E+02  0.40659130310E+02  0.00000000000E+00 0. -1.
         11    1    4    4    0    0  0.22380676845E+02  0.13657273141E+02 -0.25725218990E+01  0.26344518877E+02  0.51100000000E-03 0. -1.
        -11    1    4    4    0    0 -0.56041673304E-01 -0.34893864582E+01 -0.49570307053E+01  0.60622695584E+01  0.51100000000E-03 0.  1.
        -12    1    4    4    0    0  0.60992765161E+01  0.16670000578E+02 -0.36496213050E+01  0.18122081254E+02  0.00000000000E+00 0.  1.
</event>
<event>
 8    1  0.2031623E-013  0.9118800E+02  0.7816164E-02  0.1184000E+00
        -11   -1    0    0    0    0  0.00000000000E+00  0.00000000000E+00  0.45593999997E+02  0.45594000000E+02  0.51100000000E-03 0. -1.
         11   -1    0    0    0    0 -0.00000000000E+00 -0.00000000000E+00 -0.45593999997E+02  0.45594000000E+02  0.51100000000E-03 0.  1.
         23    2    1    2    0    0  0.35527136788E-14  0.35527136788E-14  0.00000000000E+00  0.91188000000E+02  0.91188000000E+02 0.  0.
    9900012    2    3    3    0    0 -0.16784204097E+02 -0.21245167605E+02 -0.30333138029E+02  0.50528856915E+02  0.29999991079E+02 0.  0.
         12    1    3    3    0    0  0.16784204097E+02  0.21245167605E+02  0.30333138029E+02  0.40659143085E+02  0.00000000000E+00 0. -1.
         11    1    4    4    0    0  0.29353850307E+01  0.93579460402E+00 -0.41660729164E+01  0.51815403718E+01  0.51100000000E-03 0. -1.
        -11    1    4    4    0    0 -0.14481594300E+02 -0.10457265489E+02 -0.19914779232E+01  0.17973228969E+02  0.51100000000E-03 0.  1.
        -12    1    4    4    0    0 -0.52379948269E+01 -0.11723696720E+02 -0.24175587189E+02  0.27374087574E+02  0.00000000000E+00 0.  1.
</event>
<event>
 8    1  0.2031623E-013  0.9118800E+02  0.7816164E-02  0.1184000E+00
        -11   -1    0    0    0    0  0.00000000000E+00  0.00000000000E+00  0.45593999997E+02  0.45594000000E+02  0.51100000000E-03 0. -1.
         11   -1    0    0    0    0 -0.00000000000E+00 -0.00000000000E+00 -0.45593999997E+02  0.45594000000E+02  0.51100000000E-03 0.  1.
         23    2    1    2    0    0  0.88817841970E-15 -0.14210854715E-13  0.00000000000E+00  0.91188000000E+02  0.91188000000E+02 0.  0.
    9900012    2    3    3    0    0  0.77363447265E+01 -0.37958541607E+02 -0.12347828005E+02  0.50528797264E+02  0.29999809764E+02 0.  0.
         12    1    3    3    0    0 -0.77363447265E+01  0.37958541607E+02  0.12347828005E+02  0.40659202736E+02  0.00000000000E+00 0. -1.
         11    1    4    4    0    0  0.60123075018E+01 -0.41682679196E+01  0.37686496015E+01  0.82295211906E+01  0.51100000000E-03 0. -1.
        -11    1    4    4    0    0  0.46533977727E+01 -0.12600328790E+02 -0.16022025713E+02  0.20907599208E+02  0.51100000000E-03 0.  1.
        -12    1    4    4    0    0 -0.29293605481E+01 -0.21189944897E+02 -0.94451893976E-01  0.21391676865E+02  0.00000000000E+00 0.  1.
</event>
<event>
 8    1  0.2031623E-013  0.9118800E+02  0.7816164E-02  0.1184000E+00
        -11   -1    0    0    0    0  0.00000000000E+00  0.00000000000E+00  0.45593999997E+02  0.45594000000E+02  0.51100000000E-03 0. -1.
         11   -1    0    0    0    0 -0.00000000000E+00 -0.00000000000E+00 -0.45593999997E+02  0.45594000000E+02  0.51100000000E-03 0.  1.
         23    2    1    2    0    0  0.00000000000E+00  0.00000000000E+00  0.00000000000E+00  0.91188000000E+02  0.91188000000E+02 0.  0.
    9900012    2    3    3    0    0 -0.19622286183E+02 -0.27467945887E+02 -0.22663702645E+02  0.50528861004E+02  0.30000003509E+02 0.  0.
         12    1    3    3    0    0  0.19622286183E+02  0.27467945887E+02  0.22663702645E+02  0.40659138996E+02  0.00000000000E+00 0. -1.
         11    1    4    4    0    0 -0.15294716861E+02 -0.15023376294E+02 -0.22261166885E+02  0.30906144219E+02  0.51100000000E-03 0. -1.
        -11    1    4    4    0    0 -0.79715900923E+01 -0.13574395512E+02 -0.93927011230E+00  0.15769993365E+02  0.51100000000E-03 0.  1.
         12    1    4    4    0    0  0.36440207707E+01  0.11298259200E+01  0.53673435227E+00  0.38527234201E+01  0.00000000000E+00 0. -1.
</event>
<event>
 8    1  0.2031623E-013  0.9118800E+02  0.7816164E-02  0.1184000E+00
        -11   -1    0    0    0    0  0.00000000000E+00  0.00000000000E+00  0.45593999997E+02  0.45594000000E+02  0.51100000000E-03 0. -1.
         11   -1    0    0    0    0 -0.00000000000E+00 -0.00000000000E+00 -0.45593999997E+02  0.45594000000E+02  0.51100000000E-03 0.  1.
         23    2    1    2    0    0  0.35527136788E-14 -0.35527136788E-14  0.00000000000E+00  0.91188000000E+02  0.91188000000E+02 0.  0.
    9900012    2    3    3    0    0 -0.23822942305E+02  0.25849375554E+02  0.20431434796E+02  0.50528851897E+02  0.29999975828E+02 0.  0.
        -12    1    3    3    0    0  0.23822942305E+02 -0.25849375554E+02 -0.20431434796E+02  0.40659148103E+02  0.00000000000E+00 0.  1.
         11    1    4    4    0    0 -0.11985272176E+02  0.17598581067E+02  0.20129253661E+02  0.29300915650E+02  0.51100000000E-03 0. -1.
        -11    1    4    4    0    0 -0.13893349516E+02  0.53293658532E+01 -0.42179373240E+01  0.15466683442E+02  0.51100000000E-03 0.  1.
        -12    1    4    4    0    0  0.20556793871E+01  0.29214286345E+01  0.45201184587E+01  0.57612528056E+01  0.00000000000E+00 0.  1.
</event>
<event>
 8    1  0.2031623E-013  0.9118800E+02  0.7816164E-02  0.1184000E+00
        -11   -1    0    0    0    0  0.00000000000E+00  0.00000000000E+00  0.45593999997E+02  0.45594000000E+02  0.51100000000E-03 0. -1.
         11   -1    0    0    0    0 -0.00000000000E+00 -0.00000000000E+00 -0.45593999997E+02  0.45594000000E+02  0.51100000000E-03 0.  1.
         23    2    1    2    0    0  0.00000000000E+00 -0.17763568394E-14  0.00000000000E+00  0.91188000000E+02  0.91188000000E+02 0.  0.
    9900012    2    3    3    0    0 -0.56806931239E+01  0.12754856203E+02  0.38186509715E+02  0.50528853977E+02  0.29999982148E+02 0.  0.
        -12    1    3    3    0    0  0.56806931239E+01 -0.12754856203E+02 -0.38186509715E+02  0.40659146023E+02  0.00000000000E+00 0.  1.
         11    1    4    4    0    0 -0.10859686966E+02  0.18129703089E+01  0.23538186571E+02  0.25985878658E+02  0.51100000000E-03 0. -1.
        -11    1    4    4    0    0  0.87577799907E+01  0.46859743115E+01  0.14190397838E+02  0.17321214065E+02  0.51100000000E-03 0.  1.
        -12    1    4    4    0    0 -0.35787861488E+01  0.62559115822E+01  0.45792530605E+00  0.72217612539E+01  0.00000000000E+00 0.  1.
</event>
<event>
 8    1  0.2031623E-013  0.9118800E+02  0.7816164E-02  0.1184000E+00
        -11   -1    0    0    0    0  0.00000000000E+00  0.00000000000E+00  0.45593999997E+02  0.45594000000E+02  0.51100000000E-03 0. -1.
         11   -1    0    0    0    0 -0.00000000000E+00 -0.00000000000E+00 -0.45593999997E+02  0.45594000000E+02  0.51100000000E-03 0.  1.
         23    2    1    2    0    0 -0.44408920985E-15  0.00000000000E+00  0.00000000000E+00  0.91188000000E+02  0.91188000000E+02 0.  0.
    9900012    2    3    3    0    0  0.38709048005E+01  0.36422572625E+02 -0.17651570686E+02  0.50528860212E+02  0.30000001100E+02 0.  0.
         12    1    3    3    0    0 -0.38709048005E+01 -0.36422572625E+02  0.17651570686E+02  0.40659139788E+02  0.00000000000E+00 0. -1.
         11    1    4    4    0    0 -0.94070883468E+00  0.31514168380E+00  0.13182186128E+01  0.16498327081E+01  0.51100000000E-03 0. -1.
        -11    1    4    4    0    0  0.10061300625E+02  0.30795637627E+02 -0.23608953093E+02  0.40087201618E+02  0.51100000000E-03 0.  1.
        -12    1    4    4    0    0 -0.52496869898E+01  0.53117933142E+01  0.46391637941E+01  0.87918258861E+01  0.00000000000E+00 0.  1.
</event>
<event>
 8    1  0.2031623E-013  0.9118800E+02  0.7816164E-02  0.1184000E+00
        -11   -1    0    0    0    0  0.00000000000E+00  0.00000000000E+00  0.45593999997E+02  0.45594000000E+02  0.51100000000E-03 0.  1.
         11   -1    0    0    0    0 -0.00000000000E+00 -0.00000000000E+00 -0.45593999997E+02  0.45594000000E+02  0.51100000000E-03 0. -1.
         23    2    1    2    0    0 -0.35527136788E-14 -0.71054273576E-14  0.00000000000E+00  0.91188000000E+02  0.91188000000E+02 0.  0.
    9900012    2    3    3    0    0 -0.22093197383E+02 -0.31341050956E+02 -0.13520165080E+02  0.50528859461E+02  0.29999998816E+02 0.  0.
         12    1    3    3    0    0  0.22093197383E+02  0.31341050956E+02  0.13520165080E+02  0.40659140539E+02  0.00000000000E+00 0. -1.
         11    1    4    4    0    0 -0.18942157945E+01  0.16561713169E+01  0.46015532672E+01  0.52445447504E+01  0.51100000000E-03 0. -1.
        -11    1    4    4    0    0 -0.38754103192E+01 -0.63384138021E+01 -0.10917407527E+02  0.13205456525E+02  0.51100000000E-03 0.  1.
        -12    1    4    4    0    0 -0.16323571269E+02 -0.26658808471E+02 -0.72043108205E+01  0.32078858185E+02  0.00000000000E+00 0.  1.
</event>
<event>
 8    1  0.2031623E-013  0.9118800E+02  0.7816164E-02  0.1184000E+00
        -11   -1    0    0    0    0  0.00000000000E+00  0.00000000000E+00  0.45593999997E+02  0.45594000000E+02  0.51100000000E-03 0. -1.
         11   -1    0    0    0    0 -0.00000000000E+00 -0.00000000000E+00 -0.45593999997E+02  0.45594000000E+02  0.51100000000E-03 0.  1.
         23    2    1    2    0    0  0.00000000000E+00  0.00000000000E+00 -0.71054273576E-14  0.91188000000E+02  0.91188000000E+02 0.  0.
    9900012    2    3    3    0    0  0.16931550217E+02 -0.65212924523E+01  0.36386255466E+02  0.50528877594E+02  0.30000053933E+02 0.  0.
        -12    1    3    3    0    0 -0.16931550217E+02  0.65212924523E+01 -0.36386255466E+02  0.40659122406E+02  0.00000000000E+00 0.  1.
         11    1    4    4    0    0  0.22854656853E+02 -0.42450245053E+01  0.31372656174E+02  0.39046115410E+02  0.51100000000E-03 0. -1.
        -11    1    4    4    0    0 -0.63297425244E+01  0.14345977271E+01  0.23743779717E+01  0.69109610096E+01  0.51100000000E-03 0.  1.
         12    1    4    4    0    0  0.40663588859E+00 -0.37108656741E+01  0.26392213204E+01  0.45718011741E+01  0.00000000000E+00 0. -1.
</event>
<event>
 8    1  0.2031623E-013  0.9118800E+02  0.7816164E-02  0.1184000E+00
        -11   -1    0    0    0    0  0.00000000000E+00  0.00000000000E+00  0.45593999997E+02  0.45594000000E+02  0.51100000000E-03 0. -1.
         11   -1    0    0    0    0 -0.00000000000E+00 -0.00000000000E+00 -0.45593999997E+02  0.45594000000E+02  0.51100000000E-03 0.  1.
         23    2    1    2    0    0  0.00000000000E+00  0.00000000000E+00  0.00000000000E+00  0.91188000000E+02  0.91188000000E+02 0.  0.
    9900012    2    3    3    0    0 -0.37988717779E+02 -0.11294135731E+02  0.90811417751E+01  0.50528839700E+02  0.29999938752E+02 0.  0.
         12    1    3    3    0    0  0.37988717779E+02  0.11294135731E+02 -0.90811417751E+01  0.40659160300E+02  0.00000000000E+00 0. -1.
         11    1    4    4    0    0 -0.31386938515E+02 -0.60017424960E+01  0.34855053752E+01  0.32145132918E+02  0.51100000000E-03 0. -1.
        -11    1    4    4    0    0  0.35599621358E+01 -0.63146790536E+01  0.16459919760E+01  0.74335584887E+01  0.51100000000E-03 0.  1.
        -12    1    4    4    0    0 -0.10161741399E+02  0.10222858190E+01  0.39496444239E+01  0.10950148293E+02  0.00000000000E+00 0.  1.
</event>
<event>
 8    1  0.2031623E-013  0.9118800E+02  0.7816164E-02  0.1184000E+00
        -11   -1    0    0    0    0  0.00000000000E+00  0.00000000000E+00  0.45593999997E+02  0.45594000000E+02  0.51100000000E-03 0. -1.
         11   -1    0    0    0    0 -0.00000000000E+00 -0.00000000000E+00 -0.45593999997E+02  0.45594000000E+02  0.51100000000E-03 0.  1.
         23    2    1    2    0    0  0.13322676296E-14  0.00000000000E+00  0.00000000000E+00  0.91188000000E+02  0.91188000000E+02 0.  0.
    9900012    2    3    3    0    0  0.18714778269E+01  0.74921426068E+01  0.39919052603E+02  0.50528863378E+02  0.30000010725E+02 0.  0.
        -12    1    3    3    0    0 -0.18714778269E+01 -0.74921426068E+01 -0.39919052603E+02  0.40659136622E+02  0.00000000000E+00 0.  1.
         11    1    4    4    0    0 -0.10535043423E+02  0.35063344110E+01  0.16822177349E+02  0.20156070350E+02  0.51100000000E-03 0. -1.
        -11    1    4    4    0    0  0.15409097048E+02  0.98022315670E+00  0.18839005586E+02  0.24357939999E+02  0.51100000000E-03 0.  1.
        -12    1    4    4    0    0 -0.30025757986E+01  0.30055850390E+01  0.42578696683E+01  0.60148530294E+01  0.00000000000E+00 0.  1.
</event>
<event>
 8    1  0.2031623E-013  0.9118800E+02  0.7816164E-02  0.1184000E+00
        -11   -1    0    0    0    0  0.00000000000E+00  0.00000000000E+00  0.45593999997E+02  0.45594000000E+02  0.51100000000E-03 0. -1.
         11   -1    0    0    0    0 -0.00000000000E+00 -0.00000000000E+00 -0.45593999997E+02  0.45594000000E+02  0.51100000000E-03 0.  1.
         23    2    1    2    0    0 -0.17763568394E-14 -0.35527136788E-14 -0.71054273576E-14  0.91188000000E+02  0.91188000000E+02 0.  0.
    9900012    2    3    3    0    0 -0.15862795238E+02 -0.18510191871E+02  0.32540902513E+02  0.50528858196E+02  0.29999994974E+02 0.  0.
        -12    1    3    3    0    0  0.15862795238E+02  0.18510191871E+02 -0.32540902513E+02  0.40659141804E+02  0.00000000000E+00 0.  1.
         11    1    4    4    0    0  0.22276310224E+01 -0.16506105376E+02  0.55692741422E+01  0.17562194322E+02  0.51100000000E-03 0. -1.
        -11    1    4    4    0    0 -0.70249602412E+01 -0.32719168510E+01  0.97050195057E+01  0.12419456918E+02  0.51100000000E-03 0.  1.
         12    1    4    4    0    0 -0.11065466019E+02  0.12678303565E+01  0.17266608865E+02  0.20547206957E+02  0.00000000000E+00 0. -1.
</event>
<event>
 8    1  0.2031623E-013  0.9118800E+02  0.7816164E-02  0.1184000E+00
        -11   -1    0    0    0    0  0.00000000000E+00  0.00000000000E+00  0.45593999997E+02  0.45594000000E+02  0.51100000000E-03 0. -1.
         11   -1    0    0    0    0 -0.00000000000E+00 -0.00000000000E+00 -0.45593999997E+02  0.45594000000E+02  0.51100000000E-03 0.  1.
         23    2    1    2    0    0 -0.22204460493E-15  0.88817841970E-15 -0.71054273576E-14  0.91188000000E+02  0.91188000000E+02 0.  0.
    9900012    2    3    3    0    0 -0.14006022510E+01  0.35674845505E+01 -0.40478104197E+02  0.50528861396E+02  0.30000004699E+02 0.  0.
         12    1    3    3    0    0  0.14006022510E+01 -0.35674845505E+01  0.40478104197E+02  0.40659138604E+02  0.00000000000E+00 0. -1.
         11    1    4    4    0    0 -0.62972844575E+01 -0.16103350560E+01 -0.22149098720E+02  0.23083144172E+02  0.51100000000E-03 0.  1.
        -11    1    4    4    0    0  0.38726154875E+00  0.11594134943E+02 -0.66307164257E+01  0.13361898711E+02  0.51100000000E-03 0. -1.
        -12    1    4    4    0    0  0.45094206578E+01 -0.64163153365E+01 -0.11698289051E+02  0.14083818513E+02  0.00000000000E+00 0.  1.
</event>
<event>
 8    1  0.2031623E-013  0.9118800E+02  0.7816164E-02  0.1184000E+00
        -11   -1    0    0    0    0  0.00000000000E+00  0.00000000000E+00  0.45593999997E+02  0.45594000000E+02  0.51100000000E-03 0. -1.
         11   -1    0    0    0    0 -0.00000000000E+00 -0.00000000000E+00 -0.45593999997E+02  0.45594000000E+02  0.51100000000E-03 0.  1.
         23    2    1    2    0    0 -0.44408920985E-15  0.17763568394E-14 -0.71054273576E-14  0.91188000000E+02  0.91188000000E+02 0.  0.
    9900012    2    3    3    0    0 -0.26720088359E+01 -0.96430197044E+01  0.39408603026E+02  0.50528862618E+02  0.30000008413E+02 0.  0.
        -12    1    3    3    0    0  0.26720088359E+01  0.96430197044E+01 -0.39408603026E+02  0.40659137382E+02  0.00000000000E+00 0.  1.
         11    1    4    4    0    0  0.62599542297E+01 -0.95233918691E+00  0.11644967831E+02  0.13255159483E+02  0.51100000000E-03 0. -1.
        -11    1    4    4    0    0 -0.11329197796E+02 -0.11019153912E+02  0.89437135109E+01  0.18159363625E+02  0.51100000000E-03 0.  1.
        -12    1    4    4    0    0  0.23972347302E+01  0.23284733944E+01  0.18819921684E+02  0.19114339510E+02  0.00000000000E+00 0.  1.
</event>
<event>
 8    1  0.2031623E-013  0.9118800E+02  0.7816164E-02  0.1184000E+00
        -11   -1    0    0    0    0  0.00000000000E+00  0.00000000000E+00  0.45593999997E+02  0.45594000000E+02  0.51100000000E-03 0. -1.
         11   -1    0    0    0    0 -0.00000000000E+00 -0.00000000000E+00 -0.45593999997E+02  0.45594000000E+02  0.51100000000E-03 0.  1.
         23    2    1    2    0    0 -0.35527136788E-14  0.00000000000E+00  0.35527136788E-14  0.91188000000E+02  0.91188000000E+02 0.  0.
    9900012    2    3    3    0    0 -0.26471835916E+02 -0.11773021233E+01  0.30838561026E+02  0.50528917580E+02  0.30000175477E+02 0.  0.
        -12    1    3    3    0    0  0.26471835916E+02  0.11773021233E+01 -0.30838561026E+02  0.40659082420E+02  0.00000000000E+00 0.  1.
         11    1    4    4    0    0 -0.19403451104E+01 -0.93365083271E+01  0.47836387511E+01  0.10668576608E+02  0.51100000000E-03 0.  1.
        -11    1    4    4    0    0 -0.22349705067E+02  0.10719778664E+02  0.26702940581E+02  0.36434461806E+02  0.51100000000E-03 0. -1.
         12    1    4    4    0    0 -0.21817857389E+01 -0.25605724599E+01 -0.64801830615E+00  0.34258791657E+01  0.00000000000E+00 0. -1.
</event>
<event>
 8    1  0.2031623E-013  0.9118800E+02  0.7816164E-02  0.1184000E+00
        -11   -1    0    0    0    0  0.00000000000E+00  0.00000000000E+00  0.45593999997E+02  0.45594000000E+02  0.51100000000E-03 0. -1.
         11   -1    0    0    0    0 -0.00000000000E+00 -0.00000000000E+00 -0.45593999997E+02  0.45594000000E+02  0.51100000000E-03 0.  1.
         23    2    1    2    0    0  0.00000000000E+00 -0.44408920985E-15 -0.35527136788E-14  0.91188000000E+02  0.91188000000E+02 0.  0.
    9900012    2    3    3    0    0 -0.34392462413E+02  0.20935761057E+01 -0.21585670903E+02  0.50528859329E+02  0.29999998418E+02 0.  0.
         12    1    3    3    0    0  0.34392462413E+02 -0.20935761057E+01  0.21585670903E+02  0.40659140671E+02  0.00000000000E+00 0. -1.
         11    1    4    4    0    0 -0.28685325949E+02  0.71532217148E+01 -0.46706619211E+01  0.29930445850E+02  0.51100000000E-03 0. -1.
        -11    1    4    4    0    0  0.24242089881E+01 -0.16069377697E+01 -0.37899984188E+01  0.47773555959E+01  0.51100000000E-03 0.  1.
         12    1    4    4    0    0 -0.81313454515E+01 -0.34527078393E+01 -0.13125010563E+02  0.15821057884E+02  0.00000000000E+00 0. -1.
</event>
