<event>
 7    1  0.1221195E-011  0.5930195E+02  0.7816164E-02  0.1266605E+00
        -11   -1    0    0    0    0  0.00000000000E+00  0.00000000000E+00  0.45593999997E+02  0.45594000000E+02  0.51100000000E-03 0. -1.
         11   -1    0    0    0    0 -0.00000000000E+00 -0.00000000000E+00 -0.45593999997E+02  0.45594000000E+02  0.51100000000E-03 0.  1.
    9900012    2    1    2    0    0 -0.18383511625E+02 -0.55066504442E+01  0.25464551728E+02  0.59301951429E+02  0.50000013498E+02 0.  0.
        -12    1    1    2    0    0  0.18383511625E+02  0.55066504442E+01 -0.25464551728E+02  0.31886048571E+02  0.00000000000E+00 0.  1.
         11    1    3    3    0    0 -0.48787534731E+01  0.83134649707E+01 -0.87190874440E+01  0.12997631376E+02  0.51100000000E-03 0. -1.
        -11    1    3    3    0    0  0.32844901223E+00 -0.75638321862E+01 -0.13251203493E+01  0.76860510209E+01  0.51100000000E-03 0.  1.
         12    1    3    3    0    0 -0.13833207164E+02 -0.62562832287E+01  0.35508759521E+02  0.38618269032E+02  0.00000000000E+00 0. -1.
</event>
<event>
 7    1  0.1221195E-011  0.5930193E+02  0.7816164E-02  0.1266605E+00
        -11   -1    0    0    0    0  0.00000000000E+00  0.00000000000E+00  0.45593999997E+02  0.45594000000E+02  0.51100000000E-03 0. -1.
         11   -1    0    0    0    0 -0.00000000000E+00 -0.00000000000E+00 -0.45593999997E+02  0.45594000000E+02  0.51100000000E-03 0.  1.
    9900012    2    1    2    0    0 -0.10506642796E+02  0.29499804181E+02  0.60077819255E+01  0.59301930421E+02  0.49999975185E+02 0.  0.
        -12    1    1    2    0    0  0.10506642796E+02 -0.29499804181E+02 -0.60077819255E+01  0.31886069579E+02  0.00000000000E+00 0.  1.
         11    1    3    3    0    0  0.19494527300E+01 -0.51031951118E+01  0.47490517218E+01  0.72385398260E+01  0.51100000000E-03 0. -1.
        -11    1    3    3    0    0 -0.48013049579E+01  0.29289504425E+02 -0.15051702339E+02  0.33278842263E+02  0.51100000000E-03 0.  1.
         12    1    3    3    0    0 -0.76547905680E+01  0.53134948668E+01  0.16310432542E+02  0.18784548332E+02  0.00000000000E+00 0. -1.
</event>
<event>
 7    1  0.1221195E-011  0.5930196E+02  0.7816164E-02  0.1266605E+00
        -11   -1    0    0    0    0  0.00000000000E+00  0.00000000000E+00  0.45593999997E+02  0.45594000000E+02  0.51100000000E-03 0.  1.
         11   -1    0    0    0    0 -0.00000000000E+00 -0.00000000000E+00 -0.45593999997E+02  0.45594000000E+02  0.51100000000E-03 0. -1.
    9900012    2    1    2    0    0  0.16118155557E+02 -0.97115695321E+01 -0.25741209729E+02  0.59301962308E+02  0.50000033339E+02 0.  0.
        -12    1    1    2    0    0 -0.16118155557E+02  0.97115695321E+01  0.25741209729E+02  0.31886037692E+02  0.00000000000E+00 0.  1.
         11    1    3    3    0    0  0.74291088032E+01 -0.26489394072E+01 -0.20181571969E+02  0.21668049866E+02  0.51100000000E-03 0. -1.
        -11    1    3    3    0    0  0.21787566386E+02  0.93889697203E+00 -0.21744633543E+01  0.21915927260E+02  0.51100000000E-03 0.  1.
         12    1    3    3    0    0 -0.13098519631E+02 -0.80015270970E+01 -0.33851744056E+01  0.15717985182E+02  0.00000000000E+00 0. -1.
</event>
<event>
 7    1  0.1221195E-011  0.5930189E+02  0.7816164E-02  0.1266605E+00
        -11   -1    0    0    0    0  0.00000000000E+00  0.00000000000E+00  0.45593999997E+02  0.45594000000E+02  0.51100000000E-03 0.  1.
         11   -1    0    0    0    0 -0.00000000000E+00 -0.00000000000E+00 -0.45593999997E+02  0.45594000000E+02  0.51100000000E-03 0. -1.
    9900012    2    1    2    0    0  0.29422173046E+02  0.12194154198E+02 -0.15369494735E+01  0.59301892099E+02  0.49999905295E+02 0.  0.
        -12    1    1    2    0    0 -0.29422173046E+02 -0.12194154198E+02  0.15369494735E+01  0.31886107901E+02  0.00000000000E+00 0.  1.
         11    1    3    3    0    0 -0.41309452383E+01 -0.27190661840E+01  0.63331392183E+01  0.80353395756E+01  0.51100000000E-03 0. -1.
        -11    1    3    3    0    0  0.72323899912E+01 -0.58274978106E+01  0.96995575146E+01  0.13429393581E+02  0.51100000000E-03 0.  1.
         12    1    3    3    0    0  0.26320728293E+02  0.20740718193E+02 -0.17569646206E+02  0.37837158943E+02  0.00000000000E+00 0. -1.
</event>
<event>
 7    1  0.1221195E-011  0.5930194E+02  0.7816164E-02  0.1266605E+00
        -11   -1    0    0    0    0  0.00000000000E+00  0.00000000000E+00  0.45593999997E+02  0.45594000000E+02  0.51100000000E-03 0. -1.
         11   -1    0    0    0    0 -0.00000000000E+00 -0.00000000000E+00 -0.45593999997E+02  0.45594000000E+02  0.51100000000E-03 0.  1.
    9900012    2    1    2    0    0  0.17672067123E+02 -0.24095493463E+02  0.11127719785E+02  0.59301938637E+02  0.49999990170E+02 0.  0.
        -12    1    1    2    0    0 -0.17672067123E+02  0.24095493463E+02 -0.11127719785E+02  0.31886061363E+02  0.00000000000E+00 0.  1.
         11    1    3    3    0    0  0.89789477236E+01 -0.22380781371E+02  0.92855990615E+01  0.25840728070E+02  0.51100000000E-03 0. -1.
        -11    1    3    3    0    0  0.58002923220E+01 -0.14296444812E+02 -0.78570216979E+01  0.17313708889E+02  0.51100000000E-03 0.  1.
         12    1    3    3    0    0  0.28928270773E+01  0.12581732720E+02  0.96991424214E+01  0.16147501678E+02  0.00000000000E+00 0. -1.
</event>
<event>
 7    1  0.1221195E-011  0.5930186E+02  0.7816164E-02  0.1266605E+00
        -11   -1    0    0    0    0  0.00000000000E+00  0.00000000000E+00  0.45593999997E+02  0.45594000000E+02  0.51100000000E-03 0. -1.
         11   -1    0    0    0    0 -0.00000000000E+00 -0.00000000000E+00 -0.45593999997E+02  0.45594000000E+02  0.51100000000E-03 0.  1.
    9900012    2    1    2    0    0 -0.89139491082E+01  0.26284623757E+02  0.15696679207E+02  0.59301863940E+02  0.49999853939E+02 0.  0.
        -12    1    1    2    0    0  0.89139491082E+01 -0.26284623757E+02 -0.15696679207E+02  0.31886136060E+02  0.00000000000E+00 0.  1.
         11    1    3    3    0    0 -0.83468902781E+01  0.16820884898E+01 -0.27970730620E+01  0.89623443907E+01  0.51100000000E-03 0. -1.
        -11    1    3    3    0    0 -0.44534793385E+01 -0.10190513792E+02  0.82976341790E+01  0.13875546216E+02  0.51100000000E-03 0.  1.
         12    1    3    3    0    0  0.38864205084E+01  0.34793049059E+02  0.10196118090E+02  0.36463973333E+02  0.00000000000E+00 0. -1.
</event>
<event>
 7    1  0.1221195E-011  0.5930196E+02  0.7816164E-02  0.1266605E+00
        -11   -1    0    0    0    0  0.00000000000E+00  0.00000000000E+00  0.45593999997E+02  0.45594000000E+02  0.51100000000E-03 0.  1.
         11   -1    0    0    0    0 -0.00000000000E+00 -0.00000000000E+00 -0.45593999997E+02  0.45594000000E+02  0.51100000000E-03 0. -1.
    9900012    2    1    2    0    0 -0.18723434256E+02  0.73430179676E+01 -0.24743334179E+02  0.59301960900E+02  0.50000030771E+02 0.  0.
        -12    1    1    2    0    0  0.18723434256E+02 -0.73430179676E+01  0.24743334179E+02  0.31886039100E+02  0.00000000000E+00 0.  1.
         11    1    3    3    0    0 -0.32298949910E+01 -0.14790180139E+01  0.75073320303E+01  0.83054048915E+01  0.51100000000E-03 0.  1.
        -11    1    3    3    0    0 -0.51165644218E+00  0.19546207575E+02 -0.23584379841E+02  0.30635583814E+02  0.51100000000E-03 0. -1.
         12    1    3    3    0    0 -0.14981882823E+02 -0.10724171594E+02 -0.86662863675E+01  0.20360972194E+02  0.00000000000E+00 0. -1.
</event>
<event>
 7    1  0.1221195E-011  0.5930195E+02  0.7816164E-02  0.1266605E+00
        -11   -1    0    0    0    0  0.00000000000E+00  0.00000000000E+00  0.45593999997E+02  0.45594000000E+02  0.51100000000E-03 0.  1.
         11   -1    0    0    0    0 -0.00000000000E+00 -0.00000000000E+00 -0.45593999997E+02  0.45594000000E+02  0.51100000000E-03 0. -1.
    9900012    2    1    2    0    0  0.46135419877E+01 -0.18947349662E+02 -0.25227629883E+02  0.59301950724E+02  0.50000012213E+02 0.  0.
        -12    1    1    2    0    0 -0.46135419877E+01  0.18947349662E+02  0.25227629883E+02  0.31886049276E+02  0.00000000000E+00 0.  1.
         11    1    3    3    0    0 -0.34739534443E+01 -0.29327547860E+02 -0.17276335406E+02  0.34214692478E+02  0.51100000000E-03 0. -1.
        -11    1    3    3    0    0 -0.14498722727E+00 -0.12098296047E+01 -0.10563021089E+02  0.10633067467E+02  0.51100000000E-03 0.  1.
        -12    1    3    3    0    0  0.82324826592E+01  0.11590027803E+02  0.26117266109E+01  0.14454190780E+02  0.00000000000E+00 0.  1.
</event>
<event>
 7    1  0.1221195E-011  0.5930194E+02  0.7816164E-02  0.1266605E+00
        -11   -1    0    0    0    0  0.00000000000E+00  0.00000000000E+00  0.45593999997E+02  0.45594000000E+02  0.51100000000E-03 0. -1.
         11   -1    0    0    0    0 -0.00000000000E+00 -0.00000000000E+00 -0.45593999997E+02  0.45594000000E+02  0.51100000000E-03 0.  1.
    9900012    2    1    2    0    0 -0.23424250379E+02 -0.21031333665E+02  0.50703463708E+01  0.59301938564E+02  0.49999990036E+02 0.  0.
        -12    1    1    2    0    0  0.23424250379E+02  0.21031333665E+02 -0.50703463708E+01  0.31886061436E+02  0.00000000000E+00 0.  1.
         11    1    3    3    0    0 -0.92451292201E+00 -0.24045920136E+01  0.42512196734E+01  0.49708807939E+01  0.51100000000E-03 0. -1.
        -11    1    3    3    0    0  0.11399068354E+02  0.54681107218E+01 -0.11498188412E+01  0.12694923309E+02  0.51100000000E-03 0.  1.
         12    1    3    3    0    0 -0.33898805811E+02 -0.24094852374E+02  0.19689455386E+01  0.41636134461E+02  0.00000000000E+00 0. -1.
</event>
<event>
 7    1  0.1221195E-011  0.5930190E+02  0.7816164E-02  0.1266605E+00
        -11   -1    0    0    0    0  0.00000000000E+00  0.00000000000E+00  0.45593999997E+02  0.45594000000E+02  0.51100000000E-03 0. -1.
         11   -1    0    0    0    0 -0.00000000000E+00 -0.00000000000E+00 -0.45593999997E+02  0.45594000000E+02  0.51100000000E-03 0.  1.
    9900012    2    1    2    0    0  0.25843442764E+02 -0.53616813189E+01  0.17891127197E+02  0.59301896557E+02  0.49999913424E+02 0.  0.
        -12    1    1    2    0    0 -0.25843442764E+02  0.53616813189E+01 -0.17891127197E+02  0.31886103443E+02  0.00000000000E+00 0.  1.
         11    1    3    3    0    0  0.19638776942E+01  0.56816317930E+01  0.24780033625E+01  0.65021732025E+01  0.51100000000E-03 0. -1.
        -11    1    3    3    0    0  0.10014878111E+02  0.15322661151E+01 -0.14394302535E+02  0.17602317142E+02  0.51100000000E-03 0.  1.
        -12    1    3    3    0    0  0.13864686958E+02 -0.12575579227E+02  0.29807426369E+02  0.35197406212E+02  0.00000000000E+00 0.  1.
</event>
<event>
 7    1  0.1221195E-011  0.5930198E+02  0.7816164E-02  0.1266605E+00
        -11   -1    0    0    0    0  0.00000000000E+00  0.00000000000E+00  0.45593999997E+02  0.45594000000E+02  0.51100000000E-03 0.  1.
         11   -1    0    0    0    0 -0.00000000000E+00 -0.00000000000E+00 -0.45593999997E+02  0.45594000000E+02  0.51100000000E-03 0. -1.
    9900012    2    1    2    0    0 -0.27537592449E+02  0.13724640495E+02  0.83686181563E+01  0.59301976033E+02  0.50000058369E+02 0.  0.
        -12    1    1    2    0    0  0.27537592449E+02 -0.13724640495E+02 -0.83686181563E+01  0.31886023967E+02  0.00000000000E+00 0.  1.
         11    1    3    3    0    0 -0.95024058789E+01 -0.10848716202E+02  0.11033546414E+02  0.18158455536E+02  0.51100000000E-03 0. -1.
        -11    1    3    3    0    0 -0.27585409597E+01 -0.57340294263E+01 -0.33617268247E+01  0.71965164624E+01  0.51100000000E-03 0.  1.
         12    1    3    3    0    0 -0.15276645611E+02  0.30307386123E+02  0.69679856728E+00  0.33947004035E+02  0.00000000000E+00 0. -1.
</event>
<event>
 7    1  0.1221195E-011  0.5930194E+02  0.7816164E-02  0.1266605E+00
        -11   -1    0    0    0    0  0.00000000000E+00  0.00000000000E+00  0.45593999997E+02  0.45594000000E+02  0.51100000000E-03 0.  1.
         11   -1    0    0    0    0 -0.00000000000E+00 -0.00000000000E+00 -0.45593999997E+02  0.45594000000E+02  0.51100000000E-03 0. -1.
    9900012    2    1    2    0    0  0.76934828828E+01  0.17996732501E+02 -0.25172383107E+02  0.59301938298E+02  0.49999989551E+02 0.  0.
        -12    1    1    2    0    0 -0.76934828828E+01 -0.17996732501E+02  0.25172383107E+02  0.31886061702E+02  0.00000000000E+00 0.  1.
         11    1    3    3    0    0  0.36060763169E+01  0.40083056155E+01 -0.11560693580E+02  0.12756172491E+02  0.51100000000E-03 0. -1.
        -11    1    3    3    0    0  0.20669934718E+02  0.14419900671E+02 -0.15902055413E+02  0.29800253409E+02  0.51100000000E-03 0.  1.
        -12    1    3    3    0    0 -0.16582528153E+02 -0.43147378564E+00  0.22903658869E+01  0.16745512397E+02  0.00000000000E+00 0.  1.
</event>
<event>
 7    1  0.1221195E-011  0.5930195E+02  0.7816164E-02  0.1266605E+00
        -11   -1    0    0    0    0  0.00000000000E+00  0.00000000000E+00  0.45593999997E+02  0.45594000000E+02  0.51100000000E-03 0.  1.
         11   -1    0    0    0    0 -0.00000000000E+00 -0.00000000000E+00 -0.45593999997E+02  0.45594000000E+02  0.51100000000E-03 0. -1.
    9900012    2    1    2    0    0  0.16610645264E+02  0.36188254878E+01 -0.26976108979E+02  0.59301954626E+02  0.50000019328E+02 0.  0.
        -12    1    1    2    0    0 -0.16610645264E+02 -0.36188254878E+01  0.26976108979E+02  0.31886045374E+02  0.00000000000E+00 0.  1.
         11    1    3    3    0    0  0.45626398440E+01 -0.40243083642E+01 -0.12427700048E+02  0.13836924112E+02  0.51100000000E-03 0. -1.
        -11    1    3    3    0    0  0.12762824223E+02 -0.12734640911E+02  0.33446726733E+01  0.18337055294E+02  0.51100000000E-03 0.  1.
         12    1    3    3    0    0 -0.71481880317E+00  0.20377774763E+02 -0.17893081604E+02  0.27127975220E+02  0.00000000000E+00 0. -1.
</event>
<event>
 7    1  0.1221195E-011  0.5930193E+02  0.7816164E-02  0.1266605E+00
        -11   -1    0    0    0    0  0.00000000000E+00  0.00000000000E+00  0.45593999997E+02  0.45594000000E+02  0.51100000000E-03 0.  1.
         11   -1    0    0    0    0 -0.00000000000E+00 -0.00000000000E+00 -0.45593999997E+02  0.45594000000E+02  0.51100000000E-03 0. -1.
    9900012    2    1    2    0    0  0.26535949207E+02 -0.11152913512E+02 -0.13717769112E+02  0.59301932987E+02  0.49999979865E+02 0.  0.
        -12    1    1    2    0    0 -0.26535949207E+02  0.11152913512E+02  0.13717769112E+02  0.31886067013E+02  0.00000000000E+00 0.  1.
         11    1    3    3    0    0 -0.45008165161E+01  0.42277481073E+00 -0.23054672223E+01  0.50745706446E+01  0.51100000000E-03 0. -1.
        -11    1    3    3    0    0  0.21644092421E+01 -0.40991424070E+01  0.14185664765E+02  0.14923830638E+02  0.51100000000E-03 0.  1.
         12    1    3    3    0    0  0.28872356481E+02 -0.74765459157E+01 -0.25597966654E+02  0.39303531704E+02  0.00000000000E+00 0. -1.
</event>
<event>
 7    1  0.1221195E-011  0.5930193E+02  0.7816164E-02  0.1266605E+00
        -11   -1    0    0    0    0  0.00000000000E+00  0.00000000000E+00  0.45593999997E+02  0.45594000000E+02  0.51100000000E-03 0.  1.
         11   -1    0    0    0    0 -0.00000000000E+00 -0.00000000000E+00 -0.45593999997E+02  0.45594000000E+02  0.51100000000E-03 0. -1.
    9900012    2    1    2    0    0 -0.21307008460E+02 -0.12797462727E+02 -0.19973928693E+02  0.59301929543E+02  0.49999973583E+02 0.  0.
        -12    1    1    2    0    0  0.21307008460E+02  0.12797462727E+02  0.19973928693E+02  0.31886070457E+02  0.00000000000E+00 0.  1.
         11    1    3    3    0    0  0.34491734599E+00  0.60861277305E+01 -0.13461082633E+02  0.14777031659E+02  0.51100000000E-03 0.  1.
        -11    1    3    3    0    0 -0.30383397191E+01  0.91710586026E+01  0.18432460545E+01  0.98355162762E+01  0.51100000000E-03 0. -1.
        -12    1    3    3    0    0 -0.18613586087E+02 -0.28054649060E+02 -0.83560921150E+01  0.34689381608E+02  0.00000000000E+00 0.  1.
</event>
<event>
 7    1  0.1221195E-011  0.5930191E+02  0.7816164E-02  0.1266605E+00
        -11   -1    0    0    0    0  0.00000000000E+00  0.00000000000E+00  0.45593999997E+02  0.45594000000E+02  0.51100000000E-03 0.  1.
         11   -1    0    0    0    0 -0.00000000000E+00 -0.00000000000E+00 -0.45593999997E+02  0.45594000000E+02  0.51100000000E-03 0. -1.
    9900012    2    1    2    0    0  0.91577631114E+01  0.37868092928E+01 -0.30307066860E+02  0.59301908181E+02  0.49999934625E+02 0.  0.
        -12    1    1    2    0    0 -0.91577631114E+01 -0.37868092928E+01  0.30307066860E+02  0.31886091819E+02  0.00000000000E+00 0.  1.
         11    1    3    3    0    0  0.39317231409E+01 -0.15390301093E+02 -0.56091474994E+01  0.16845840748E+02  0.51100000000E-03 0. -1.
        -11    1    3    3    0    0  0.75011872036E+00  0.80264890615E+01  0.56312667421E+01  0.98335329425E+01  0.51100000000E-03 0.  1.
        -12    1    3    3    0    0  0.44759212501E+01  0.11150621324E+02 -0.30329186102E+02  0.32622534491E+02  0.00000000000E+00 0.  1.
</event>
<event>
 7    1  0.1221195E-011  0.5930194E+02  0.7816164E-02  0.1266605E+00
        -11   -1    0    0    0    0  0.00000000000E+00  0.00000000000E+00  0.45593999997E+02  0.45594000000E+02  0.51100000000E-03 0.  1.
         11   -1    0    0    0    0 -0.00000000000E+00 -0.00000000000E+00 -0.45593999997E+02  0.45594000000E+02  0.51100000000E-03 0. -1.
    9900012    2    1    2    0    0  0.23182041774E+02  0.19882938207E+02 -0.91641883609E+01  0.59301942845E+02  0.49999997843E+02 0.  0.
        -12    1    1    2    0    0 -0.23182041774E+02 -0.19882938207E+02  0.91641883609E+01  0.31886057155E+02  0.00000000000E+00 0.  1.
         11    1    3    3    0    0  0.69463059533E+01  0.13980595813E+02 -0.98435343234E+01  0.18455443477E+02  0.51100000000E-03 0. -1.
        -11    1    3    3    0    0  0.19771065642E+01  0.12020501476E+02 -0.14637831857E+02  0.19043831752E+02  0.51100000000E-03 0.  1.
        -12    1    3    3    0    0  0.14258629257E+02 -0.61181590815E+01  0.15317177819E+02  0.21802667616E+02  0.00000000000E+00 0.  1.
</event>
<event>
 7    1  0.1221195E-011  0.5930194E+02  0.7816164E-02  0.1266605E+00
        -11   -1    0    0    0    0  0.00000000000E+00  0.00000000000E+00  0.45593999997E+02  0.45594000000E+02  0.51100000000E-03 0. -1.
         11   -1    0    0    0    0 -0.00000000000E+00 -0.00000000000E+00 -0.45593999997E+02  0.45594000000E+02  0.51100000000E-03 0.  1.
    9900012    2    1    2    0    0  0.77925048230E+01 -0.28613817116E+02 -0.11715244786E+02  0.59301943145E+02  0.49999998390E+02 0.  0.
        -12    1    1    2    0    0 -0.77925048230E+01  0.28613817116E+02  0.11715244786E+02  0.31886056855E+02  0.00000000000E+00 0.  1.
         11    1    3    3    0    0 -0.99022802810E+00  0.18425500266E+01 -0.64867310336E+00  0.21900500461E+01  0.51100000000E-03 0. -1.
        -11    1    3    3    0    0  0.20982751722E+02  0.94989875034E+00 -0.10340040508E+02  0.23411420619E+02  0.51100000000E-03 0.  1.
         12    1    3    3    0    0 -0.12200018871E+02 -0.31406265893E+02 -0.72653117509E+00  0.33700472479E+02  0.00000000000E+00 0. -1.
</event>
<event>
 7    1  0.1221195E-011  0.5930191E+02  0.7816164E-02  0.1266605E+00
        -11   -1    0    0    0    0  0.00000000000E+00  0.00000000000E+00  0.45593999997E+02  0.45594000000E+02  0.51100000000E-03 0. -1.
         11   -1    0    0    0    0 -0.00000000000E+00 -0.00000000000E+00 -0.45593999997E+02  0.45594000000E+02  0.51100000000E-03 0.  1.
    9900012    2    1    2    0    0  0.26366488696E+01 -0.25439289256E+02  0.19042402616E+02  0.59301914437E+02  0.49999946034E+02 0.  0.
        -12    1    1    2    0    0 -0.26366488696E+01  0.25439289256E+02 -0.19042402616E+02  0.31886085563E+02  0.00000000000E+00 0.  1.
         11    1    3    3    0    0 -0.96379384288E+01  0.92680006002E+01  0.19848553451E+01  0.13517593842E+02  0.51100000000E-03 0. -1.
        -11    1    3    3    0    0 -0.90239540457E+00 -0.36936351276E+01 -0.44156571625E+01  0.58271164704E+01  0.51100000000E-03 0.  1.
         12    1    3    3    0    0  0.13176982703E+02 -0.31013654729E+02  0.21473204433E+02  0.39957204124E+02  0.00000000000E+00 0. -1.
</event>
<event>
 7    1  0.1221195E-011  0.5930195E+02  0.7816164E-02  0.1266605E+00
        -11   -1    0    0    0    0  0.00000000000E+00  0.00000000000E+00  0.45593999997E+02  0.45594000000E+02  0.51100000000E-03 0.  1.
         11   -1    0    0    0    0 -0.00000000000E+00 -0.00000000000E+00 -0.45593999997E+02  0.45594000000E+02  0.51100000000E-03 0. -1.
    9900012    2    1    2    0    0  0.13273736104E+02  0.15659789652E+02 -0.24398755884E+02  0.59301947080E+02  0.50000005567E+02 0.  0.
        -12    1    1    2    0    0 -0.13273736104E+02 -0.15659789652E+02  0.24398755884E+02  0.31886052920E+02  0.00000000000E+00 0.  1.
         11    1    3    3    0    0 -0.72000311091E+01 -0.38760325099E+01  0.15906698397E+01  0.83303245308E+01  0.51100000000E-03 0. -1.
        -11    1    3    3    0    0  0.15011475649E+02  0.71821196299E+01  0.48251782516E+01  0.17326557331E+02  0.51100000000E-03 0.  1.
         12    1    3    3    0    0  0.54622915641E+01  0.12353702532E+02 -0.30814603975E+02  0.33645065218E+02  0.00000000000E+00 0. -1.
</event>
<event>
 7    1  0.1221195E-011  0.5930192E+02  0.7816164E-02  0.1266605E+00
        -11   -1    0    0    0    0  0.00000000000E+00  0.00000000000E+00  0.45593999997E+02  0.45594000000E+02  0.51100000000E-03 0.  1.
         11   -1    0    0    0    0 -0.00000000000E+00 -0.00000000000E+00 -0.45593999997E+02  0.45594000000E+02  0.51100000000E-03 0. -1.
    9900012    2    1    2    0    0 -0.14397406871E+02  0.97189981257E+01 -0.26739066868E+02  0.59301922378E+02  0.49999960515E+02 0.  0.
        -12    1    1    2    0    0  0.14397406871E+02 -0.97189981257E+01  0.26739066868E+02  0.31886077622E+02  0.00000000000E+00 0.  1.
         11    1    3    3    0    0 -0.12445321747E+02 -0.85733027407E+01 -0.25835156173E+02  0.29930633940E+02  0.51100000000E-03 0. -1.
        -11    1    3    3    0    0  0.94031914351E+01  0.26418944922E+01  0.15171284926E+01  0.98843965318E+01  0.51100000000E-03 0.  1.
        -12    1    3    3    0    0 -0.11355276559E+02  0.15650406374E+02 -0.24210391870E+01  0.19486891906E+02  0.00000000000E+00 0.  1.
</event>
<event>
 7    1  0.1221195E-011  0.5930194E+02  0.7816164E-02  0.1266605E+00
        -11   -1    0    0    0    0  0.00000000000E+00  0.00000000000E+00  0.45593999997E+02  0.45594000000E+02  0.51100000000E-03 0. -1.
         11   -1    0    0    0    0 -0.00000000000E+00 -0.00000000000E+00 -0.45593999997E+02  0.45594000000E+02  0.51100000000E-03 0.  1.
    9900012    2    1    2    0    0 -0.13777778933E+02 -0.13326041452E+02  0.25481564432E+02  0.59301941934E+02  0.49999996182E+02 0.  0.
        -12    1    1    2    0    0  0.13777778933E+02  0.13326041452E+02 -0.25481564432E+02  0.31886058066E+02  0.00000000000E+00 0.  1.
         11    1    3    3    0    0  0.12257246917E+02  0.39518924669E+01  0.19412125240E+02  0.23295668324E+02  0.51100000000E-03 0. -1.
        -11    1    3    3    0    0 -0.13435462465E+02  0.51803245526E+00  0.43598353544E+01  0.14134644454E+02  0.51100000000E-03 0.  1.
        -12    1    3    3    0    0 -0.12599563385E+02 -0.17795966374E+02  0.17096038375E+01  0.21871629156E+02  0.00000000000E+00 0.  1.
</event>
<event>
 7    1  0.1221195E-011  0.5930195E+02  0.7816164E-02  0.1266605E+00
        -11   -1    0    0    0    0  0.00000000000E+00  0.00000000000E+00  0.45593999997E+02  0.45594000000E+02  0.51100000000E-03 0.  1.
         11   -1    0    0    0    0 -0.00000000000E+00 -0.00000000000E+00 -0.45593999997E+02  0.45594000000E+02  0.51100000000E-03 0. -1.
    9900012    2    1    2    0    0  0.37739212540E+01  0.16017223165E+02 -0.27311656236E+02  0.59301945276E+02  0.50000002276E+02 0.  0.
        -12    1    1    2    0    0 -0.37739212540E+01 -0.16017223165E+02  0.27311656236E+02  0.31886054724E+02  0.00000000000E+00 0.  1.
         11    1    3    3    0    0  0.51897308129E+01 -0.13189499414E+02 -0.66243349983E+01  0.15645383189E+02  0.51100000000E-03 0. -1.
        -11    1    3    3    0    0  0.62805372959E+01  0.14920656801E+02  0.13999454883E+01  0.16249030609E+02  0.51100000000E-03 0.  1.
         12    1    3    3    0    0 -0.76963468548E+01  0.14286065778E+02 -0.22087266726E+02  0.27407531478E+02  0.00000000000E+00 0. -1.
</event>
<event>
 7    1  0.1221195E-011  0.5930193E+02  0.7816164E-02  0.1266605E+00
        -11   -1    0    0    0    0  0.00000000000E+00  0.00000000000E+00  0.45593999997E+02  0.45594000000E+02  0.51100000000E-03 0.  1.
         11   -1    0    0    0    0 -0.00000000000E+00 -0.00000000000E+00 -0.45593999997E+02  0.45594000000E+02  0.51100000000E-03 0. -1.
    9900012    2    1    2    0    0 -0.18375508459E+02  0.11638830058E+01 -0.26032811441E+02  0.59301933980E+02  0.49999981675E+02 0.  0.
        -12    1    1    2    0    0  0.18375508459E+02 -0.11638830058E+01  0.26032811441E+02  0.31886066020E+02  0.00000000000E+00 0.  1.
         11    1    3    3    0    0  0.82252909262E+01 -0.71892079412E+01 -0.67434891268E+00  0.10945084210E+02  0.51100000000E-03 0.  1.
        -11    1    3    3    0    0 -0.91095443151E+01 -0.17109339009E+01 -0.26570315628E+02  0.28140589285E+02  0.51100000000E-03 0. -1.
         12    1    3    3    0    0 -0.17491255070E+02  0.10064024848E+02  0.12118531006E+01  0.20216260485E+02  0.00000000000E+00 0. -1.
</event>
<event>
 7    1  0.1221195E-011  0.5930196E+02  0.7816164E-02  0.1266605E+00
        -11   -1    0    0    0    0  0.00000000000E+00  0.00000000000E+00  0.45593999997E+02  0.45594000000E+02  0.51100000000E-03 0.  1.
         11   -1    0    0    0    0 -0.00000000000E+00 -0.00000000000E+00 -0.45593999997E+02  0.45594000000E+02  0.51100000000E-03 0. -1.
    9900012    2    1    2    0    0  0.61704899742E+00  0.15372785865E+02 -0.27928776084E+02  0.59301955588E+02  0.50000021082E+02 0.  0.
        -12    1    1    2    0    0 -0.61704899742E+00 -0.15372785865E+02  0.27928776084E+02  0.31886044412E+02  0.00000000000E+00 0.  1.
         11    1    3    3    0    0  0.97829748008E+01  0.15361004018E+01 -0.34397866458E+02  0.35794963578E+02  0.51100000000E-03 0. -1.
        -11    1    3    3    0    0 -0.63514113028E+00  0.91532238175E+01 -0.32684906995E+01  0.97400175679E+01  0.51100000000E-03 0.  1.
        -12    1    3    3    0    0 -0.85307846731E+01  0.46834616457E+01  0.97375810734E+01  0.13766974442E+02  0.00000000000E+00 0.  1.
</event>
<event>
 7    1  0.1221195E-011  0.5930194E+02  0.7816164E-02  0.1266605E+00
        -11   -1    0    0    0    0  0.00000000000E+00  0.00000000000E+00  0.45593999997E+02  0.45594000000E+02  0.51100000000E-03 0.  1.
         11   -1    0    0    0    0 -0.00000000000E+00 -0.00000000000E+00 -0.45593999997E+02  0.45594000000E+02  0.51100000000E-03 0. -1.
    9900012    2    1    2    0    0  0.14899581664E+02 -0.14069794223E+02 -0.24428756213E+02  0.59301940768E+02  0.49999994054E+02 0.  0.
        -12    1    1    2    0    0 -0.14899581664E+02  0.14069794223E+02  0.24428756213E+02  0.31886059232E+02  0.00000000000E+00 0.  1.
         11    1    3    3    0    0  0.58344785663E+01 -0.56245119093E+01 -0.86082310259E+01  0.11822771080E+02  0.51100000000E-03 0. -1.
        -11    1    3    3    0    0  0.22596677039E+02  0.56601675893E+01 -0.16824283214E+01  0.23355467789E+02  0.51100000000E-03 0.  1.
        -12    1    3    3    0    0 -0.13531573941E+02 -0.14105449903E+02 -0.14138096866E+02  0.24123701898E+02  0.00000000000E+00 0.  1.
</event>
<event>
 7    1  0.1221195E-011  0.5930194E+02  0.7816164E-02  0.1266605E+00
        -11   -1    0    0    0    0  0.00000000000E+00  0.00000000000E+00  0.45593999997E+02  0.45594000000E+02  0.51100000000E-03 0.  1.
         11   -1    0    0    0    0 -0.00000000000E+00 -0.00000000000E+00 -0.45593999997E+02  0.45594000000E+02  0.51100000000E-03 0. -1.
    9900012    2    1    2    0    0 -0.85432210209E+00  0.11485932398E+02 -0.29733215725E+02  0.59301943068E+02  0.49999998249E+02 0.  0.
        -12    1    1    2    0    0  0.85432210209E+00 -0.11485932398E+02  0.29733215725E+02  0.31886056932E+02  0.00000000000E+00 0.  1.
         11    1    3    3    0    0  0.27147026433E+01 -0.64491604547E+01 -0.28383778001E+02  0.29233544685E+02  0.51100000000E-03 0. -1.
        -11    1    3    3    0    0  0.12216371651E+01  0.47709560460E+01 -0.11671192779E+02  0.12667721188E+02  0.51100000000E-03 0.  1.
        -12    1    3    3    0    0 -0.47906619105E+01  0.13164136807E+02  0.10321755054E+02  0.17400677194E+02  0.00000000000E+00 0.  1.
</event>
<event>
 7    1  0.1221195E-011  0.5930199E+02  0.7816164E-02  0.1266605E+00
        -11   -1    0    0    0    0  0.00000000000E+00  0.00000000000E+00  0.45593999997E+02  0.45594000000E+02  0.51100000000E-03 0. -1.
         11   -1    0    0    0    0 -0.00000000000E+00 -0.00000000000E+00 -0.45593999997E+02  0.45594000000E+02  0.51100000000E-03 0.  1.
    9900012    2    1    2    0    0  0.21732869917E+02 -0.90758495754E+00  0.23314720759E+02  0.59301991323E+02  0.50000086255E+02 0.  0.
        -12    1    1    2    0    0 -0.21732869917E+02  0.90758495754E+00 -0.23314720759E+02  0.31886008677E+02  0.00000000000E+00 0.  1.
         11    1    3    3    0    0  0.27237415251E+02 -0.14410758726E+02  0.95926572892E+01  0.32273299037E+02  0.51100000000E-03 0. -1.
        -11    1    3    3    0    0  0.59989992714E+01  0.46881621416E+01  0.87878885796E+00  0.76641455259E+01  0.51100000000E-03 0.  1.
        -12    1    3    3    0    0 -0.11503544605E+02  0.88150116267E+01  0.12843274612E+02  0.19364546760E+02  0.00000000000E+00 0.  1.
</event>
<event>
 7    1  0.1221195E-011  0.5930195E+02  0.7816164E-02  0.1266605E+00
        -11   -1    0    0    0    0  0.00000000000E+00  0.00000000000E+00  0.45593999997E+02  0.45594000000E+02  0.51100000000E-03 0.  1.
         11   -1    0    0    0    0 -0.00000000000E+00 -0.00000000000E+00 -0.45593999997E+02  0.45594000000E+02  0.51100000000E-03 0. -1.
    9900012    2    1    2    0    0 -0.20633640158E+01 -0.25431048091E+02 -0.19123923588E+02  0.59301950834E+02  0.50000012412E+02 0.  0.
        -12    1    1    2    0    0  0.20633640158E+01  0.25431048091E+02  0.19123923588E+02  0.31886049166E+02  0.00000000000E+00 0.  1.
         11    1    3    3    0    0 -0.99776163481E+01 -0.35268390884E+01 -0.97634943518E+01  0.14398515346E+02  0.51100000000E-03 0. -1.
        -11    1    3    3    0    0 -0.12786095418E+02 -0.59796915390E+00  0.22733433171E+01  0.13000380504E+02  0.51100000000E-03 0.  1.
        -12    1    3    3    0    0  0.20700347751E+02 -0.21306239848E+02 -0.11633772553E+02  0.31903054984E+02  0.00000000000E+00 0.  1.
</event>
<event>
 7    1  0.1221195E-011  0.5930194E+02  0.7816164E-02  0.1266605E+00
        -11   -1    0    0    0    0  0.00000000000E+00  0.00000000000E+00  0.45593999997E+02  0.45594000000E+02  0.51100000000E-03 0. -1.
         11   -1    0    0    0    0 -0.00000000000E+00 -0.00000000000E+00 -0.45593999997E+02  0.45594000000E+02  0.51100000000E-03 0.  1.
    9900012    2    1    2    0    0 -0.30754676753E+02  0.81305055209E+01  0.21830044085E+01  0.59301940813E+02  0.49999994137E+02 0.  0.
        -12    1    1    2    0    0  0.30754676753E+02 -0.81305055209E+01 -0.21830044085E+01  0.31886059187E+02  0.00000000000E+00 0.  1.
         11    1    3    3    0    0 -0.20574422131E+02  0.87869016915E+01  0.57713053022E+01  0.23104641363E+02  0.51100000000E-03 0. -1.
        -11    1    3    3    0    0 -0.17259899133E+02 -0.31500004017E+01 -0.14631101948E+02  0.22845038085E+02  0.51100000000E-03 0.  1.
         12    1    3    3    0    0  0.70796445101E+01  0.24936042311E+01  0.11042801055E+02  0.13352261366E+02  0.00000000000E+00 0. -1.
</event>
<event>
 7    1  0.1221195E-011  0.5930192E+02  0.7816164E-02  0.1266605E+00
        -11   -1    0    0    0    0  0.00000000000E+00  0.00000000000E+00  0.45593999997E+02  0.45594000000E+02  0.51100000000E-03 0. -1.
         11   -1    0    0    0    0 -0.00000000000E+00 -0.00000000000E+00 -0.45593999997E+02  0.45594000000E+02  0.51100000000E-03 0.  1.
    9900012    2    1    2    0    0  0.11293411549E+02  0.21511512004E+02 -0.20650316690E+02  0.59301923532E+02  0.49999962621E+02 0.  0.
        -12    1    1    2    0    0 -0.11293411549E+02 -0.21511512004E+02  0.20650316690E+02  0.31886076468E+02  0.00000000000E+00 0.  1.
         11    1    3    3    0    0  0.13635581973E+02 -0.45327381334E+01 -0.67856965680E+01  0.15890893270E+02  0.51100000000E-03 0. -1.
        -11    1    3    3    0    0  0.12903997332E+02  0.26508740106E+01 -0.53531267756E+01  0.14219572662E+02  0.51100000000E-03 0.  1.
        -12    1    3    3    0    0 -0.15246167756E+02  0.23393376127E+02 -0.85114933463E+01  0.29191457600E+02  0.00000000000E+00 0.  1.
</event>
<event>
 7    1  0.1221195E-011  0.5930196E+02  0.7816164E-02  0.1266605E+00
        -11   -1    0    0    0    0  0.00000000000E+00  0.00000000000E+00  0.45593999997E+02  0.45594000000E+02  0.51100000000E-03 0.  1.
         11   -1    0    0    0    0 -0.00000000000E+00 -0.00000000000E+00 -0.45593999997E+02  0.45594000000E+02  0.51100000000E-03 0. -1.
    9900012    2    1    2    0    0 -0.24092159651E+02 -0.18997701366E+02 -0.86818727684E+01  0.59301957150E+02  0.50000023932E+02 0.  0.
        -12    1    1    2    0    0  0.24092159651E+02  0.18997701366E+02  0.86818727684E+01  0.31886042850E+02  0.00000000000E+00 0.  1.
         11    1    3    3    0    0 -0.45389241425E+00 -0.18157141278E+02 -0.93735185368E+01  0.20438949281E+02  0.51100000000E-03 0. -1.
        -11    1    3    3    0    0 -0.19112749188E+02 -0.31729244193E+01  0.14465191589E+02  0.24178635174E+02  0.51100000000E-03 0.  1.
         12    1    3    3    0    0 -0.45255180484E+01  0.23323643309E+01 -0.13773545820E+02  0.14684372695E+02  0.00000000000E+00 0. -1.
</event>
<event>
 7    1  0.1221195E-011  0.5930191E+02  0.7816164E-02  0.1266605E+00
        -11   -1    0    0    0    0  0.00000000000E+00  0.00000000000E+00  0.45593999997E+02  0.45594000000E+02  0.51100000000E-03 0.  1.
         11   -1    0    0    0    0 -0.00000000000E+00 -0.00000000000E+00 -0.45593999997E+02  0.45594000000E+02  0.51100000000E-03 0. -1.
    9900012    2    1    2    0    0  0.12156468871E+01 -0.12471077854E+02 -0.29320934052E+02  0.59301909711E+02  0.49999937415E+02 0.  0.
        -12    1    1    2    0    0 -0.12156468871E+01  0.12471077854E+02  0.29320934052E+02  0.31886090289E+02  0.00000000000E+00 0.  1.
         11    1    3    3    0    0 -0.11439029709E+02 -0.81794662252E+01  0.80802487689E+01  0.16218677161E+02  0.51100000000E-03 0. -1.
        -11    1    3    3    0    0  0.15167388767E+01  0.20583540020E+01  0.88637503265E+00  0.27061003265E+01  0.51100000000E-03 0.  1.
         12    1    3    3    0    0  0.11137937720E+02 -0.63499656313E+01 -0.38287557854E+02  0.40377132224E+02  0.00000000000E+00 0. -1.
</event>
<event>
 7    1  0.1221195E-011  0.5930195E+02  0.7816164E-02  0.1266605E+00
        -11   -1    0    0    0    0  0.00000000000E+00  0.00000000000E+00  0.45593999997E+02  0.45594000000E+02  0.51100000000E-03 0. -1.
         11   -1    0    0    0    0 -0.00000000000E+00 -0.00000000000E+00 -0.45593999997E+02  0.45594000000E+02  0.51100000000E-03 0.  1.
    9900012    2    1    2    0    0 -0.18326281816E+02 -0.24952237132E+02  0.76324046993E+01  0.59301947491E+02  0.50000006316E+02 0.  0.
        -12    1    1    2    0    0  0.18326281816E+02  0.24952237132E+02 -0.76324046993E+01  0.31886052509E+02  0.00000000000E+00 0.  1.
         11    1    3    3    0    0 -0.21073192662E+01 -0.13973129585E+02  0.15401349191E+02  0.20901930582E+02  0.51100000000E-03 0.  1.
        -11    1    3    3    0    0 -0.12668683334E+01 -0.10979846895E+02  0.10188783651E+02  0.15032408515E+02  0.51100000000E-03 0. -1.
        -12    1    3    3    0    0 -0.14952094217E+02  0.73934788167E-03 -0.17957728143E+02  0.23367608394E+02  0.00000000000E+00 0.  1.
</event>
<event>
 7    1  0.1221195E-011  0.5930197E+02  0.7816164E-02  0.1266605E+00
        -11   -1    0    0    0    0  0.00000000000E+00  0.00000000000E+00  0.45593999997E+02  0.45594000000E+02  0.51100000000E-03 0.  1.
         11   -1    0    0    0    0 -0.00000000000E+00 -0.00000000000E+00 -0.45593999997E+02  0.45594000000E+02  0.51100000000E-03 0. -1.
    9900012    2    1    2    0    0  0.15468308659E+02  0.11370203866E+02 -0.25459161490E+02  0.59301968379E+02  0.50000044411E+02 0.  0.
        -12    1    1    2    0    0 -0.15468308659E+02 -0.11370203866E+02  0.25459161490E+02  0.31886031621E+02  0.00000000000E+00 0.  1.
         11    1    3    3    0    0  0.25726808064E+01  0.18810916008E+02 -0.30508796690E+01  0.19229589559E+02  0.51100000000E-03 0. -1.
        -11    1    3    3    0    0 -0.84024877709E+01 -0.83334864312E+01 -0.67633462413E+01  0.13630541056E+02  0.51100000000E-03 0.  1.
        -12    1    3    3    0    0  0.21298115624E+02  0.89277428940E+00 -0.15644935580E+02  0.26441837764E+02  0.00000000000E+00 0.  1.
</event>
<event>
 7    1  0.1221195E-011  0.5930194E+02  0.7816164E-02  0.1266605E+00
        -11   -1    0    0    0    0  0.00000000000E+00  0.00000000000E+00  0.45593999997E+02  0.45594000000E+02  0.51100000000E-03 0.  1.
         11   -1    0    0    0    0 -0.00000000000E+00 -0.00000000000E+00 -0.45593999997E+02  0.45594000000E+02  0.51100000000E-03 0. -1.
    9900012    2    1    2    0    0  0.14863656795E+02 -0.24335363614E+02 -0.14268238467E+02  0.59301939653E+02  0.49999992021E+02 0.  0.
        -12    1    1    2    0    0 -0.14863656795E+02  0.24335363614E+02  0.14268238467E+02  0.31886060347E+02  0.00000000000E+00 0.  1.
         11    1    3    3    0    0  0.53609172122E+00 -0.34731235231E+01  0.79609437923E+01  0.87021036345E+01  0.51100000000E-03 0. -1.
        -11    1    3    3    0    0 -0.26570104671E+01  0.97285134021E+01 -0.23409750834E+01  0.10352962969E+02  0.51100000000E-03 0.  1.
         12    1    3    3    0    0  0.16984575541E+02 -0.30590753493E+02 -0.19888207176E+02  0.40246873049E+02  0.00000000000E+00 0. -1.
</event>
<event>
 7    1  0.1221195E-011  0.5930193E+02  0.7816164E-02  0.1266605E+00
        -11   -1    0    0    0    0  0.00000000000E+00  0.00000000000E+00  0.45593999997E+02  0.45594000000E+02  0.51100000000E-03 0.  1.
         11   -1    0    0    0    0 -0.00000000000E+00 -0.00000000000E+00 -0.45593999997E+02  0.45594000000E+02  0.51100000000E-03 0. -1.
    9900012    2    1    2    0    0 -0.20260714165E+02 -0.34471414365E+01 -0.24379134541E+02  0.59301929005E+02  0.49999972602E+02 0.  0.
        -12    1    1    2    0    0  0.20260714165E+02  0.34471414365E+01  0.24379134541E+02  0.31886070995E+02  0.00000000000E+00 0.  1.
         11    1    3    3    0    0  0.48754230870E+01  0.46715416092E+01 -0.57787910000E+01  0.88874899137E+01  0.51100000000E-03 0. -1.
        -11    1    3    3    0    0  0.66960435373E+01 -0.11044519170E+02  0.93803103729E+00  0.12949838039E+02  0.51100000000E-03 0.  1.
         12    1    3    3    0    0 -0.31832180789E+02  0.29258361245E+01 -0.19538374578E+02  0.37464601052E+02  0.00000000000E+00 0. -1.
</event>
<event>
 7    1  0.1221195E-011  0.5930193E+02  0.7816164E-02  0.1266605E+00
        -11   -1    0    0    0    0  0.00000000000E+00  0.00000000000E+00  0.45593999997E+02  0.45594000000E+02  0.51100000000E-03 0.  1.
         11   -1    0    0    0    0 -0.00000000000E+00 -0.00000000000E+00 -0.45593999997E+02  0.45594000000E+02  0.51100000000E-03 0. -1.
    9900012    2    1    2    0    0  0.11681350327E+01 -0.17222710804E+02 -0.26809237163E+02  0.59301929308E+02  0.49999973155E+02 0.  0.
        -12    1    1    2    0    0 -0.11681350327E+01  0.17222710804E+02  0.26809237163E+02  0.31886070692E+02  0.00000000000E+00 0.  1.
         11    1    3    3    0    0  0.39010024744E+01  0.30819699500E+01 -0.12636957823E+02  0.13579729834E+02  0.51100000000E-03 0. -1.
        -11    1    3    3    0    0  0.26662402823E+01  0.10205803929E+02  0.20533642761E+01  0.10746328498E+02  0.51100000000E-03 0.  1.
         12    1    3    3    0    0 -0.53991077239E+01 -0.30510484683E+02 -0.16225643616E+02  0.34975870977E+02  0.00000000000E+00 0. -1.
</event>
<event>
 7    1  0.1221195E-011  0.5930196E+02  0.7816164E-02  0.1266605E+00
        -11   -1    0    0    0    0  0.00000000000E+00  0.00000000000E+00  0.45593999997E+02  0.45594000000E+02  0.51100000000E-03 0.  1.
         11   -1    0    0    0    0 -0.00000000000E+00 -0.00000000000E+00 -0.45593999997E+02  0.45594000000E+02  0.51100000000E-03 0. -1.
    9900012    2    1    2    0    0  0.80445330457E+01 -0.17501112279E+02 -0.25410947902E+02  0.59301957345E+02  0.50000024287E+02 0.  0.
        -12    1    1    2    0    0 -0.80445330457E+01  0.17501112279E+02  0.25410947902E+02  0.31886042655E+02  0.00000000000E+00 0.  1.
         11    1    3    3    0    0 -0.54160626673E+01  0.21520165330E+01 -0.31143299332E+00  0.58362574262E+01  0.51100000000E-03 0. -1.
        -11    1    3    3    0    0 -0.19142951953E+01 -0.17780284892E+02  0.58842908763E+01  0.18826256567E+02  0.51100000000E-03 0.  1.
         12    1    3    3    0    0  0.15374890908E+02 -0.18728439203E+01 -0.30983805785E+02  0.34639443352E+02  0.00000000000E+00 0. -1.
</event>
<event>
 7    1  0.1221195E-011  0.5930193E+02  0.7816164E-02  0.1266605E+00
        -11   -1    0    0    0    0  0.00000000000E+00  0.00000000000E+00  0.45593999997E+02  0.45594000000E+02  0.51100000000E-03 0. -1.
         11   -1    0    0    0    0 -0.00000000000E+00 -0.00000000000E+00 -0.45593999997E+02  0.45594000000E+02  0.51100000000E-03 0.  1.
    9900012    2    1    2    0    0 -0.21548509770E+02 -0.14941510822E+02  0.18142068863E+02  0.59301926526E+02  0.49999968081E+02 0.  0.
        -12    1    1    2    0    0  0.21548509770E+02  0.14941510822E+02 -0.18142068863E+02  0.31886073474E+02  0.00000000000E+00 0.  1.
         11    1    3    3    0    0  0.20265577635E+01 -0.17612304189E+02  0.19043435631E+02  0.26018313475E+02  0.51100000000E-03 0. -1.
        -11    1    3    3    0    0 -0.35463871788E+01 -0.66027410872E+01  0.65854004190E+01  0.99770010938E+01  0.51100000000E-03 0.  1.
        -12    1    3    3    0    0 -0.20028680355E+02  0.92735344538E+01 -0.74867671869E+01  0.23306611957E+02  0.00000000000E+00 0.  1.
</event>
<event>
 7    1  0.1221195E-011  0.5930193E+02  0.7816164E-02  0.1266605E+00
        -11   -1    0    0    0    0  0.00000000000E+00  0.00000000000E+00  0.45593999997E+02  0.45594000000E+02  0.51100000000E-03 0.  1.
         11   -1    0    0    0    0 -0.00000000000E+00 -0.00000000000E+00 -0.45593999997E+02  0.45594000000E+02  0.51100000000E-03 0. -1.
    9900012    2    1    2    0    0  0.13671549480E+02  0.18395769103E+02 -0.22167678594E+02  0.59301928428E+02  0.49999971550E+02 0.  0.
        -12    1    1    2    0    0 -0.13671549480E+02 -0.18395769103E+02  0.22167678594E+02  0.31886071572E+02  0.00000000000E+00 0.  1.
         11    1    3    3    0    0  0.15183997749E+02  0.76077046068E+01  0.11357337330E+02  0.20430860690E+02  0.51100000000E-03 0.  1.
        -11    1    3    3    0    0  0.93978684721E+00  0.81900501429E+01 -0.40583042133E+01  0.91885773660E+01  0.51100000000E-03 0. -1.
         12    1    3    3    0    0 -0.24522351158E+01  0.25980143529E+01 -0.29466711711E+02  0.29682490372E+02  0.00000000000E+00 0. -1.
</event>
<event>
 7    1  0.1221195E-011  0.5930200E+02  0.7816164E-02  0.1266605E+00
        -11   -1    0    0    0    0  0.00000000000E+00  0.00000000000E+00  0.45593999997E+02  0.45594000000E+02  0.51100000000E-03 0.  1.
         11   -1    0    0    0    0 -0.00000000000E+00 -0.00000000000E+00 -0.45593999997E+02  0.45594000000E+02  0.51100000000E-03 0. -1.
    9900012    2    1    2    0    0  0.12777408408E+02  0.18710707676E+02 -0.22435774916E+02  0.59302003960E+02  0.50000109302E+02 0.  0.
        -12    1    1    2    0    0 -0.12777408408E+02 -0.18710707676E+02  0.22435774916E+02  0.31885996040E+02  0.00000000000E+00 0.  1.
         11    1    3    3    0    0  0.67031173113E+01  0.75442062254E+01 -0.21102210430E+02  0.23391240124E+02  0.51100000000E-03 0. -1.
        -11    1    3    3    0    0 -0.68764090040E+01 -0.93593378602E+01 -0.24733240693E+00  0.11616513227E+02  0.51100000000E-03 0.  1.
         12    1    3    3    0    0  0.12950700101E+02  0.20525839311E+02 -0.10862320793E+01  0.24294250609E+02  0.00000000000E+00 0. -1.
</event>
<event>
 7    1  0.1221195E-011  0.5930196E+02  0.7816164E-02  0.1266605E+00
        -11   -1    0    0    0    0  0.00000000000E+00  0.00000000000E+00  0.45593999997E+02  0.45594000000E+02  0.51100000000E-03 0.  1.
         11   -1    0    0    0    0 -0.00000000000E+00 -0.00000000000E+00 -0.45593999997E+02  0.45594000000E+02  0.51100000000E-03 0. -1.
    9900012    2    1    2    0    0  0.23350854717E+02 -0.70655505624E+01  0.20531327553E+02  0.59301955532E+02  0.50000020980E+02 0.  0.
        -12    1    1    2    0    0 -0.23350854717E+02  0.70655505624E+01 -0.20531327553E+02  0.31886044468E+02  0.00000000000E+00 0.  1.
         11    1    3    3    0    0 -0.10872110485E+01  0.99694003144E+01  0.46404439012E+01  0.11050099111E+02  0.51100000000E-03 0. -1.
        -11    1    3    3    0    0  0.73664133254E+01 -0.40582085869E+00  0.22369640971E+02  0.23554820595E+02  0.51100000000E-03 0.  1.
        -12    1    3    3    0    0  0.17071652440E+02 -0.16629130018E+02 -0.64787573190E+01  0.24697035826E+02  0.00000000000E+00 0.  1.
</event>
<event>
 7    1  0.1221195E-011  0.5930204E+02  0.7816164E-02  0.1266604E+00
        -11   -1    0    0    0    0  0.00000000000E+00  0.00000000000E+00  0.45593999997E+02  0.45594000000E+02  0.51100000000E-03 0.  1.
         11   -1    0    0    0    0 -0.00000000000E+00 -0.00000000000E+00 -0.45593999997E+02  0.45594000000E+02  0.51100000000E-03 0. -1.
    9900012    2    1    2    0    0 -0.21697898287E+02  0.19338506124E+02  0.13112504176E+02  0.59302041100E+02  0.50000177037E+02 0.  0.
        -12    1    1    2    0    0  0.21697898287E+02 -0.19338506124E+02 -0.13112504176E+02  0.31885958900E+02  0.00000000000E+00 0.  1.
         11    1    3    3    0    0 -0.21827402635E+02  0.52567630906E+01  0.12512815696E+02  0.25702910747E+02  0.51100000000E-03 0.  1.
        -11    1    3    3    0    0 -0.19336125025E+01 -0.11755950513E+01 -0.12915637307E+02  0.13112382253E+02  0.51100000000E-03 0. -1.
        -12    1    3    3    0    0  0.20631168505E+01  0.15257338085E+02  0.13515325787E+02  0.20486748100E+02  0.00000000000E+00 0.  1.
</event>
<event>
 7    1  0.1221195E-011  0.5930194E+02  0.7816164E-02  0.1266605E+00
        -11   -1    0    0    0    0  0.00000000000E+00  0.00000000000E+00  0.45593999997E+02  0.45594000000E+02  0.51100000000E-03 0.  1.
         11   -1    0    0    0    0 -0.00000000000E+00 -0.00000000000E+00 -0.45593999997E+02  0.45594000000E+02  0.51100000000E-03 0. -1.
    9900012    2    1    2    0    0  0.23697056084E+02 -0.14089642346E+02 -0.16020367873E+02  0.59301942306E+02  0.49999996860E+02 0.  0.
        -12    1    1    2    0    0 -0.23697056084E+02  0.14089642346E+02  0.16020367873E+02  0.31886057694E+02  0.00000000000E+00 0.  1.
         11    1    3    3    0    0  0.11975078172E+02  0.15783799763E+02 -0.14147958915E+02  0.24345339881E+02  0.51100000000E-03 0. -1.
        -11    1    3    3    0    0  0.45165715017E+01 -0.36918400760E+00 -0.40799742405E+00  0.45499645186E+01  0.51100000000E-03 0.  1.
        -12    1    3    3    0    0  0.72054064105E+01 -0.29504258101E+02 -0.14644115345E+01  0.30406637907E+02  0.00000000000E+00 0.  1.
</event>
<event>
 7    1  0.1221195E-011  0.5930197E+02  0.7816164E-02  0.1266605E+00
        -11   -1    0    0    0    0  0.00000000000E+00  0.00000000000E+00  0.45593999997E+02  0.45594000000E+02  0.51100000000E-03 0.  1.
         11   -1    0    0    0    0 -0.00000000000E+00 -0.00000000000E+00 -0.45593999997E+02  0.45594000000E+02  0.51100000000E-03 0. -1.
    9900012    2    1    2    0    0  0.10534987298E+01 -0.20331272785E+02 -0.24540753006E+02  0.59301967466E+02  0.50000042747E+02 0.  0.
        -12    1    1    2    0    0 -0.10534987298E+01  0.20331272785E+02  0.24540753006E+02  0.31886032534E+02  0.00000000000E+00 0.  1.
         11    1    3    3    0    0  0.25640373747E+00  0.69291121822E+01  0.26993690103E+01  0.74407615084E+01  0.51100000000E-03 0. -1.
        -11    1    3    3    0    0  0.17386683826E+02 -0.97966845877E+01 -0.10725832111E+02  0.22656462171E+02  0.51100000000E-03 0.  1.
         12    1    3    3    0    0 -0.16589588833E+02 -0.17463700380E+02 -0.16514289905E+02  0.29204743787E+02  0.00000000000E+00 0. -1.
</event>
<event>
 7    1  0.1221195E-011  0.5930191E+02  0.7816164E-02  0.1266605E+00
        -11   -1    0    0    0    0  0.00000000000E+00  0.00000000000E+00  0.45593999997E+02  0.45594000000E+02  0.51100000000E-03 0. -1.
         11   -1    0    0    0    0 -0.00000000000E+00 -0.00000000000E+00 -0.45593999997E+02  0.45594000000E+02  0.51100000000E-03 0.  1.
    9900012    2    1    2    0    0  0.26761491146E+01 -0.31768733547E+02  0.55573110185E+00  0.59301905188E+02  0.49999929166E+02 0.  0.
        -12    1    1    2    0    0 -0.26761491146E+01  0.31768733547E+02 -0.55573110185E+00  0.31886094812E+02  0.00000000000E+00 0.  1.
         11    1    3    3    0    0 -0.77533477255E+01 -0.19300335562E+02 -0.12549657242E+02  0.24292205559E+02  0.51100000000E-03 0.  1.
        -11    1    3    3    0    0  0.14873655995E+02 -0.11114788204E+02 -0.24927628907E+01  0.18734407559E+02  0.51100000000E-03 0. -1.
         12    1    3    3    0    0 -0.44441591550E+01 -0.13536097815E+01  0.15598151235E+02  0.16275292071E+02  0.00000000000E+00 0. -1.
</event>
<event>
 7    1  0.1221195E-011  0.5930195E+02  0.7816164E-02  0.1266605E+00
        -11   -1    0    0    0    0  0.00000000000E+00  0.00000000000E+00  0.45593999997E+02  0.45594000000E+02  0.51100000000E-03 0.  1.
         11   -1    0    0    0    0 -0.00000000000E+00 -0.00000000000E+00 -0.45593999997E+02  0.45594000000E+02  0.51100000000E-03 0. -1.
    9900012    2    1    2    0    0 -0.23237640470E+02 -0.19080677118E+02 -0.10614135517E+02  0.59301952163E+02  0.50000014837E+02 0.  0.
        -12    1    1    2    0    0  0.23237640470E+02  0.19080677118E+02  0.10614135517E+02  0.31886047837E+02  0.00000000000E+00 0.  1.
         11    1    3    3    0    0 -0.10930925698E+02 -0.11530633987E+02  0.41423590617E+01  0.16419494378E+02  0.51100000000E-03 0. -1.
        -11    1    3    3    0    0  0.26386540396E+01 -0.87963888300E+01  0.10225794017E+02  0.13744301187E+02  0.51100000000E-03 0.  1.
         12    1    3    3    0    0 -0.14945368811E+02  0.12463456987E+01 -0.24982288595E+02  0.29138156598E+02  0.00000000000E+00 0. -1.
</event>
<event>
 7    1  0.1221195E-011  0.5930194E+02  0.7816164E-02  0.1266605E+00
        -11   -1    0    0    0    0  0.00000000000E+00  0.00000000000E+00  0.45593999997E+02  0.45594000000E+02  0.51100000000E-03 0.  1.
         11   -1    0    0    0    0 -0.00000000000E+00 -0.00000000000E+00 -0.45593999997E+02  0.45594000000E+02  0.51100000000E-03 0. -1.
    9900012    2    1    2    0    0 -0.25860695524E+02  0.11674090544E+02  0.14548562206E+02  0.59301943090E+02  0.49999998290E+02 0.  0.
        -12    1    1    2    0    0  0.25860695524E+02 -0.11674090544E+02 -0.14548562206E+02  0.31886056910E+02  0.00000000000E+00 0.  1.
         11    1    3    3    0    0 -0.54753377149E+00  0.60185461545E+01  0.12551787892E+02  0.13930903438E+02  0.51100000000E-03 0.  1.
        -11    1    3    3    0    0  0.64673449082E+01 -0.53318065856E+01  0.75602418049E+01  0.11287690997E+02  0.51100000000E-03 0. -1.
         12    1    3    3    0    0 -0.31780506660E+02  0.10987350975E+02 -0.55634674910E+01  0.34083348655E+02  0.00000000000E+00 0. -1.
</event>
<event>
 7    1  0.1221195E-011  0.5930194E+02  0.7816164E-02  0.1266605E+00
        -11   -1    0    0    0    0  0.00000000000E+00  0.00000000000E+00  0.45593999997E+02  0.45594000000E+02  0.51100000000E-03 0. -1.
         11   -1    0    0    0    0 -0.00000000000E+00 -0.00000000000E+00 -0.45593999997E+02  0.45594000000E+02  0.51100000000E-03 0.  1.
    9900012    2    1    2    0    0  0.13163302793E+01  0.31795063285E+02  0.20154423086E+01  0.59301940626E+02  0.49999993796E+02 0.  0.
        -12    1    1    2    0    0 -0.13163302793E+01 -0.31795063285E+02 -0.20154423086E+01  0.31886059374E+02  0.00000000000E+00 0.  1.
         11    1    3    3    0    0 -0.17502637101E+02  0.20907490013E+02  0.93678007711E+01  0.28830905912E+02  0.51100000000E-03 0. -1.
        -11    1    3    3    0    0  0.16796978665E+02  0.42017622162E+00  0.11403510438E+01  0.16840885995E+02  0.51100000000E-03 0.  1.
        -12    1    3    3    0    0  0.20219887151E+01  0.10467397050E+02 -0.84927095063E+01  0.13630148720E+02  0.00000000000E+00 0.  1.
</event>
<event>
 7    1  0.1221195E-011  0.5930195E+02  0.7816164E-02  0.1266605E+00
        -11   -1    0    0    0    0  0.00000000000E+00  0.00000000000E+00  0.45593999997E+02  0.45594000000E+02  0.51100000000E-03 0. -1.
         11   -1    0    0    0    0 -0.00000000000E+00 -0.00000000000E+00 -0.45593999997E+02  0.45594000000E+02  0.51100000000E-03 0.  1.
    9900012    2    1    2    0    0  0.54244528663E+01 -0.30432442490E+02  0.78206201368E+01  0.59301947498E+02  0.50000006329E+02 0.  0.
        -12    1    1    2    0    0 -0.54244528663E+01  0.30432442490E+02 -0.78206201368E+01  0.31886052502E+02  0.00000000000E+00 0.  1.
         11    1    3    3    0    0 -0.62947261223E+01 -0.15424206384E+02 -0.90401290781E+01  0.18953987801E+02  0.51100000000E-03 0. -1.
        -11    1    3    3    0    0 -0.85737812141E+01 -0.12110475706E+02  0.12474296947E+02  0.19385082685E+02  0.51100000000E-03 0.  1.
         12    1    3    3    0    0  0.20292960203E+02 -0.28977604003E+01  0.43864522679E+01  0.20962877012E+02  0.00000000000E+00 0. -1.
</event>
<event>
 7    1  0.1221195E-011  0.5930198E+02  0.7816164E-02  0.1266605E+00
        -11   -1    0    0    0    0  0.00000000000E+00  0.00000000000E+00  0.45593999997E+02  0.45594000000E+02  0.51100000000E-03 0. -1.
         11   -1    0    0    0    0 -0.00000000000E+00 -0.00000000000E+00 -0.45593999997E+02  0.45594000000E+02  0.51100000000E-03 0.  1.
    9900012    2    1    2    0    0 -0.30429210634E+01  0.20692525567E+01  0.31672969470E+02  0.59301981594E+02  0.50000068511E+02 0.  0.
        -12    1    1    2    0    0  0.30429210634E+01 -0.20692525567E+01 -0.31672969470E+02  0.31886018406E+02  0.00000000000E+00 0.  1.
         11    1    3    3    0    0  0.11468001711E+02 -0.19151410602E+01 -0.66964001265E+00  0.11646082884E+02  0.51100000000E-03 0. -1.
        -11    1    3    3    0    0 -0.18200301875E+02  0.14053686614E+01  0.36543977179E+01  0.18616677264E+02  0.51100000000E-03 0.  1.
         12    1    3    3    0    0  0.36893791003E+01  0.25790249555E+01  0.28688211765E+02  0.29039221445E+02  0.00000000000E+00 0. -1.
</event>
<event>
 7    1  0.1221195E-011  0.5930191E+02  0.7816164E-02  0.1266605E+00
        -11   -1    0    0    0    0  0.00000000000E+00  0.00000000000E+00  0.45593999997E+02  0.45594000000E+02  0.51100000000E-03 0. -1.
         11   -1    0    0    0    0 -0.00000000000E+00 -0.00000000000E+00 -0.45593999997E+02  0.45594000000E+02  0.51100000000E-03 0.  1.
    9900012    2    1    2    0    0 -0.77472464705E+01  0.17640212800E+02  0.25407204769E+02  0.59301906014E+02  0.49999930672E+02 0.  0.
        -12    1    1    2    0    0  0.77472464705E+01 -0.17640212800E+02 -0.25407204769E+02  0.31886093986E+02  0.00000000000E+00 0.  1.
         11    1    3    3    0    0 -0.10528778799E+02  0.61006462072E+01  0.39381759665E+00  0.12174898756E+02  0.51100000000E-03 0. -1.
        -11    1    3    3    0    0  0.89020714980E+01  0.16922162805E+02 -0.17015098276E+01  0.19196395675E+02  0.51100000000E-03 0.  1.
         12    1    3    3    0    0 -0.61205391693E+01 -0.53825962127E+01  0.26714897000E+02  0.27930611584E+02  0.00000000000E+00 0. -1.
</event>
<event>
 7    1  0.1221195E-011  0.5930194E+02  0.7816164E-02  0.1266605E+00
        -11   -1    0    0    0    0  0.00000000000E+00  0.00000000000E+00  0.45593999997E+02  0.45594000000E+02  0.51100000000E-03 0. -1.
         11   -1    0    0    0    0 -0.00000000000E+00 -0.00000000000E+00 -0.45593999997E+02  0.45594000000E+02  0.51100000000E-03 0.  1.
    9900012    2    1    2    0    0 -0.12183443677E+02 -0.15566928687E+02  0.25019100248E+02  0.59301938064E+02  0.49999989124E+02 0.  0.
        -12    1    1    2    0    0  0.12183443677E+02  0.15566928687E+02 -0.25019100248E+02  0.31886061936E+02  0.00000000000E+00 0.  1.
         11    1    3    3    0    0 -0.54088445931E+01 -0.18778634624E+02  0.22014575129E+02  0.29436953588E+02  0.51100000000E-03 0. -1.
        -11    1    3    3    0    0  0.10998287276E+02  0.52463194693E-01 -0.18948262789E+01  0.11160440954E+02  0.51100000000E-03 0.  1.
         12    1    3    3    0    0 -0.17772886360E+02  0.31592427423E+01  0.48993513979E+01  0.18704543523E+02  0.00000000000E+00 0. -1.
</event>
<event>
 7    1  0.1221195E-011  0.5930187E+02  0.7816164E-02  0.1266605E+00
        -11   -1    0    0    0    0  0.00000000000E+00  0.00000000000E+00  0.45593999997E+02  0.45594000000E+02  0.51100000000E-03 0.  1.
         11   -1    0    0    0    0 -0.00000000000E+00 -0.00000000000E+00 -0.45593999997E+02  0.45594000000E+02  0.51100000000E-03 0. -1.
    9900012    2    1    2    0    0  0.19558042820E+02 -0.18278244853E+01 -0.25117078036E+02  0.59301865234E+02  0.49999856299E+02 0.  0.
        -12    1    1    2    0    0 -0.19558042820E+02  0.18278244853E+01  0.25117078036E+02  0.31886134766E+02  0.00000000000E+00 0.  1.
         11    1    3    3    0    0 -0.99550428954E+01 -0.44411424545E+01 -0.32389559179E+01  0.11371783547E+02  0.51100000000E-03 0. -1.
        -11    1    3    3    0    0  0.71172381222E+01 -0.59528817826E+01 -0.22080761920E+02  0.23951031862E+02  0.51100000000E-03 0.  1.
        -12    1    3    3    0    0  0.22395847593E+02  0.85661997519E+01  0.20263980283E+00  0.23979049824E+02  0.00000000000E+00 0.  1.
</event>
<event>
 7    1  0.1221195E-011  0.5930201E+02  0.7816164E-02  0.1266605E+00
        -11   -1    0    0    0    0  0.00000000000E+00  0.00000000000E+00  0.45593999997E+02  0.45594000000E+02  0.51100000000E-03 0. -1.
         11   -1    0    0    0    0 -0.00000000000E+00 -0.00000000000E+00 -0.45593999997E+02  0.45594000000E+02  0.51100000000E-03 0.  1.
    9900012    2    1    2    0    0  0.22367336253E+02  0.59681298408E+01  0.21927155818E+02  0.59302008293E+02  0.50000117205E+02 0.  0.
        -12    1    1    2    0    0 -0.22367336253E+02 -0.59681298408E+01 -0.21927155818E+02  0.31885991707E+02  0.00000000000E+00 0.  1.
         11    1    3    3    0    0  0.17836253461E+02  0.23411936585E+01  0.64418434930E+00  0.18000780511E+02  0.51100000000E-03 0. -1.
        -11    1    3    3    0    0  0.19443998017E+02  0.20231512437E+01  0.16431104039E+02  0.25537098113E+02  0.51100000000E-03 0.  1.
        -12    1    3    3    0    0 -0.14912915226E+02  0.16037849386E+01  0.48518674300E+01  0.15764129669E+02  0.00000000000E+00 0.  1.
</event>
<event>
 7    1  0.1221195E-011  0.5930195E+02  0.7816164E-02  0.1266605E+00
        -11   -1    0    0    0    0  0.00000000000E+00  0.00000000000E+00  0.45593999997E+02  0.45594000000E+02  0.51100000000E-03 0. -1.
         11   -1    0    0    0    0 -0.00000000000E+00 -0.00000000000E+00 -0.45593999997E+02  0.45594000000E+02  0.51100000000E-03 0.  1.
    9900012    2    1    2    0    0  0.11653333590E+02  0.14003660906E+02  0.26169018283E+02  0.59301949439E+02  0.50000009868E+02 0.  0.
        -12    1    1    2    0    0 -0.11653333590E+02 -0.14003660906E+02 -0.26169018283E+02  0.31886050561E+02  0.00000000000E+00 0.  1.
         11    1    3    3    0    0  0.10854305340E+02  0.65472948994E+01  0.20712399400E+02  0.24283461535E+02  0.51100000000E-03 0. -1.
        -11    1    3    3    0    0  0.46768335198E+01 -0.97362333005E+01  0.12067048445E+02  0.16195081633E+02  0.51100000000E-03 0.  1.
         12    1    3    3    0    0 -0.38778052705E+01  0.17192599307E+02 -0.66104295628E+01  0.18823406271E+02  0.00000000000E+00 0. -1.
</event>
<event>
 7    1  0.1221195E-011  0.5930197E+02  0.7816164E-02  0.1266605E+00
        -11   -1    0    0    0    0  0.00000000000E+00  0.00000000000E+00  0.45593999997E+02  0.45594000000E+02  0.51100000000E-03 0.  1.
         11   -1    0    0    0    0 -0.00000000000E+00 -0.00000000000E+00 -0.45593999997E+02  0.45594000000E+02  0.51100000000E-03 0. -1.
    9900012    2    1    2    0    0  0.16206850140E+02 -0.11169992174E+02 -0.25085613784E+02  0.59301972722E+02  0.50000052331E+02 0.  0.
        -12    1    1    2    0    0 -0.16206850140E+02  0.11169992174E+02  0.25085613784E+02  0.31886027278E+02  0.00000000000E+00 0.  1.
         11    1    3    3    0    0 -0.17629876302E+01  0.47607629531E+01  0.66717807347E+01  0.83836536017E+01  0.51100000000E-03 0.  1.
        -11    1    3    3    0    0 -0.59081154206E+00 -0.12231319350E+02 -0.29397533218E+02  0.31846023156E+02  0.51100000000E-03 0. -1.
         12    1    3    3    0    0  0.18560649313E+02 -0.36994357772E+01 -0.23598613015E+01  0.19072295964E+02  0.00000000000E+00 0. -1.
</event>
<event>
 7    1  0.1221195E-011  0.5930194E+02  0.7816164E-02  0.1266605E+00
        -11   -1    0    0    0    0  0.00000000000E+00  0.00000000000E+00  0.45593999997E+02  0.45594000000E+02  0.51100000000E-03 0.  1.
         11   -1    0    0    0    0 -0.00000000000E+00 -0.00000000000E+00 -0.45593999997E+02  0.45594000000E+02  0.51100000000E-03 0. -1.
    9900012    2    1    2    0    0  0.12119660099E+02  0.11017034456E+02 -0.27357988776E+02  0.59301940993E+02  0.49999994466E+02 0.  0.
        -12    1    1    2    0    0 -0.12119660099E+02 -0.11017034456E+02  0.27357988776E+02  0.31886059007E+02  0.00000000000E+00 0.  1.
         11    1    3    3    0    0  0.21976207739E+01  0.45003714275E+00 -0.14081118655E+02  0.14258680631E+02  0.51100000000E-03 0. -1.
        -11    1    3    3    0    0  0.24877294333E+02  0.48519406190E+01 -0.14115024882E+02  0.29011291402E+02  0.51100000000E-03 0.  1.
        -12    1    3    3    0    0 -0.14955255008E+02  0.57150566940E+01  0.83815476121E+00  0.16031968961E+02  0.00000000000E+00 0.  1.
</event>
<event>
 7    1  0.1221195E-011  0.5930190E+02  0.7816164E-02  0.1266605E+00
        -11   -1    0    0    0    0  0.00000000000E+00  0.00000000000E+00  0.45593999997E+02  0.45594000000E+02  0.51100000000E-03 0. -1.
         11   -1    0    0    0    0 -0.00000000000E+00 -0.00000000000E+00 -0.45593999997E+02  0.45594000000E+02  0.51100000000E-03 0.  1.
    9900012    2    1    2    0    0 -0.25110619234E+02 -0.94323735617E+01  0.17239800591E+02  0.59301896542E+02  0.49999913397E+02 0.  0.
        -12    1    1    2    0    0  0.25110619234E+02  0.94323735617E+01 -0.17239800591E+02  0.31886103458E+02  0.00000000000E+00 0.  1.
         11    1    3    3    0    0 -0.13264855562E+01 -0.11154017223E+02 -0.85902033539E+01  0.14140836540E+02  0.51100000000E-03 0. -1.
        -11    1    3    3    0    0 -0.89101711552E+01 -0.87554233257E+01  0.23768332906E+02  0.26851112398E+02  0.51100000000E-03 0.  1.
        -12    1    3    3    0    0 -0.14873962522E+02  0.10477066987E+02  0.20616710392E+01  0.18309947603E+02  0.00000000000E+00 0.  1.
</event>
<event>
 7    1  0.1221195E-011  0.5930193E+02  0.7816164E-02  0.1266605E+00
        -11   -1    0    0    0    0  0.00000000000E+00  0.00000000000E+00  0.45593999997E+02  0.45594000000E+02  0.51100000000E-03 0.  1.
         11   -1    0    0    0    0 -0.00000000000E+00 -0.00000000000E+00 -0.45593999997E+02  0.45594000000E+02  0.51100000000E-03 0. -1.
    9900012    2    1    2    0    0 -0.28649544017E+02 -0.13714858621E+02 -0.27977727150E+01  0.59301933270E+02  0.49999980380E+02 0.  0.
        -12    1    1    2    0    0  0.28649544017E+02  0.13714858621E+02  0.27977727150E+01  0.31886066730E+02  0.00000000000E+00 0.  1.
         11    1    3    3    0    0 -0.64379240608E+01  0.10348224874E+02  0.13235742303E+02  0.17992151034E+02  0.51100000000E-03 0. -1.
        -11    1    3    3    0    0  0.36090155177E+00 -0.78519596340E+01  0.20880037572E+01  0.81328518968E+01  0.51100000000E-03 0.  1.
         12    1    3    3    0    0 -0.22572521508E+02 -0.16211123860E+02 -0.18121518775E+02  0.33176930339E+02  0.00000000000E+00 0. -1.
</event>
<event>
 7    1  0.1221195E-011  0.5930194E+02  0.7816164E-02  0.1266605E+00
        -11   -1    0    0    0    0  0.00000000000E+00  0.00000000000E+00  0.45593999997E+02  0.45594000000E+02  0.51100000000E-03 0.  1.
         11   -1    0    0    0    0 -0.00000000000E+00 -0.00000000000E+00 -0.45593999997E+02  0.45594000000E+02  0.51100000000E-03 0. -1.
    9900012    2    1    2    0    0 -0.21238712702E+02 -0.58994362166E+01 -0.23039844114E+02  0.59301942205E+02  0.49999996676E+02 0.  0.
        -12    1    1    2    0    0  0.21238712702E+02  0.58994362166E+01  0.23039844114E+02  0.31886057795E+02  0.00000000000E+00 0.  1.
         11    1    3    3    0    0  0.43734753167E+01 -0.27667119556E+01 -0.20562283021E+01  0.55686673883E+01  0.51100000000E-03 0. -1.
        -11    1    3    3    0    0 -0.21092859517E+02 -0.19957293099E+02 -0.38384524647E+01  0.29290544345E+02  0.51100000000E-03 0.  1.
         12    1    3    3    0    0 -0.45193285015E+01  0.16824568838E+02 -0.17145163347E+02  0.24442730471E+02  0.00000000000E+00 0. -1.
</event>
<event>
 7    1  0.1221195E-011  0.5930221E+02  0.7816164E-02  0.1266604E+00
        -11   -1    0    0    0    0  0.00000000000E+00  0.00000000000E+00  0.45593999997E+02  0.45594000000E+02  0.51100000000E-03 0.  1.
         11   -1    0    0    0    0 -0.00000000000E+00 -0.00000000000E+00 -0.45593999997E+02  0.45594000000E+02  0.51100000000E-03 0. -1.
    9900012    2    1    2    0    0 -0.32902066998E+01  0.20448066236E+02 -0.24243649805E+02  0.59302212746E+02  0.50000490076E+02 0.  0.
        -12    1    1    2    0    0  0.32902066998E+01 -0.20448066236E+02  0.24243649805E+02  0.31885787254E+02  0.00000000000E+00 0.  1.
         11    1    3    3    0    0 -0.85953981390E+01  0.18255582631E+02 -0.76323402479E+01  0.21573126437E+02  0.51100000000E-03 0. -1.
        -11    1    3    3    0    0  0.51854975132E+01  0.13294398393E+02 -0.21331796188E+02  0.25664682775E+02  0.51100000000E-03 0.  1.
        -12    1    3    3    0    0  0.11969392599E+00 -0.11101914788E+02  0.47204866301E+01  0.12064403534E+02  0.00000000000E+00 0.  1.
</event>
<event>
 7    1  0.1221195E-011  0.5930194E+02  0.7816164E-02  0.1266605E+00
        -11   -1    0    0    0    0  0.00000000000E+00  0.00000000000E+00  0.45593999997E+02  0.45594000000E+02  0.51100000000E-03 0. -1.
         11   -1    0    0    0    0 -0.00000000000E+00 -0.00000000000E+00 -0.45593999997E+02  0.45594000000E+02  0.51100000000E-03 0.  1.
    9900012    2    1    2    0    0 -0.23246854406E+02  0.45729002050E+01  0.21339940136E+02  0.59301941901E+02  0.49999996122E+02 0.  0.
        -12    1    1    2    0    0  0.23246854406E+02 -0.45729002050E+01 -0.21339940136E+02  0.31886058099E+02  0.00000000000E+00 0.  1.
         11    1    3    3    0    0 -0.18899088500E+02 -0.78583500320E+01  0.50501915522E+01  0.21081594967E+02  0.51100000000E-03 0. -1.
        -11    1    3    3    0    0  0.42865896711E+01 -0.43927024405E+00  0.21455292594E+02  0.21883724315E+02  0.51100000000E-03 0.  1.
        -12    1    3    3    0    0 -0.86343555767E+01  0.12870520481E+02 -0.51655440101E+01  0.16336622619E+02  0.00000000000E+00 0.  1.
</event>
<event>
 7    1  0.1221195E-011  0.5930200E+02  0.7816164E-02  0.1266605E+00
        -11   -1    0    0    0    0  0.00000000000E+00  0.00000000000E+00  0.45593999997E+02  0.45594000000E+02  0.51100000000E-03 0.  1.
         11   -1    0    0    0    0 -0.00000000000E+00 -0.00000000000E+00 -0.45593999997E+02  0.45594000000E+02  0.51100000000E-03 0. -1.
    9900012    2    1    2    0    0  0.13055128124E+01 -0.89717892948E+01 -0.30569911275E+02  0.59302002411E+02  0.50000106477E+02 0.  0.
        -12    1    1    2    0    0 -0.13055128124E+01  0.89717892948E+01  0.30569911275E+02  0.31885997589E+02  0.00000000000E+00 0.  1.
         11    1    3    3    0    0 -0.50975566305E+01  0.94208719802E+01  0.54144756710E+01  0.12002268932E+02  0.51100000000E-03 0. -1.
        -11    1    3    3    0    0 -0.47115282582E+01 -0.31507573534E+01  0.10251520584E+01  0.57599225196E+01  0.51100000000E-03 0.  1.
         12    1    3    3    0    0  0.11114597701E+02 -0.15241903922E+02 -0.37009539005E+02  0.41539810959E+02  0.00000000000E+00 0. -1.
</event>
<event>
 7    1  0.1221195E-011  0.5930196E+02  0.7816164E-02  0.1266605E+00
        -11   -1    0    0    0    0  0.00000000000E+00  0.00000000000E+00  0.45593999997E+02  0.45594000000E+02  0.51100000000E-03 0. -1.
         11   -1    0    0    0    0 -0.00000000000E+00 -0.00000000000E+00 -0.45593999997E+02  0.45594000000E+02  0.51100000000E-03 0.  1.
    9900012    2    1    2    0    0  0.17727306185E+02 -0.75101800418E+01  0.25417700597E+02  0.59301957717E+02  0.50000024966E+02 0.  0.
        -12    1    1    2    0    0 -0.17727306185E+02  0.75101800418E+01 -0.25417700597E+02  0.31886042283E+02  0.00000000000E+00 0.  1.
         11    1    3    3    0    0  0.37859560379E+01  0.17663743257E+02  0.10886965783E+02  0.21091877896E+02  0.51100000000E-03 0. -1.
        -11    1    3    3    0    0 -0.32182957436E+01 -0.19573439747E+01 -0.26585322095E+01  0.46104681648E+01  0.51100000000E-03 0.  1.
        -12    1    3    3    0    0  0.17159645891E+02 -0.23216579324E+02  0.17189267023E+02  0.33599611656E+02  0.00000000000E+00 0.  1.
</event>
<event>
 7    1  0.1221195E-011  0.5930194E+02  0.7816164E-02  0.1266605E+00
        -11   -1    0    0    0    0  0.00000000000E+00  0.00000000000E+00  0.45593999997E+02  0.45594000000E+02  0.51100000000E-03 0.  1.
         11   -1    0    0    0    0 -0.00000000000E+00 -0.00000000000E+00 -0.45593999997E+02  0.45594000000E+02  0.51100000000E-03 0. -1.
    9900012    2    1    2    0    0 -0.12586729498E+02 -0.17758027254E+02 -0.23301237940E+02  0.59301937512E+02  0.49999988118E+02 0.  0.
        -12    1    1    2    0    0  0.12586729498E+02  0.17758027254E+02  0.23301237940E+02  0.31886062488E+02  0.00000000000E+00 0.  1.
         11    1    3    3    0    0 -0.14506393616E+02  0.33906242413E+01 -0.12283409151E+01  0.14947929962E+02  0.51100000000E-03 0. -1.
        -11    1    3    3    0    0  0.13768621084E+02 -0.71733018635E+01  0.18313355458E+00  0.15526259187E+02  0.51100000000E-03 0.  1.
         12    1    3    3    0    0 -0.11848956966E+02 -0.13975349632E+02 -0.22256030580E+02  0.28827748363E+02  0.00000000000E+00 0. -1.
</event>
<event>
 7    1  0.1221195E-011  0.5930195E+02  0.7816164E-02  0.1266605E+00
        -11   -1    0    0    0    0  0.00000000000E+00  0.00000000000E+00  0.45593999997E+02  0.45594000000E+02  0.51100000000E-03 0. -1.
         11   -1    0    0    0    0 -0.00000000000E+00 -0.00000000000E+00 -0.45593999997E+02  0.45594000000E+02  0.51100000000E-03 0.  1.
    9900012    2    1    2    0    0 -0.82325479664E+01  0.11428378811E+02  0.28606603658E+02  0.59301945664E+02  0.50000002984E+02 0.  0.
        -12    1    1    2    0    0  0.82325479664E+01 -0.11428378811E+02 -0.28606603658E+02  0.31886054336E+02  0.00000000000E+00 0.  1.
         11    1    3    3    0    0 -0.23391930416E+02  0.44689322755E+01  0.91088064730E+01  0.25497531643E+02  0.51100000000E-03 0. -1.
        -11    1    3    3    0    0  0.88404143038E+01  0.14797578591E+02  0.98145680749E+01  0.19835498581E+02  0.51100000000E-03 0.  1.
        -12    1    3    3    0    0  0.63189681460E+01 -0.78381320554E+01  0.96832291102E+01  0.13968915439E+02  0.00000000000E+00 0.  1.
</event>
<event>
 7    1  0.1221195E-011  0.5930191E+02  0.7816164E-02  0.1266605E+00
        -11   -1    0    0    0    0  0.00000000000E+00  0.00000000000E+00  0.45593999997E+02  0.45594000000E+02  0.51100000000E-03 0. -1.
         11   -1    0    0    0    0 -0.00000000000E+00 -0.00000000000E+00 -0.45593999997E+02  0.45594000000E+02  0.51100000000E-03 0.  1.
    9900012    2    1    2    0    0  0.13519350523E+02 -0.27569490652E+02 -0.85949512084E+01  0.59301908367E+02  0.49999934963E+02 0.  0.
        -12    1    1    2    0    0 -0.13519350523E+02  0.27569490652E+02  0.85949512084E+01  0.31886091633E+02  0.00000000000E+00 0.  1.
         11    1    3    3    0    0 -0.20612234823E+01  0.33644101028E+01 -0.94655848587E+01  0.10255008267E+02  0.51100000000E-03 0. -1.
        -11    1    3    3    0    0 -0.24683025521E+00  0.74734566834E+01  0.64826731502E+00  0.75055799741E+01  0.51100000000E-03 0.  1.
         12    1    3    3    0    0  0.15827404261E+02 -0.38407357438E+02  0.22236633530E+00  0.41541320126E+02  0.00000000000E+00 0. -1.
</event>
<event>
 7    1  0.1221195E-011  0.5930211E+02  0.7816164E-02  0.1266604E+00
        -11   -1    0    0    0    0  0.00000000000E+00  0.00000000000E+00  0.45593999997E+02  0.45594000000E+02  0.51100000000E-03 0.  1.
         11   -1    0    0    0    0 -0.00000000000E+00 -0.00000000000E+00 -0.45593999997E+02  0.45594000000E+02  0.51100000000E-03 0. -1.
    9900012    2    1    2    0    0 -0.29498865404E+02 -0.58885844287E+01  0.10575973512E+02  0.59302114370E+02  0.50000310663E+02 0.  0.
        -12    1    1    2    0    0  0.29498865404E+02  0.58885844287E+01 -0.10575973512E+02  0.31885885630E+02  0.00000000000E+00 0.  1.
         11    1    3    3    0    0 -0.10679744996E+02  0.55594004744E+01  0.12894734728E+01  0.12108948299E+02  0.51100000000E-03 0. -1.
        -11    1    3    3    0    0 -0.29228966298E+02 -0.14260590729E+02  0.14021695242E+02  0.35416166598E+02  0.51100000000E-03 0.  1.
        -12    1    3    3    0    0  0.10409845890E+02  0.28126058258E+01 -0.47351952020E+01  0.11776999473E+02  0.00000000000E+00 0.  1.
</event>
<event>
 7    1  0.1221195E-011  0.5930194E+02  0.7816164E-02  0.1266605E+00
        -11   -1    0    0    0    0  0.00000000000E+00  0.00000000000E+00  0.45593999997E+02  0.45594000000E+02  0.51100000000E-03 0.  1.
         11   -1    0    0    0    0 -0.00000000000E+00 -0.00000000000E+00 -0.45593999997E+02  0.45594000000E+02  0.51100000000E-03 0. -1.
    9900012    2    1    2    0    0 -0.10925109606E+02  0.29889293884E+02 -0.19982571774E+01  0.59301938147E+02  0.49999989274E+02 0.  0.
        -12    1    1    2    0    0  0.10925109606E+02 -0.29889293884E+02  0.19982571774E+01  0.31886061853E+02  0.00000000000E+00 0.  1.
         11    1    3    3    0    0 -0.13935621272E+02  0.26213790927E+01  0.47103635007E+01  0.14941910626E+02  0.51100000000E-03 0. -1.
        -11    1    3    3    0    0 -0.96780211316E+01  0.23998792999E+02  0.54956341431E+01  0.26453887301E+02  0.51100000000E-03 0.  1.
         12    1    3    3    0    0  0.12688532797E+02  0.32691217918E+01 -0.12204254821E+02  0.17906140220E+02  0.00000000000E+00 0. -1.
</event>
<event>
 7    1  0.1221195E-011  0.5930196E+02  0.7816164E-02  0.1266605E+00
        -11   -1    0    0    0    0  0.00000000000E+00  0.00000000000E+00  0.45593999997E+02  0.45594000000E+02  0.51100000000E-03 0.  1.
         11   -1    0    0    0    0 -0.00000000000E+00 -0.00000000000E+00 -0.45593999997E+02  0.45594000000E+02  0.51100000000E-03 0. -1.
    9900012    2    1    2    0    0 -0.11540115712E+01  0.26077928842E+02 -0.18312001798E+02  0.59301960339E+02  0.50000029748E+02 0.  0.
        -12    1    1    2    0    0  0.11540115712E+01 -0.26077928842E+02  0.18312001798E+02  0.31886039661E+02  0.00000000000E+00 0.  1.
         11    1    3    3    0    0  0.38552417765E+01  0.17505018906E+02 -0.12418120396E+02  0.21805923289E+02  0.51100000000E-03 0. -1.
        -11    1    3    3    0    0  0.54865738394E+01 -0.10797581088E+02  0.47731815394E+01  0.13018199265E+02  0.51100000000E-03 0.  1.
         12    1    3    3    0    0 -0.10495827187E+02  0.19370491024E+02 -0.10667062941E+02  0.24477837785E+02  0.00000000000E+00 0. -1.
</event>
<event>
 7    1  0.1221195E-011  0.5930195E+02  0.7816164E-02  0.1266605E+00
        -11   -1    0    0    0    0  0.00000000000E+00  0.00000000000E+00  0.45593999997E+02  0.45594000000E+02  0.51100000000E-03 0.  1.
         11   -1    0    0    0    0 -0.00000000000E+00 -0.00000000000E+00 -0.45593999997E+02  0.45594000000E+02  0.51100000000E-03 0. -1.
    9900012    2    1    2    0    0  0.23995162602E+02  0.11551929771E+02 -0.17535833368E+02  0.59301947224E+02  0.50000005829E+02 0.  0.
        -12    1    1    2    0    0 -0.23995162602E+02 -0.11551929771E+02  0.17535833368E+02  0.31886052776E+02  0.00000000000E+00 0.  1.
         11    1    3    3    0    0  0.53454207014E+01 -0.94119055095E+01 -0.86615059356E+01  0.13862870306E+02  0.51100000000E-03 0. -1.
        -11    1    3    3    0    0  0.15241019800E+02 -0.34004093457E+01  0.59562254086E+01  0.16713111309E+02  0.51100000000E-03 0.  1.
        -12    1    3    3    0    0  0.34087221011E+01  0.24364244626E+02 -0.14830552841E+02  0.28725965608E+02  0.00000000000E+00 0.  1.
</event>
<event>
 7    1  0.1221195E-011  0.5930193E+02  0.7816164E-02  0.1266605E+00
        -11   -1    0    0    0    0  0.00000000000E+00  0.00000000000E+00  0.45593999997E+02  0.45594000000E+02  0.51100000000E-03 0.  1.
         11   -1    0    0    0    0 -0.00000000000E+00 -0.00000000000E+00 -0.45593999997E+02  0.45594000000E+02  0.51100000000E-03 0. -1.
    9900012    2    1    2    0    0 -0.27909475216E+02 -0.69710785606E+01 -0.13754513177E+02  0.59301931320E+02  0.49999976823E+02 0.  0.
        -12    1    1    2    0    0  0.27909475216E+02  0.69710785606E+01  0.13754513177E+02  0.31886068680E+02  0.00000000000E+00 0.  1.
         11    1    3    3    0    0 -0.16295981225E+02 -0.19634001323E+02 -0.14009171030E+01  0.25554169543E+02  0.51100000000E-03 0. -1.
        -11    1    3    3    0    0 -0.14125878483E+02 -0.36270310277E+01 -0.33402203885E+01  0.14961713454E+02  0.51100000000E-03 0.  1.
        -12    1    3    3    0    0  0.25123844919E+01  0.16289953790E+02 -0.90133756855E+01  0.18786048322E+02  0.00000000000E+00 0.  1.
</event>
<event>
 7    1  0.1221195E-011  0.5930197E+02  0.7816164E-02  0.1266605E+00
        -11   -1    0    0    0    0  0.00000000000E+00  0.00000000000E+00  0.45593999997E+02  0.45594000000E+02  0.51100000000E-03 0.  1.
         11   -1    0    0    0    0 -0.00000000000E+00 -0.00000000000E+00 -0.45593999997E+02  0.45594000000E+02  0.51100000000E-03 0. -1.
    9900012    2    1    2    0    0  0.26475163567E+01 -0.22264910718E+02 -0.22671206412E+02  0.59301965559E+02  0.50000039269E+02 0.  0.
        -12    1    1    2    0    0 -0.26475163567E+01  0.22264910718E+02  0.22671206412E+02  0.31886034441E+02  0.00000000000E+00 0.  1.
         11    1    3    3    0    0 -0.19531921443E+02 -0.15683030543E+02 -0.17677807978E+02  0.30658739332E+02  0.51100000000E-03 0. -1.
        -11    1    3    3    0    0 -0.18048588802E+01 -0.88403671175E+00  0.21838354759E+01  0.29678568247E+01  0.51100000000E-03 0.  1.
        -12    1    3    3    0    0  0.23984296680E+02 -0.56978434629E+01 -0.71772339108E+01  0.25675369403E+02  0.00000000000E+00 0.  1.
</event>
<event>
 7    1  0.1221195E-011  0.5930196E+02  0.7816164E-02  0.1266605E+00
        -11   -1    0    0    0    0  0.00000000000E+00  0.00000000000E+00  0.45593999997E+02  0.45594000000E+02  0.51100000000E-03 0. -1.
         11   -1    0    0    0    0 -0.00000000000E+00 -0.00000000000E+00 -0.45593999997E+02  0.45594000000E+02  0.51100000000E-03 0.  1.
    9900012    2    1    2    0    0  0.24045705366E+02  0.20387527837E+02  0.47825298204E+01  0.59301955571E+02  0.50000021052E+02 0.  0.
        -12    1    1    2    0    0 -0.24045705366E+02 -0.20387527837E+02 -0.47825298204E+01  0.31886044429E+02  0.00000000000E+00 0.  1.
         11    1    3    3    0    0 -0.12870635277E+02  0.13304192835E+02  0.77517248561E+01  0.20068483698E+02  0.51100000000E-03 0. -1.
        -11    1    3    3    0    0 -0.25404782342E+00  0.62982811695E+00 -0.13040376195E+01  0.14702850498E+01  0.51100000000E-03 0.  1.
        -12    1    3    3    0    0  0.37170388466E+02  0.64535068850E+01 -0.16651574163E+01  0.37763186823E+02  0.00000000000E+00 0.  1.
</event>
<event>
 7    1  0.1221195E-011  0.5930194E+02  0.7816164E-02  0.1266605E+00
        -11   -1    0    0    0    0  0.00000000000E+00  0.00000000000E+00  0.45593999997E+02  0.45594000000E+02  0.51100000000E-03 0. -1.
         11   -1    0    0    0    0 -0.00000000000E+00 -0.00000000000E+00 -0.45593999997E+02  0.45594000000E+02  0.51100000000E-03 0.  1.
    9900012    2    1    2    0    0 -0.79539022231E+01 -0.96539980119E+01  0.29330135549E+02  0.59301935810E+02  0.49999985013E+02 0.  0.
        -12    1    1    2    0    0  0.79539022231E+01  0.96539980119E+01 -0.29330135549E+02  0.31886064190E+02  0.00000000000E+00 0.  1.
         11    1    3    3    0    0 -0.86073298922E+01 -0.75107818244E+01  0.85365201992E+01  0.14260790611E+02  0.51100000000E-03 0. -1.
        -11    1    3    3    0    0 -0.55246036687E+01 -0.94964368011E+01 -0.87058392044E+01  0.14017674348E+02  0.51100000000E-03 0.  1.
        -12    1    3    3    0    0  0.61780313379E+01  0.73532206136E+01  0.29499454555E+02  0.31023470851E+02  0.00000000000E+00 0.  1.
</event>
<event>
 7    1  0.1221195E-011  0.5930195E+02  0.7816164E-02  0.1266605E+00
        -11   -1    0    0    0    0  0.00000000000E+00  0.00000000000E+00  0.45593999997E+02  0.45594000000E+02  0.51100000000E-03 0.  1.
         11   -1    0    0    0    0 -0.00000000000E+00 -0.00000000000E+00 -0.45593999997E+02  0.45594000000E+02  0.51100000000E-03 0. -1.
    9900012    2    1    2    0    0 -0.59247865320E+01 -0.59767153985E+01 -0.30755424709E+02  0.59301947071E+02  0.50000005550E+02 0.  0.
        -12    1    1    2    0    0  0.59247865320E+01  0.59767153985E+01  0.30755424709E+02  0.31886052929E+02  0.00000000000E+00 0.  1.
         11    1    3    3    0    0  0.49187279920E+01 -0.60112615076E+01 -0.48954162659E+01  0.91811900454E+01  0.51100000000E-03 0. -1.
        -11    1    3    3    0    0 -0.10157873371E+02 -0.19246606016E+02 -0.63220993432E+01  0.22662373550E+02  0.51100000000E-03 0.  1.
         12    1    3    3    0    0 -0.68564115274E+00  0.19281152125E+02 -0.19537909100E+02  0.27458383475E+02  0.00000000000E+00 0. -1.
</event>
<event>
 7    1  0.1221195E-011  0.5930195E+02  0.7816164E-02  0.1266605E+00
        -11   -1    0    0    0    0  0.00000000000E+00  0.00000000000E+00  0.45593999997E+02  0.45594000000E+02  0.51100000000E-03 0.  1.
         11   -1    0    0    0    0 -0.00000000000E+00 -0.00000000000E+00 -0.45593999997E+02  0.45594000000E+02  0.51100000000E-03 0. -1.
    9900012    2    1    2    0    0  0.14847007182E+02 -0.26837151520E+02 -0.87208796744E+01  0.59301951856E+02  0.50000014277E+02 0.  0.
        -12    1    1    2    0    0 -0.14847007182E+02  0.26837151520E+02  0.87208796744E+01  0.31886048144E+02  0.00000000000E+00 0.  1.
         11    1    3    3    0    0 -0.51882644946E+01 -0.57293206677E+00  0.55555493572E+01  0.76230222708E+01  0.51100000000E-03 0. -1.
        -11    1    3    3    0    0 -0.83586019758E+01 -0.18206496617E+02 -0.75353647399E+01  0.21403842367E+02  0.51100000000E-03 0.  1.
         12    1    3    3    0    0  0.28393873652E+02 -0.80577228366E+01 -0.67410642918E+01  0.30275087218E+02  0.00000000000E+00 0. -1.
</event>
<event>
 7    1  0.1248600E-011  0.5930194E+02  0.7816164E-02  0.1266605E+00
        -11   -1    0    0    0    0  0.00000000000E+00  0.00000000000E+00  0.45593999997E+02  0.45594000000E+02  0.51100000000E-03 0. -1.
         11   -1    0    0    0    0 -0.00000000000E+00 -0.00000000000E+00 -0.45593999997E+02  0.45594000000E+02  0.51100000000E-03 0.  1.
    9900012    2    1    2    0    0  0.18413363171E+02  0.23024857595E+02  0.12145987986E+02  0.59301936670E+02  0.49999986581E+02 0.  0.
        -12    1    1    2    0    0 -0.18413363171E+02 -0.23024857595E+02 -0.12145987986E+02  0.31886063330E+02  0.00000000000E+00 0.  1.
         11    1    3    3    0    0 -0.39322313402E+01  0.10954556655E+02 -0.20621070250E+01  0.11820196295E+02  0.51100000000E-03 0.  1.
        -11    1    3    3    0    0  0.12376437448E+02 -0.71806751760E+01 -0.80442344245E+01  0.16414871539E+02  0.51100000000E-03 0. -1.
         12    1    3    3    0    0  0.99691570627E+01  0.19250976116E+02  0.22252329435E+02  0.31066868836E+02  0.00000000000E+00 0. -1.
</event>
<event>
 7    1  0.1221195E-011  0.5930191E+02  0.7816164E-02  0.1266605E+00
        -11   -1    0    0    0    0  0.00000000000E+00  0.00000000000E+00  0.45593999997E+02  0.45594000000E+02  0.51100000000E-03 0.  1.
         11   -1    0    0    0    0 -0.00000000000E+00 -0.00000000000E+00 -0.45593999997E+02  0.45594000000E+02  0.51100000000E-03 0. -1.
    9900012    2    1    2    0    0 -0.20849598662E+02 -0.23168432778E+02 -0.67261003821E+01  0.59301914193E+02  0.49999945588E+02 0.  0.
        -12    1    1    2    0    0  0.20849598662E+02  0.23168432778E+02  0.67261003821E+01  0.31886085807E+02  0.00000000000E+00 0.  1.
         11    1    3    3    0    0 -0.15551513290E+02 -0.38105342603E+01 -0.47096238042E-01  0.16011619384E+02  0.51100000000E-03 0. -1.
        -11    1    3    3    0    0 -0.11298908797E+02  0.17666486440E+01 -0.15805530529E+02  0.19509002615E+02  0.51100000000E-03 0.  1.
         12    1    3    3    0    0  0.60008234253E+01 -0.21124547162E+02  0.91265263853E+01  0.23781292194E+02  0.00000000000E+00 0. -1.
</event>
<event>
 7    1  0.1221195E-011  0.5930195E+02  0.7816164E-02  0.1266605E+00
        -11   -1    0    0    0    0  0.00000000000E+00  0.00000000000E+00  0.45593999997E+02  0.45594000000E+02  0.51100000000E-03 0.  1.
         11   -1    0    0    0    0 -0.00000000000E+00 -0.00000000000E+00 -0.45593999997E+02  0.45594000000E+02  0.51100000000E-03 0. -1.
    9900012    2    1    2    0    0  0.31377502732E+02 -0.56711355877E+01 -0.10267964569E+00  0.59301952900E+02  0.50000016181E+02 0.  0.
        -12    1    1    2    0    0 -0.31377502732E+02  0.56711355877E+01  0.10267964569E+00  0.31886047100E+02  0.00000000000E+00 0.  1.
         11    1    3    3    0    0  0.10025414271E+02  0.14358337107E+02 -0.13411938478E+02  0.22057898127E+02  0.51100000000E-03 0. -1.
        -11    1    3    3    0    0 -0.12024686318E+01 -0.98032430233E+01  0.53455395212E+01  0.11230507451E+02  0.51100000000E-03 0.  1.
        -12    1    3    3    0    0  0.22554557093E+02 -0.10226229672E+02  0.79637193113E+01  0.26013547321E+02  0.00000000000E+00 0.  1.
</event>
<event>
 7    1  0.1221195E-011  0.5930189E+02  0.7816164E-02  0.1266605E+00
        -11   -1    0    0    0    0  0.00000000000E+00  0.00000000000E+00  0.45593999997E+02  0.45594000000E+02  0.51100000000E-03 0.  1.
         11   -1    0    0    0    0 -0.00000000000E+00 -0.00000000000E+00 -0.45593999997E+02  0.45594000000E+02  0.51100000000E-03 0. -1.
    9900012    2    1    2    0    0 -0.28299841159E+02 -0.46942086765E+01 -0.13921479645E+02  0.59301887032E+02  0.49999896053E+02 0.  0.
        -12    1    1    2    0    0  0.28299841159E+02  0.46942086765E+01  0.13921479645E+02  0.31886112968E+02  0.00000000000E+00 0.  1.
         11    1    3    3    0    0  0.24720656676E+01  0.14895942124E+02 -0.20904218407E+01  0.15243689322E+02  0.51100000000E-03 0. -1.
        -11    1    3    3    0    0 -0.67878301849E+00  0.51219697186E+00  0.43380320971E+01  0.44205898770E+01  0.51100000000E-03 0.  1.
         12    1    3    3    0    0 -0.30093123808E+02 -0.20102347772E+02 -0.16169089901E+02  0.39637607833E+02  0.00000000000E+00 0. -1.
</event>
<event>
 7    1  0.1221195E-011  0.5930186E+02  0.7816164E-02  0.1266605E+00
        -11   -1    0    0    0    0  0.00000000000E+00  0.00000000000E+00  0.45593999997E+02  0.45594000000E+02  0.51100000000E-03 0. -1.
         11   -1    0    0    0    0 -0.00000000000E+00 -0.00000000000E+00 -0.45593999997E+02  0.45594000000E+02  0.51100000000E-03 0.  1.
    9900012    2    1    2    0    0  0.67083455202E+01 -0.10858036022E+02  0.29220316141E+02  0.59301863181E+02  0.49999852555E+02 0.  0.
        -12    1    1    2    0    0 -0.67083455202E+01  0.10858036022E+02 -0.29220316141E+02  0.31886136819E+02  0.00000000000E+00 0.  1.
         11    1    3    3    0    0  0.13069143342E+02 -0.12316322398E+02  0.26766667298E+02  0.32232728455E+02  0.51100000000E-03 0. -1.
        -11    1    3    3    0    0 -0.82883128763E+01 -0.34049074725E+00  0.13427395523E+02  0.15783124376E+02  0.51100000000E-03 0.  1.
        -12    1    3    3    0    0  0.19275150545E+01  0.17987771240E+01 -0.10973746680E+02  0.11286010350E+02  0.00000000000E+00 0.  1.
</event>
<event>
 7    1  0.1221195E-011  0.5930193E+02  0.7816164E-02  0.1266605E+00
        -11   -1    0    0    0    0  0.00000000000E+00  0.00000000000E+00  0.45593999997E+02  0.45594000000E+02  0.51100000000E-03 0.  1.
         11   -1    0    0    0    0 -0.00000000000E+00 -0.00000000000E+00 -0.45593999997E+02  0.45594000000E+02  0.51100000000E-03 0. -1.
    9900012    2    1    2    0    0 -0.16922414324E+02  0.20165773020E+02  0.17991517054E+02  0.59301934173E+02  0.49999982027E+02 0.  0.
        -12    1    1    2    0    0  0.16922414324E+02 -0.20165773020E+02 -0.17991517054E+02  0.31886065827E+02  0.00000000000E+00 0.  1.
         11    1    3    3    0    0 -0.21505657272E+02  0.99456565812E+01  0.49655313192E+01  0.24208797596E+02  0.51100000000E-03 0. -1.
        -11    1    3    3    0    0 -0.39322068401E+01  0.21163934096E+01  0.20620269642E+02  0.21098267513E+02  0.51100000000E-03 0.  1.
         12    1    3    3    0    0  0.85154497881E+01  0.81037230291E+01 -0.75942839072E+01  0.13994869063E+02  0.00000000000E+00 0. -1.
</event>
<event>
 7    1  0.1221195E-011  0.5930195E+02  0.7816164E-02  0.1266605E+00
        -11   -1    0    0    0    0  0.00000000000E+00  0.00000000000E+00  0.45593999997E+02  0.45594000000E+02  0.51100000000E-03 0.  1.
         11   -1    0    0    0    0 -0.00000000000E+00 -0.00000000000E+00 -0.45593999997E+02  0.45594000000E+02  0.51100000000E-03 0. -1.
    9900012    2    1    2    0    0  0.18749386380E+02  0.13901120669E+02 -0.21724166585E+02  0.59301951965E+02  0.50000014476E+02 0.  0.
        -12    1    1    2    0    0 -0.18749386380E+02 -0.13901120669E+02  0.21724166585E+02  0.31886048035E+02  0.00000000000E+00 0.  1.
         11    1    3    3    0    0  0.87002754355E+00 -0.49943692792E+01  0.70833692252E+01  0.87106137709E+01  0.51100000000E-03 0. -1.
        -11    1    3    3    0    0  0.15591506552E+02  0.45619115675E+01  0.21625865908E+01  0.16388498856E+02  0.51100000000E-03 0.  1.
         12    1    3    3    0    0  0.22878522838E+01  0.14333578381E+02 -0.30970122401E+02  0.34202839338E+02  0.00000000000E+00 0. -1.
</event>
<event>
 7    1  0.1221195E-011  0.5930195E+02  0.7816164E-02  0.1266605E+00
        -11   -1    0    0    0    0  0.00000000000E+00  0.00000000000E+00  0.45593999997E+02  0.45594000000E+02  0.51100000000E-03 0. -1.
         11   -1    0    0    0    0 -0.00000000000E+00 -0.00000000000E+00 -0.45593999997E+02  0.45594000000E+02  0.51100000000E-03 0.  1.
    9900012    2    1    2    0    0  0.23614850162E+02  0.54507217858E+01  0.20720736997E+02  0.59301945715E+02  0.50000003077E+02 0.  0.
        -12    1    1    2    0    0 -0.23614850162E+02 -0.54507217858E+01 -0.20720736997E+02  0.31886054285E+02  0.00000000000E+00 0.  1.
         11    1    3    3    0    0  0.63214944604E-01  0.27185151239E+01 -0.70634721711E+01  0.75688149654E+01  0.51100000000E-03 0.  1.
        -11    1    3    3    0    0  0.14626791244E+02  0.11266452935E+02  0.33403359379E+02  0.38166220692E+02  0.51100000000E-03 0. -1.
         12    1    3    3    0    0  0.89248439743E+01 -0.85342462732E+01 -0.56191502110E+01  0.13566910058E+02  0.00000000000E+00 0. -1.
</event>
<event>
 7    1  0.1221195E-011  0.5930192E+02  0.7816164E-02  0.1266605E+00
        -11   -1    0    0    0    0  0.00000000000E+00  0.00000000000E+00  0.45593999997E+02  0.45594000000E+02  0.51100000000E-03 0.  1.
         11   -1    0    0    0    0 -0.00000000000E+00 -0.00000000000E+00 -0.45593999997E+02  0.45594000000E+02  0.51100000000E-03 0. -1.
    9900012    2    1    2    0    0  0.13141328970E+02 -0.20995171275E+02 -0.20080597845E+02  0.59301919121E+02  0.49999954576E+02 0.  0.
        -12    1    1    2    0    0 -0.13141328970E+02  0.20995171275E+02  0.20080597845E+02  0.31886080879E+02  0.00000000000E+00 0.  1.
         11    1    3    3    0    0  0.57479482246E+01 -0.21625161095E+02 -0.65393690010E+01  0.23312010818E+02  0.51100000000E-03 0. -1.
        -11    1    3    3    0    0 -0.10872820436E+02 -0.98524708864E+00 -0.13867829541E+02  0.17649522160E+02  0.51100000000E-03 0.  1.
         12    1    3    3    0    0  0.18266201181E+02  0.16152369080E+01  0.32660069661E+00  0.18340386143E+02  0.00000000000E+00 0. -1.
</event>
<event>
 7    1  0.1221195E-011  0.5930199E+02  0.7816164E-02  0.1266605E+00
        -11   -1    0    0    0    0  0.00000000000E+00  0.00000000000E+00  0.45593999997E+02  0.45594000000E+02  0.51100000000E-03 0. -1.
         11   -1    0    0    0    0 -0.00000000000E+00 -0.00000000000E+00 -0.45593999997E+02  0.45594000000E+02  0.51100000000E-03 0.  1.
    9900012    2    1    2    0    0 -0.12590117897E+02  0.17397876009E+02  0.23569476340E+02  0.59301994085E+02  0.50000091292E+02 0.  0.
        -12    1    1    2    0    0  0.12590117897E+02 -0.17397876009E+02 -0.23569476340E+02  0.31886005915E+02  0.00000000000E+00 0.  1.
         11    1    3    3    0    0  0.19421713483E+00 -0.44408736290E+01  0.15985812569E+02  0.16592326017E+02  0.51100000000E-03 0. -1.
        -11    1    3    3    0    0 -0.11435504955E+02 -0.14690780826E+01  0.14344506650E+02  0.18403636469E+02  0.51100000000E-03 0.  1.
        -12    1    3    3    0    0 -0.13488300765E+01  0.23307827721E+02 -0.67608428795E+01  0.24306031599E+02  0.00000000000E+00 0.  1.
</event>
<event>
 7    1  0.1221195E-011  0.5930194E+02  0.7816164E-02  0.1266605E+00
        -11   -1    0    0    0    0  0.00000000000E+00  0.00000000000E+00  0.45593999997E+02  0.45594000000E+02  0.51100000000E-03 0.  1.
         11   -1    0    0    0    0 -0.00000000000E+00 -0.00000000000E+00 -0.45593999997E+02  0.45594000000E+02  0.51100000000E-03 0. -1.
    9900012    2    1    2    0    0 -0.14547725419E+02 -0.13943606400E+02 -0.24711540225E+02  0.59301942003E+02  0.49999996307E+02 0.  0.
        -12    1    1    2    0    0  0.14547725419E+02  0.13943606400E+02  0.24711540225E+02  0.31886057997E+02  0.00000000000E+00 0.  1.
         11    1    3    3    0    0  0.75321581199E+01  0.94855387765E+01  0.26996259184E+01  0.12409546010E+02  0.51100000000E-03 0. -1.
        -11    1    3    3    0    0 -0.58457512377E+01 -0.50920984657E+01  0.25813410851E+01  0.81710217461E+01  0.51100000000E-03 0.  1.
         12    1    3    3    0    0 -0.16234132301E+02 -0.18337046711E+02 -0.29992507229E+02  0.38721374246E+02  0.00000000000E+00 0. -1.
</event>
<event>
 7    1  0.1221195E-011  0.5930193E+02  0.7816164E-02  0.1266605E+00
        -11   -1    0    0    0    0  0.00000000000E+00  0.00000000000E+00  0.45593999997E+02  0.45594000000E+02  0.51100000000E-03 0.  1.
         11   -1    0    0    0    0 -0.00000000000E+00 -0.00000000000E+00 -0.45593999997E+02  0.45594000000E+02  0.51100000000E-03 0. -1.
    9900012    2    1    2    0    0  0.21324106955E+02  0.93871700380E+01 -0.21768898413E+02  0.59301930363E+02  0.49999975080E+02 0.  0.
        -12    1    1    2    0    0 -0.21324106955E+02 -0.93871700380E+01  0.21768898413E+02  0.31886069637E+02  0.00000000000E+00 0.  1.
         11    1    3    3    0    0  0.44839216501E+01 -0.58429607783E+01 -0.17563949053E+02  0.19045683254E+02  0.51100000000E-03 0. -1.
        -11    1    3    3    0    0  0.60448350705E+01 -0.10184715084E+02 -0.44240432973E+01  0.12642808696E+02  0.51100000000E-03 0.  1.
         12    1    3    3    0    0  0.10795350234E+02  0.25414845900E+02  0.21909393725E+00  0.27613438413E+02  0.00000000000E+00 0. -1.
</event>
<event>
 7    1  0.1221195E-011  0.5930173E+02  0.7816164E-02  0.1266606E+00
        -11   -1    0    0    0    0  0.00000000000E+00  0.00000000000E+00  0.45593999997E+02  0.45594000000E+02  0.51100000000E-03 0.  1.
         11   -1    0    0    0    0 -0.00000000000E+00 -0.00000000000E+00 -0.45593999997E+02  0.45594000000E+02  0.51100000000E-03 0. -1.
    9900012    2    1    2    0    0 -0.21933294514E+02 -0.18175809949E+02 -0.14328461079E+02  0.59301729092E+02  0.49999608008E+02 0.  0.
        -12    1    1    2    0    0  0.21933294514E+02  0.18175809949E+02  0.14328461079E+02  0.31886270908E+02  0.00000000000E+00 0.  1.
         11    1    3    3    0    0 -0.20098190697E+02 -0.23223306465E+02 -0.20157230641E+02  0.36736537396E+02  0.51100000000E-03 0. -1.
        -11    1    3    3    0    0  0.79943110420E+00 -0.78860450969E+01  0.49320521954E+01  0.93356272677E+01  0.51100000000E-03 0.  1.
        -12    1    3    3    0    0 -0.26345349211E+01  0.12933541614E+02  0.89671736709E+00  0.13229564428E+02  0.00000000000E+00 0.  1.
</event>
<event>
 7    1  0.1221195E-011  0.5930194E+02  0.7816164E-02  0.1266605E+00
        -11   -1    0    0    0    0  0.00000000000E+00  0.00000000000E+00  0.45593999997E+02  0.45594000000E+02  0.51100000000E-03 0.  1.
         11   -1    0    0    0    0 -0.00000000000E+00 -0.00000000000E+00 -0.45593999997E+02  0.45594000000E+02  0.51100000000E-03 0. -1.
    9900012    2    1    2    0    0 -0.29692521713E+02  0.73020961604E+01 -0.90418242899E+01  0.59301936578E+02  0.49999986414E+02 0.  0.
        -12    1    1    2    0    0  0.29692521713E+02 -0.73020961604E+01  0.90418242899E+01  0.31886063422E+02  0.00000000000E+00 0.  1.
         11    1    3    3    0    0 -0.27386552426E+02  0.63556872218E+00 -0.87798525161E+01  0.28766525891E+02  0.51100000000E-03 0. -1.
        -11    1    3    3    0    0 -0.10892571665E+02  0.10781426122E+02  0.85604762175E+01  0.17554743519E+02  0.51100000000E-03 0.  1.
         12    1    3    3    0    0  0.85866023777E+01 -0.41148986836E+01 -0.88224479914E+01  0.12980667168E+02  0.00000000000E+00 0. -1.
</event>
<event>
 7    1  0.1221195E-011  0.5930194E+02  0.7816164E-02  0.1266605E+00
        -11   -1    0    0    0    0  0.00000000000E+00  0.00000000000E+00  0.45593999997E+02  0.45594000000E+02  0.51100000000E-03 0. -1.
         11   -1    0    0    0    0 -0.00000000000E+00 -0.00000000000E+00 -0.45593999997E+02  0.45594000000E+02  0.51100000000E-03 0.  1.
    9900012    2    1    2    0    0  0.35584118191E+01 -0.22431838530E+02 -0.22380145904E+02  0.59301943405E+02  0.49999998864E+02 0.  0.
        -12    1    1    2    0    0 -0.35584118191E+01  0.22431838530E+02  0.22380145904E+02  0.31886056595E+02  0.00000000000E+00 0.  1.
         11    1    3    3    0    0  0.35261836240E+01  0.10671911080E+01 -0.32724432209E+01  0.49276518451E+01  0.51100000000E-03 0. -1.
        -11    1    3    3    0    0 -0.85368418601E+01 -0.17703936367E+02 -0.32177860504E+02  0.37705725543E+02  0.51100000000E-03 0.  1.
         12    1    3    3    0    0  0.85690700552E+01 -0.57950932704E+01  0.13070157820E+02  0.16668566017E+02  0.00000000000E+00 0. -1.
</event>
<event>
 7    1  0.1221195E-011  0.5930194E+02  0.7816164E-02  0.1266605E+00
        -11   -1    0    0    0    0  0.00000000000E+00  0.00000000000E+00  0.45593999997E+02  0.45594000000E+02  0.51100000000E-03 0.  1.
         11   -1    0    0    0    0 -0.00000000000E+00 -0.00000000000E+00 -0.45593999997E+02  0.45594000000E+02  0.51100000000E-03 0. -1.
    9900012    2    1    2    0    0  0.26030390203E+01 -0.21785669255E+02 -0.23137184908E+02  0.59301944702E+02  0.50000001229E+02 0.  0.
        -12    1    1    2    0    0 -0.26030390203E+01  0.21785669255E+02  0.23137184908E+02  0.31886055298E+02  0.00000000000E+00 0.  1.
         11    1    3    3    0    0  0.43090043096E+01 -0.30026411468E+02 -0.67480958610E+01  0.31075548295E+02  0.51100000000E-03 0. -1.
        -11    1    3    3    0    0 -0.43386659381E+01 -0.39260309430E+01 -0.14499250449E+02  0.15635408691E+02  0.51100000000E-03 0.  1.
        -12    1    3    3    0    0  0.26327006487E+01  0.12166773156E+02 -0.18898385974E+01  0.12590987716E+02  0.00000000000E+00 0.  1.
</event>
<event>
 7    1  0.1221195E-011  0.5930194E+02  0.7816164E-02  0.1266605E+00
        -11   -1    0    0    0    0  0.00000000000E+00  0.00000000000E+00  0.45593999997E+02  0.45594000000E+02  0.51100000000E-03 0.  1.
         11   -1    0    0    0    0 -0.00000000000E+00 -0.00000000000E+00 -0.45593999997E+02  0.45594000000E+02  0.51100000000E-03 0. -1.
    9900012    2    1    2    0    0  0.28544926086E+01  0.24030731301E+02 -0.20762869188E+02  0.59301938596E+02  0.49999990094E+02 0.  0.
        -12    1    1    2    0    0 -0.28544926086E+01 -0.24030731301E+02  0.20762869188E+02  0.31886061404E+02  0.00000000000E+00 0.  1.
         11    1    3    3    0    0  0.40599798687E+00  0.13271580536E+02 -0.66962836394E+01  0.14870773320E+02  0.51100000000E-03 0. -1.
        -11    1    3    3    0    0 -0.12738252491E+02  0.18062901094E+00 -0.21087000650E+02  0.24636503405E+02  0.51100000000E-03 0.  1.
        -12    1    3    3    0    0  0.15186747113E+02  0.10578521754E+02  0.70204151015E+01  0.19794661871E+02  0.00000000000E+00 0.  1.
</event>
<event>
 7    1  0.1221195E-011  0.5930194E+02  0.7816164E-02  0.1266605E+00
        -11   -1    0    0    0    0  0.00000000000E+00  0.00000000000E+00  0.45593999997E+02  0.45594000000E+02  0.51100000000E-03 0. -1.
         11   -1    0    0    0    0 -0.00000000000E+00 -0.00000000000E+00 -0.45593999997E+02  0.45594000000E+02  0.51100000000E-03 0.  1.
    9900012    2    1    2    0    0  0.18358289440E+02  0.25534030042E+01  0.25945599451E+02  0.59301940524E+02  0.49999993609E+02 0.  0.
        -12    1    1    2    0    0 -0.18358289440E+02 -0.25534030042E+01 -0.25945599451E+02  0.31886059476E+02  0.00000000000E+00 0.  1.
         11    1    3    3    0    0  0.77749521031E+01  0.42913274544E+01 -0.28300927833E+01  0.93206650487E+01  0.51100000000E-03 0. -1.
        -11    1    3    3    0    0 -0.65234479759E+01  0.97414732044E+01 -0.30090726089E+01  0.12103974220E+02  0.51100000000E-03 0.  1.
        -12    1    3    3    0    0  0.17106785313E+02 -0.11479397655E+02  0.31784764843E+02  0.37877301255E+02  0.00000000000E+00 0.  1.
</event>
<event>
 7    1  0.1221195E-011  0.5930212E+02  0.7816164E-02  0.1266604E+00
        -11   -1    0    0    0    0  0.00000000000E+00  0.00000000000E+00  0.45593999997E+02  0.45594000000E+02  0.51100000000E-03 0.  1.
         11   -1    0    0    0    0 -0.00000000000E+00 -0.00000000000E+00 -0.45593999997E+02  0.45594000000E+02  0.51100000000E-03 0. -1.
    9900012    2    1    2    0    0 -0.20178589890E+02 -0.20647156988E+02 -0.13536191701E+02  0.59302124328E+02  0.50000328823E+02 0.  0.
        -12    1    1    2    0    0  0.20178589890E+02  0.20647156988E+02  0.13536191701E+02  0.31885875672E+02  0.00000000000E+00 0.  1.
         11    1    3    3    0    0  0.75870785025E+01  0.51438158338E+01  0.43233513587E+00  0.91765742772E+01  0.51100000000E-03 0.  1.
        -11    1    3    3    0    0 -0.13727122292E+02 -0.35436722377E+01  0.76196836890E+01  0.16095063812E+02  0.51100000000E-03 0. -1.
         12    1    3    3    0    0 -0.14038546101E+02 -0.22247300584E+02 -0.21588210526E+02  0.34030486238E+02  0.00000000000E+00 0. -1.
</event>
<event>
 7    1  0.1221195E-011  0.5930194E+02  0.7816164E-02  0.1266605E+00
        -11   -1    0    0    0    0  0.00000000000E+00  0.00000000000E+00  0.45593999997E+02  0.45594000000E+02  0.51100000000E-03 0. -1.
         11   -1    0    0    0    0 -0.00000000000E+00 -0.00000000000E+00 -0.45593999997E+02  0.45594000000E+02  0.51100000000E-03 0.  1.
    9900012    2    1    2    0    0 -0.15037010873E+02 -0.23645141238E+01  0.28018172895E+02  0.59301942931E+02  0.49999997999E+02 0.  0.
        -12    1    1    2    0    0  0.15037010873E+02  0.23645141238E+01 -0.28018172895E+02  0.31886057069E+02  0.00000000000E+00 0.  1.
         11    1    3    3    0    0 -0.14490981868E+01 -0.84007238096E+01  0.74192607852E+01  0.11301215728E+02  0.51100000000E-03 0. -1.
        -11    1    3    3    0    0  0.10199550956E+02 -0.10252621690E+02  0.56593833572E+01  0.15529832951E+02  0.51100000000E-03 0.  1.
         12    1    3    3    0    0 -0.23787463643E+02  0.16288831376E+02  0.14939528753E+02  0.32470894252E+02  0.00000000000E+00 0. -1.
</event>
<event>
 7    1  0.1221195E-011  0.5930195E+02  0.7816164E-02  0.1266605E+00
        -11   -1    0    0    0    0  0.00000000000E+00  0.00000000000E+00  0.45593999997E+02  0.45594000000E+02  0.51100000000E-03 0. -1.
         11   -1    0    0    0    0 -0.00000000000E+00 -0.00000000000E+00 -0.45593999997E+02  0.45594000000E+02  0.51100000000E-03 0.  1.
    9900012    2    1    2    0    0  0.33674146952E+01  0.30346467697E+02  0.91908889608E+01  0.59301952529E+02  0.50000015504E+02 0.  0.
        -12    1    1    2    0    0 -0.33674146952E+01 -0.30346467697E+02 -0.91908889608E+01  0.31886047471E+02  0.00000000000E+00 0.  1.
         11    1    3    3    0    0 -0.42240463513E+01  0.95813383849E+01  0.24268959867E+02  0.26431553607E+02  0.51100000000E-03 0. -1.
        -11    1    3    3    0    0  0.54758140029E+01  0.14294077058E+02  0.10714556245E+01  0.15344484200E+02  0.51100000000E-03 0.  1.
        -12    1    3    3    0    0  0.21156470436E+01  0.64710522545E+01 -0.16149526530E+02  0.17525914722E+02  0.00000000000E+00 0.  1.
</event>
<event>
 7    1  0.1221195E-011  0.5930197E+02  0.7816164E-02  0.1266605E+00
        -11   -1    0    0    0    0  0.00000000000E+00  0.00000000000E+00  0.45593999997E+02  0.45594000000E+02  0.51100000000E-03 0.  1.
         11   -1    0    0    0    0 -0.00000000000E+00 -0.00000000000E+00 -0.45593999997E+02  0.45594000000E+02  0.51100000000E-03 0. -1.
    9900012    2    1    2    0    0  0.17748964576E+02 -0.23034530785E+01 -0.26389150403E+02  0.59301970166E+02  0.50000047669E+02 0.  0.
        -12    1    1    2    0    0 -0.17748964576E+02  0.23034530785E+01  0.26389150403E+02  0.31886029834E+02  0.00000000000E+00 0.  1.
         11    1    3    3    0    0  0.18288275502E+02 -0.37213327482E+01 -0.22692716154E+02  0.29381434699E+02  0.51100000000E-03 0. -1.
        -11    1    3    3    0    0 -0.10622744139E+02  0.57173415077E+01 -0.11340161090E+02  0.16556869896E+02  0.51100000000E-03 0.  1.
        -12    1    3    3    0    0  0.10083433213E+02 -0.42994618380E+01  0.76437268410E+01  0.13363665571E+02  0.00000000000E+00 0.  1.
</event>
<event>
 7    1  0.1221195E-011  0.5930194E+02  0.7816164E-02  0.1266605E+00
        -11   -1    0    0    0    0  0.00000000000E+00  0.00000000000E+00  0.45593999997E+02  0.45594000000E+02  0.51100000000E-03 0. -1.
         11   -1    0    0    0    0 -0.00000000000E+00 -0.00000000000E+00 -0.45593999997E+02  0.45594000000E+02  0.51100000000E-03 0.  1.
    9900012    2    1    2    0    0  0.29212391602E+02 -0.12738953218E+02 -0.10372580431E+01  0.59301942601E+02  0.49999997398E+02 0.  0.
        -12    1    1    2    0    0 -0.29212391602E+02  0.12738953218E+02  0.10372580431E+01  0.31886057399E+02  0.00000000000E+00 0.  1.
         11    1    3    3    0    0  0.15900461687E+01 -0.42339916205E+01 -0.12650188445E+02  0.13434366372E+02  0.51100000000E-03 0. -1.
        -11    1    3    3    0    0 -0.13507757850E+01  0.86591037392E+01 -0.28528009512E+01  0.92164606176E+01  0.51100000000E-03 0.  1.
         12    1    3    3    0    0  0.28973121219E+02 -0.17164065336E+02  0.14465731353E+02  0.36651115612E+02  0.00000000000E+00 0. -1.
</event>
<event>
 7    1  0.1221195E-011  0.5930195E+02  0.7816164E-02  0.1266605E+00
        -11   -1    0    0    0    0  0.00000000000E+00  0.00000000000E+00  0.45593999997E+02  0.45594000000E+02  0.51100000000E-03 0.  1.
         11   -1    0    0    0    0 -0.00000000000E+00 -0.00000000000E+00 -0.45593999997E+02  0.45594000000E+02  0.51100000000E-03 0. -1.
    9900012    2    1    2    0    0 -0.12217225330E+01  0.13960676908E+02 -0.28641354098E+02  0.59301948657E+02  0.50000008443E+02 0.  0.
        -12    1    1    2    0    0  0.12217225330E+01 -0.13960676908E+02  0.28641354098E+02  0.31886051343E+02  0.00000000000E+00 0.  1.
         11    1    3    3    0    0  0.59828783649E+01  0.15727965948E+02 -0.67481252699E+01  0.18130111453E+02  0.51100000000E-03 0. -1.
        -11    1    3    3    0    0  0.10383811857E+02 -0.36748009741E+01  0.22481485715E+01  0.11241969718E+02  0.51100000000E-03 0.  1.
         12    1    3    3    0    0 -0.17588412754E+02  0.19075119342E+01 -0.24141377400E+02  0.29929867486E+02  0.00000000000E+00 0. -1.
</event>
<event>
 7    1  0.1221195E-011  0.5930196E+02  0.7816164E-02  0.1266605E+00
        -11   -1    0    0    0    0  0.00000000000E+00  0.00000000000E+00  0.45593999997E+02  0.45594000000E+02  0.51100000000E-03 0. -1.
         11   -1    0    0    0    0 -0.00000000000E+00 -0.00000000000E+00 -0.45593999997E+02  0.45594000000E+02  0.51100000000E-03 0.  1.
    9900012    2    1    2    0    0  0.23361656689E+02 -0.13253048139E+02  0.17184568185E+02  0.59301958039E+02  0.50000025553E+02 0.  0.
        -12    1    1    2    0    0 -0.23361656689E+02  0.13253048139E+02 -0.17184568185E+02  0.31886041961E+02  0.00000000000E+00 0.  1.
         11    1    3    3    0    0 -0.52127142021E+01 -0.29140214058E+01 -0.62418538307E+01  0.86385559911E+01  0.51100000000E-03 0. -1.
        -11    1    3    3    0    0  0.62753839009E+01 -0.75770676907E+00 -0.84790908252E+01  0.10575894484E+02  0.51100000000E-03 0.  1.
         12    1    3    3    0    0  0.22298986990E+02 -0.95813199638E+01  0.31905512841E+02  0.40087507564E+02  0.00000000000E+00 0. -1.
</event>
<event>
 7    1  0.1221195E-011  0.5930195E+02  0.7816164E-02  0.1266605E+00
        -11   -1    0    0    0    0  0.00000000000E+00  0.00000000000E+00  0.45593999997E+02  0.45594000000E+02  0.51100000000E-03 0.  1.
         11   -1    0    0    0    0 -0.00000000000E+00 -0.00000000000E+00 -0.45593999997E+02  0.45594000000E+02  0.51100000000E-03 0. -1.
    9900012    2    1    2    0    0 -0.21132276576E+02 -0.53057080120E+01 -0.23280818784E+02  0.59301950165E+02  0.50000011194E+02 0.  0.
        -12    1    1    2    0    0  0.21132276576E+02  0.53057080120E+01  0.23280818784E+02  0.31886049835E+02  0.00000000000E+00 0.  1.
         11    1    3    3    0    0 -0.17376571434E+02  0.26815282861E+01 -0.38794860968E+01  0.18005172629E+02  0.51100000000E-03 0. -1.
        -11    1    3    3    0    0 -0.79209539005E+01  0.48151800327E+01  0.70302018557E+01  0.11634053800E+02  0.51100000000E-03 0.  1.
        -12    1    3    3    0    0  0.41652487588E+01 -0.12802416331E+02 -0.26431534543E+02  0.29662723736E+02  0.00000000000E+00 0.  1.
</event>
<event>
 7    1  0.1221195E-011  0.5930193E+02  0.7816164E-02  0.1266605E+00
        -11   -1    0    0    0    0  0.00000000000E+00  0.00000000000E+00  0.45593999997E+02  0.45594000000E+02  0.51100000000E-03 0.  1.
         11   -1    0    0    0    0 -0.00000000000E+00 -0.00000000000E+00 -0.45593999997E+02  0.45594000000E+02  0.51100000000E-03 0. -1.
    9900012    2    1    2    0    0 -0.43250030114E+01  0.31553121073E+02  0.15543996810E+01  0.59301933154E+02  0.49999980170E+02 0.  0.
        -12    1    1    2    0    0  0.43250030114E+01 -0.31553121073E+02 -0.15543996810E+01  0.31886066846E+02  0.00000000000E+00 0.  1.
         11    1    3    3    0    0  0.41003683706E+01  0.44179156098E+01 -0.17573589115E+01  0.62784798889E+01  0.51100000000E-03 0. -1.
        -11    1    3    3    0    0  0.11590919922E+02 -0.56074759826E+01  0.66690095370E+01  0.14500651709E+02  0.51100000000E-03 0.  1.
         12    1    3    3    0    0 -0.20016291304E+02  0.32742681446E+02 -0.33572509444E+01  0.38522801556E+02  0.00000000000E+00 0. -1.
</event>
<event>
 7    1  0.1221195E-011  0.5930193E+02  0.7816164E-02  0.1266605E+00
        -11   -1    0    0    0    0  0.00000000000E+00  0.00000000000E+00  0.45593999997E+02  0.45594000000E+02  0.51100000000E-03 0.  1.
         11   -1    0    0    0    0 -0.00000000000E+00 -0.00000000000E+00 -0.45593999997E+02  0.45594000000E+02  0.51100000000E-03 0. -1.
    9900012    2    1    2    0    0 -0.33378369299E+01  0.18692355499E+02 -0.25615935105E+02  0.59301930302E+02  0.49999974968E+02 0.  0.
        -12    1    1    2    0    0  0.33378369299E+01 -0.18692355499E+02  0.25615935105E+02  0.31886069698E+02  0.00000000000E+00 0.  1.
         11    1    3    3    0    0 -0.72086426856E+01  0.43244913940E+01 -0.10321959653E+02  0.13311972300E+02  0.51100000000E-03 0.  1.
        -11    1    3    3    0    0  0.21678226136E+02  0.24895359523E+01 -0.96061443044E+01  0.23841587328E+02  0.51100000000E-03 0. -1.
         12    1    3    3    0    0 -0.17807420381E+02  0.11878328153E+02 -0.56878311477E+01  0.22148370674E+02  0.00000000000E+00 0. -1.
</event>
<event>
 7    1  0.1221195E-011  0.5930192E+02  0.7816164E-02  0.1266605E+00
        -11   -1    0    0    0    0  0.00000000000E+00  0.00000000000E+00  0.45593999997E+02  0.45594000000E+02  0.51100000000E-03 0. -1.
         11   -1    0    0    0    0 -0.00000000000E+00 -0.00000000000E+00 -0.45593999997E+02  0.45594000000E+02  0.51100000000E-03 0.  1.
    9900012    2    1    2    0    0 -0.38570165669E+01 -0.28625914452E+02  0.13505640749E+02  0.59301923304E+02  0.49999962205E+02 0.  0.
        -12    1    1    2    0    0  0.38570165669E+01  0.28625914452E+02 -0.13505640749E+02  0.31886076696E+02  0.00000000000E+00 0.  1.
         11    1    3    3    0    0 -0.12423214853E+02  0.99397762935E+01  0.71387161647E+01  0.17438368295E+02  0.51100000000E-03 0.  1.
        -11    1    3    3    0    0  0.68602334609E+01 -0.92079909240E+01  0.47058053279E+01  0.12409452205E+02  0.51100000000E-03 0. -1.
        -12    1    3    3    0    0  0.17059648252E+01 -0.29357699821E+02  0.16611192569E+01  0.29454102804E+02  0.00000000000E+00 0.  1.
</event>
<event>
 7    1  0.1221195E-011  0.5930195E+02  0.7816164E-02  0.1266605E+00
        -11   -1    0    0    0    0  0.00000000000E+00  0.00000000000E+00  0.45593999997E+02  0.45594000000E+02  0.51100000000E-03 0. -1.
         11   -1    0    0    0    0 -0.00000000000E+00 -0.00000000000E+00 -0.45593999997E+02  0.45594000000E+02  0.51100000000E-03 0.  1.
    9900012    2    1    2    0    0  0.59517656828E+01  0.17708677773E+02  0.25839875921E+02  0.59301953352E+02  0.50000017006E+02 0.  0.
        -12    1    1    2    0    0 -0.59517656828E+01 -0.17708677773E+02 -0.25839875921E+02  0.31886046648E+02  0.00000000000E+00 0.  1.
         11    1    3    3    0    0  0.68874413168E+01 -0.31910053654E+01  0.18855042750E+02  0.20325648833E+02  0.51100000000E-03 0. -1.
        -11    1    3    3    0    0  0.55826504272E+01 -0.65085666815E+01 -0.30031391455E+01  0.90854978415E+01  0.51100000000E-03 0.  1.
        -12    1    3    3    0    0 -0.65183260611E+01  0.27408249820E+02  0.99879723169E+01  0.29890806678E+02  0.00000000000E+00 0.  1.
</event>
<event>
 7    1  0.1221195E-011  0.5930194E+02  0.7816164E-02  0.1266605E+00
        -11   -1    0    0    0    0  0.00000000000E+00  0.00000000000E+00  0.45593999997E+02  0.45594000000E+02  0.51100000000E-03 0. -1.
         11   -1    0    0    0    0 -0.00000000000E+00 -0.00000000000E+00 -0.45593999997E+02  0.45594000000E+02  0.51100000000E-03 0.  1.
    9900012    2    1    2    0    0 -0.27039051162E+02  0.45150837764E+01  0.16285716066E+02  0.59301940083E+02  0.49999992806E+02 0.  0.
        -12    1    1    2    0    0  0.27039051162E+02 -0.45150837764E+01 -0.16285716066E+02  0.31886059917E+02  0.00000000000E+00 0.  1.
         11    1    3    3    0    0  0.18306833171E+00 -0.12541755199E+02 -0.72858740581E+01  0.14505622997E+02  0.51100000000E-03 0. -1.
        -11    1    3    3    0    0 -0.66854721917E+01  0.37299539078E+01  0.18182396969E+02  0.19728346469E+02  0.51100000000E-03 0.  1.
        -12    1    3    3    0    0 -0.20536647302E+02  0.13326885068E+02  0.53891931543E+01  0.25067970617E+02  0.00000000000E+00 0.  1.
</event>
<event>
 7    1  0.1221195E-011  0.5930194E+02  0.7816164E-02  0.1266605E+00
        -11   -1    0    0    0    0  0.00000000000E+00  0.00000000000E+00  0.45593999997E+02  0.45594000000E+02  0.51100000000E-03 0.  1.
         11   -1    0    0    0    0 -0.00000000000E+00 -0.00000000000E+00 -0.45593999997E+02  0.45594000000E+02  0.51100000000E-03 0. -1.
    9900012    2    1    2    0    0 -0.24072334878E+02  0.79979868962E+01 -0.19320337734E+02  0.59301944254E+02  0.50000000413E+02 0.  0.
        -12    1    1    2    0    0  0.24072334878E+02 -0.79979868962E+01  0.19320337734E+02  0.31886055746E+02  0.00000000000E+00 0.  1.
         11    1    3    3    0    0  0.82674022511E+01 -0.21427864416E+01 -0.65329136902E+01  0.10752694326E+02  0.51100000000E-03 0. -1.
        -11    1    3    3    0    0  0.23546255716E+01  0.46155194160E+00  0.70370153807E+01  0.74348421306E+01  0.51100000000E-03 0.  1.
        -12    1    3    3    0    0 -0.34694362701E+02  0.96792213961E+01 -0.19824439424E+02  0.41114407798E+02  0.00000000000E+00 0.  1.
</event>
<event>
 7    1  0.1221195E-011  0.5930197E+02  0.7816164E-02  0.1266605E+00
        -11   -1    0    0    0    0  0.00000000000E+00  0.00000000000E+00  0.45593999997E+02  0.45594000000E+02  0.51100000000E-03 0. -1.
         11   -1    0    0    0    0 -0.00000000000E+00 -0.00000000000E+00 -0.45593999997E+02  0.45594000000E+02  0.51100000000E-03 0.  1.
    9900012    2    1    2    0    0 -0.16919728472E+02 -0.26809297768E+02  0.34209797074E+01  0.59301972331E+02  0.50000051618E+02 0.  0.
        -12    1    1    2    0    0  0.16919728472E+02  0.26809297768E+02 -0.34209797074E+01  0.31886027669E+02  0.00000000000E+00 0.  1.
         11    1    3    3    0    0  0.96742226183E+01  0.82127433708E+00 -0.33643948268E+00  0.97148477390E+01  0.51100000000E-03 0. -1.
        -11    1    3    3    0    0 -0.13004153521E+02 -0.17917333725E+01 -0.10768127060E+02  0.16978541690E+02  0.51100000000E-03 0.  1.
         12    1    3    3    0    0 -0.13589797570E+02 -0.25838838732E+02  0.14525546250E+02  0.32608582902E+02  0.00000000000E+00 0. -1.
</event>
<event>
 7    1  0.1221195E-011  0.5930194E+02  0.7816164E-02  0.1266605E+00
        -11   -1    0    0    0    0  0.00000000000E+00  0.00000000000E+00  0.45593999997E+02  0.45594000000E+02  0.51100000000E-03 0.  1.
         11   -1    0    0    0    0 -0.00000000000E+00 -0.00000000000E+00 -0.45593999997E+02  0.45594000000E+02  0.51100000000E-03 0. -1.
    9900012    2    1    2    0    0  0.10804848600E+02  0.94551761077E+00 -0.29984702363E+02  0.59301935134E+02  0.49999983780E+02 0.  0.
        -12    1    1    2    0    0 -0.10804848600E+02 -0.94551761077E+00  0.29984702363E+02  0.31886064866E+02  0.00000000000E+00 0.  1.
         11    1    3    3    0    0  0.17221163131E+02  0.63567024630E+01 -0.21291658087E+02  0.28112467521E+02  0.51100000000E-03 0. -1.
        -11    1    3    3    0    0  0.25952484115E+01  0.95938782987E+01  0.27075000990E+01  0.10300891815E+02  0.51100000000E-03 0.  1.
        -12    1    3    3    0    0 -0.90115629425E+01 -0.15005063151E+02 -0.11400544375E+02  0.20888575798E+02  0.00000000000E+00 0.  1.
</event>
<event>
 7    1  0.1221195E-011  0.5930191E+02  0.7816164E-02  0.1266605E+00
        -11   -1    0    0    0    0  0.00000000000E+00  0.00000000000E+00  0.45593999997E+02  0.45594000000E+02  0.51100000000E-03 0. -1.
         11   -1    0    0    0    0 -0.00000000000E+00 -0.00000000000E+00 -0.45593999997E+02  0.45594000000E+02  0.51100000000E-03 0.  1.
    9900012    2    1    2    0    0 -0.26825556744E+02  0.96750927801E+01 -0.14265502728E+02  0.59301913959E+02  0.49999945162E+02 0.  0.
        -12    1    1    2    0    0  0.26825556744E+02 -0.96750927801E+01  0.14265502728E+02  0.31886086041E+02  0.00000000000E+00 0.  1.
         11    1    3    3    0    0 -0.33142125735E+00  0.86831533520E+00 -0.98806050900E+00  0.13564937898E+01  0.51100000000E-03 0. -1.
        -11    1    3    3    0    0  0.36635688144E+00  0.24490758579E+02 -0.10718586171E+02  0.26736109719E+02  0.51100000000E-03 0.  1.
         12    1    3    3    0    0 -0.26860492368E+02 -0.15683981134E+02 -0.25588560478E+01  0.31209310450E+02  0.00000000000E+00 0. -1.
</event>
<event>
 7    1  0.1221195E-011  0.5930195E+02  0.7816164E-02  0.1266605E+00
        -11   -1    0    0    0    0  0.00000000000E+00  0.00000000000E+00  0.45593999997E+02  0.45594000000E+02  0.51100000000E-03 0.  1.
         11   -1    0    0    0    0 -0.00000000000E+00 -0.00000000000E+00 -0.45593999997E+02  0.45594000000E+02  0.51100000000E-03 0. -1.
    9900012    2    1    2    0    0 -0.24301542498E+02  0.15949835504E+01 -0.20581818561E+02  0.59301949828E+02  0.50000010578E+02 0.  0.
        -12    1    1    2    0    0  0.24301542498E+02 -0.15949835504E+01  0.20581818561E+02  0.31886050172E+02  0.00000000000E+00 0.  1.
         11    1    3    3    0    0 -0.45823309567E+01 -0.17621747924E+01 -0.61223907355E+01  0.78477184949E+01  0.51100000000E-03 0. -1.
        -11    1    3    3    0    0  0.23922280262E+01 -0.15963276102E+02 -0.15072619118E+02  0.22084673105E+02  0.51100000000E-03 0.  1.
         12    1    3    3    0    0 -0.22111439568E+02  0.19320434445E+02  0.61319129239E+00  0.29369558227E+02  0.00000000000E+00 0. -1.
</event>
<event>
 7    1  0.1221195E-011  0.5930195E+02  0.7816164E-02  0.1266605E+00
        -11   -1    0    0    0    0  0.00000000000E+00  0.00000000000E+00  0.45593999997E+02  0.45594000000E+02  0.51100000000E-03 0.  1.
         11   -1    0    0    0    0 -0.00000000000E+00 -0.00000000000E+00 -0.45593999997E+02  0.45594000000E+02  0.51100000000E-03 0. -1.
    9900012    2    1    2    0    0 -0.11699663273E+02 -0.13117263951E+01 -0.29633041439E+02  0.59301954593E+02  0.50000019268E+02 0.  0.
        -12    1    1    2    0    0  0.11699663273E+02  0.13117263951E+01  0.29633041439E+02  0.31886045407E+02  0.00000000000E+00 0.  1.
         11    1    3    3    0    0 -0.24132239658E+02 -0.88773099119E+01 -0.28802665036E+02  0.38610427809E+02  0.51100000000E-03 0. -1.
        -11    1    3    3    0    0  0.62090144597E+01 -0.39387183535E+01 -0.18184527258E+01  0.75744394780E+01  0.51100000000E-03 0.  1.
        -12    1    3    3    0    0  0.62235619256E+01  0.11504301870E+02  0.98807632272E+00  0.13117087306E+02  0.00000000000E+00 0.  1.
</event>
<event>
 7    1  0.1221195E-011  0.5930196E+02  0.7816164E-02  0.1266605E+00
        -11   -1    0    0    0    0  0.00000000000E+00  0.00000000000E+00  0.45593999997E+02  0.45594000000E+02  0.51100000000E-03 0.  1.
         11   -1    0    0    0    0 -0.00000000000E+00 -0.00000000000E+00 -0.45593999997E+02  0.45594000000E+02  0.51100000000E-03 0. -1.
    9900012    2    1    2    0    0  0.69571719527E+01  0.30018951841E+02 -0.81963422026E+01  0.59301957024E+02  0.50000023701E+02 0.  0.
        -12    1    1    2    0    0 -0.69571719527E+01 -0.30018951841E+02  0.81963422026E+01  0.31886042976E+02  0.00000000000E+00 0.  1.
         11    1    3    3    0    0  0.17534646728E+02  0.72411241785E+01 -0.14835032843E+02  0.24082689114E+02  0.51100000000E-03 0. -1.
        -11    1    3    3    0    0  0.23845550054E+01 -0.26126276969E+01  0.56850058905E+01  0.66956118684E+01  0.51100000000E-03 0.  1.
        -12    1    3    3    0    0 -0.12962029780E+02  0.25390455359E+02  0.95368474997E+00  0.28523656041E+02  0.00000000000E+00 0.  1.
</event>
<event>
 7    1  0.1221195E-011  0.5930198E+02  0.7816164E-02  0.1266605E+00
        -11   -1    0    0    0    0  0.00000000000E+00  0.00000000000E+00  0.45593999997E+02  0.45594000000E+02  0.51100000000E-03 0.  1.
         11   -1    0    0    0    0 -0.00000000000E+00 -0.00000000000E+00 -0.45593999997E+02  0.45594000000E+02  0.51100000000E-03 0. -1.
    9900012    2    1    2    0    0  0.30803130418E+02  0.54989918704E+01 -0.61356847561E+01  0.59301978258E+02  0.50000062428E+02 0.  0.
        -12    1    1    2    0    0 -0.30803130418E+02 -0.54989918704E+01  0.61356847561E+01  0.31886021742E+02  0.00000000000E+00 0.  1.
         11    1    3    3    0    0  0.16725276016E+02  0.21348222254E+02 -0.14448617887E+02  0.30728553665E+02  0.51100000000E-03 0. -1.
        -11    1    3    3    0    0  0.71461630777E+00  0.28970267720E+01  0.42547897825E+01  0.51967948718E+01  0.51100000000E-03 0.  1.
        -12    1    3    3    0    0  0.13363238094E+02 -0.18746257156E+02  0.40581433483E+01  0.23376629722E+02  0.00000000000E+00 0.  1.
</event>
<event>
 7    1  0.1221195E-011  0.5930198E+02  0.7816164E-02  0.1266605E+00
        -11   -1    0    0    0    0  0.00000000000E+00  0.00000000000E+00  0.45593999997E+02  0.45594000000E+02  0.51100000000E-03 0. -1.
         11   -1    0    0    0    0 -0.00000000000E+00 -0.00000000000E+00 -0.45593999997E+02  0.45594000000E+02  0.51100000000E-03 0.  1.
    9900012    2    1    2    0    0 -0.22295183349E+02  0.67832519950E+01  0.21763049149E+02  0.59301983999E+02  0.50000072898E+02 0.  0.
        -12    1    1    2    0    0  0.22295183349E+02 -0.67832519950E+01 -0.21763049149E+02  0.31886016001E+02  0.00000000000E+00 0.  1.
         11    1    3    3    0    0 -0.11583395211E+02  0.98528542332E+01  0.16517047290E+02  0.22451428298E+02  0.51100000000E-03 0. -1.
        -11    1    3    3    0    0 -0.42160385579E+01  0.10548750440E+02 -0.10193347829E+02  0.15262878405E+02  0.51100000000E-03 0.  1.
         12    1    3    3    0    0 -0.64957495793E+01 -0.13618352678E+02  0.15439349688E+02  0.21587677296E+02  0.00000000000E+00 0. -1.
</event>
<event>
 7    1  0.1221195E-011  0.5930198E+02  0.7816164E-02  0.1266605E+00
        -11   -1    0    0    0    0  0.00000000000E+00  0.00000000000E+00  0.45593999997E+02  0.45594000000E+02  0.51100000000E-03 0.  1.
         11   -1    0    0    0    0 -0.00000000000E+00 -0.00000000000E+00 -0.45593999997E+02  0.45594000000E+02  0.51100000000E-03 0. -1.
    9900012    2    1    2    0    0 -0.56339023503E+01 -0.11985761296E+02 -0.29005503331E+02  0.59301975585E+02  0.50000057553E+02 0.  0.
        -12    1    1    2    0    0  0.56339023503E+01  0.11985761296E+02  0.29005503331E+02  0.31886024415E+02  0.00000000000E+00 0.  1.
         11    1    3    3    0    0 -0.21130663645E+01 -0.61561125489E+01 -0.18339648375E+01  0.67621149400E+01  0.51100000000E-03 0. -1.
        -11    1    3    3    0    0 -0.91443862901E+01 -0.13903863582E+02 -0.35783468207E+02  0.39463829266E+02  0.51100000000E-03 0.  1.
        -12    1    3    3    0    0  0.56235503043E+01  0.80742148350E+01  0.86119297142E+01  0.13076031379E+02  0.00000000000E+00 0.  1.
</event>
<event>
 7    1  0.1221195E-011  0.5930199E+02  0.7816164E-02  0.1266605E+00
        -11   -1    0    0    0    0  0.00000000000E+00  0.00000000000E+00  0.45593999997E+02  0.45594000000E+02  0.51100000000E-03 0.  1.
         11   -1    0    0    0    0 -0.00000000000E+00 -0.00000000000E+00 -0.45593999997E+02  0.45594000000E+02  0.51100000000E-03 0. -1.
    9900012    2    1    2    0    0  0.31500969107E+02  0.48728916365E+01 -0.81349872099E+00  0.59301985703E+02  0.50000076005E+02 0.  0.
        -12    1    1    2    0    0 -0.31500969107E+02 -0.48728916365E+01  0.81349872099E+00  0.31886014297E+02  0.00000000000E+00 0.  1.
         11    1    3    3    0    0  0.70021522048E+01 -0.95097487309E+01 -0.63416653481E+01  0.13404558033E+02  0.51100000000E-03 0. -1.
        -11    1    3    3    0    0  0.20805506596E+02 -0.83863995534E+01  0.15049793099E+01  0.22482565805E+02  0.51100000000E-03 0.  1.
        -12    1    3    3    0    0  0.36933103059E+01  0.22769039921E+02  0.40231873172E+01  0.23414861864E+02  0.00000000000E+00 0.  1.
</event>
<event>
 7    1  0.1221195E-011  0.5930195E+02  0.7816164E-02  0.1266605E+00
        -11   -1    0    0    0    0  0.00000000000E+00  0.00000000000E+00  0.45593999997E+02  0.45594000000E+02  0.51100000000E-03 0.  1.
         11   -1    0    0    0    0 -0.00000000000E+00 -0.00000000000E+00 -0.45593999997E+02  0.45594000000E+02  0.51100000000E-03 0. -1.
    9900012    2    1    2    0    0 -0.21817521823E+02  0.21158434263E+02  0.96455411192E+01  0.59301951916E+02  0.50000014386E+02 0.  0.
        -12    1    1    2    0    0  0.21817521823E+02 -0.21158434263E+02 -0.96455411192E+01  0.31886048084E+02  0.00000000000E+00 0.  1.
         11    1    3    3    0    0 -0.15837658529E+02  0.31273612895E+02 -0.54115201022E+01  0.35470478447E+02  0.51100000000E-03 0. -1.
        -11    1    3    3    0    0 -0.51055960754E+01  0.25795982176E+01  0.52753979689E+01  0.77814691570E+01  0.51100000000E-03 0.  1.
        -12    1    3    3    0    0 -0.87426721824E+00 -0.12694776849E+02  0.97816632525E+01  0.16050004312E+02  0.00000000000E+00 0.  1.
</event>
<event>
 7    1  0.1221195E-011  0.5930190E+02  0.7816164E-02  0.1266605E+00
        -11   -1    0    0    0    0  0.00000000000E+00  0.00000000000E+00  0.45593999997E+02  0.45594000000E+02  0.51100000000E-03 0.  1.
         11   -1    0    0    0    0 -0.00000000000E+00 -0.00000000000E+00 -0.45593999997E+02  0.45594000000E+02  0.51100000000E-03 0. -1.
    9900012    2    1    2    0    0 -0.15240726387E+02  0.28002642125E+02  0.54386332242E+00  0.59301898104E+02  0.49999916246E+02 0.  0.
        -12    1    1    2    0    0  0.15240726387E+02 -0.28002642125E+02 -0.54386332242E+00  0.31886101896E+02  0.00000000000E+00 0.  1.
         11    1    3    3    0    0 -0.64575892893E+01 -0.11543830877E+02 -0.69264850996E+01  0.14931064491E+02  0.51100000000E-03 0. -1.
        -11    1    3    3    0    0 -0.31697381803E+01  0.19459854320E+01  0.50564486615E+01  0.62770831411E+01  0.51100000000E-03 0.  1.
        -12    1    3    3    0    0 -0.56133989178E+01  0.37600487570E+02  0.24138997606E+01  0.38093750472E+02  0.00000000000E+00 0.  1.
</event>
<event>
 7    1  0.1221195E-011  0.5930193E+02  0.7816164E-02  0.1266605E+00
        -11   -1    0    0    0    0  0.00000000000E+00  0.00000000000E+00  0.45593999997E+02  0.45594000000E+02  0.51100000000E-03 0.  1.
         11   -1    0    0    0    0 -0.00000000000E+00 -0.00000000000E+00 -0.45593999997E+02  0.45594000000E+02  0.51100000000E-03 0. -1.
    9900012    2    1    2    0    0 -0.13724592249E+02 -0.27484410336E+02  0.85418982659E+01  0.59301932982E+02  0.49999979855E+02 0.  0.
        -12    1    1    2    0    0  0.13724592249E+02  0.27484410336E+02 -0.85418982659E+01  0.31886067018E+02  0.00000000000E+00 0.  1.
         11    1    3    3    0    0  0.11415740501E+02 -0.90396177091E+01 -0.80774559711E+01  0.16651700056E+02  0.51100000000E-03 0. -1.
        -11    1    3    3    0    0  0.16749880640E+01  0.34966581925E+01 -0.65928686923E+00  0.39327932779E+01  0.51100000000E-03 0.  1.
        -12    1    3    3    0    0 -0.26815320815E+02 -0.21941450819E+02  0.17278641106E+02  0.38717439648E+02  0.00000000000E+00 0.  1.
</event>
<event>
 7    1  0.1221195E-011  0.5930197E+02  0.7816164E-02  0.1266605E+00
        -11   -1    0    0    0    0  0.00000000000E+00  0.00000000000E+00  0.45593999997E+02  0.45594000000E+02  0.51100000000E-03 0.  1.
         11   -1    0    0    0    0 -0.00000000000E+00 -0.00000000000E+00 -0.45593999997E+02  0.45594000000E+02  0.51100000000E-03 0. -1.
    9900012    2    1    2    0    0  0.40406122764E+01 -0.95662815748E+01 -0.30147615881E+02  0.59301968042E+02  0.50000043795E+02 0.  0.
        -12    1    1    2    0    0 -0.40406122764E+01  0.95662815748E+01  0.30147615881E+02  0.31886031958E+02  0.00000000000E+00 0.  1.
         11    1    3    3    0    0  0.16231768030E+02  0.49755031030E+01 -0.10857667410E+02  0.20152291839E+02  0.51100000000E-03 0. -1.
        -11    1    3    3    0    0  0.55396056671E+01 -0.13296544226E+02 -0.23480681311E+01  0.14594476473E+02  0.51100000000E-03 0.  1.
         12    1    3    3    0    0 -0.17730761420E+02 -0.12452404517E+01 -0.16941880340E+02  0.24555199730E+02  0.00000000000E+00 0. -1.
</event>
<event>
 7    1  0.1221195E-011  0.5930198E+02  0.7816164E-02  0.1266605E+00
        -11   -1    0    0    0    0  0.00000000000E+00  0.00000000000E+00  0.45593999997E+02  0.45594000000E+02  0.51100000000E-03 0. -1.
         11   -1    0    0    0    0 -0.00000000000E+00 -0.00000000000E+00 -0.45593999997E+02  0.45594000000E+02  0.51100000000E-03 0.  1.
    9900012    2    1    2    0    0 -0.14933984985E+02  0.62389088698E+01  0.27473079632E+02  0.59301984321E+02  0.50000073486E+02 0.  0.
        -12    1    1    2    0    0  0.14933984985E+02 -0.62389088698E+01 -0.27473079632E+02  0.31886015679E+02  0.00000000000E+00 0.  1.
         11    1    3    3    0    0 -0.37523727319E+01  0.16669413894E+02  0.11103052213E+02  0.20377130058E+02  0.51100000000E-03 0. -1.
        -11    1    3    3    0    0 -0.15159627330E+02  0.73858733206E+01  0.58128102036E+01  0.17836877200E+02  0.51100000000E-03 0.  1.
        -12    1    3    3    0    0  0.39780150778E+01 -0.17816378345E+02  0.10557217215E+02  0.21087977063E+02  0.00000000000E+00 0.  1.
</event>
<event>
 7    1  0.1221195E-011  0.5930194E+02  0.7816164E-02  0.1266605E+00
        -11   -1    0    0    0    0  0.00000000000E+00  0.00000000000E+00  0.45593999997E+02  0.45594000000E+02  0.51100000000E-03 0.  1.
         11   -1    0    0    0    0 -0.00000000000E+00 -0.00000000000E+00 -0.45593999997E+02  0.45594000000E+02  0.51100000000E-03 0. -1.
    9900012    2    1    2    0    0 -0.21521028152E+02  0.94743182337E+01 -0.21536095527E+02  0.59301940832E+02  0.49999994172E+02 0.  0.
        -12    1    1    2    0    0  0.21521028152E+02 -0.94743182337E+01  0.21536095527E+02  0.31886059168E+02  0.00000000000E+00 0.  1.
         11    1    3    3    0    0  0.76987948268E+01  0.11344606361E+02 -0.15454722417E+02  0.20659621984E+02  0.51100000000E-03 0. -1.
        -11    1    3    3    0    0 -0.28384104427E+01  0.81617031374E+01 -0.58168829344E+01  0.10416626099E+02  0.51100000000E-03 0.  1.
        -12    1    3    3    0    0 -0.26381412536E+02 -0.10031991265E+02 -0.26449017586E+00  0.28225692750E+02  0.00000000000E+00 0.  1.
</event>
<event>
 7    1  0.1221195E-011  0.5930173E+02  0.7816164E-02  0.1266606E+00
        -11   -1    0    0    0    0  0.00000000000E+00  0.00000000000E+00  0.45593999997E+02  0.45594000000E+02  0.51100000000E-03 0.  1.
         11   -1    0    0    0    0 -0.00000000000E+00 -0.00000000000E+00 -0.45593999997E+02  0.45594000000E+02  0.51100000000E-03 0. -1.
    9900012    2    1    2    0    0  0.19682196613E+02  0.23958565456E+02 -0.74385780594E+01  0.59301730765E+02  0.49999611058E+02 0.  0.
        -12    1    1    2    0    0 -0.19682196613E+02 -0.23958565456E+02  0.74385780594E+01  0.31886269235E+02  0.00000000000E+00 0.  1.
         11    1    3    3    0    0  0.45933955169E+01 -0.43252022958E+01 -0.55214268612E+01  0.83840808751E+01  0.51100000000E-03 0. -1.
        -11    1    3    3    0    0  0.25507239157E+02  0.30956851287E+02 -0.10239705804E+01  0.40124735601E+02  0.51100000000E-03 0.  1.
         12    1    3    3    0    0 -0.10418438061E+02 -0.26730835359E+01 -0.89318061783E+00  0.10792914288E+02  0.00000000000E+00 0. -1.
</event>
<event>
 7    1  0.1221195E-011  0.5930194E+02  0.7816164E-02  0.1266605E+00
        -11   -1    0    0    0    0  0.00000000000E+00  0.00000000000E+00  0.45593999997E+02  0.45594000000E+02  0.51100000000E-03 0.  1.
         11   -1    0    0    0    0 -0.00000000000E+00 -0.00000000000E+00 -0.45593999997E+02  0.45594000000E+02  0.51100000000E-03 0. -1.
    9900012    2    1    2    0    0 -0.18118166668E+02  0.26150698318E+02  0.21433499876E+01  0.59301938232E+02  0.49999989430E+02 0.  0.
        -12    1    1    2    0    0  0.18118166668E+02 -0.26150698318E+02 -0.21433499876E+01  0.31886061768E+02  0.00000000000E+00 0.  1.
         11    1    3    3    0    0  0.65979216855E+01 -0.21745311259E+01 -0.30749091371E+01  0.75971193651E+01  0.51100000000E-03 0. -1.
        -11    1    3    3    0    0 -0.10824378726E+02 -0.49382546165E+01 -0.68032639766E+01  0.13705398004E+02  0.51100000000E-03 0.  1.
         12    1    3    3    0    0 -0.13891709628E+02  0.33263484060E+02  0.12021523101E+02  0.37999420862E+02  0.00000000000E+00 0. -1.
</event>
<event>
 7    1  0.1221195E-011  0.5930196E+02  0.7816164E-02  0.1266605E+00
        -11   -1    0    0    0    0  0.00000000000E+00  0.00000000000E+00  0.45593999997E+02  0.45594000000E+02  0.51100000000E-03 0. -1.
         11   -1    0    0    0    0 -0.00000000000E+00 -0.00000000000E+00 -0.45593999997E+02  0.45594000000E+02  0.51100000000E-03 0.  1.
    9900012    2    1    2    0    0  0.20095955022E+02 -0.14319639569E+02  0.20194552591E+02  0.59301961677E+02  0.50000032188E+02 0.  0.
        -12    1    1    2    0    0 -0.20095955022E+02  0.14319639569E+02 -0.20194552591E+02  0.31886038323E+02  0.00000000000E+00 0.  1.
         11    1    3    3    0    0  0.13243008186E+02  0.36835652829E+01 -0.21482485306E+01  0.13912616254E+02  0.51100000000E-03 0. -1.
        -11    1    3    3    0    0  0.72893919269E+01 -0.35507419153E+01 -0.82402945793E+01  0.11560512870E+02  0.51100000000E-03 0.  1.
         12    1    3    3    0    0 -0.43644509137E+00 -0.14452462936E+02  0.30583095700E+02  0.33828832552E+02  0.00000000000E+00 0. -1.
</event>
<event>
 7    1  0.1221195E-011  0.5930202E+02  0.7816164E-02  0.1266604E+00
        -11   -1    0    0    0    0  0.00000000000E+00  0.00000000000E+00  0.45593999997E+02  0.45594000000E+02  0.51100000000E-03 0. -1.
         11   -1    0    0    0    0 -0.00000000000E+00 -0.00000000000E+00 -0.45593999997E+02  0.45594000000E+02  0.51100000000E-03 0.  1.
    9900012    2    1    2    0    0 -0.20495896478E+01  0.30152852057E+02 -0.10164650793E+02  0.59302024546E+02  0.50000146846E+02 0.  0.
        -12    1    1    2    0    0  0.20495896478E+01 -0.30152852057E+02  0.10164650793E+02  0.31885975454E+02  0.00000000000E+00 0.  1.
         11    1    3    3    0    0  0.10366139274E+02  0.81643642039E+01  0.87884790496E+01  0.15854054704E+02  0.51100000000E-03 0. -1.
        -11    1    3    3    0    0  0.28698096577E+01  0.11445193790E+02 -0.21676860622E+02  0.24680246252E+02  0.51100000000E-03 0.  1.
         12    1    3    3    0    0 -0.15285538580E+02  0.10543294064E+02  0.27237307795E+01  0.18767723590E+02  0.00000000000E+00 0. -1.
</event>
<event>
 7    1  0.1221195E-011  0.5930195E+02  0.7816164E-02  0.1266605E+00
        -11   -1    0    0    0    0  0.00000000000E+00  0.00000000000E+00  0.45593999997E+02  0.45594000000E+02  0.51100000000E-03 0.  1.
         11   -1    0    0    0    0 -0.00000000000E+00 -0.00000000000E+00 -0.45593999997E+02  0.45594000000E+02  0.51100000000E-03 0. -1.
    9900012    2    1    2    0    0  0.10875372124E+01  0.20658824040E+02 -0.24264180445E+02  0.59301949749E+02  0.50000010434E+02 0.  0.
        -12    1    1    2    0    0 -0.10875372124E+01 -0.20658824040E+02  0.24264180445E+02  0.31886050251E+02  0.00000000000E+00 0.  1.
         11    1    3    3    0    0 -0.10346729426E+02  0.11115316585E+02 -0.25162799603E+02  0.29389990757E+02  0.51100000000E-03 0. -1.
        -11    1    3    3    0    0 -0.77077212151E+01  0.56151922426E+01  0.35838495720E+01  0.10187410283E+02  0.51100000000E-03 0.  1.
        -12    1    3    3    0    0  0.19141987853E+02  0.39283152131E+01 -0.26852304141E+01  0.19724548709E+02  0.00000000000E+00 0.  1.
</event>
<event>
 7    1  0.1221195E-011  0.5930194E+02  0.7816164E-02  0.1266605E+00
        -11   -1    0    0    0    0  0.00000000000E+00  0.00000000000E+00  0.45593999997E+02  0.45594000000E+02  0.51100000000E-03 0.  1.
         11   -1    0    0    0    0 -0.00000000000E+00 -0.00000000000E+00 -0.45593999997E+02  0.45594000000E+02  0.51100000000E-03 0. -1.
    9900012    2    1    2    0    0  0.59171293465E+01 -0.14269033428E+01 -0.31299717030E+02  0.59301940993E+02  0.49999994466E+02 0.  0.
        -12    1    1    2    0    0 -0.59171293465E+01  0.14269033428E+01  0.31299717030E+02  0.31886059007E+02  0.00000000000E+00 0.  1.
         11    1    3    3    0    0  0.13273859436E+02 -0.64787964554E+01 -0.23808481996E+02  0.28018100633E+02  0.51100000000E-03 0. -1.
        -11    1    3    3    0    0  0.97966903691E+01 -0.43977955475E+01 -0.35240213824E+01  0.11301967741E+02  0.51100000000E-03 0.  1.
         12    1    3    3    0    0 -0.17153420459E+02  0.94496886600E+01 -0.39672136512E+01  0.19981872619E+02  0.00000000000E+00 0. -1.
</event>
<event>
 7    1  0.1221195E-011  0.5930194E+02  0.7816164E-02  0.1266605E+00
        -11   -1    0    0    0    0  0.00000000000E+00  0.00000000000E+00  0.45593999997E+02  0.45594000000E+02  0.51100000000E-03 0.  1.
         11   -1    0    0    0    0 -0.00000000000E+00 -0.00000000000E+00 -0.45593999997E+02  0.45594000000E+02  0.51100000000E-03 0. -1.
    9900012    2    1    2    0    0 -0.17508129884E+02  0.77814675924E+00 -0.26637955466E+02  0.59301940416E+02  0.49999993413E+02 0.  0.
        -12    1    1    2    0    0  0.17508129884E+02 -0.77814675924E+00  0.26637955466E+02  0.31886059584E+02  0.00000000000E+00 0.  1.
         11    1    3    3    0    0  0.32032962042E+01  0.87728027658E+01 -0.89792866925E+01  0.12955723241E+02  0.51100000000E-03 0. -1.
        -11    1    3    3    0    0  0.81261819576E+01  0.27627181899E+01  0.32058244264E+01  0.91621370607E+01  0.51100000000E-03 0.  1.
         12    1    3    3    0    0 -0.28837608046E+02 -0.10757374196E+02 -0.20864493199E+02  0.37184080114E+02  0.00000000000E+00 0. -1.
</event>
<event>
 7    1  0.1221195E-011  0.5930196E+02  0.7816164E-02  0.1266605E+00
        -11   -1    0    0    0    0  0.00000000000E+00  0.00000000000E+00  0.45593999997E+02  0.45594000000E+02  0.51100000000E-03 0.  1.
         11   -1    0    0    0    0 -0.00000000000E+00 -0.00000000000E+00 -0.45593999997E+02  0.45594000000E+02  0.51100000000E-03 0. -1.
    9900012    2    1    2    0    0  0.10044319033E+02  0.28958745480E+02 -0.87876034377E+01  0.59301964518E+02  0.50000037369E+02 0.  0.
        -12    1    1    2    0    0 -0.10044319033E+02 -0.28958745480E+02  0.87876034377E+01  0.31886035482E+02  0.00000000000E+00 0.  1.
         11    1    3    3    0    0  0.77611338764E+01 -0.33784058941E+01 -0.79892571153E+01  0.11639461111E+02  0.51100000000E-03 0. -1.
        -11    1    3    3    0    0 -0.31857198236E+01  0.13350242021E+02  0.16457368576E+02  0.21429483277E+02  0.51100000000E-03 0.  1.
         12    1    3    3    0    0  0.54689049804E+01  0.18986909353E+02 -0.17255714899E+02  0.26233020130E+02  0.00000000000E+00 0. -1.
</event>
<event>
 7    1  0.1221195E-011  0.5930194E+02  0.7816164E-02  0.1266605E+00
        -11   -1    0    0    0    0  0.00000000000E+00  0.00000000000E+00  0.45593999997E+02  0.45594000000E+02  0.51100000000E-03 0.  1.
         11   -1    0    0    0    0 -0.00000000000E+00 -0.00000000000E+00 -0.45593999997E+02  0.45594000000E+02  0.51100000000E-03 0. -1.
    9900012    2    1    2    0    0 -0.11310322331E+02 -0.25149973780E+02 -0.16008635366E+02  0.59301937549E+02  0.49999988184E+02 0.  0.
        -12    1    1    2    0    0  0.11310322331E+02  0.25149973780E+02  0.16008635366E+02  0.31886062451E+02  0.00000000000E+00 0.  1.
         11    1    3    3    0    0  0.46276115421E+01 -0.21234035253E+02 -0.19684007095E+02  0.29321650317E+02  0.51100000000E-03 0. -1.
        -11    1    3    3    0    0 -0.88626702420E+01 -0.13943635941E+02 -0.16462505747E+01  0.16603675747E+02  0.51100000000E-03 0.  1.
        -12    1    3    3    0    0 -0.70752636309E+01  0.10027697415E+02  0.53216223039E+01  0.13376611486E+02  0.00000000000E+00 0.  1.
</event>
<event>
 7    1  0.1221195E-011  0.5930189E+02  0.7816164E-02  0.1266605E+00
        -11   -1    0    0    0    0  0.00000000000E+00  0.00000000000E+00  0.45593999997E+02  0.45594000000E+02  0.51100000000E-03 0.  1.
         11   -1    0    0    0    0 -0.00000000000E+00 -0.00000000000E+00 -0.45593999997E+02  0.45594000000E+02  0.51100000000E-03 0. -1.
    9900012    2    1    2    0    0 -0.56043377832E+01 -0.13354142544E+02 -0.28407430339E+02  0.59301892938E+02  0.49999906825E+02 0.  0.
        -12    1    1    2    0    0  0.56043377832E+01  0.13354142544E+02  0.28407430339E+02  0.31886107062E+02  0.00000000000E+00 0.  1.
         11    1    3    3    0    0  0.85484396776E+01 -0.96118424437E+01 -0.14031664939E+02  0.19035518309E+02  0.51100000000E-03 0. -1.
        -11    1    3    3    0    0  0.50176409082E+01 -0.51360952247E+01  0.80125268717E+01  0.10759032557E+02  0.51100000000E-03 0.  1.
        -12    1    3    3    0    0 -0.19170418369E+02  0.13937951239E+01 -0.22388292272E+02  0.29507342072E+02  0.00000000000E+00 0.  1.
</event>
<event>
 7    1  0.1221195E-011  0.5930192E+02  0.7816164E-02  0.1266605E+00
        -11   -1    0    0    0    0  0.00000000000E+00  0.00000000000E+00  0.45593999997E+02  0.45594000000E+02  0.51100000000E-03 0.  1.
         11   -1    0    0    0    0 -0.00000000000E+00 -0.00000000000E+00 -0.45593999997E+02  0.45594000000E+02  0.51100000000E-03 0. -1.
    9900012    2    1    2    0    0 -0.88150761287E+01  0.12792798027E+02 -0.27845299698E+02  0.59301922100E+02  0.49999960010E+02 0.  0.
        -12    1    1    2    0    0  0.88150761287E+01 -0.12792798027E+02  0.27845299698E+02  0.31886077900E+02  0.00000000000E+00 0.  1.
         11    1    3    3    0    0 -0.45191173296E-01 -0.29162838807E+00  0.14031157453E+01  0.14338142888E+01  0.51100000000E-03 0. -1.
        -11    1    3    3    0    0  0.53183340663E+01 -0.12012972344E+02 -0.25707500435E+02  0.28869910992E+02  0.51100000000E-03 0.  1.
         12    1    3    3    0    0 -0.14088219022E+02  0.25097398760E+02 -0.35409150089E+01  0.28998196820E+02  0.00000000000E+00 0. -1.
</event>
<event>
 7    1  0.1221195E-011  0.5930197E+02  0.7816164E-02  0.1266605E+00
        -11   -1    0    0    0    0  0.00000000000E+00  0.00000000000E+00  0.45593999997E+02  0.45594000000E+02  0.51100000000E-03 0. -1.
         11   -1    0    0    0    0 -0.00000000000E+00 -0.00000000000E+00 -0.45593999997E+02  0.45594000000E+02  0.51100000000E-03 0.  1.
    9900012    2    1    2    0    0  0.51324976178E+01 -0.29378166650E+02  0.11282727458E+02  0.59301966280E+02  0.50000040582E+02 0.  0.
        -12    1    1    2    0    0 -0.51324976178E+01  0.29378166650E+02 -0.11282727458E+02  0.31886033720E+02  0.00000000000E+00 0.  1.
         11    1    3    3    0    0  0.96852413908E+01 -0.28275792333E+00  0.11423489705E+02  0.14979318080E+02  0.51100000000E-03 0. -1.
        -11    1    3    3    0    0  0.25808506193E+01  0.57856634064E+01 -0.54111953236E+01  0.83316100523E+01  0.51100000000E-03 0.  1.
        -12    1    3    3    0    0 -0.71335943923E+01 -0.34881072133E+02  0.52704330766E+01  0.35991038148E+02  0.00000000000E+00 0.  1.
</event>
<event>
 7    1  0.1221195E-011  0.5930195E+02  0.7816164E-02  0.1266605E+00
        -11   -1    0    0    0    0  0.00000000000E+00  0.00000000000E+00  0.45593999997E+02  0.45594000000E+02  0.51100000000E-03 0. -1.
         11   -1    0    0    0    0 -0.00000000000E+00 -0.00000000000E+00 -0.45593999997E+02  0.45594000000E+02  0.51100000000E-03 0.  1.
    9900012    2    1    2    0    0 -0.27820165382E+02  0.10519068213E+02  0.11493822169E+02  0.59301947469E+02  0.50000006275E+02 0.  0.
        -12    1    1    2    0    0  0.27820165382E+02 -0.10519068213E+02 -0.11493822169E+02  0.31886052531E+02  0.00000000000E+00 0.  1.
         11    1    3    3    0    0 -0.21309720204E+02  0.59110611116E+01  0.25416320161E+01  0.22259935135E+02  0.51100000000E-03 0. -1.
        -11    1    3    3    0    0 -0.11518993358E+02 -0.82515217425E+01  0.16143775812E+02  0.21480137727E+02  0.51100000000E-03 0.  1.
        -12    1    3    3    0    0  0.50085481803E+01  0.12859528844E+02 -0.71915856588E+01  0.15561874606E+02  0.00000000000E+00 0.  1.
</event>
<event>
 7    1  0.1221195E-011  0.5930206E+02  0.7816164E-02  0.1266604E+00
        -11   -1    0    0    0    0  0.00000000000E+00  0.00000000000E+00  0.45593999997E+02  0.45594000000E+02  0.51100000000E-03 0.  1.
         11   -1    0    0    0    0 -0.00000000000E+00 -0.00000000000E+00 -0.45593999997E+02  0.45594000000E+02  0.51100000000E-03 0. -1.
    9900012    2    1    2    0    0 -0.71419091321E+01  0.28832109955E+02 -0.11593772496E+02  0.59302062799E+02  0.50000216609E+02 0.  0.
        -12    1    1    2    0    0  0.71419091321E+01 -0.28832109955E+02  0.11593772496E+02  0.31885937201E+02  0.00000000000E+00 0.  1.
         11    1    3    3    0    0 -0.81261520570E+01  0.91993285605E+01 -0.44893621073E+00  0.12282651880E+02  0.51100000000E-03 0. -1.
        -11    1    3    3    0    0 -0.16634510071E+02 -0.19310485790E+01  0.69471560232E+00  0.16760623614E+02  0.51100000000E-03 0.  1.
         12    1    3    3    0    0  0.17618752996E+02  0.21563829974E+02 -0.11839551888E+02  0.30258787305E+02  0.00000000000E+00 0. -1.
</event>
<event>
 7    1  0.1221195E-011  0.5930194E+02  0.7816164E-02  0.1266605E+00
        -11   -1    0    0    0    0  0.00000000000E+00  0.00000000000E+00  0.45593999997E+02  0.45594000000E+02  0.51100000000E-03 0.  1.
         11   -1    0    0    0    0 -0.00000000000E+00 -0.00000000000E+00 -0.45593999997E+02  0.45594000000E+02  0.51100000000E-03 0. -1.
    9900012    2    1    2    0    0 -0.20590759604E+02  0.40392193734E+01 -0.24008870535E+02  0.59301944449E+02  0.50000000769E+02 0.  0.
        -12    1    1    2    0    0  0.20590759604E+02 -0.40392193734E+01  0.24008870535E+02  0.31886055551E+02  0.00000000000E+00 0.  1.
         11    1    3    3    0    0 -0.19518052798E+02  0.13210986084E+01 -0.20127744284E+02  0.28068234301E+02  0.51100000000E-03 0.  1.
        -11    1    3    3    0    0  0.11406243565E+02  0.44322974881E+00 -0.11689507750E+02  0.16338403734E+02  0.51100000000E-03 0. -1.
         12    1    3    3    0    0 -0.12478950372E+02  0.22748910161E+01  0.78083814997E+01  0.14895306414E+02  0.00000000000E+00 0. -1.
</event>
<event>
 7    1  0.1221195E-011  0.5930196E+02  0.7816164E-02  0.1266605E+00
        -11   -1    0    0    0    0  0.00000000000E+00  0.00000000000E+00  0.45593999997E+02  0.45594000000E+02  0.51100000000E-03 0.  1.
         11   -1    0    0    0    0 -0.00000000000E+00 -0.00000000000E+00 -0.45593999997E+02  0.45594000000E+02  0.51100000000E-03 0. -1.
    9900012    2    1    2    0    0  0.64082633237E+01  0.16711904144E+02 -0.26388743354E+02  0.59301963013E+02  0.50000034625E+02 0.  0.
        -12    1    1    2    0    0 -0.64082633237E+01 -0.16711904144E+02  0.26388743354E+02  0.31886036987E+02  0.00000000000E+00 0.  1.
         11    1    3    3    0    0 -0.57258529919E+01 -0.10978444485E+01 -0.20312258099E+02  0.21132403656E+02  0.51100000000E-03 0. -1.
        -11    1    3    3    0    0 -0.73016956712E+01  0.15332792484E+02  0.17471987256E+01  0.17072257867E+02  0.51100000000E-03 0.  1.
         12    1    3    3    0    0  0.19435811987E+02  0.24769561084E+01 -0.78236839803E+01  0.21097301490E+02  0.00000000000E+00 0. -1.
</event>
<event>
 7    1  0.1221195E-011  0.5930191E+02  0.7816164E-02  0.1266605E+00
        -11   -1    0    0    0    0  0.00000000000E+00  0.00000000000E+00  0.45593999997E+02  0.45594000000E+02  0.51100000000E-03 0.  1.
         11   -1    0    0    0    0 -0.00000000000E+00 -0.00000000000E+00 -0.45593999997E+02  0.45594000000E+02  0.51100000000E-03 0. -1.
    9900012    2    1    2    0    0 -0.12225375985E+02  0.40929970967E+01 -0.29163505414E+02  0.59301913830E+02  0.49999944926E+02 0.  0.
        -12    1    1    2    0    0  0.12225375985E+02 -0.40929970967E+01  0.29163505414E+02  0.31886086170E+02  0.00000000000E+00 0.  1.
         11    1    3    3    0    0 -0.11242801769E+02 -0.12692116595E+01 -0.16096088494E+02  0.19674744088E+02  0.51100000000E-03 0. -1.
        -11    1    3    3    0    0 -0.13393030544E+02  0.14654109107E+02 -0.13683717402E+02  0.24111414373E+02  0.51100000000E-03 0.  1.
        -12    1    3    3    0    0  0.12410456328E+02 -0.92919003505E+01  0.61630048159E+00  0.15515755369E+02  0.00000000000E+00 0.  1.
</event>
<event>
 7    1  0.1221195E-011  0.5930196E+02  0.7816164E-02  0.1266605E+00
        -11   -1    0    0    0    0  0.00000000000E+00  0.00000000000E+00  0.45593999997E+02  0.45594000000E+02  0.51100000000E-03 0.  1.
         11   -1    0    0    0    0 -0.00000000000E+00 -0.00000000000E+00 -0.45593999997E+02  0.45594000000E+02  0.51100000000E-03 0. -1.
    9900012    2    1    2    0    0 -0.17203630897E+02 -0.21809962674E+02 -0.15655044761E+02  0.59301955806E+02  0.50000021481E+02 0.  0.
        -12    1    1    2    0    0  0.17203630897E+02  0.21809962674E+02  0.15655044761E+02  0.31886044194E+02  0.00000000000E+00 0.  1.
         11    1    3    3    0    0 -0.36148703372E+01 -0.11592654542E+01 -0.20370570906E+02  0.20721277548E+02  0.51100000000E-03 0. -1.
        -11    1    3    3    0    0 -0.28067623394E+01 -0.23785704913E+02 -0.41075410119E+01  0.24300402599E+02  0.51100000000E-03 0.  1.
        -12    1    3    3    0    0 -0.10781998220E+02  0.31350076933E+01  0.88230671565E+01  0.14280275659E+02  0.00000000000E+00 0.  1.
</event>
<event>
 7    1  0.1221195E-011  0.5930194E+02  0.7816164E-02  0.1266605E+00
        -11   -1    0    0    0    0  0.00000000000E+00  0.00000000000E+00  0.45593999997E+02  0.45594000000E+02  0.51100000000E-03 0.  1.
         11   -1    0    0    0    0 -0.00000000000E+00 -0.00000000000E+00 -0.45593999997E+02  0.45594000000E+02  0.51100000000E-03 0. -1.
    9900012    2    1    2    0    0  0.17912634868E+02  0.16358032977E+02 -0.20694756205E+02  0.59301942464E+02  0.49999997149E+02 0.  0.
        -12    1    1    2    0    0 -0.17912634868E+02 -0.16358032977E+02  0.20694756205E+02  0.31886057536E+02  0.00000000000E+00 0.  1.
         11    1    3    3    0    0 -0.42800787452E+01  0.11973992814E+02 -0.14544509771E+00  0.12716789395E+02  0.51100000000E-03 0. -1.
        -11    1    3    3    0    0  0.15680148550E+02  0.18730380218E+02 -0.60315617889E+01  0.25160960624E+02  0.51100000000E-03 0.  1.
        -12    1    3    3    0    0  0.65125650631E+01 -0.14346340055E+02 -0.14517749318E+02  0.21424192445E+02  0.00000000000E+00 0.  1.
</event>
<event>
 7    1  0.1221195E-011  0.5930194E+02  0.7816164E-02  0.1266605E+00
        -11   -1    0    0    0    0  0.00000000000E+00  0.00000000000E+00  0.45593999997E+02  0.45594000000E+02  0.51100000000E-03 0. -1.
         11   -1    0    0    0    0 -0.00000000000E+00 -0.00000000000E+00 -0.45593999997E+02  0.45594000000E+02  0.51100000000E-03 0.  1.
    9900012    2    1    2    0    0  0.27269867880E+02 -0.11202446844E+02  0.12148270862E+02  0.59301937301E+02  0.49999987732E+02 0.  0.
        -12    1    1    2    0    0 -0.27269867880E+02  0.11202446844E+02 -0.12148270862E+02  0.31886062699E+02  0.00000000000E+00 0.  1.
         11    1    3    3    0    0  0.15432927688E+02  0.69811603145E+01 -0.26698239260E+01  0.17147589231E+02  0.51100000000E-03 0. -1.
        -11    1    3    3    0    0 -0.35422053650E+01  0.70354333357E+01 -0.20495599042E+01  0.81391177121E+01  0.51100000000E-03 0.  1.
        -12    1    3    3    0    0  0.15379145557E+02 -0.25219040494E+02  0.16867654692E+02  0.34015230358E+02  0.00000000000E+00 0.  1.
</event>
<event>
 7    1  0.1221195E-011  0.5930197E+02  0.7816164E-02  0.1266605E+00
        -11   -1    0    0    0    0  0.00000000000E+00  0.00000000000E+00  0.45593999997E+02  0.45594000000E+02  0.51100000000E-03 0.  1.
         11   -1    0    0    0    0 -0.00000000000E+00 -0.00000000000E+00 -0.45593999997E+02  0.45594000000E+02  0.51100000000E-03 0. -1.
    9900012    2    1    2    0    0  0.22207454469E+02 -0.79987006049E+01 -0.21437554980E+02  0.59301968436E+02  0.50000044515E+02 0.  0.
        -12    1    1    2    0    0 -0.22207454469E+02  0.79987006049E+01  0.21437554980E+02  0.31886031564E+02  0.00000000000E+00 0.  1.
         11    1    3    3    0    0  0.69396162072E+01 -0.21336748597E+02 -0.24967105577E+02  0.33567416864E+02  0.51100000000E-03 0. -1.
        -11    1    3    3    0    0  0.29154200997E+01 -0.35293811863E+01  0.40624249477E+00  0.45957849321E+01  0.51100000000E-03 0.  1.
        -12    1    3    3    0    0  0.12352418162E+02  0.16867429179E+02  0.31233081018E+01  0.21138766640E+02  0.00000000000E+00 0.  1.
</event>
<event>
 7    1  0.1221195E-011  0.5930196E+02  0.7816164E-02  0.1266605E+00
        -11   -1    0    0    0    0  0.00000000000E+00  0.00000000000E+00  0.45593999997E+02  0.45594000000E+02  0.51100000000E-03 0.  1.
         11   -1    0    0    0    0 -0.00000000000E+00 -0.00000000000E+00 -0.45593999997E+02  0.45594000000E+02  0.51100000000E-03 0. -1.
    9900012    2    1    2    0    0 -0.17777144982E+02  0.26470561046E+02  0.43620724116E-01  0.59301962482E+02  0.50000033656E+02 0.  0.
        -12    1    1    2    0    0  0.17777144982E+02 -0.26470561046E+02 -0.43620724116E-01  0.31886037518E+02  0.00000000000E+00 0.  1.
         11    1    3    3    0    0 -0.28054449342E+02  0.21118406617E+02 -0.58044012123E+01  0.35591154795E+02  0.51100000000E-03 0. -1.
        -11    1    3    3    0    0 -0.28791807651E+01 -0.49651504299E+01 -0.64321940120E+00  0.57754767881E+01  0.51100000000E-03 0.  1.
        -12    1    3    3    0    0  0.13156485124E+02  0.10317304859E+02  0.64912413376E+01  0.17935330900E+02  0.00000000000E+00 0.  1.
</event>
<event>
 7    1  0.1221195E-011  0.5930197E+02  0.7816164E-02  0.1266605E+00
        -11   -1    0    0    0    0  0.00000000000E+00  0.00000000000E+00  0.45593999997E+02  0.45594000000E+02  0.51100000000E-03 0.  1.
         11   -1    0    0    0    0 -0.00000000000E+00 -0.00000000000E+00 -0.45593999997E+02  0.45594000000E+02  0.51100000000E-03 0. -1.
    9900012    2    1    2    0    0  0.26448382198E+02 -0.63627552124E+01 -0.16634832380E+02  0.59301965077E+02  0.50000038389E+02 0.  0.
        -12    1    1    2    0    0 -0.26448382198E+02  0.63627552124E+01  0.16634832380E+02  0.31886034923E+02  0.00000000000E+00 0.  1.
         11    1    3    3    0    0  0.20058407311E+02 -0.46421905355E+01 -0.68728833699E+01  0.21705440859E+02  0.51100000000E-03 0. -1.
        -11    1    3    3    0    0  0.13899283338E+01 -0.96260462306E+01  0.11085193947E+02  0.14747006201E+02  0.51100000000E-03 0.  1.
         12    1    3    3    0    0  0.50000465533E+01  0.79054815537E+01 -0.20847142957E+02  0.22849518016E+02  0.00000000000E+00 0. -1.
</event>
<event>
 7    1  0.1221195E-011  0.5930189E+02  0.7816164E-02  0.1266605E+00
        -11   -1    0    0    0    0  0.00000000000E+00  0.00000000000E+00  0.45593999997E+02  0.45594000000E+02  0.51100000000E-03 0. -1.
         11   -1    0    0    0    0 -0.00000000000E+00 -0.00000000000E+00 -0.45593999997E+02  0.45594000000E+02  0.51100000000E-03 0.  1.
    9900012    2    1    2    0    0 -0.27485550688E+02 -0.14163090671E+02  0.77894210037E+01  0.59301894663E+02  0.49999909970E+02 0.  0.
        -12    1    1    2    0    0  0.27485550688E+02  0.14163090671E+02 -0.77894210037E+01  0.31886105337E+02  0.00000000000E+00 0.  1.
         11    1    3    3    0    0 -0.24572116537E+02 -0.75076474083E-01  0.46713252676E+01  0.25012313519E+02  0.51100000000E-03 0. -1.
        -11    1    3    3    0    0 -0.11264827213E+02 -0.14622250598E+02 -0.82132276413E+01  0.20203060491E+02  0.51100000000E-03 0.  1.
         12    1    3    3    0    0  0.83513930609E+01  0.53423640040E+00  0.11331323377E+02  0.14086520652E+02  0.00000000000E+00 0. -1.
</event>
<event>
 7    1  0.1221195E-011  0.5930193E+02  0.7816164E-02  0.1266605E+00
        -11   -1    0    0    0    0  0.00000000000E+00  0.00000000000E+00  0.45593999997E+02  0.45594000000E+02  0.51100000000E-03 0.  1.
         11   -1    0    0    0    0 -0.00000000000E+00 -0.00000000000E+00 -0.45593999997E+02  0.45594000000E+02  0.51100000000E-03 0. -1.
    9900012    2    1    2    0    0 -0.61701297636E+01  0.30539411410E+02 -0.67819971519E+01  0.59301927242E+02  0.49999969387E+02 0.  0.
        -12    1    1    2    0    0  0.61701297636E+01 -0.30539411410E+02  0.67819971519E+01  0.31886072758E+02  0.00000000000E+00 0.  1.
         11    1    3    3    0    0 -0.20427600926E+02  0.12388634861E+02 -0.10906529881E+02  0.26262474134E+02  0.51100000000E-03 0. -1.
        -11    1    3    3    0    0  0.14127152243E+01 -0.35758087008E+01  0.66421975210E+01  0.76746961072E+01  0.51100000000E-03 0.  1.
        -12    1    3    3    0    0  0.12844755939E+02  0.21726585249E+02 -0.25176647914E+01  0.25364757001E+02  0.00000000000E+00 0.  1.
</event>
<event>
 7    1  0.1221195E-011  0.5930195E+02  0.7816164E-02  0.1266605E+00
        -11   -1    0    0    0    0  0.00000000000E+00  0.00000000000E+00  0.45593999997E+02  0.45594000000E+02  0.51100000000E-03 0. -1.
         11   -1    0    0    0    0 -0.00000000000E+00 -0.00000000000E+00 -0.45593999997E+02  0.45594000000E+02  0.51100000000E-03 0.  1.
    9900012    2    1    2    0    0 -0.18432204169E+02 -0.24819385839E+02 -0.78084764918E+01  0.59301947107E+02  0.50000005616E+02 0.  0.
        -12    1    1    2    0    0  0.18432204169E+02  0.24819385839E+02  0.78084764918E+01  0.31886052893E+02  0.00000000000E+00 0.  1.
         11    1    3    3    0    0 -0.25773770708E+02 -0.77654571040E+01 -0.11268110505E+01  0.26941775812E+02  0.51100000000E-03 0. -1.
        -11    1    3    3    0    0 -0.65970684704E+01 -0.16364658613E+02 -0.27174448838E+01  0.17852391181E+02  0.51100000000E-03 0.  1.
         12    1    3    3    0    0  0.13938635009E+02 -0.68927012265E+00 -0.39642205575E+01  0.14507780114E+02  0.00000000000E+00 0. -1.
</event>
<event>
 7    1  0.1221195E-011  0.5930195E+02  0.7816164E-02  0.1266605E+00
        -11   -1    0    0    0    0  0.00000000000E+00  0.00000000000E+00  0.45593999997E+02  0.45594000000E+02  0.51100000000E-03 0.  1.
         11   -1    0    0    0    0 -0.00000000000E+00 -0.00000000000E+00 -0.45593999997E+02  0.45594000000E+02  0.51100000000E-03 0. -1.
    9900012    2    1    2    0    0 -0.26790102165E+02  0.16116769508E+02  0.62657878439E+01  0.59301953982E+02  0.50000018154E+02 0.  0.
        -12    1    1    2    0    0  0.26790102165E+02 -0.16116769508E+02 -0.62657878439E+01  0.31886046018E+02  0.00000000000E+00 0.  1.
         11    1    3    3    0    0 -0.35846962305E+02  0.91631404243E+01  0.37595352847E+01  0.37190078714E+02  0.51100000000E-03 0. -1.
        -11    1    3    3    0    0 -0.22078348521E+01  0.79001377760E+01  0.61306371962E+01  0.10240674993E+02  0.51100000000E-03 0.  1.
         12    1    3    3    0    0  0.11264694992E+02 -0.94650869240E+00 -0.36243846369E+01  0.11871200275E+02  0.00000000000E+00 0. -1.
</event>
<event>
 7    1  0.1221195E-011  0.5930195E+02  0.7816164E-02  0.1266605E+00
        -11   -1    0    0    0    0  0.00000000000E+00  0.00000000000E+00  0.45593999997E+02  0.45594000000E+02  0.51100000000E-03 0.  1.
         11   -1    0    0    0    0 -0.00000000000E+00 -0.00000000000E+00 -0.45593999997E+02  0.45594000000E+02  0.51100000000E-03 0. -1.
    9900012    2    1    2    0    0  0.28127448271E+01 -0.28884045078E+02 -0.13210624727E+02  0.59301949771E+02  0.50000010474E+02 0.  0.
        -12    1    1    2    0    0 -0.28127448271E+01  0.28884045078E+02  0.13210624727E+02  0.31886050229E+02  0.00000000000E+00 0.  1.
         11    1    3    3    0    0  0.39988613287E+01 -0.52883503865E+01 -0.24274651807E+01  0.70604623928E+01  0.51100000000E-03 0. -1.
        -11    1    3    3    0    0 -0.11648365385E+02 -0.20484493358E+02  0.12392101401E+02  0.26624482373E+02  0.51100000000E-03 0.  1.
         12    1    3    3    0    0  0.10462248883E+02 -0.31112013340E+01 -0.23175260947E+02  0.25617005005E+02  0.00000000000E+00 0. -1.
</event>
<event>
 7    1  0.1221195E-011  0.5930194E+02  0.7816164E-02  0.1266605E+00
        -11   -1    0    0    0    0  0.00000000000E+00  0.00000000000E+00  0.45593999997E+02  0.45594000000E+02  0.51100000000E-03 0.  1.
         11   -1    0    0    0    0 -0.00000000000E+00 -0.00000000000E+00 -0.45593999997E+02  0.45594000000E+02  0.51100000000E-03 0. -1.
    9900012    2    1    2    0    0  0.54504398066E+01  0.28636820475E+02 -0.12920755679E+02  0.59301941787E+02  0.49999995914E+02 0.  0.
        -12    1    1    2    0    0 -0.54504398066E+01 -0.28636820475E+02  0.12920755679E+02  0.31886058213E+02  0.00000000000E+00 0.  1.
         11    1    3    3    0    0 -0.12661685750E+02  0.16133342774E+02 -0.66424748720E+00  0.20519363052E+02  0.51100000000E-03 0. -1.
        -11    1    3    3    0    0 -0.75443688473E+01 -0.83286556707E+00 -0.62738749546E+00  0.76160870325E+01  0.51100000000E-03 0.  1.
         12    1    3    3    0    0  0.25656494404E+02  0.13336343269E+02 -0.11629120697E+02  0.31166491702E+02  0.00000000000E+00 0. -1.
</event>
<event>
 7    1  0.1221195E-011  0.5930175E+02  0.7816164E-02  0.1266605E+00
        -11   -1    0    0    0    0  0.00000000000E+00  0.00000000000E+00  0.45593999997E+02  0.45594000000E+02  0.51100000000E-03 0.  1.
         11   -1    0    0    0    0 -0.00000000000E+00 -0.00000000000E+00 -0.45593999997E+02  0.45594000000E+02  0.51100000000E-03 0. -1.
    9900012    2    1    2    0    0 -0.12599445911E+02  0.56881222999E+01 -0.28733819340E+02  0.59301746748E+02  0.49999640208E+02 0.  0.
        -12    1    1    2    0    0  0.12599445911E+02 -0.56881222999E+01  0.28733819340E+02  0.31886253252E+02  0.00000000000E+00 0.  1.
         11    1    3    3    0    0 -0.15002377023E+02 -0.76916724411E+01 -0.54391543420E+01  0.17714896034E+02  0.51100000000E-03 0. -1.
        -11    1    3    3    0    0 -0.92821038551E+00  0.15162773729E+02  0.26051292064E+01  0.15412916016E+02  0.51100000000E-03 0.  1.
         12    1    3    3    0    0  0.33311414974E+01 -0.17829789876E+01 -0.25899794205E+02  0.26173934698E+02  0.00000000000E+00 0. -1.
</event>
<event>
 7    1  0.1221195E-011  0.5930193E+02  0.7816164E-02  0.1266605E+00
        -11   -1    0    0    0    0  0.00000000000E+00  0.00000000000E+00  0.45593999997E+02  0.45594000000E+02  0.51100000000E-03 0.  1.
         11   -1    0    0    0    0 -0.00000000000E+00 -0.00000000000E+00 -0.45593999997E+02  0.45594000000E+02  0.51100000000E-03 0. -1.
    9900012    2    1    2    0    0 -0.96997567698E+00 -0.24907425167E+02 -0.19884680774E+02  0.59301933909E+02  0.49999981546E+02 0.  0.
        -12    1    1    2    0    0  0.96997567698E+00  0.24907425167E+02  0.19884680774E+02  0.31886066091E+02  0.00000000000E+00 0.  1.
         11    1    3    3    0    0 -0.49803835238E+01 -0.31842344208E+02 -0.24513723038E+02  0.40492736659E+02  0.51100000000E-03 0. -1.
        -11    1    3    3    0    0 -0.61677156401E+01  0.46038948919E+01  0.29032394612E+01  0.82258959405E+01  0.51100000000E-03 0.  1.
        -12    1    3    3    0    0  0.10178123487E+02  0.23310241486E+01  0.17258028022E+01  0.10583301310E+02  0.00000000000E+00 0.  1.
</event>
<event>
 7    1  0.1221195E-011  0.5930196E+02  0.7816164E-02  0.1266605E+00
        -11   -1    0    0    0    0  0.00000000000E+00  0.00000000000E+00  0.45593999997E+02  0.45594000000E+02  0.51100000000E-03 0. -1.
         11   -1    0    0    0    0 -0.00000000000E+00 -0.00000000000E+00 -0.45593999997E+02  0.45594000000E+02  0.51100000000E-03 0.  1.
    9900012    2    1    2    0    0 -0.13916020914E+02 -0.19856273989E+02  0.20707292828E+02  0.59301964952E+02  0.50000038162E+02 0.  0.
        -12    1    1    2    0    0  0.13916020914E+02  0.19856273989E+02 -0.20707292828E+02  0.31886035048E+02  0.00000000000E+00 0.  1.
         11    1    3    3    0    0  0.15511540032E+02 -0.10209284181E+01 -0.53960266477E+00  0.15554463677E+02  0.51100000000E-03 0.  1.
        -11    1    3    3    0    0 -0.10973046878E+02 -0.16185898876E+02  0.98400228297E+01  0.21891028522E+02  0.51100000000E-03 0. -1.
        -12    1    3    3    0    0 -0.18454514068E+02 -0.26494466950E+01  0.11406872663E+02  0.21856472753E+02  0.00000000000E+00 0.  1.
</event>
<event>
 7    1  0.1221195E-011  0.5930198E+02  0.7816164E-02  0.1266605E+00
        -11   -1    0    0    0    0  0.00000000000E+00  0.00000000000E+00  0.45593999997E+02  0.45594000000E+02  0.51100000000E-03 0. -1.
         11   -1    0    0    0    0 -0.00000000000E+00 -0.00000000000E+00 -0.45593999997E+02  0.45594000000E+02  0.51100000000E-03 0.  1.
    9900012    2    1    2    0    0  0.17325418024E+02 -0.19306382439E+02  0.18542157888E+02  0.59301982191E+02  0.50000069601E+02 0.  0.
        -12    1    1    2    0    0 -0.17325418024E+02  0.19306382439E+02 -0.18542157888E+02  0.31886017809E+02  0.00000000000E+00 0.  1.
         11    1    3    3    0    0 -0.45804012518E+01  0.34800490854E+01  0.12495507722E+01  0.58866114750E+01  0.51100000000E-03 0. -1.
        -11    1    3    3    0    0  0.19629868005E+02  0.64149688589E+01  0.31520054715E+01  0.20890636230E+02  0.51100000000E-03 0.  1.
         12    1    3    3    0    0  0.22759512711E+01 -0.29201400383E+02  0.14140601644E+02  0.32524734486E+02  0.00000000000E+00 0. -1.
</event>
<event>
 7    1  0.1221195E-011  0.5930197E+02  0.7816164E-02  0.1266605E+00
        -11   -1    0    0    0    0  0.00000000000E+00  0.00000000000E+00  0.45593999997E+02  0.45594000000E+02  0.51100000000E-03 0.  1.
         11   -1    0    0    0    0 -0.00000000000E+00 -0.00000000000E+00 -0.45593999997E+02  0.45594000000E+02  0.51100000000E-03 0. -1.
    9900012    2    1    2    0    0 -0.78610892848E-01 -0.81111997558E+01 -0.30837011197E+02  0.59301968564E+02  0.50000044748E+02 0.  0.
        -12    1    1    2    0    0  0.78610892848E-01  0.81111997558E+01  0.30837011197E+02  0.31886031436E+02  0.00000000000E+00 0.  1.
         11    1    3    3    0    0 -0.57479371772E+00  0.96866554824E+01 -0.24819158148E+02  0.26648682776E+02  0.51100000000E-03 0. -1.
        -11    1    3    3    0    0 -0.52632956677E+00 -0.19514745357E+02 -0.14258049291E+02  0.24174248261E+02  0.51100000000E-03 0.  1.
        -12    1    3    3    0    0  0.10225123916E+01  0.17168901187E+01  0.82401962420E+01  0.84790375266E+01  0.00000000000E+00 0.  1.
</event>
<event>
 7    1  0.1221195E-011  0.5930197E+02  0.7816164E-02  0.1266605E+00
        -11   -1    0    0    0    0  0.00000000000E+00  0.00000000000E+00  0.45593999997E+02  0.45594000000E+02  0.51100000000E-03 0.  1.
         11   -1    0    0    0    0 -0.00000000000E+00 -0.00000000000E+00 -0.45593999997E+02  0.45594000000E+02  0.51100000000E-03 0. -1.
    9900012    2    1    2    0    0  0.23048929750E+02  0.19915378579E+02 -0.94256706065E+01  0.59301972764E+02  0.50000052407E+02 0.  0.
        -12    1    1    2    0    0 -0.23048929750E+02 -0.19915378579E+02  0.94256706065E+01  0.31886027236E+02  0.00000000000E+00 0.  1.
         11    1    3    3    0    0  0.78185997490E+01  0.15339184192E+02  0.11792712240E+01  0.17257223258E+02  0.51100000000E-03 0.  1.
        -11    1    3    3    0    0  0.18486894544E+02  0.10851466372E+02 -0.20647581868E+02  0.29763101813E+02  0.51100000000E-03 0. -1.
        -12    1    3    3    0    0 -0.32565645432E+01 -0.62752719849E+01  0.10042640037E+02  0.12281647692E+02  0.00000000000E+00 0.  1.
</event>
<event>
 7    1  0.1221195E-011  0.5930194E+02  0.7816164E-02  0.1266605E+00
        -11   -1    0    0    0    0  0.00000000000E+00  0.00000000000E+00  0.45593999997E+02  0.45594000000E+02  0.51100000000E-03 0. -1.
         11   -1    0    0    0    0 -0.00000000000E+00 -0.00000000000E+00 -0.45593999997E+02  0.45594000000E+02  0.51100000000E-03 0.  1.
    9900012    2    1    2    0    0  0.18608611286E+01  0.29663174438E+02  0.11547901409E+02  0.59301941153E+02  0.49999994757E+02 0.  0.
        -12    1    1    2    0    0 -0.18608611286E+01 -0.29663174438E+02 -0.11547901409E+02  0.31886058847E+02  0.00000000000E+00 0.  1.
         11    1    3    3    0    0  0.15081162272E+02  0.25480494336E+02  0.73998366209E+00  0.29618315670E+02  0.51100000000E-03 0. -1.
        -11    1    3    3    0    0 -0.80884259544E+01  0.11151971181E+02 -0.23090857115E+01  0.13968570890E+02  0.51100000000E-03 0.  1.
        -12    1    3    3    0    0 -0.51318751890E+01 -0.69692910789E+01  0.13117003459E+02  0.15715054592E+02  0.00000000000E+00 0.  1.
</event>
<event>
 7    1  0.1221195E-011  0.5930195E+02  0.7816164E-02  0.1266605E+00
        -11   -1    0    0    0    0  0.00000000000E+00  0.00000000000E+00  0.45593999997E+02  0.45594000000E+02  0.51100000000E-03 0. -1.
         11   -1    0    0    0    0 -0.00000000000E+00 -0.00000000000E+00 -0.45593999997E+02  0.45594000000E+02  0.51100000000E-03 0.  1.
    9900012    2    1    2    0    0 -0.24352202424E+02 -0.20033129939E+02  0.47291061452E+01  0.59301945008E+02  0.50000001787E+02 0.  0.
        -12    1    1    2    0    0  0.24352202424E+02  0.20033129939E+02 -0.47291061452E+01  0.31886054992E+02  0.00000000000E+00 0.  1.
         11    1    3    3    0    0  0.73128087893E+01  0.74414629752E+00  0.19215137195E+01  0.75975747009E+01  0.51100000000E-03 0. -1.
        -11    1    3    3    0    0 -0.17897160428E+02 -0.26186770983E+01  0.17029308211E+02  0.24842768757E+02  0.51100000000E-03 0.  1.
        -12    1    3    3    0    0 -0.13767850785E+02 -0.18158599138E+02 -0.14221715785E+02  0.26861601549E+02  0.00000000000E+00 0.  1.
</event>
<event>
 7    1  0.1221195E-011  0.5930194E+02  0.7816164E-02  0.1266605E+00
        -11   -1    0    0    0    0  0.00000000000E+00  0.00000000000E+00  0.45593999997E+02  0.45594000000E+02  0.51100000000E-03 0.  1.
         11   -1    0    0    0    0 -0.00000000000E+00 -0.00000000000E+00 -0.45593999997E+02  0.45594000000E+02  0.51100000000E-03 0. -1.
    9900012    2    1    2    0    0 -0.89235368212E+01 -0.11610360593E+02 -0.28324738024E+02  0.59301940874E+02  0.49999994248E+02 0.  0.
        -12    1    1    2    0    0  0.89235368212E+01  0.11610360593E+02  0.28324738024E+02  0.31886059126E+02  0.00000000000E+00 0.  1.
         11    1    3    3    0    0  0.16551030446E+02 -0.10149571899E+02 -0.14905467900E+02  0.24476997204E+02  0.51100000000E-03 0. -1.
        -11    1    3    3    0    0 -0.25147090553E+00 -0.20106231276E+00 -0.92176619321E+01  0.92232833321E+01  0.51100000000E-03 0.  1.
        -12    1    3    3    0    0 -0.25223096362E+02 -0.12597263811E+01 -0.42016081912E+01  0.25601660337E+02  0.00000000000E+00 0.  1.
</event>
<event>
 7    1  0.1221195E-011  0.5930167E+02  0.7816164E-02  0.1266606E+00
        -11   -1    0    0    0    0  0.00000000000E+00  0.00000000000E+00  0.45593999997E+02  0.45594000000E+02  0.51100000000E-03 0.  1.
         11   -1    0    0    0    0 -0.00000000000E+00 -0.00000000000E+00 -0.45593999997E+02  0.45594000000E+02  0.51100000000E-03 0. -1.
    9900012    2    1    2    0    0  0.30848798438E+02 -0.79302235151E+01 -0.14836677760E+01  0.59301669384E+02  0.49999499113E+02 0.  0.
        -12    1    1    2    0    0 -0.30848798438E+02  0.79302235151E+01  0.14836677760E+01  0.31886330616E+02  0.00000000000E+00 0.  1.
         11    1    3    3    0    0  0.15703591671E+02  0.42664384179E+01  0.27183583834E+01  0.16498325997E+02  0.51100000000E-03 0. -1.
        -11    1    3    3    0    0  0.15811660957E+02  0.80991661804E+01 -0.11570574745E+02  0.21201021561E+02  0.51100000000E-03 0.  1.
        -12    1    3    3    0    0 -0.66645419007E+00 -0.20295828113E+02  0.73685485859E+01  0.21602321826E+02  0.00000000000E+00 0.  1.
</event>
<event>
 7    1  0.1221195E-011  0.5930196E+02  0.7816164E-02  0.1266605E+00
        -11   -1    0    0    0    0  0.00000000000E+00  0.00000000000E+00  0.45593999997E+02  0.45594000000E+02  0.51100000000E-03 0.  1.
         11   -1    0    0    0    0 -0.00000000000E+00 -0.00000000000E+00 -0.45593999997E+02  0.45594000000E+02  0.51100000000E-03 0. -1.
    9900012    2    1    2    0    0  0.30838713148E+02  0.38548560358E+01 -0.71297680198E+01  0.59301957039E+02  0.50000023730E+02 0.  0.
        -12    1    1    2    0    0 -0.30838713148E+02 -0.38548560358E+01  0.71297680198E+01  0.31886042961E+02  0.00000000000E+00 0.  1.
         11    1    3    3    0    0 -0.11883084114E+02 -0.45777913934E+01 -0.78679491860E+01  0.14968917354E+02  0.51100000000E-03 0.  1.
        -11    1    3    3    0    0  0.11130331082E+02  0.42243270392E+01  0.33166558116E+01  0.12358374285E+02  0.51100000000E-03 0. -1.
        -12    1    3    3    0    0  0.31591466180E+02  0.42083203900E+01 -0.25784746453E+01  0.31974665400E+02  0.00000000000E+00 0.  1.
</event>
<event>
 7    1  0.1221195E-011  0.5930194E+02  0.7816164E-02  0.1266605E+00
        -11   -1    0    0    0    0  0.00000000000E+00  0.00000000000E+00  0.45593999997E+02  0.45594000000E+02  0.51100000000E-03 0.  1.
         11   -1    0    0    0    0 -0.00000000000E+00 -0.00000000000E+00 -0.45593999997E+02  0.45594000000E+02  0.51100000000E-03 0. -1.
    9900012    2    1    2    0    0  0.14563405938E+02 -0.45870036016E+01 -0.27992634657E+02  0.59301937377E+02  0.49999987871E+02 0.  0.
        -12    1    1    2    0    0 -0.14563405938E+02  0.45870036016E+01  0.27992634657E+02  0.31886062623E+02  0.00000000000E+00 0.  1.
         11    1    3    3    0    0 -0.39402755580E+01  0.79761139637E+01 -0.13323104504E+02  0.16020277130E+02  0.51100000000E-03 0. -1.
        -11    1    3    3    0    0 -0.22207834284E+01  0.59079124359E+01  0.59707787953E+01  0.86882396416E+01  0.51100000000E-03 0.  1.
         12    1    3    3    0    0  0.20724464924E+02 -0.18471030001E+02 -0.20640308949E+02  0.34593420606E+02  0.00000000000E+00 0. -1.
</event>
<event>
 7    1  0.1221195E-011  0.5930181E+02  0.7816164E-02  0.1266605E+00
        -11   -1    0    0    0    0  0.00000000000E+00  0.00000000000E+00  0.45593999997E+02  0.45594000000E+02  0.51100000000E-03 0. -1.
         11   -1    0    0    0    0 -0.00000000000E+00 -0.00000000000E+00 -0.45593999997E+02  0.45594000000E+02  0.51100000000E-03 0.  1.
    9900012    2    1    2    0    0 -0.24492547491E+02 -0.15692745210E+02 -0.13060704633E+02  0.59301809567E+02  0.49999754775E+02 0.  0.
        -12    1    1    2    0    0  0.24492547491E+02  0.15692745210E+02  0.13060704633E+02  0.31886190433E+02  0.00000000000E+00 0.  1.
         11    1    3    3    0    0 -0.16130733162E+02  0.90659825141E+00 -0.17800420957E+01  0.16253954069E+02  0.51100000000E-03 0. -1.
        -11    1    3    3    0    0 -0.15352374289E+02 -0.23246498905E+02 -0.16192919118E+02  0.32222751861E+02  0.51100000000E-03 0.  1.
         12    1    3    3    0    0  0.69905599598E+01  0.66471554437E+01  0.49122565812E+01  0.10825103638E+02  0.00000000000E+00 0. -1.
</event>
<event>
 7    1  0.1221195E-011  0.5930193E+02  0.7816164E-02  0.1266605E+00
        -11   -1    0    0    0    0  0.00000000000E+00  0.00000000000E+00  0.45593999997E+02  0.45594000000E+02  0.51100000000E-03 0.  1.
         11   -1    0    0    0    0 -0.00000000000E+00 -0.00000000000E+00 -0.45593999997E+02  0.45594000000E+02  0.51100000000E-03 0. -1.
    9900012    2    1    2    0    0 -0.14307553693E+02  0.28226503252E+02  0.39089522112E+01  0.59301929594E+02  0.49999973677E+02 0.  0.
        -12    1    1    2    0    0  0.14307553693E+02 -0.28226503252E+02 -0.39089522112E+01  0.31886070406E+02  0.00000000000E+00 0.  1.
         11    1    3    3    0    0  0.33968444391E+01  0.95714944557E+00 -0.67597227959E+01  0.76255189818E+01  0.51100000000E-03 0. -1.
        -11    1    3    3    0    0 -0.14297866753E+02  0.17524836397E+02 -0.12835176355E+02  0.26005588568E+02  0.51100000000E-03 0.  1.
        -12    1    3    3    0    0 -0.34065313796E+01  0.97445174097E+01  0.23503851362E+02  0.25670822045E+02  0.00000000000E+00 0.  1.
</event>
<event>
 7    1  0.1221195E-011  0.5930193E+02  0.7816164E-02  0.1266605E+00
        -11   -1    0    0    0    0  0.00000000000E+00  0.00000000000E+00  0.45593999997E+02  0.45594000000E+02  0.51100000000E-03 0.  1.
         11   -1    0    0    0    0 -0.00000000000E+00 -0.00000000000E+00 -0.45593999997E+02  0.45594000000E+02  0.51100000000E-03 0. -1.
    9900012    2    1    2    0    0 -0.30913784513E+02  0.28602261334E+01  0.72717638585E+01  0.59301929122E+02  0.49999972815E+02 0.  0.
        -12    1    1    2    0    0  0.30913784513E+02 -0.28602261334E+01 -0.72717638585E+01  0.31886070878E+02  0.00000000000E+00 0.  1.
         11    1    3    3    0    0 -0.76290963816E-01 -0.83482664597E+01  0.20605555560E+01  0.85991431349E+01  0.51100000000E-03 0. -1.
        -11    1    3    3    0    0  0.82936755629E+01 -0.24475492407E+00 -0.35074609711E+01  0.90081763993E+01  0.51100000000E-03 0.  1.
         12    1    3    3    0    0 -0.39131169112E+02  0.11453247517E+02  0.87186692735E+01  0.41694609588E+02  0.00000000000E+00 0. -1.
</event>
<event>
 7    1  0.1221195E-011  0.5930192E+02  0.7816164E-02  0.1266605E+00
        -11   -1    0    0    0    0  0.00000000000E+00  0.00000000000E+00  0.45593999997E+02  0.45594000000E+02  0.51100000000E-03 0. -1.
         11   -1    0    0    0    0 -0.00000000000E+00 -0.00000000000E+00 -0.45593999997E+02  0.45594000000E+02  0.51100000000E-03 0.  1.
    9900012    2    1    2    0    0  0.23935286525E+02 -0.18707570696E+02  0.96876568318E+01  0.59301924085E+02  0.49999963629E+02 0.  0.
        -12    1    1    2    0    0 -0.23935286525E+02  0.18707570696E+02 -0.96876568318E+01  0.31886075915E+02  0.00000000000E+00 0.  1.
         11    1    3    3    0    0  0.28477315274E+01 -0.14399382168E+02  0.15098509263E+02  0.21057463377E+02  0.51100000000E-03 0. -1.
        -11    1    3    3    0    0  0.85056447501E+00  0.62460289061E+01  0.91942459468E+01  0.11147667730E+02  0.51100000000E-03 0.  1.
        -12    1    3    3    0    0  0.20236990523E+02 -0.10554217434E+02 -0.14605098378E+02  0.27096792978E+02  0.00000000000E+00 0.  1.
</event>
<event>
 7    1  0.1221195E-011  0.5930197E+02  0.7816164E-02  0.1266605E+00
        -11   -1    0    0    0    0  0.00000000000E+00  0.00000000000E+00  0.45593999997E+02  0.45594000000E+02  0.51100000000E-03 0.  1.
         11   -1    0    0    0    0 -0.00000000000E+00 -0.00000000000E+00 -0.45593999997E+02  0.45594000000E+02  0.51100000000E-03 0. -1.
    9900012    2    1    2    0    0 -0.15469117207E+02 -0.18040535974E+02 -0.21259452039E+02  0.59301971298E+02  0.50000049735E+02 0.  0.
        -12    1    1    2    0    0  0.15469117207E+02  0.18040535974E+02  0.21259452039E+02  0.31886028702E+02  0.00000000000E+00 0.  1.
         11    1    3    3    0    0 -0.47555925280E+01 -0.18094703410E+02 -0.59442881246E+01  0.19630805214E+02  0.51100000000E-03 0. -1.
        -11    1    3    3    0    0  0.34468285058E+01  0.14749635400E+01  0.99724803428E+01  0.10653943338E+02  0.51100000000E-03 0.  1.
         12    1    3    3    0    0 -0.14160353184E+02 -0.14207961042E+01 -0.25287644257E+02  0.29017222747E+02  0.00000000000E+00 0. -1.
</event>
<event>
 7    1  0.1221195E-011  0.5930195E+02  0.7816164E-02  0.1266605E+00
        -11   -1    0    0    0    0  0.00000000000E+00  0.00000000000E+00  0.45593999997E+02  0.45594000000E+02  0.51100000000E-03 0.  1.
         11   -1    0    0    0    0 -0.00000000000E+00 -0.00000000000E+00 -0.45593999997E+02  0.45594000000E+02  0.51100000000E-03 0. -1.
    9900012    2    1    2    0    0  0.22877156833E+02  0.13795120701E+02 -0.17408346786E+02  0.59301949794E+02  0.50000010516E+02 0.  0.
        -12    1    1    2    0    0 -0.22877156833E+02 -0.13795120701E+02  0.17408346786E+02  0.31886050206E+02  0.00000000000E+00 0.  1.
         11    1    3    3    0    0  0.61287828927E+01  0.94105070180E+01  0.23747873750E+01  0.11478642665E+02  0.51100000000E-03 0. -1.
        -11    1    3    3    0    0  0.17603656126E+02  0.15287884453E+02 -0.26256573693E+02  0.35114324462E+02  0.51100000000E-03 0.  1.
        -12    1    3    3    0    0 -0.85528218654E+00 -0.10903270769E+02  0.64734395312E+01  0.12708982668E+02  0.00000000000E+00 0.  1.
</event>
<event>
 7    1  0.1221195E-011  0.5930216E+02  0.7816164E-02  0.1266604E+00
        -11   -1    0    0    0    0  0.00000000000E+00  0.00000000000E+00  0.45593999997E+02  0.45594000000E+02  0.51100000000E-03 0. -1.
         11   -1    0    0    0    0 -0.00000000000E+00 -0.00000000000E+00 -0.45593999997E+02  0.45594000000E+02  0.51100000000E-03 0.  1.
    9900012    2    1    2    0    0 -0.11368808456E+02  0.29782720718E+02 -0.66826765726E+00  0.59302159244E+02  0.50000392501E+02 0.  0.
        -12    1    1    2    0    0  0.11368808456E+02 -0.29782720718E+02  0.66826765726E+00  0.31885840756E+02  0.00000000000E+00 0.  1.
         11    1    3    3    0    0 -0.22017404955E+02  0.18844540334E+02  0.33108395236E+01  0.29169238590E+02  0.51100000000E-03 0. -1.
        -11    1    3    3    0    0 -0.49217745281E+01  0.87294875536E+01 -0.91582850857E+01  0.13575787396E+02  0.51100000000E-03 0.  1.
        -12    1    3    3    0    0  0.15570371027E+02  0.22086928306E+01  0.51791779048E+01  0.16557133257E+02  0.00000000000E+00 0.  1.
</event>
<event>
 7    1  0.1221195E-011  0.5930198E+02  0.7816164E-02  0.1266605E+00
        -11   -1    0    0    0    0  0.00000000000E+00  0.00000000000E+00  0.45593999997E+02  0.45594000000E+02  0.51100000000E-03 0. -1.
         11   -1    0    0    0    0 -0.00000000000E+00 -0.00000000000E+00 -0.45593999997E+02  0.45594000000E+02  0.51100000000E-03 0.  1.
    9900012    2    1    2    0    0 -0.19931906219E+02  0.23318127825E+02  0.87006922978E+01  0.59301983986E+02  0.50000072874E+02 0.  0.
        -12    1    1    2    0    0  0.19931906219E+02 -0.23318127825E+02 -0.87006922978E+01  0.31886016014E+02  0.00000000000E+00 0.  1.
         11    1    3    3    0    0  0.14534307720E+01 -0.11980272264E+02 -0.49896969927E+01  0.13058960941E+02  0.51100000000E-03 0. -1.
        -11    1    3    3    0    0 -0.45489887335E+01  0.22649598955E+02  0.66764477705E+01  0.24047298943E+02  0.51100000000E-03 0.  1.
        -12    1    3    3    0    0 -0.16836348258E+02  0.12648801133E+02  0.70139415201E+01  0.22195724102E+02  0.00000000000E+00 0.  1.
</event>
<event>
 7    1  0.1221195E-011  0.5930188E+02  0.7816164E-02  0.1266605E+00
        -11   -1    0    0    0    0  0.00000000000E+00  0.00000000000E+00  0.45593999997E+02  0.45594000000E+02  0.51100000000E-03 0. -1.
         11   -1    0    0    0    0 -0.00000000000E+00 -0.00000000000E+00 -0.45593999997E+02  0.45594000000E+02  0.51100000000E-03 0.  1.
    9900012    2    1    2    0    0 -0.31414327724E+02  0.20722091375E+01 -0.50567162288E+01  0.59301883647E+02  0.49999889879E+02 0.  0.
        -12    1    1    2    0    0  0.31414327724E+02 -0.20722091375E+01  0.50567162288E+01  0.31886116353E+02  0.00000000000E+00 0.  1.
         11    1    3    3    0    0 -0.19586567261E+02  0.83828329108E+01 -0.67018259023E+01  0.22334278035E+02  0.51100000000E-03 0. -1.
        -11    1    3    3    0    0 -0.23813847815E+02 -0.71609796065E+01  0.22942716637E+00  0.24868285300E+02  0.51100000000E-03 0.  1.
        -12    1    3    3    0    0  0.11986087351E+02  0.85035583321E+00  0.14156825071E+01  0.12099320312E+02  0.00000000000E+00 0.  1.
</event>
<event>
 7    1  0.1221195E-011  0.5930189E+02  0.7816164E-02  0.1266605E+00
        -11   -1    0    0    0    0  0.00000000000E+00  0.00000000000E+00  0.45593999997E+02  0.45594000000E+02  0.51100000000E-03 0. -1.
         11   -1    0    0    0    0 -0.00000000000E+00 -0.00000000000E+00 -0.45593999997E+02  0.45594000000E+02  0.51100000000E-03 0.  1.
    9900012    2    1    2    0    0  0.93984746892E+01 -0.30469388199E+02  0.94541903224E-01  0.59301892024E+02  0.49999905157E+02 0.  0.
        -12    1    1    2    0    0 -0.93984746892E+01  0.30469388199E+02 -0.94541903224E-01  0.31886107976E+02  0.00000000000E+00 0.  1.
         11    1    3    3    0    0  0.34206837650E+01 -0.12647187953E+02  0.20289519438E+01  0.13257793436E+02  0.51100000000E-03 0. -1.
        -11    1    3    3    0    0 -0.12462567052E+02  0.74984843496E+01 -0.22569558589E+01  0.14718583325E+02  0.51100000000E-03 0.  1.
         12    1    3    3    0    0  0.18440357976E+02 -0.25320684596E+02  0.32254581836E+00  0.31325515263E+02  0.00000000000E+00 0. -1.
</event>
<event>
 7    1  0.1221195E-011  0.5930210E+02  0.7816164E-02  0.1266604E+00
        -11   -1    0    0    0    0  0.00000000000E+00  0.00000000000E+00  0.45593999997E+02  0.45594000000E+02  0.51100000000E-03 0.  1.
         11   -1    0    0    0    0 -0.00000000000E+00 -0.00000000000E+00 -0.45593999997E+02  0.45594000000E+02  0.51100000000E-03 0. -1.
    9900012    2    1    2    0    0 -0.19225339309E+02 -0.11179195787E+02 -0.22850003606E+02  0.59302097868E+02  0.50000280566E+02 0.  0.
        -12    1    1    2    0    0  0.19225339309E+02  0.11179195787E+02  0.22850003606E+02  0.31885902132E+02  0.00000000000E+00 0.  1.
         11    1    3    3    0    0 -0.92749448758E+01  0.70310588729E+00 -0.26431699253E+02  0.28020593962E+02  0.51100000000E-03 0. -1.
        -11    1    3    3    0    0 -0.14926873714E+02 -0.12413158667E+02 -0.61278601900E+01  0.20358014091E+02  0.51100000000E-03 0.  1.
         12    1    3    3    0    0  0.49764792808E+01  0.53085699308E+00  0.97095558365E+01  0.10923489814E+02  0.00000000000E+00 0. -1.
</event>
<event>
 7    1  0.1221195E-011  0.5930189E+02  0.7816164E-02  0.1266605E+00
        -11   -1    0    0    0    0  0.00000000000E+00  0.00000000000E+00  0.45593999997E+02  0.45594000000E+02  0.51100000000E-03 0.  1.
         11   -1    0    0    0    0 -0.00000000000E+00 -0.00000000000E+00 -0.45593999997E+02  0.45594000000E+02  0.51100000000E-03 0. -1.
    9900012    2    1    2    0    0 -0.55576466213E+01 -0.29172994815E+02 -0.11609164231E+02  0.59301893988E+02  0.49999908740E+02 0.  0.
        -12    1    1    2    0    0  0.55576466213E+01  0.29172994815E+02  0.11609164231E+02  0.31886106012E+02  0.00000000000E+00 0.  1.
         11    1    3    3    0    0  0.72126960518E+01  0.82077141529E+01 -0.11318881226E+01  0.10985022846E+02  0.51100000000E-03 0. -1.
        -11    1    3    3    0    0  0.76969617177E+01 -0.14790385987E+02 -0.32154808734E+01  0.16980519864E+02  0.51100000000E-03 0.  1.
        -12    1    3    3    0    0 -0.20467304391E+02 -0.22590322981E+02 -0.72617952349E+01  0.31336351278E+02  0.00000000000E+00 0.  1.
</event>
<event>
 7    1  0.1221195E-011  0.5930193E+02  0.7816164E-02  0.1266605E+00
        -11   -1    0    0    0    0  0.00000000000E+00  0.00000000000E+00  0.45593999997E+02  0.45594000000E+02  0.51100000000E-03 0.  1.
         11   -1    0    0    0    0 -0.00000000000E+00 -0.00000000000E+00 -0.45593999997E+02  0.45594000000E+02  0.51100000000E-03 0. -1.
    9900012    2    1    2    0    0  0.65163484389E+01 -0.27708424111E+02 -0.14370172182E+02  0.59301930749E+02  0.49999975784E+02 0.  0.
        -12    1    1    2    0    0 -0.65163484389E+01  0.27708424111E+02  0.14370172182E+02  0.31886069251E+02  0.00000000000E+00 0.  1.
         11    1    3    3    0    0 -0.51701075789E+01  0.92220246143E+01 -0.71639095243E+01  0.12770957298E+02  0.51100000000E-03 0. -1.
        -11    1    3    3    0    0 -0.71235001821E+01 -0.14076870348E+02  0.10215620794E+01  0.15809684469E+02  0.51100000000E-03 0.  1.
        -12    1    3    3    0    0  0.18809956200E+02 -0.22853578377E+02 -0.82278247372E+01  0.30721288983E+02  0.00000000000E+00 0.  1.
</event>
<event>
 7    1  0.1221195E-011  0.5930192E+02  0.7816164E-02  0.1266605E+00
        -11   -1    0    0    0    0  0.00000000000E+00  0.00000000000E+00  0.45593999997E+02  0.45594000000E+02  0.51100000000E-03 0.  1.
         11   -1    0    0    0    0 -0.00000000000E+00 -0.00000000000E+00 -0.45593999997E+02  0.45594000000E+02  0.51100000000E-03 0. -1.
    9900012    2    1    2    0    0  0.11657989013E+01 -0.20790727254E+02 -0.24147648157E+02  0.59301916228E+02  0.49999949299E+02 0.  0.
        -12    1    1    2    0    0 -0.11657989013E+01  0.20790727254E+02  0.24147648157E+02  0.31886083772E+02  0.00000000000E+00 0.  1.
         11    1    3    3    0    0 -0.18285294351E+02 -0.18830994930E+02 -0.12626497497E+02  0.29127080164E+02  0.51100000000E-03 0. -1.
        -11    1    3    3    0    0  0.25094946829E+01 -0.80883875784E+01  0.55331909400E+00  0.84867979511E+01  0.51100000000E-03 0.  1.
        -12    1    3    3    0    0  0.16941598570E+02  0.61286552544E+01 -0.12074469754E+02  0.21688038112E+02  0.00000000000E+00 0.  1.
</event>
<event>
 7    1  0.1221195E-011  0.5930155E+02  0.7816164E-02  0.1266606E+00
        -11   -1    0    0    0    0  0.00000000000E+00  0.00000000000E+00  0.45593999997E+02  0.45594000000E+02  0.51100000000E-03 0. -1.
         11   -1    0    0    0    0 -0.00000000000E+00 -0.00000000000E+00 -0.45593999997E+02  0.45594000000E+02  0.51100000000E-03 0.  1.
    9900012    2    1    2    0    0  0.23564417054E+02  0.16089351243E+02  0.14233653944E+02  0.59301547091E+02  0.49999276077E+02 0.  0.
        -12    1    1    2    0    0 -0.23564417054E+02 -0.16089351243E+02 -0.14233653944E+02  0.31886452909E+02  0.00000000000E+00 0.  1.
         11    1    3    3    0    0  0.23837974500E+01  0.63941274265E+01 -0.91425069818E+01  0.11408452568E+02  0.51100000000E-03 0. -1.
        -11    1    3    3    0    0 -0.73446991117E+01  0.44927121786E+01 -0.25681172087E+01  0.89846699450E+01  0.51100000000E-03 0.  1.
         12    1    3    3    0    0  0.28525318716E+02  0.52025116377E+01  0.25944278135E+02  0.38908424578E+02  0.00000000000E+00 0. -1.
</event>
<event>
 7    1  0.1221195E-011  0.5930193E+02  0.7816164E-02  0.1266605E+00
        -11   -1    0    0    0    0  0.00000000000E+00  0.00000000000E+00  0.45593999997E+02  0.45594000000E+02  0.51100000000E-03 0.  1.
         11   -1    0    0    0    0 -0.00000000000E+00 -0.00000000000E+00 -0.45593999997E+02  0.45594000000E+02  0.51100000000E-03 0. -1.
    9900012    2    1    2    0    0 -0.20150524956E+02  0.68926366455E+01 -0.23731183959E+02  0.59301934265E+02  0.49999982196E+02 0.  0.
        -12    1    1    2    0    0  0.20150524956E+02 -0.68926366455E+01  0.23731183959E+02  0.31886065735E+02  0.00000000000E+00 0.  1.
         11    1    3    3    0    0 -0.19303634559E+02 -0.40786291961E+01  0.87163243231E+00  0.19749057362E+02  0.51100000000E-03 0. -1.
        -11    1    3    3    0    0 -0.61537629853E+01 -0.85101750213E+01 -0.59825803440E+01  0.12086486074E+02  0.51100000000E-03 0.  1.
         12    1    3    3    0    0  0.53068725886E+01  0.19481440863E+02 -0.18620236047E+02  0.27466390830E+02  0.00000000000E+00 0. -1.
</event>
<event>
 7    1  0.1221195E-011  0.5930193E+02  0.7816164E-02  0.1266605E+00
        -11   -1    0    0    0    0  0.00000000000E+00  0.00000000000E+00  0.45593999997E+02  0.45594000000E+02  0.51100000000E-03 0. -1.
         11   -1    0    0    0    0 -0.00000000000E+00 -0.00000000000E+00 -0.45593999997E+02  0.45594000000E+02  0.51100000000E-03 0.  1.
    9900012    2    1    2    0    0 -0.18268893038E+02  0.17999655461E+02  0.18946805960E+02  0.59301929285E+02  0.49999973114E+02 0.  0.
        -12    1    1    2    0    0  0.18268893038E+02 -0.17999655461E+02 -0.18946805960E+02  0.31886070715E+02  0.00000000000E+00 0.  1.
         11    1    3    3    0    0 -0.22189518943E+02  0.12730544734E+02  0.19332334640E+02  0.32065256635E+02  0.51100000000E-03 0. -1.
        -11    1    3    3    0    0  0.46814257655E+01 -0.73812975211E+01 -0.84967854313E+01  0.12189941067E+02  0.51100000000E-03 0.  1.
         12    1    3    3    0    0 -0.76079986001E+00  0.12650408248E+02  0.81112567509E+01  0.15046731584E+02  0.00000000000E+00 0. -1.
</event>
<event>
 7    1  0.1221195E-011  0.5930197E+02  0.7816164E-02  0.1266605E+00
        -11   -1    0    0    0    0  0.00000000000E+00  0.00000000000E+00  0.45593999997E+02  0.45594000000E+02  0.51100000000E-03 0. -1.
         11   -1    0    0    0    0 -0.00000000000E+00 -0.00000000000E+00 -0.45593999997E+02  0.45594000000E+02  0.51100000000E-03 0.  1.
    9900012    2    1    2    0    0  0.47302309553E+01  0.17928096563E+02  0.25940843201E+02  0.59301967365E+02  0.50000042561E+02 0.  0.
        -12    1    1    2    0    0 -0.47302309553E+01 -0.17928096563E+02 -0.25940843201E+02  0.31886032635E+02  0.00000000000E+00 0.  1.
         11    1    3    3    0    0  0.16705096676E+02 -0.12004347532E+02  0.68918020025E+01  0.21694735530E+02  0.51100000000E-03 0.  1.
        -11    1    3    3    0    0 -0.59141236942E+01  0.11074661640E+02  0.62544346309E+01  0.14026508557E+02  0.51100000000E-03 0. -1.
        -12    1    3    3    0    0 -0.60607420270E+01  0.18857782455E+02  0.12794606567E+02  0.23580723277E+02  0.00000000000E+00 0.  1.
</event>
<event>
 7    1  0.1221195E-011  0.5930195E+02  0.7816164E-02  0.1266605E+00
        -11   -1    0    0    0    0  0.00000000000E+00  0.00000000000E+00  0.45593999997E+02  0.45594000000E+02  0.51100000000E-03 0.  1.
         11   -1    0    0    0    0 -0.00000000000E+00 -0.00000000000E+00 -0.45593999997E+02  0.45594000000E+02  0.51100000000E-03 0. -1.
    9900012    2    1    2    0    0  0.22266093684E+02  0.17938147282E+02 -0.14112562296E+02  0.59301945519E+02  0.50000002719E+02 0.  0.
        -12    1    1    2    0    0 -0.22266093684E+02 -0.17938147282E+02  0.14112562296E+02  0.31886054481E+02  0.00000000000E+00 0.  1.
         11    1    3    3    0    0  0.61642409607E+01  0.14713294176E+02  0.66557259843E+01  0.17285183851E+02  0.51100000000E-03 0. -1.
        -11    1    3    3    0    0  0.99534104050E+01  0.17246801000E+02 -0.61319666532E+01  0.20835631470E+02  0.51100000000E-03 0.  1.
        -12    1    3    3    0    0  0.61484423182E+01 -0.14021947895E+02 -0.14636321627E+02  0.21181130198E+02  0.00000000000E+00 0.  1.
</event>
<event>
 7    1  0.1221195E-011  0.5930191E+02  0.7816164E-02  0.1266605E+00
        -11   -1    0    0    0    0  0.00000000000E+00  0.00000000000E+00  0.45593999997E+02  0.45594000000E+02  0.51100000000E-03 0.  1.
         11   -1    0    0    0    0 -0.00000000000E+00 -0.00000000000E+00 -0.45593999997E+02  0.45594000000E+02  0.51100000000E-03 0. -1.
    9900012    2    1    2    0    0 -0.22858894828E+02  0.43445998648E+01 -0.21801796714E+02  0.59301906468E+02  0.49999931500E+02 0.  0.
        -12    1    1    2    0    0  0.22858894828E+02 -0.43445998648E+01  0.21801796714E+02  0.31886093532E+02  0.00000000000E+00 0.  1.
         11    1    3    3    0    0 -0.15090008797E+00  0.13679661825E+02 -0.13021908970E+02  0.18887192273E+02  0.51100000000E-03 0. -1.
        -11    1    3    3    0    0 -0.47816487928E+01  0.89759418827E+01  0.49854714500E+01  0.11326368513E+02  0.51100000000E-03 0.  1.
         12    1    3    3    0    0 -0.17926345947E+02 -0.18311003843E+02 -0.13765359195E+02  0.29088345682E+02  0.00000000000E+00 0. -1.
</event>
<event>
 7    1  0.1221195E-011  0.5930202E+02  0.7816164E-02  0.1266605E+00
        -11   -1    0    0    0    0  0.00000000000E+00  0.00000000000E+00  0.45593999997E+02  0.45594000000E+02  0.51100000000E-03 0.  1.
         11   -1    0    0    0    0 -0.00000000000E+00 -0.00000000000E+00 -0.45593999997E+02  0.45594000000E+02  0.51100000000E-03 0. -1.
    9900012    2    1    2    0    0  0.15190517902E+02  0.17485836330E+02 -0.21913687476E+02  0.59302015539E+02  0.50000130418E+02 0.  0.
        -12    1    1    2    0    0 -0.15190517902E+02 -0.17485836330E+02  0.21913687476E+02  0.31885984461E+02  0.00000000000E+00 0.  1.
         11    1    3    3    0    0  0.41071016227E+01  0.15027902270E+02 -0.91895362782E+01  0.18087390846E+02  0.51100000000E-03 0. -1.
        -11    1    3    3    0    0  0.53999433470E+01  0.19577804425E+02 -0.10992807136E+02  0.23093107700E+02  0.51100000000E-03 0.  1.
        -12    1    3    3    0    0  0.56834729323E+01 -0.17119870364E+02 -0.17313440613E+01  0.18121516992E+02  0.00000000000E+00 0.  1.
</event>
<event>
 7    1  0.1221195E-011  0.5930198E+02  0.7816164E-02  0.1266605E+00
        -11   -1    0    0    0    0  0.00000000000E+00  0.00000000000E+00  0.45593999997E+02  0.45594000000E+02  0.51100000000E-03 0.  1.
         11   -1    0    0    0    0 -0.00000000000E+00 -0.00000000000E+00 -0.45593999997E+02  0.45594000000E+02  0.51100000000E-03 0. -1.
    9900012    2    1    2    0    0  0.26984411302E+02 -0.34323975690E+01 -0.16636655072E+02  0.59301982714E+02  0.50000070555E+02 0.  0.
        -12    1    1    2    0    0 -0.26984411302E+02  0.34323975690E+01  0.16636655072E+02  0.31886017286E+02  0.00000000000E+00 0.  1.
         11    1    3    3    0    0 -0.25875039339E+01  0.15512207270E+01 -0.12015570953E+01  0.32473376889E+01  0.51100000000E-03 0.  1.
        -11    1    3    3    0    0  0.16963098817E+02  0.17191586759E+02  0.33393028153E+01  0.24381310882E+02  0.51100000000E-03 0. -1.
         12    1    3    3    0    0  0.12608816419E+02 -0.22175205055E+02 -0.18774400792E+02  0.31673334144E+02  0.00000000000E+00 0. -1.
</event>
<event>
 7    1  0.1221195E-011  0.5930195E+02  0.7816164E-02  0.1266605E+00
        -11   -1    0    0    0    0  0.00000000000E+00  0.00000000000E+00  0.45593999997E+02  0.45594000000E+02  0.51100000000E-03 0. -1.
         11   -1    0    0    0    0 -0.00000000000E+00 -0.00000000000E+00 -0.45593999997E+02  0.45594000000E+02  0.51100000000E-03 0.  1.
    9900012    2    1    2    0    0  0.55690755770E+01  0.20683186027E+02  0.23620146077E+02  0.59301951519E+02  0.50000013663E+02 0.  0.
        -12    1    1    2    0    0 -0.55690755770E+01 -0.20683186027E+02 -0.23620146077E+02  0.31886048481E+02  0.00000000000E+00 0.  1.
         11    1    3    3    0    0 -0.75796291805E+01  0.27838757764E+01  0.45841488299E+01  0.92852120928E+01  0.51100000000E-03 0. -1.
        -11    1    3    3    0    0  0.10629242907E+02  0.29052845110E+02  0.22287957114E+02  0.38128750915E+02  0.51100000000E-03 0.  1.
         12    1    3    3    0    0  0.25194618510E+01 -0.11153534859E+02 -0.32519598676E+01  0.11887988512E+02  0.00000000000E+00 0. -1.
</event>
<event>
 7    1  0.1221195E-011  0.5930194E+02  0.7816164E-02  0.1266605E+00
        -11   -1    0    0    0    0  0.00000000000E+00  0.00000000000E+00  0.45593999997E+02  0.45594000000E+02  0.51100000000E-03 0.  1.
         11   -1    0    0    0    0 -0.00000000000E+00 -0.00000000000E+00 -0.45593999997E+02  0.45594000000E+02  0.51100000000E-03 0. -1.
    9900012    2    1    2    0    0  0.12371454826E+02  0.13210631059E+02 -0.26251611450E+02  0.59301940801E+02  0.49999994116E+02 0.  0.
        -12    1    1    2    0    0 -0.12371454826E+02 -0.13210631059E+02  0.26251611450E+02  0.31886059199E+02  0.00000000000E+00 0.  1.
         11    1    3    3    0    0  0.18553354541E+02 -0.51228177237E+01 -0.13520457383E+02  0.23521755764E+02  0.51100000000E-03 0. -1.
        -11    1    3    3    0    0 -0.60777834161E+01 -0.90336387349E-01 -0.15957280764E+02  0.17075784655E+02  0.51100000000E-03 0.  1.
        -12    1    3    3    0    0 -0.10411629887E+00  0.18423785170E+02  0.32261266966E+01  0.18704400382E+02  0.00000000000E+00 0.  1.
</event>
<event>
 7    1  0.1221195E-011  0.5930195E+02  0.7816164E-02  0.1266605E+00
        -11   -1    0    0    0    0  0.00000000000E+00  0.00000000000E+00  0.45593999997E+02  0.45594000000E+02  0.51100000000E-03 0.  1.
         11   -1    0    0    0    0 -0.00000000000E+00 -0.00000000000E+00 -0.45593999997E+02  0.45594000000E+02  0.51100000000E-03 0. -1.
    9900012    2    1    2    0    0  0.23716820615E+02 -0.43406783244E+01 -0.20866030606E+02  0.59301948165E+02  0.50000007545E+02 0.  0.
        -12    1    1    2    0    0 -0.23716820615E+02  0.43406783244E+01  0.20866030606E+02  0.31886051835E+02  0.00000000000E+00 0.  1.
         11    1    3    3    0    0  0.98591078258E+01  0.10747815062E+02 -0.19533633766E+02  0.24377866685E+02  0.51100000000E-03 0. -1.
        -11    1    3    3    0    0  0.11638929249E+02 -0.62640662843E+00 -0.12067166883E+02  0.16777174260E+02  0.51100000000E-03 0.  1.
         12    1    3    3    0    0  0.22187835400E+01 -0.14462086758E+02  0.10734770042E+02  0.18146907220E+02  0.00000000000E+00 0. -1.
</event>
<event>
 7    1  0.1221195E-011  0.5930195E+02  0.7816164E-02  0.1266605E+00
        -11   -1    0    0    0    0  0.00000000000E+00  0.00000000000E+00  0.45593999997E+02  0.45594000000E+02  0.51100000000E-03 0.  1.
         11   -1    0    0    0    0 -0.00000000000E+00 -0.00000000000E+00 -0.45593999997E+02  0.45594000000E+02  0.51100000000E-03 0. -1.
    9900012    2    1    2    0    0  0.17586013993E+02  0.19856551695E+02  0.17696608666E+02  0.59301945185E+02  0.50000002110E+02 0.  0.
        -12    1    1    2    0    0 -0.17586013993E+02 -0.19856551695E+02 -0.17696608666E+02  0.31886054815E+02  0.00000000000E+00 0.  1.
         11    1    3    3    0    0  0.52910189311E+01  0.26173705673E+02 -0.73718129338E+01  0.27702010328E+02  0.51100000000E-03 0. -1.
        -11    1    3    3    0    0  0.11080608715E+02  0.15790725843E+01  0.13415221178E+02  0.17471162504E+02  0.51100000000E-03 0.  1.
        -12    1    3    3    0    0  0.12143863472E+01 -0.78962265628E+01  0.11653200422E+02  0.14128772353E+02  0.00000000000E+00 0.  1.
</event>
<event>
 7    1  0.1221195E-011  0.5930194E+02  0.7816164E-02  0.1266605E+00
        -11   -1    0    0    0    0  0.00000000000E+00  0.00000000000E+00  0.45593999997E+02  0.45594000000E+02  0.51100000000E-03 0.  1.
         11   -1    0    0    0    0 -0.00000000000E+00 -0.00000000000E+00 -0.45593999997E+02  0.45594000000E+02  0.51100000000E-03 0. -1.
    9900012    2    1    2    0    0  0.10118940122E+02  0.29448531345E+02 -0.68638180343E+01  0.59301938068E+02  0.49999989131E+02 0.  0.
        -12    1    1    2    0    0 -0.10118940122E+02 -0.29448531345E+02  0.68638180343E+01  0.31886061932E+02  0.00000000000E+00 0.  1.
         11    1    3    3    0    0 -0.47899224629E+01  0.64439332889E+01  0.53764631216E+01  0.96630217526E+01  0.51100000000E-03 0. -1.
        -11    1    3    3    0    0  0.15858890902E+02  0.17034546468E+01 -0.21183581277E+02  0.26516981245E+02  0.51100000000E-03 0.  1.
         12    1    3    3    0    0 -0.95002831725E+00  0.21301143409E+02  0.89433001213E+01  0.23121935070E+02  0.00000000000E+00 0. -1.
</event>
<event>
 7    1  0.1221195E-011  0.5930191E+02  0.7816164E-02  0.1266605E+00
        -11   -1    0    0    0    0  0.00000000000E+00  0.00000000000E+00  0.45593999997E+02  0.45594000000E+02  0.51100000000E-03 0.  1.
         11   -1    0    0    0    0 -0.00000000000E+00 -0.00000000000E+00 -0.45593999997E+02  0.45594000000E+02  0.51100000000E-03 0. -1.
    9900012    2    1    2    0    0 -0.26023147912E+02  0.40637289897E+01 -0.17972331503E+02  0.59301908672E+02  0.49999935519E+02 0.  0.
        -12    1    1    2    0    0  0.26023147912E+02 -0.40637289897E+01  0.17972331503E+02  0.31886091328E+02  0.00000000000E+00 0.  1.
         11    1    3    3    0    0 -0.13954488907E+01  0.86001970040E+01 -0.41046609290E+01  0.96311425967E+01  0.51100000000E-03 0. -1.
        -11    1    3    3    0    0 -0.54763914420E+01 -0.21304594827E+02 -0.89345981572E+01  0.23742444450E+02  0.51100000000E-03 0.  1.
         12    1    3    3    0    0 -0.19151307579E+02  0.16768126813E+02 -0.49330724172E+01  0.25928321625E+02  0.00000000000E+00 0. -1.
</event>
<event>
 7    1  0.1221195E-011  0.5930194E+02  0.7816164E-02  0.1266605E+00
        -11   -1    0    0    0    0  0.00000000000E+00  0.00000000000E+00  0.45593999997E+02  0.45594000000E+02  0.51100000000E-03 0.  1.
         11   -1    0    0    0    0 -0.00000000000E+00 -0.00000000000E+00 -0.45593999997E+02  0.45594000000E+02  0.51100000000E-03 0. -1.
    9900012    2    1    2    0    0  0.11948049760E+02 -0.26640084222E+02 -0.12816824738E+02  0.59301937578E+02  0.49999988238E+02 0.  0.
        -12    1    1    2    0    0 -0.11948049760E+02  0.26640084222E+02  0.12816824738E+02  0.31886062422E+02  0.00000000000E+00 0.  1.
         11    1    3    3    0    0 -0.21317092558E+01 -0.12949648839E+01 -0.16394018802E+02  0.16582670809E+02  0.51100000000E-03 0. -1.
        -11    1    3    3    0    0 -0.50712533373E+01 -0.49579347902E+01  0.11621056023E+02  0.13614245156E+02  0.51100000000E-03 0.  1.
         12    1    3    3    0    0  0.19151012353E+02 -0.20387184548E+02 -0.80438619587E+01  0.29105021614E+02  0.00000000000E+00 0. -1.
</event>
<event>
 7    1  0.1221195E-011  0.5930192E+02  0.7816164E-02  0.1266605E+00
        -11   -1    0    0    0    0  0.00000000000E+00  0.00000000000E+00  0.45593999997E+02  0.45594000000E+02  0.51100000000E-03 0. -1.
         11   -1    0    0    0    0 -0.00000000000E+00 -0.00000000000E+00 -0.45593999997E+02  0.45594000000E+02  0.51100000000E-03 0.  1.
    9900012    2    1    2    0    0 -0.29155570983E+02  0.79359042269E+01  0.10183128925E+02  0.59301921377E+02  0.49999958691E+02 0.  0.
        -12    1    1    2    0    0  0.29155570983E+02 -0.79359042269E+01 -0.10183128925E+02  0.31886078623E+02  0.00000000000E+00 0.  1.
         11    1    3    3    0    0 -0.55736516340E+01 -0.93477760514E+01  0.44655196019E+01  0.11763816354E+02  0.51100000000E-03 0. -1.
        -11    1    3    3    0    0 -0.33740115012E+01 -0.83725109042E+00  0.17577109312E+02  0.17917581171E+02  0.51100000000E-03 0.  1.
        -12    1    3    3    0    0 -0.20207907848E+02  0.18120931369E+02 -0.11859499989E+02  0.29620523852E+02  0.00000000000E+00 0.  1.
</event>
<event>
 7    1  0.1221195E-011  0.5930195E+02  0.7816164E-02  0.1266605E+00
        -11   -1    0    0    0    0  0.00000000000E+00  0.00000000000E+00  0.45593999997E+02  0.45594000000E+02  0.51100000000E-03 0.  1.
         11   -1    0    0    0    0 -0.00000000000E+00 -0.00000000000E+00 -0.45593999997E+02  0.45594000000E+02  0.51100000000E-03 0. -1.
    9900012    2    1    2    0    0  0.26605238727E+02  0.17473811105E+02 -0.18834811317E+01  0.59301948136E+02  0.50000007493E+02 0.  0.
        -12    1    1    2    0    0 -0.26605238727E+02 -0.17473811105E+02  0.18834811317E+01  0.31886051864E+02  0.00000000000E+00 0.  1.
         11    1    3    3    0    0  0.93638359996E+00  0.10320112202E+01 -0.17717720036E+02  0.17772435538E+02  0.51100000000E-03 0. -1.
        -11    1    3    3    0    0  0.19776863283E+01  0.12377524314E+02  0.11685868471E+02  0.17136915520E+02  0.51100000000E-03 0.  1.
        -12    1    3    3    0    0  0.23691168799E+02  0.40642755702E+01  0.41483704334E+01  0.24392597078E+02  0.00000000000E+00 0.  1.
</event>
<event>
 7    1  0.1221195E-011  0.5930179E+02  0.7816164E-02  0.1266605E+00
        -11   -1    0    0    0    0  0.00000000000E+00  0.00000000000E+00  0.45593999997E+02  0.45594000000E+02  0.51100000000E-03 0.  1.
         11   -1    0    0    0    0 -0.00000000000E+00 -0.00000000000E+00 -0.45593999997E+02  0.45594000000E+02  0.51100000000E-03 0. -1.
    9900012    2    1    2    0    0 -0.54678182171E+01 -0.88883949682E+01 -0.30130215235E+02  0.59301788697E+02  0.49999716713E+02 0.  0.
        -12    1    1    2    0    0  0.54678182171E+01  0.88883949682E+01  0.30130215235E+02  0.31886211303E+02  0.00000000000E+00 0.  1.
         11    1    3    3    0    0 -0.41629979269E+00 -0.12727348557E+01  0.29004597904E+01  0.31946559732E+01  0.51100000000E-03 0. -1.
        -11    1    3    3    0    0  0.15591203175E+02  0.75439025788E+01 -0.47643288471E+01  0.17963710980E+02  0.51100000000E-03 0.  1.
         12    1    3    3    0    0 -0.20642721600E+02 -0.15159562691E+02 -0.28266346178E+02  0.38143421743E+02  0.00000000000E+00 0. -1.
</event>
<event>
 7    1  0.1221195E-011  0.5930194E+02  0.7816164E-02  0.1266605E+00
        -11   -1    0    0    0    0  0.00000000000E+00  0.00000000000E+00  0.45593999997E+02  0.45594000000E+02  0.51100000000E-03 0.  1.
         11   -1    0    0    0    0 -0.00000000000E+00 -0.00000000000E+00 -0.45593999997E+02  0.45594000000E+02  0.51100000000E-03 0. -1.
    9900012    2    1    2    0    0 -0.23410528633E+02 -0.13172571042E+02 -0.17179968105E+02  0.59301940619E+02  0.49999993784E+02 0.  0.
        -12    1    1    2    0    0  0.23410528633E+02  0.13172571042E+02  0.17179968105E+02  0.31886059381E+02  0.00000000000E+00 0.  1.
         11    1    3    3    0    0 -0.18762303648E+02 -0.83273324853E+00  0.49346432566E+01  0.19418243668E+02  0.51100000000E-03 0. -1.
        -11    1    3    3    0    0 -0.12600323344E+02 -0.18754003408E+02 -0.12338491466E+02  0.25743332421E+02  0.51100000000E-03 0.  1.
        -12    1    3    3    0    0  0.79520983584E+01  0.64141656145E+01 -0.97761198959E+01  0.14140364530E+02  0.00000000000E+00 0.  1.
</event>
<event>
 7    1  0.1221195E-011  0.5930194E+02  0.7816164E-02  0.1266605E+00
        -11   -1    0    0    0    0  0.00000000000E+00  0.00000000000E+00  0.45593999997E+02  0.45594000000E+02  0.51100000000E-03 0.  1.
         11   -1    0    0    0    0 -0.00000000000E+00 -0.00000000000E+00 -0.45593999997E+02  0.45594000000E+02  0.51100000000E-03 0. -1.
    9900012    2    1    2    0    0 -0.25651408581E+02 -0.53613333012E+01 -0.18165406776E+02  0.59301942541E+02  0.49999997289E+02 0.  0.
        -12    1    1    2    0    0  0.25651408581E+02  0.53613333012E+01  0.18165406776E+02  0.31886057459E+02  0.00000000000E+00 0.  1.
         11    1    3    3    0    0  0.28847738719E+01 -0.45314294141E+00  0.94106241346E+01  0.98532789304E+01  0.51100000000E-03 0. -1.
        -11    1    3    3    0    0 -0.63791768979E+01 -0.14870990740E+02 -0.15126538509E+02  0.22150675633E+02  0.51100000000E-03 0.  1.
         12    1    3    3    0    0 -0.22157005555E+02  0.99628003805E+01 -0.12449492402E+02  0.27297987978E+02  0.00000000000E+00 0. -1.
</event>
<event>
 7    1  0.1221195E-011  0.5930215E+02  0.7816164E-02  0.1266604E+00
        -11   -1    0    0    0    0  0.00000000000E+00  0.00000000000E+00  0.45593999997E+02  0.45594000000E+02  0.51100000000E-03 0.  1.
         11   -1    0    0    0    0 -0.00000000000E+00 -0.00000000000E+00 -0.45593999997E+02  0.45594000000E+02  0.51100000000E-03 0. -1.
    9900012    2    1    2    0    0 -0.17560235598E+02 -0.23730577082E+02  0.12050116672E+02  0.59302149302E+02  0.50000374369E+02 0.  0.
        -12    1    1    2    0    0  0.17560235598E+02  0.23730577082E+02 -0.12050116672E+02  0.31885850698E+02  0.00000000000E+00 0.  1.
         11    1    3    3    0    0  0.48684140934E+01 -0.11740499666E+02 -0.90913486443E+01  0.15626688985E+02  0.51100000000E-03 0. -1.
        -11    1    3    3    0    0 -0.14094814992E+02  0.74837595864E+01  0.40670443930E+01  0.16468494697E+02  0.51100000000E-03 0.  1.
         12    1    3    3    0    0 -0.83338346995E+01 -0.19473837002E+02  0.17074420924E+02  0.27206965620E+02  0.00000000000E+00 0. -1.
</event>
<event>
 7    1  0.1221195E-011  0.5930194E+02  0.7816164E-02  0.1266605E+00
        -11   -1    0    0    0    0  0.00000000000E+00  0.00000000000E+00  0.45593999997E+02  0.45594000000E+02  0.51100000000E-03 0.  1.
         11   -1    0    0    0    0 -0.00000000000E+00 -0.00000000000E+00 -0.45593999997E+02  0.45594000000E+02  0.51100000000E-03 0. -1.
    9900012    2    1    2    0    0 -0.10377737893E+02 -0.21930753041E+01 -0.30070150112E+02  0.59301937986E+02  0.49999988981E+02 0.  0.
        -12    1    1    2    0    0  0.10377737893E+02  0.21930753041E+01  0.30070150112E+02  0.31886062014E+02  0.00000000000E+00 0.  1.
         11    1    3    3    0    0 -0.19601788950E+01  0.82674738975E+01 -0.67906240613E+01  0.10876856225E+02  0.51100000000E-03 0. -1.
        -11    1    3    3    0    0 -0.17426274002E+02 -0.10471055974E+02 -0.30653976590E+02  0.36782935172E+02  0.51100000000E-03 0.  1.
        -12    1    3    3    0    0  0.90087150042E+01  0.10506772655E-01  0.73744505399E+01  0.11642146588E+02  0.00000000000E+00 0.  1.
</event>
<event>
 7    1  0.1221195E-011  0.5930192E+02  0.7816164E-02  0.1266605E+00
        -11   -1    0    0    0    0  0.00000000000E+00  0.00000000000E+00  0.45593999997E+02  0.45594000000E+02  0.51100000000E-03 0. -1.
         11   -1    0    0    0    0 -0.00000000000E+00 -0.00000000000E+00 -0.45593999997E+02  0.45594000000E+02  0.51100000000E-03 0.  1.
    9900012    2    1    2    0    0  0.10638467055E+02  0.29971822735E+02  0.22880402447E+01  0.59301917339E+02  0.49999951325E+02 0.  0.
        -12    1    1    2    0    0 -0.10638467055E+02 -0.29971822735E+02 -0.22880402447E+01  0.31886082661E+02  0.00000000000E+00 0.  1.
         11    1    3    3    0    0  0.39476048761E+01  0.26928320277E+02  0.12326233379E+01  0.27244033801E+02  0.51100000000E-03 0. -1.
        -11    1    3    3    0    0 -0.19807792403E+01  0.14103940066E+02 -0.69881380522E+01  0.15864384182E+02  0.51100000000E-03 0.  1.
        -12    1    3    3    0    0  0.86716414194E+01 -0.11060437608E+02  0.80435549591E+01  0.16193499355E+02  0.00000000000E+00 0.  1.
</event>
<event>
 7    1  0.1221195E-011  0.5930194E+02  0.7816164E-02  0.1266605E+00
        -11   -1    0    0    0    0  0.00000000000E+00  0.00000000000E+00  0.45593999997E+02  0.45594000000E+02  0.51100000000E-03 0. -1.
         11   -1    0    0    0    0 -0.00000000000E+00 -0.00000000000E+00 -0.45593999997E+02  0.45594000000E+02  0.51100000000E-03 0.  1.
    9900012    2    1    2    0    0  0.63019942052E+01  0.17793780522E+02  0.25697999741E+02  0.59301938046E+02  0.49999989091E+02 0.  0.
        -12    1    1    2    0    0 -0.63019942052E+01 -0.17793780522E+02 -0.25697999741E+02  0.31886061954E+02  0.00000000000E+00 0.  1.
         11    1    3    3    0    0  0.27770242563E+01  0.43632691889E+01 -0.97064977475E+01  0.10998458097E+02  0.51100000000E-03 0.  1.
        -11    1    3    3    0    0 -0.14940832103E+01  0.20755199914E+02  0.13863354831E+02  0.25004063981E+02  0.51100000000E-03 0. -1.
         12    1    3    3    0    0  0.50190531592E+01 -0.73246885813E+01  0.21541142658E+02  0.23299415968E+02  0.00000000000E+00 0. -1.
</event>
<event>
 7    1  0.1221195E-011  0.5930194E+02  0.7816164E-02  0.1266605E+00
        -11   -1    0    0    0    0  0.00000000000E+00  0.00000000000E+00  0.45593999997E+02  0.45594000000E+02  0.51100000000E-03 0.  1.
         11   -1    0    0    0    0 -0.00000000000E+00 -0.00000000000E+00 -0.45593999997E+02  0.45594000000E+02  0.51100000000E-03 0. -1.
    9900012    2    1    2    0    0 -0.12914337178E+02 -0.60718197214E+01 -0.28514442885E+02  0.59301944231E+02  0.50000000371E+02 0.  0.
        -12    1    1    2    0    0  0.12914337178E+02  0.60718197214E+01  0.28514442885E+02  0.31886055769E+02  0.00000000000E+00 0.  1.
         11    1    3    3    0    0 -0.11146539974E+02 -0.12943628225E+02  0.39941259167E+01  0.17542403117E+02  0.51100000000E-03 0. -1.
        -11    1    3    3    0    0 -0.98757873031E+01 -0.45308977289E+00 -0.30596151608E+01  0.10348802365E+02  0.51100000000E-03 0.  1.
        -12    1    3    3    0    0  0.81079900996E+01  0.73248982769E+01 -0.29448953640E+02  0.31410738749E+02  0.00000000000E+00 0.  1.
</event>
<event>
 7    1  0.1221195E-011  0.5930194E+02  0.7816164E-02  0.1266605E+00
        -11   -1    0    0    0    0  0.00000000000E+00  0.00000000000E+00  0.45593999997E+02  0.45594000000E+02  0.51100000000E-03 0. -1.
         11   -1    0    0    0    0 -0.00000000000E+00 -0.00000000000E+00 -0.45593999997E+02  0.45594000000E+02  0.51100000000E-03 0.  1.
    9900012    2    1    2    0    0 -0.92733748019E+01  0.16968018133E+02  0.25353727802E+02  0.59301942968E+02  0.49999998068E+02 0.  0.
        -12    1    1    2    0    0  0.92733748019E+01 -0.16968018133E+02 -0.25353727802E+02  0.31886057032E+02  0.00000000000E+00 0.  1.
         11    1    3    3    0    0  0.84592367936E+01  0.27993066103E+01  0.20051306511E+01  0.91332006338E+01  0.51100000000E-03 0. -1.
        -11    1    3    3    0    0  0.75068510681E+01 -0.37022048361E+01  0.16488419769E+02  0.18491271463E+02  0.51100000000E-03 0.  1.
         12    1    3    3    0    0 -0.25239462664E+02  0.17870916359E+02  0.68601773822E+01  0.31677470871E+02  0.00000000000E+00 0. -1.
</event>
<event>
 7    1  0.1221195E-011  0.5930188E+02  0.7816164E-02  0.1266605E+00
        -11   -1    0    0    0    0  0.00000000000E+00  0.00000000000E+00  0.45593999997E+02  0.45594000000E+02  0.51100000000E-03 0. -1.
         11   -1    0    0    0    0 -0.00000000000E+00 -0.00000000000E+00 -0.45593999997E+02  0.45594000000E+02  0.51100000000E-03 0.  1.
    9900012    2    1    2    0    0 -0.28302009872E+02  0.13516209887E+02 -0.57474231412E+01  0.59301881307E+02  0.49999885613E+02 0.  0.
        -12    1    1    2    0    0  0.28302009872E+02 -0.13516209887E+02  0.57474231412E+01  0.31886118693E+02  0.00000000000E+00 0.  1.
         11    1    3    3    0    0 -0.59293855841E+01  0.28175942411E+01  0.93282388845E+01  0.11406686270E+02  0.51100000000E-03 0. -1.
        -11    1    3    3    0    0  0.83218176905E+01 -0.48904156868E+01  0.13584083478E+01  0.97475170564E+01  0.51100000000E-03 0.  1.
        -12    1    3    3    0    0 -0.30694441979E+02  0.15589031333E+02 -0.16434070374E+02  0.38147677981E+02  0.00000000000E+00 0.  1.
</event>
<event>
 7    1  0.1221195E-011  0.5930197E+02  0.7816164E-02  0.1266605E+00
        -11   -1    0    0    0    0  0.00000000000E+00  0.00000000000E+00  0.45593999997E+02  0.45594000000E+02  0.51100000000E-03 0.  1.
         11   -1    0    0    0    0 -0.00000000000E+00 -0.00000000000E+00 -0.45593999997E+02  0.45594000000E+02  0.51100000000E-03 0. -1.
    9900012    2    1    2    0    0  0.64071529758E+01  0.27863918500E+02 -0.14116283231E+02  0.59301968329E+02  0.50000044320E+02 0.  0.
        -12    1    1    2    0    0 -0.64071529758E+01 -0.27863918500E+02  0.14116283231E+02  0.31886031671E+02  0.00000000000E+00 0.  1.
         11    1    3    3    0    0 -0.77631819855E+01 -0.72994723735E+00  0.24946515611E+01  0.81867639628E+01  0.51100000000E-03 0. -1.
        -11    1    3    3    0    0  0.49642722619E+01 -0.44713498540E+00 -0.19861177934E+02  0.20477068100E+02  0.51100000000E-03 0.  1.
        -12    1    3    3    0    0  0.92060626994E+01  0.29041000723E+02  0.32502431416E+01  0.30638136267E+02  0.00000000000E+00 0.  1.
</event>
<event>
 7    1  0.1221195E-011  0.5930192E+02  0.7816164E-02  0.1266605E+00
        -11   -1    0    0    0    0  0.00000000000E+00  0.00000000000E+00  0.45593999997E+02  0.45594000000E+02  0.51100000000E-03 0. -1.
         11   -1    0    0    0    0 -0.00000000000E+00 -0.00000000000E+00 -0.45593999997E+02  0.45594000000E+02  0.51100000000E-03 0.  1.
    9900012    2    1    2    0    0  0.28788139202E+02 -0.57114535812E+01  0.12463724949E+02  0.59301919960E+02  0.49999956106E+02 0.  0.
        -12    1    1    2    0    0 -0.28788139202E+02  0.57114535812E+01 -0.12463724949E+02  0.31886080040E+02  0.00000000000E+00 0.  1.
         11    1    3    3    0    0  0.37674740763E+01  0.49648588154E+01  0.64378832210E+01  0.89604701105E+01  0.51100000000E-03 0. -1.
        -11    1    3    3    0    0  0.49373623626E+00  0.14124016806E+02 -0.26956669035E+01  0.14387433633E+02  0.51100000000E-03 0.  1.
         12    1    3    3    0    0  0.24526928889E+02 -0.24800329203E+02  0.87215086315E+01  0.35954016217E+02  0.00000000000E+00 0. -1.
</event>
<event>
 7    1  0.1221195E-011  0.5930197E+02  0.7816164E-02  0.1266605E+00
        -11   -1    0    0    0    0  0.00000000000E+00  0.00000000000E+00  0.45593999997E+02  0.45594000000E+02  0.51100000000E-03 0. -1.
         11   -1    0    0    0    0 -0.00000000000E+00 -0.00000000000E+00 -0.45593999997E+02  0.45594000000E+02  0.51100000000E-03 0.  1.
    9900012    2    1    2    0    0 -0.29188056134E+02 -0.19836275990E+01  0.12682330289E+02  0.59301970129E+02  0.50000047603E+02 0.  0.
        -12    1    1    2    0    0  0.29188056134E+02  0.19836275990E+01 -0.12682330289E+02  0.31886029871E+02  0.00000000000E+00 0.  1.
         11    1    3    3    0    0 -0.10096391813E+02  0.72302712270E+01  0.31915269538E+00  0.12422391411E+02  0.51100000000E-03 0. -1.
        -11    1    3    3    0    0 -0.11573252746E+02 -0.87731027669E+01 -0.13569400228E+02  0.19875515945E+02  0.51100000000E-03 0.  1.
        -12    1    3    3    0    0 -0.75184115745E+01 -0.44079605903E+00  0.25932577822E+02  0.27004062773E+02  0.00000000000E+00 0.  1.
</event>
<event>
 7    1  0.1221195E-011  0.5930194E+02  0.7816164E-02  0.1266605E+00
        -11   -1    0    0    0    0  0.00000000000E+00  0.00000000000E+00  0.45593999997E+02  0.45594000000E+02  0.51100000000E-03 0. -1.
         11   -1    0    0    0    0 -0.00000000000E+00 -0.00000000000E+00 -0.45593999997E+02  0.45594000000E+02  0.51100000000E-03 0.  1.
    9900012    2    1    2    0    0 -0.75346149515E+01  0.28660001882E+02  0.11770912340E+02  0.59301944934E+02  0.50000001653E+02 0.  0.
        -12    1    1    2    0    0  0.75346149515E+01 -0.28660001882E+02 -0.11770912340E+02  0.31886055066E+02  0.00000000000E+00 0.  1.
         11    1    3    3    0    0  0.41535530464E+01 -0.60194821788E+01 -0.79420992371E+01  0.10796439652E+02  0.51100000000E-03 0. -1.
        -11    1    3    3    0    0 -0.41136421068E+01  0.40931585989E+01 -0.56171316578E+01  0.80763956702E+01  0.51100000000E-03 0.  1.
         12    1    3    3    0    0 -0.75745258910E+01  0.30586325462E+02  0.25330143234E+02  0.40429109612E+02  0.00000000000E+00 0. -1.
</event>
<event>
 7    1  0.1221195E-011  0.5930198E+02  0.7816164E-02  0.1266605E+00
        -11   -1    0    0    0    0  0.00000000000E+00  0.00000000000E+00  0.45593999997E+02  0.45594000000E+02  0.51100000000E-03 0.  1.
         11   -1    0    0    0    0 -0.00000000000E+00 -0.00000000000E+00 -0.45593999997E+02  0.45594000000E+02  0.51100000000E-03 0. -1.
    9900012    2    1    2    0    0  0.18982116413E+02 -0.10530625871E+02 -0.23356021993E+02  0.59301975034E+02  0.50000056549E+02 0.  0.
        -12    1    1    2    0    0 -0.18982116413E+02  0.10530625871E+02  0.23356021993E+02  0.31886024966E+02  0.00000000000E+00 0.  1.
         11    1    3    3    0    0  0.18827565050E+02  0.36727893483E+01 -0.21603718715E+01  0.19303724879E+02  0.51100000000E-03 0. -1.
        -11    1    3    3    0    0  0.47925719990E+01  0.53484166793E+01  0.36401381507E+01  0.80513920137E+01  0.51100000000E-03 0.  1.
        -12    1    3    3    0    0 -0.46380206362E+01 -0.19551831899E+02 -0.24835788273E+02  0.31946858142E+02  0.00000000000E+00 0.  1.
</event>
<event>
 7    1  0.1221195E-011  0.5930201E+02  0.7816164E-02  0.1266605E+00
        -11   -1    0    0    0    0  0.00000000000E+00  0.00000000000E+00  0.45593999997E+02  0.45594000000E+02  0.51100000000E-03 0.  1.
         11   -1    0    0    0    0 -0.00000000000E+00 -0.00000000000E+00 -0.45593999997E+02  0.45594000000E+02  0.51100000000E-03 0. -1.
    9900012    2    1    2    0    0 -0.74870236388E+01  0.11675234103E+01 -0.30972526776E+02  0.59302014854E+02  0.50000129169E+02 0.  0.
        -12    1    1    2    0    0  0.74870236388E+01 -0.11675234103E+01  0.30972526776E+02  0.31885985146E+02  0.00000000000E+00 0.  1.
         11    1    3    3    0    0  0.97280865474E+01 -0.34874701123E+01 -0.11460099534E+02  0.15431526083E+02  0.51100000000E-03 0. -1.
        -11    1    3    3    0    0 -0.49660097665E+01  0.16988082784E+02 -0.19705564395E+02  0.26487081343E+02  0.51100000000E-03 0.  1.
        -12    1    3    3    0    0 -0.12249100420E+02 -0.12333089262E+02  0.19313715352E+00  0.17383407428E+02  0.00000000000E+00 0.  1.
</event>
<event>
 7    1  0.1221195E-011  0.5930195E+02  0.7816164E-02  0.1266605E+00
        -11   -1    0    0    0    0  0.00000000000E+00  0.00000000000E+00  0.45593999997E+02  0.45594000000E+02  0.51100000000E-03 0.  1.
         11   -1    0    0    0    0 -0.00000000000E+00 -0.00000000000E+00 -0.45593999997E+02  0.45594000000E+02  0.51100000000E-03 0. -1.
    9900012    2    1    2    0    0 -0.25746420910E+02  0.16523555873E+02 -0.89896664253E+01  0.59301949903E+02  0.50000010715E+02 0.  0.
        -12    1    1    2    0    0  0.25746420910E+02 -0.16523555873E+02  0.89896664253E+01  0.31886050097E+02  0.00000000000E+00 0.  1.
         11    1    3    3    0    0 -0.16161863078E+02 -0.10711533599E+02  0.34665657182E+01  0.19696696381E+02  0.51100000000E-03 0. -1.
        -11    1    3    3    0    0 -0.57882523717E+01  0.87755746966E+01  0.69119623673E+01  0.12581327466E+02  0.51100000000E-03 0.  1.
         12    1    3    3    0    0 -0.37963054604E+01  0.18459514774E+02 -0.19368194511E+02  0.27023926056E+02  0.00000000000E+00 0. -1.
</event>
<event>
 7    1  0.1221195E-011  0.5930199E+02  0.7816164E-02  0.1266605E+00
        -11   -1    0    0    0    0  0.00000000000E+00  0.00000000000E+00  0.45593999997E+02  0.45594000000E+02  0.51100000000E-03 0. -1.
         11   -1    0    0    0    0 -0.00000000000E+00 -0.00000000000E+00 -0.45593999997E+02  0.45594000000E+02  0.51100000000E-03 0.  1.
    9900012    2    1    2    0    0  0.20226765449E+02  0.99001266125E+01  0.22573940083E+02  0.59301994946E+02  0.50000092862E+02 0.  0.
        -12    1    1    2    0    0 -0.20226765449E+02 -0.99001266125E+01 -0.22573940083E+02  0.31886005054E+02  0.00000000000E+00 0.  1.
         11    1    3    3    0    0  0.15465595931E+02 -0.51887336132E+01  0.30465467171E+01  0.16594850441E+02  0.51100000000E-03 0. -1.
        -11    1    3    3    0    0  0.46282783357E+01 -0.10546685411E+02  0.20970344327E+01  0.11706882043E+02  0.51100000000E-03 0.  1.
        -12    1    3    3    0    0  0.13289118274E+00  0.25635545636E+02  0.17430358933E+02  0.31000262461E+02  0.00000000000E+00 0.  1.
</event>
<event>
 7    1  0.1221195E-011  0.5930195E+02  0.7816164E-02  0.1266605E+00
        -11   -1    0    0    0    0  0.00000000000E+00  0.00000000000E+00  0.45593999997E+02  0.45594000000E+02  0.51100000000E-03 0.  1.
         11   -1    0    0    0    0 -0.00000000000E+00 -0.00000000000E+00 -0.45593999997E+02  0.45594000000E+02  0.51100000000E-03 0. -1.
    9900012    2    1    2    0    0 -0.19017180249E+02  0.23035886938E+02 -0.11154139219E+02  0.59301952058E+02  0.50000014645E+02 0.  0.
        -12    1    1    2    0    0  0.19017180249E+02 -0.23035886938E+02  0.11154139219E+02  0.31886047942E+02  0.00000000000E+00 0.  1.
         11    1    3    3    0    0 -0.43358576928E+01 -0.89771260446E+01 -0.86109994866E+01  0.13173373386E+02  0.51100000000E-03 0. -1.
        -11    1    3    3    0    0 -0.33635627614E+01  0.45855446996E+01  0.11855278691E+02  0.13148703653E+02  0.51100000000E-03 0.  1.
         12    1    3    3    0    0 -0.11317759795E+02  0.27427468283E+02 -0.14398418424E+02  0.32979875019E+02  0.00000000000E+00 0. -1.
</event>
<event>
 7    1  0.1221195E-011  0.5930194E+02  0.7816164E-02  0.1266605E+00
        -11   -1    0    0    0    0  0.00000000000E+00  0.00000000000E+00  0.45593999997E+02  0.45594000000E+02  0.51100000000E-03 0.  1.
         11   -1    0    0    0    0 -0.00000000000E+00 -0.00000000000E+00 -0.45593999997E+02  0.45594000000E+02  0.51100000000E-03 0. -1.
    9900012    2    1    2    0    0 -0.18550662103E+02 -0.25908949640E+02 -0.11488311049E+01  0.59301944289E+02  0.50000000476E+02 0.  0.
        -12    1    1    2    0    0  0.18550662103E+02  0.25908949640E+02  0.11488311049E+01  0.31886055711E+02  0.00000000000E+00 0.  1.
         11    1    3    3    0    0 -0.13412314543E+02 -0.93250923224E+01  0.11110917401E+02  0.19756012097E+02  0.51100000000E-03 0. -1.
        -11    1    3    3    0    0  0.98179253912E+01 -0.12668609128E+02  0.45961858349E+01  0.16673639096E+02  0.51100000000E-03 0.  1.
         12    1    3    3    0    0 -0.14956272951E+02 -0.39152481894E+01 -0.16855934340E+02  0.22872293096E+02  0.00000000000E+00 0. -1.
</event>
<event>
 7    1  0.1221195E-011  0.5930195E+02  0.7816164E-02  0.1266605E+00
        -11   -1    0    0    0    0  0.00000000000E+00  0.00000000000E+00  0.45593999997E+02  0.45594000000E+02  0.51100000000E-03 0.  1.
         11   -1    0    0    0    0 -0.00000000000E+00 -0.00000000000E+00 -0.45593999997E+02  0.45594000000E+02  0.51100000000E-03 0. -1.
    9900012    2    1    2    0    0  0.94893148939E+01 -0.23766114813E+02 -0.19022213418E+02  0.59301954247E+02  0.50000018638E+02 0.  0.
        -12    1    1    2    0    0 -0.94893148939E+01  0.23766114813E+02  0.19022213418E+02  0.31886045753E+02  0.00000000000E+00 0.  1.
         11    1    3    3    0    0  0.43667935116E+01  0.18635592518E+01  0.16174087379E+01  0.50157501876E+01  0.51100000000E-03 0. -1.
        -11    1    3    3    0    0 -0.54097514634E+01  0.10611534702E+02 -0.16094176002E+01  0.12019164069E+02  0.51100000000E-03 0.  1.
         12    1    3    3    0    0  0.10532272846E+02 -0.36241208767E+02 -0.19030204555E+02  0.42267039991E+02  0.00000000000E+00 0. -1.
</event>
<event>
 7    1  0.1221195E-011  0.5930193E+02  0.7816164E-02  0.1266605E+00
        -11   -1    0    0    0    0  0.00000000000E+00  0.00000000000E+00  0.45593999997E+02  0.45594000000E+02  0.51100000000E-03 0.  1.
         11   -1    0    0    0    0 -0.00000000000E+00 -0.00000000000E+00 -0.45593999997E+02  0.45594000000E+02  0.51100000000E-03 0. -1.
    9900012    2    1    2    0    0  0.21811642965E+02 -0.22729086491E+02 -0.49358512537E+01  0.59301925153E+02  0.49999965577E+02 0.  0.
        -12    1    1    2    0    0 -0.21811642965E+02  0.22729086491E+02  0.49358512537E+01  0.31886074847E+02  0.00000000000E+00 0.  1.
         11    1    3    3    0    0  0.94724068998E+01 -0.18452004962E+02  0.13245855176E+02  0.24610072312E+02  0.51100000000E-03 0. -1.
        -11    1    3    3    0    0 -0.25178915642E+01  0.65440531001E+01  0.21012331834E+01  0.73198080616E+01  0.51100000000E-03 0.  1.
        -12    1    3    3    0    0  0.14857127629E+02 -0.10821134629E+02 -0.20282939613E+02  0.27372044779E+02  0.00000000000E+00 0.  1.
</event>
<event>
 7    1  0.1221195E-011  0.5930194E+02  0.7816164E-02  0.1266605E+00
        -11   -1    0    0    0    0  0.00000000000E+00  0.00000000000E+00  0.45593999997E+02  0.45594000000E+02  0.51100000000E-03 0.  1.
         11   -1    0    0    0    0 -0.00000000000E+00 -0.00000000000E+00 -0.45593999997E+02  0.45594000000E+02  0.51100000000E-03 0. -1.
    9900012    2    1    2    0    0 -0.15452778584E+02 -0.44840057295E+01 -0.27528647854E+02  0.59301935238E+02  0.49999983970E+02 0.  0.
        -12    1    1    2    0    0  0.15452778584E+02  0.44840057295E+01  0.27528647854E+02  0.31886064762E+02  0.00000000000E+00 0.  1.
         11    1    3    3    0    0 -0.14680260930E+02  0.10005370267E+02 -0.18324265019E+02  0.25522464299E+02  0.51100000000E-03 0. -1.
        -11    1    3    3    0    0 -0.12980934037E+02 -0.44522384235E+01  0.27084216906E+01  0.13987945659E+02  0.51100000000E-03 0.  1.
        -12    1    3    3    0    0  0.12208416383E+02 -0.10037137573E+02 -0.11912804526E+02  0.19791525280E+02  0.00000000000E+00 0.  1.
</event>
<event>
 7    1  0.1221195E-011  0.5930201E+02  0.7816164E-02  0.1266605E+00
        -11   -1    0    0    0    0  0.00000000000E+00  0.00000000000E+00  0.45593999997E+02  0.45594000000E+02  0.51100000000E-03 0.  1.
         11   -1    0    0    0    0 -0.00000000000E+00 -0.00000000000E+00 -0.45593999997E+02  0.45594000000E+02  0.51100000000E-03 0. -1.
    9900012    2    1    2    0    0  0.25886484890E+01 -0.88432675636E+01 -0.30525591378E+02  0.59302012306E+02  0.50000124524E+02 0.  0.
        -12    1    1    2    0    0 -0.25886484890E+01  0.88432675636E+01  0.30525591378E+02  0.31885987694E+02  0.00000000000E+00 0.  1.
         11    1    3    3    0    0  0.17157165476E+02  0.60238238797E+01 -0.83346072195E+01  0.20003011250E+02  0.51100000000E-03 0. -1.
        -11    1    3    3    0    0  0.31489267336E+01 -0.12077280936E+02 -0.26209898511E+01  0.12753275753E+02  0.51100000000E-03 0.  1.
         12    1    3    3    0    0 -0.17717443720E+02 -0.27898105072E+01 -0.19569994308E+02  0.26545725303E+02  0.00000000000E+00 0. -1.
</event>
<event>
 7    1  0.1221195E-011  0.5930188E+02  0.7816164E-02  0.1266605E+00
        -11   -1    0    0    0    0  0.00000000000E+00  0.00000000000E+00  0.45593999997E+02  0.45594000000E+02  0.51100000000E-03 0.  1.
         11   -1    0    0    0    0 -0.00000000000E+00 -0.00000000000E+00 -0.45593999997E+02  0.45594000000E+02  0.51100000000E-03 0. -1.
    9900012    2    1    2    0    0 -0.24965471085E+02 -0.18256183260E+02  0.77563847890E+01  0.59301882665E+02  0.49999888088E+02 0.  0.
        -12    1    1    2    0    0  0.24965471085E+02  0.18256183260E+02 -0.77563847890E+01  0.31886117335E+02  0.00000000000E+00 0.  1.
         11    1    3    3    0    0 -0.23998788110E+02 -0.52081841076E+01  0.88065171697E+01  0.26088728550E+02  0.51100000000E-03 0. -1.
        -11    1    3    3    0    0 -0.31535926234E+01 -0.14243607713E+02  0.12637112013E+02  0.19300831780E+02  0.51100000000E-03 0.  1.
         12    1    3    3    0    0  0.21869096483E+01  0.11956085604E+01 -0.13687244394E+02  0.13912322334E+02  0.00000000000E+00 0. -1.
</event>
<event>
 7    1  0.1221195E-011  0.5930195E+02  0.7816164E-02  0.1266605E+00
        -11   -1    0    0    0    0  0.00000000000E+00  0.00000000000E+00  0.45593999997E+02  0.45594000000E+02  0.51100000000E-03 0.  1.
         11   -1    0    0    0    0 -0.00000000000E+00 -0.00000000000E+00 -0.45593999997E+02  0.45594000000E+02  0.51100000000E-03 0. -1.
    9900012    2    1    2    0    0 -0.27292304454E+02  0.16078170707E+02  0.36527279434E+01  0.59301954822E+02  0.50000019686E+02 0.  0.
        -12    1    1    2    0    0  0.27292304454E+02 -0.16078170707E+02 -0.36527279434E+01  0.31886045178E+02  0.00000000000E+00 0.  1.
         11    1    3    3    0    0  0.11320189176E+01 -0.65859988707E+01 -0.14563317327E+01  0.68394261697E+01  0.51100000000E-03 0. -1.
        -11    1    3    3    0    0  0.51665593602E+01  0.39874627620E+01 -0.93468778524E+01  0.11399882488E+02  0.51100000000E-03 0.  1.
         12    1    3    3    0    0 -0.33590882732E+02  0.18676706815E+02  0.14455937528E+02  0.41062646164E+02  0.00000000000E+00 0. -1.
</event>
<event>
 7    1  0.1221195E-011  0.5930192E+02  0.7816164E-02  0.1266605E+00
        -11   -1    0    0    0    0  0.00000000000E+00  0.00000000000E+00  0.45593999997E+02  0.45594000000E+02  0.51100000000E-03 0. -1.
         11   -1    0    0    0    0 -0.00000000000E+00 -0.00000000000E+00 -0.45593999997E+02  0.45594000000E+02  0.51100000000E-03 0.  1.
    9900012    2    1    2    0    0  0.20357778031E+02  0.29362200505E+01  0.24365165596E+02  0.59301924527E+02  0.49999964435E+02 0.  0.
        -12    1    1    2    0    0 -0.20357778031E+02 -0.29362200505E+01 -0.24365165596E+02  0.31886075473E+02  0.00000000000E+00 0.  1.
         11    1    3    3    0    0  0.61218281614E+01  0.16192240050E+02  0.19294597156E+02  0.25921938538E+02  0.51100000000E-03 0. -1.
        -11    1    3    3    0    0  0.13960222866E+01 -0.13336946057E+02  0.12679065160E+02  0.18454855782E+02  0.51100000000E-03 0.  1.
        -12    1    3    3    0    0  0.12839927583E+02  0.80926057841E-01 -0.76084967194E+01  0.14925130207E+02  0.00000000000E+00 0.  1.
</event>
<event>
 7    1  0.1221195E-011  0.5930189E+02  0.7816164E-02  0.1266605E+00
        -11   -1    0    0    0    0  0.00000000000E+00  0.00000000000E+00  0.45593999997E+02  0.45594000000E+02  0.51100000000E-03 0.  1.
         11   -1    0    0    0    0 -0.00000000000E+00 -0.00000000000E+00 -0.45593999997E+02  0.45594000000E+02  0.51100000000E-03 0. -1.
    9900012    2    1    2    0    0  0.30233397608E+02 -0.97858101222E+01 -0.26275034149E+01  0.59301887272E+02  0.49999896492E+02 0.  0.
        -12    1    1    2    0    0 -0.30233397608E+02  0.97858101222E+01  0.26275034149E+01  0.31886112728E+02  0.00000000000E+00 0.  1.
         11    1    3    3    0    0  0.78727948051E+00  0.55337463436E+01 -0.77956364663E+01  0.95923983315E+01  0.51100000000E-03 0. -1.
        -11    1    3    3    0    0  0.31648250556E+02  0.20933833701E+01  0.13427438563E+01  0.31745818284E+02  0.51100000000E-03 0.  1.
         12    1    3    3    0    0 -0.22021324289E+01 -0.17412939836E+02  0.38253891951E+01  0.17963670657E+02  0.00000000000E+00 0. -1.
</event>
<event>
 7    1  0.1221195E-011  0.5930195E+02  0.7816164E-02  0.1266605E+00
        -11   -1    0    0    0    0  0.00000000000E+00  0.00000000000E+00  0.45593999997E+02  0.45594000000E+02  0.51100000000E-03 0.  1.
         11   -1    0    0    0    0 -0.00000000000E+00 -0.00000000000E+00 -0.45593999997E+02  0.45594000000E+02  0.51100000000E-03 0. -1.
    9900012    2    1    2    0    0 -0.20943668486E+02 -0.64880880685E+01 -0.23151411296E+02  0.59301946913E+02  0.50000005263E+02 0.  0.
        -12    1    1    2    0    0  0.20943668486E+02  0.64880880685E+01  0.23151411296E+02  0.31886053087E+02  0.00000000000E+00 0.  1.
         11    1    3    3    0    0 -0.80953604528E+01  0.75466314111E+01 -0.77961995983E+01  0.13537622943E+02  0.51100000000E-03 0. -1.
        -11    1    3    3    0    0 -0.70505170070E+01  0.96867690970E+01  0.59317755868E+01  0.13368965834E+02  0.51100000000E-03 0.  1.
         12    1    3    3    0    0 -0.57977910263E+01 -0.23721488577E+02 -0.21286987285E+02  0.32395358136E+02  0.00000000000E+00 0. -1.
</event>
<event>
 7    1  0.1221195E-011  0.5930195E+02  0.7816164E-02  0.1266605E+00
        -11   -1    0    0    0    0  0.00000000000E+00  0.00000000000E+00  0.45593999997E+02  0.45594000000E+02  0.51100000000E-03 0.  1.
         11   -1    0    0    0    0 -0.00000000000E+00 -0.00000000000E+00 -0.45593999997E+02  0.45594000000E+02  0.51100000000E-03 0. -1.
    9900012    2    1    2    0    0 -0.27614580957E+00 -0.41246214348E+01 -0.31616946630E+02  0.59301951755E+02  0.50000014093E+02 0.  0.
        -12    1    1    2    0    0  0.27614580957E+00  0.41246214348E+01  0.31616946630E+02  0.31886048245E+02  0.00000000000E+00 0.  1.
         11    1    3    3    0    0 -0.84769741860E+01 -0.47618257193E+00 -0.12931360833E+02  0.15469516296E+02  0.51100000000E-03 0. -1.
        -11    1    3    3    0    0 -0.37746172955E+01 -0.76896185486E+01 -0.27250280750E+02  0.28564939530E+02  0.51100000000E-03 0.  1.
        -12    1    3    3    0    0  0.11975445672E+02  0.40411796857E+01  0.85646949529E+01  0.15267495929E+02  0.00000000000E+00 0.  1.
</event>
<event>
 7    1  0.1221195E-011  0.5930195E+02  0.7816164E-02  0.1266605E+00
        -11   -1    0    0    0    0  0.00000000000E+00  0.00000000000E+00  0.45593999997E+02  0.45594000000E+02  0.51100000000E-03 0. -1.
         11   -1    0    0    0    0 -0.00000000000E+00 -0.00000000000E+00 -0.45593999997E+02  0.45594000000E+02  0.51100000000E-03 0.  1.
    9900012    2    1    2    0    0 -0.25360043023E+02  0.17822164288E+02  0.74805559962E+01  0.59301952267E+02  0.50000015027E+02 0.  0.
        -12    1    1    2    0    0  0.25360043023E+02 -0.17822164288E+02 -0.74805559962E+01  0.31886047733E+02  0.00000000000E+00 0.  1.
         11    1    3    3    0    0 -0.87042838723E+01  0.10945348551E+02 -0.34483600416E+01  0.14403346829E+02  0.51100000000E-03 0. -1.
        -11    1    3    3    0    0 -0.31337366500E+01  0.22526710422E+02  0.40445110674E+01  0.23100455793E+02  0.51100000000E-03 0.  1.
        -12    1    3    3    0    0 -0.13522022501E+02 -0.15649894685E+02  0.68844049705E+01  0.21798149645E+02  0.00000000000E+00 0.  1.
</event>
<event>
 7    1  0.1221195E-011  0.5930198E+02  0.7816164E-02  0.1266605E+00
        -11   -1    0    0    0    0  0.00000000000E+00  0.00000000000E+00  0.45593999997E+02  0.45594000000E+02  0.51100000000E-03 0.  1.
         11   -1    0    0    0    0 -0.00000000000E+00 -0.00000000000E+00 -0.45593999997E+02  0.45594000000E+02  0.51100000000E-03 0. -1.
    9900012    2    1    2    0    0 -0.27587432481E+02 -0.20865144608E+01 -0.15852400789E+02  0.59301975095E+02  0.50000056659E+02 0.  0.
        -12    1    1    2    0    0  0.27587432481E+02  0.20865144608E+01  0.15852400789E+02  0.31886024905E+02  0.00000000000E+00 0.  1.
         11    1    3    3    0    0 -0.23534003068E+02 -0.16093801897E+02 -0.57680638011E+01  0.29088319308E+02  0.51100000000E-03 0. -1.
        -11    1    3    3    0    0 -0.13837290537E+02  0.12345755933E+02 -0.70008612373E+01  0.19821714287E+02  0.51100000000E-03 0.  1.
        -12    1    3    3    0    0  0.97838611239E+01  0.16615315038E+01 -0.30834757508E+01  0.10391941500E+02  0.00000000000E+00 0.  1.
</event>
<event>
 7    1  0.1221195E-011  0.5930195E+02  0.7816164E-02  0.1266605E+00
        -11   -1    0    0    0    0  0.00000000000E+00  0.00000000000E+00  0.45593999997E+02  0.45594000000E+02  0.51100000000E-03 0.  1.
         11   -1    0    0    0    0 -0.00000000000E+00 -0.00000000000E+00 -0.45593999997E+02  0.45594000000E+02  0.51100000000E-03 0. -1.
    9900012    2    1    2    0    0  0.11671782225E+02 -0.13851454110E+02 -0.26241705314E+02  0.59301946950E+02  0.50000005330E+02 0.  0.
        -12    1    1    2    0    0 -0.11671782225E+02  0.13851454110E+02  0.26241705314E+02  0.31886053050E+02  0.00000000000E+00 0.  1.
         11    1    3    3    0    0 -0.46912389381E+01  0.70461180494E+01 -0.57795227020E+01  0.10249799279E+02  0.51100000000E-03 0. -1.
        -11    1    3    3    0    0 -0.50568384209E+00  0.45169790541E+01 -0.17869897437E+02  0.18438873355E+02  0.51100000000E-03 0.  1.
         12    1    3    3    0    0  0.16868705005E+02 -0.25414551214E+02 -0.25922851756E+01  0.30613274317E+02  0.00000000000E+00 0. -1.
</event>
<event>
 7    1  0.1221195E-011  0.5930200E+02  0.7816164E-02  0.1266605E+00
        -11   -1    0    0    0    0  0.00000000000E+00  0.00000000000E+00  0.45593999997E+02  0.45594000000E+02  0.51100000000E-03 0. -1.
         11   -1    0    0    0    0 -0.00000000000E+00 -0.00000000000E+00 -0.45593999997E+02  0.45594000000E+02  0.51100000000E-03 0.  1.
    9900012    2    1    2    0    0  0.71719329814E+01 -0.26106711200E+02  0.16843999168E+02  0.59301995227E+02  0.50000093376E+02 0.  0.
        -12    1    1    2    0    0 -0.71719329814E+01  0.26106711200E+02 -0.16843999168E+02  0.31886004773E+02  0.00000000000E+00 0.  1.
         11    1    3    3    0    0  0.52380105835E+01 -0.13594676297E+02 -0.92355357411E+01  0.17249553594E+02  0.51100000000E-03 0. -1.
        -11    1    3    3    0    0 -0.79913923230E+01  0.35306483118E+01 -0.12693777189E+01  0.88283151743E+01  0.51100000000E-03 0.  1.
         12    1    3    3    0    0  0.99253147210E+01 -0.16042683215E+02  0.27348912628E+02  0.33224126459E+02  0.00000000000E+00 0. -1.
</event>
<event>
 7    1  0.1221195E-011  0.5930197E+02  0.7816164E-02  0.1266605E+00
        -11   -1    0    0    0    0  0.00000000000E+00  0.00000000000E+00  0.45593999997E+02  0.45594000000E+02  0.51100000000E-03 0. -1.
         11   -1    0    0    0    0 -0.00000000000E+00 -0.00000000000E+00 -0.45593999997E+02  0.45594000000E+02  0.51100000000E-03 0.  1.
    9900012    2    1    2    0    0  0.14869561585E+02 -0.27751910357E+02  0.50444673437E+01  0.59301967933E+02  0.50000043597E+02 0.  0.
        -12    1    1    2    0    0 -0.14869561585E+02  0.27751910357E+02 -0.50444673437E+01  0.31886032067E+02  0.00000000000E+00 0.  1.
         11    1    3    3    0    0  0.79972341330E+01  0.38472725729E+00  0.72085187057E+01  0.10773416869E+02  0.51100000000E-03 0. -1.
        -11    1    3    3    0    0 -0.40849364036E+01  0.74521535027E+01  0.60047462079E+01  0.10405684722E+02  0.51100000000E-03 0.  1.
         12    1    3    3    0    0  0.10957263855E+02 -0.35588791117E+02 -0.81687975699E+01  0.38122866342E+02  0.00000000000E+00 0. -1.
</event>
<event>
 7    1  0.1221195E-011  0.5930194E+02  0.7816164E-02  0.1266605E+00
        -11   -1    0    0    0    0  0.00000000000E+00  0.00000000000E+00  0.45593999997E+02  0.45594000000E+02  0.51100000000E-03 0. -1.
         11   -1    0    0    0    0 -0.00000000000E+00 -0.00000000000E+00 -0.45593999997E+02  0.45594000000E+02  0.51100000000E-03 0.  1.
    9900012    2    1    2    0    0  0.86743029624E+01 -0.30155832053E+02 -0.56659502493E+01  0.59301941433E+02  0.49999995268E+02 0.  0.
        -12    1    1    2    0    0 -0.86743029624E+01  0.30155832053E+02  0.56659502493E+01  0.31886058567E+02  0.00000000000E+00 0.  1.
         11    1    3    3    0    0 -0.48282973483E+01 -0.27113349981E+01  0.13432529384E+02  0.14529165105E+02  0.51100000000E-03 0. -1.
        -11    1    3    3    0    0 -0.26933964811E+01  0.38590020728E+01 -0.48459586908E+01  0.67549683564E+01  0.51100000000E-03 0.  1.
        -12    1    3    3    0    0  0.16195996792E+02 -0.31303499128E+02 -0.14252520942E+02  0.38017807971E+02  0.00000000000E+00 0.  1.
</event>
<event>
 7    1  0.1221195E-011  0.5930194E+02  0.7816164E-02  0.1266605E+00
        -11   -1    0    0    0    0  0.00000000000E+00  0.00000000000E+00  0.45593999997E+02  0.45594000000E+02  0.51100000000E-03 0. -1.
         11   -1    0    0    0    0 -0.00000000000E+00 -0.00000000000E+00 -0.45593999997E+02  0.45594000000E+02  0.51100000000E-03 0.  1.
    9900012    2    1    2    0    0  0.19460386637E+02 -0.20039640039E+02  0.15376180729E+02  0.59301941059E+02  0.49999994587E+02 0.  0.
        -12    1    1    2    0    0 -0.19460386637E+02  0.20039640039E+02 -0.15376180729E+02  0.31886058941E+02  0.00000000000E+00 0.  1.
         11    1    3    3    0    0 -0.50374642510E+01 -0.88179914623E+01  0.10259832912E+02  0.14435968660E+02  0.51100000000E-03 0. -1.
        -11    1    3    3    0    0  0.11073795712E+02 -0.23748676398E+02  0.25757114558E+01  0.26329885528E+02  0.51100000000E-03 0.  1.
         12    1    3    3    0    0  0.13424055176E+02  0.12527027821E+02  0.25406363612E+01  0.18536086872E+02  0.00000000000E+00 0. -1.
</event>
<event>
 7    1  0.1221195E-011  0.5930194E+02  0.7816164E-02  0.1266605E+00
        -11   -1    0    0    0    0  0.00000000000E+00  0.00000000000E+00  0.45593999997E+02  0.45594000000E+02  0.51100000000E-03 0.  1.
         11   -1    0    0    0    0 -0.00000000000E+00 -0.00000000000E+00 -0.45593999997E+02  0.45594000000E+02  0.51100000000E-03 0. -1.
    9900012    2    1    2    0    0 -0.30935786692E+02  0.38774504449E+01 -0.66830747069E+01  0.59301937093E+02  0.49999987352E+02 0.  0.
        -12    1    1    2    0    0  0.30935786692E+02 -0.38774504449E+01  0.66830747069E+01  0.31886062907E+02  0.00000000000E+00 0.  1.
         11    1    3    3    0    0 -0.29176700826E+02 -0.16097947090E+02 -0.12119686933E+02  0.35458575595E+02  0.51100000000E-03 0. -1.
        -11    1    3    3    0    0 -0.63349327897E+01  0.69359017402E+01  0.20220436292E+01  0.96086818606E+01  0.51100000000E-03 0.  1.
        -12    1    3    3    0    0  0.45758469243E+01  0.13039495795E+02  0.34145685974E+01  0.14234679637E+02  0.00000000000E+00 0.  1.
</event>
<event>
 7    1  0.1221195E-011  0.5930174E+02  0.7816164E-02  0.1266605E+00
        -11   -1    0    0    0    0  0.00000000000E+00  0.00000000000E+00  0.45593999997E+02  0.45594000000E+02  0.51100000000E-03 0.  1.
         11   -1    0    0    0    0 -0.00000000000E+00 -0.00000000000E+00 -0.45593999997E+02  0.45594000000E+02  0.51100000000E-03 0. -1.
    9900012    2    1    2    0    0  0.25682620862E+01  0.11319518849E+02 -0.29698582855E+02  0.59301744330E+02  0.49999635797E+02 0.  0.
        -12    1    1    2    0    0 -0.25682620862E+01 -0.11319518849E+02  0.29698582855E+02  0.31886255670E+02  0.00000000000E+00 0.  1.
         11    1    3    3    0    0  0.26174202595E+01 -0.88422350439E+00 -0.59316008346E+01  0.65434416589E+01  0.51100000000E-03 0. -1.
        -11    1    3    3    0    0  0.11842285321E+02 -0.10192502562E+02  0.29752165426E+01  0.15905305525E+02  0.51100000000E-03 0.  1.
        -12    1    3    3    0    0 -0.11891443494E+02  0.22396244915E+02 -0.26742198563E+02  0.36852997146E+02  0.00000000000E+00 0.  1.
</event>
<event>
 7    1  0.1221195E-011  0.5930195E+02  0.7816164E-02  0.1266605E+00
        -11   -1    0    0    0    0  0.00000000000E+00  0.00000000000E+00  0.45593999997E+02  0.45594000000E+02  0.51100000000E-03 0.  1.
         11   -1    0    0    0    0 -0.00000000000E+00 -0.00000000000E+00 -0.45593999997E+02  0.45594000000E+02  0.51100000000E-03 0. -1.
    9900012    2    1    2    0    0 -0.29532970589E+02 -0.11979943471E+02 -0.10023213557E+01  0.59301952182E+02  0.50000014871E+02 0.  0.
        -12    1    1    2    0    0  0.29532970589E+02  0.11979943471E+02  0.10023213557E+01  0.31886047818E+02  0.00000000000E+00 0.  1.
         11    1    3    3    0    0 -0.77691331712E+01 -0.11122637125E+02  0.35815162883E+01  0.14032096993E+02  0.51100000000E-03 0. -1.
        -11    1    3    3    0    0  0.98940401737E+01  0.29457899727E+01 -0.81949198344E+01  0.13180531889E+02  0.51100000000E-03 0.  1.
         12    1    3    3    0    0 -0.31657877592E+02 -0.38030963182E+01  0.36110821904E+01  0.32089323299E+02  0.00000000000E+00 0. -1.
</event>
<event>
 7    1  0.1221195E-011  0.5930196E+02  0.7816164E-02  0.1266605E+00
        -11   -1    0    0    0    0  0.00000000000E+00  0.00000000000E+00  0.45593999997E+02  0.45594000000E+02  0.51100000000E-03 0.  1.
         11   -1    0    0    0    0 -0.00000000000E+00 -0.00000000000E+00 -0.45593999997E+02  0.45594000000E+02  0.51100000000E-03 0. -1.
    9900012    2    1    2    0    0  0.14162022375E+02 -0.11386140294E+02 -0.26201381461E+02  0.59301961378E+02  0.50000031643E+02 0.  0.
        -12    1    1    2    0    0 -0.14162022375E+02  0.11386140294E+02  0.26201381461E+02  0.31886038622E+02  0.00000000000E+00 0.  1.
         11    1    3    3    0    0  0.11315175816E+01 -0.61450684158E+01 -0.18935396412E+02  0.19939694968E+02  0.51100000000E-03 0. -1.
        -11    1    3    3    0    0  0.12718477378E+02 -0.23377444913E+01 -0.21359710802E+02  0.24969220291E+02  0.51100000000E-03 0.  1.
        -12    1    3    3    0    0  0.31202741550E+00 -0.29033273865E+01  0.14093725753E+02  0.14393046120E+02  0.00000000000E+00 0.  1.
</event>
<event>
 7    1  0.1221195E-011  0.5930186E+02  0.7816164E-02  0.1266605E+00
        -11   -1    0    0    0    0  0.00000000000E+00  0.00000000000E+00  0.45593999997E+02  0.45594000000E+02  0.51100000000E-03 0.  1.
         11   -1    0    0    0    0 -0.00000000000E+00 -0.00000000000E+00 -0.45593999997E+02  0.45594000000E+02  0.51100000000E-03 0. -1.
    9900012    2    1    2    0    0  0.26484389046E+02  0.11373756197E+02 -0.13635996948E+02  0.59301864990E+02  0.49999855853E+02 0.  0.
        -12    1    1    2    0    0 -0.26484389046E+02 -0.11373756197E+02  0.13635996948E+02  0.31886135010E+02  0.00000000000E+00 0.  1.
         11    1    3    3    0    0  0.88255315324E+01  0.48809995668E+01 -0.20721251107E+02  0.23045268740E+02  0.51100000000E-03 0. -1.
        -11    1    3    3    0    0 -0.81902610926E+01  0.34245173941E+01  0.48863267432E+01  0.10133305751E+02  0.51100000000E-03 0.  1.
         12    1    3    3    0    0  0.25849118606E+02  0.30682392356E+01  0.21989274155E+01  0.26123290499E+02  0.00000000000E+00 0. -1.
</event>
<event>
 7    1  0.1221195E-011  0.5930196E+02  0.7816164E-02  0.1266605E+00
        -11   -1    0    0    0    0  0.00000000000E+00  0.00000000000E+00  0.45593999997E+02  0.45594000000E+02  0.51100000000E-03 0. -1.
         11   -1    0    0    0    0 -0.00000000000E+00 -0.00000000000E+00 -0.45593999997E+02  0.45594000000E+02  0.51100000000E-03 0.  1.
    9900012    2    1    2    0    0  0.18458594447E+02 -0.90838915088E+00  0.25984123073E+02  0.59301960239E+02  0.50000029565E+02 0.  0.
        -12    1    1    2    0    0 -0.18458594447E+02  0.90838915088E+00 -0.25984123073E+02  0.31886039761E+02  0.00000000000E+00 0.  1.
         11    1    3    3    0    0 -0.32195709721E+01 -0.11878171419E+02  0.11857776279E+02  0.17089864015E+02  0.51100000000E-03 0. -1.
        -11    1    3    3    0    0  0.78538209414E+01 -0.97891940829E+01  0.11692060863E+02  0.17152699836E+02  0.51100000000E-03 0.  1.
        -12    1    3    3    0    0  0.13824344478E+02  0.20758976350E+02  0.24342859305E+01  0.25059396388E+02  0.00000000000E+00 0.  1.
</event>
<event>
 7    1  0.1221195E-011  0.5930194E+02  0.7816164E-02  0.1266605E+00
        -11   -1    0    0    0    0  0.00000000000E+00  0.00000000000E+00  0.45593999997E+02  0.45594000000E+02  0.51100000000E-03 0. -1.
         11   -1    0    0    0    0 -0.00000000000E+00 -0.00000000000E+00 -0.45593999997E+02  0.45594000000E+02  0.51100000000E-03 0.  1.
    9900012    2    1    2    0    0 -0.21080756958E+02  0.77234433707E+01  0.22642244278E+02  0.59301935374E+02  0.49999984217E+02 0.  0.
        -12    1    1    2    0    0  0.21080756958E+02 -0.77234433707E+01 -0.22642244278E+02  0.31886064626E+02  0.00000000000E+00 0.  1.
         11    1    3    3    0    0 -0.10247707823E+02  0.11664577322E+02  0.18876288265E+02  0.24441606711E+02  0.51100000000E-03 0. -1.
        -11    1    3    3    0    0 -0.21982713865E+01  0.19202931025E+00  0.17764764151E+02  0.17901288165E+02  0.51100000000E-03 0.  1.
        -12    1    3    3    0    0 -0.86347777486E+01 -0.41331632614E+01 -0.13998808138E+02  0.16959040498E+02  0.00000000000E+00 0.  1.
</event>
<event>
 7    1  0.1221195E-011  0.5930197E+02  0.7816164E-02  0.1266605E+00
        -11   -1    0    0    0    0  0.00000000000E+00  0.00000000000E+00  0.45593999997E+02  0.45594000000E+02  0.51100000000E-03 0. -1.
         11   -1    0    0    0    0 -0.00000000000E+00 -0.00000000000E+00 -0.45593999997E+02  0.45594000000E+02  0.51100000000E-03 0.  1.
    9900012    2    1    2    0    0 -0.26959828361E+02 -0.84993576431E+01 -0.14752872776E+02  0.59301973582E+02  0.50000053900E+02 0.  0.
        -12    1    1    2    0    0  0.26959828361E+02  0.84993576431E+01  0.14752872776E+02  0.31886026418E+02  0.00000000000E+00 0.  1.
         11    1    3    3    0    0 -0.55288424121E+01  0.66938983365E+00 -0.99259238904E+01  0.11381570476E+02  0.51100000000E-03 0. -1.
        -11    1    3    3    0    0  0.72226836162E+01  0.59060775833E+01  0.87693150368E+01  0.12804288247E+02  0.51100000000E-03 0.  1.
         12    1    3    3    0    0 -0.28653669565E+02 -0.15074825060E+02 -0.13596263922E+02  0.35116114859E+02  0.00000000000E+00 0. -1.
</event>
<event>
 7    1  0.1221195E-011  0.5930194E+02  0.7816164E-02  0.1266605E+00
        -11   -1    0    0    0    0  0.00000000000E+00  0.00000000000E+00  0.45593999997E+02  0.45594000000E+02  0.51100000000E-03 0. -1.
         11   -1    0    0    0    0 -0.00000000000E+00 -0.00000000000E+00 -0.45593999997E+02  0.45594000000E+02  0.51100000000E-03 0.  1.
    9900012    2    1    2    0    0 -0.99345833556E+01 -0.20987148876E+01  0.30226152521E+02  0.59301939615E+02  0.49999991953E+02 0.  0.
        -12    1    1    2    0    0  0.99345833556E+01  0.20987148876E+01 -0.30226152521E+02  0.31886060385E+02  0.00000000000E+00 0.  1.
         11    1    3    3    0    0  0.12858478369E+02  0.14148422662E+02  0.21911053774E+02  0.29079418968E+02  0.51100000000E-03 0.  1.
        -11    1    3    3    0    0 -0.86434743208E+01 -0.52792255778E+01  0.69181426612E+01  0.12265421688E+02  0.51100000000E-03 0. -1.
        -12    1    3    3    0    0 -0.14149587404E+02 -0.10967911972E+02  0.13969560862E+01  0.17957098959E+02  0.00000000000E+00 0.  1.
</event>
<event>
 7    1  0.1221195E-011  0.5930195E+02  0.7816164E-02  0.1266605E+00
        -11   -1    0    0    0    0  0.00000000000E+00  0.00000000000E+00  0.45593999997E+02  0.45594000000E+02  0.51100000000E-03 0.  1.
         11   -1    0    0    0    0 -0.00000000000E+00 -0.00000000000E+00 -0.45593999997E+02  0.45594000000E+02  0.51100000000E-03 0. -1.
    9900012    2    1    2    0    0 -0.20986695606E+02 -0.75924785614E+01 -0.22773515637E+02  0.59301950737E+02  0.50000012236E+02 0.  0.
        -12    1    1    2    0    0  0.20986695606E+02  0.75924785614E+01  0.22773515637E+02  0.31886049263E+02  0.00000000000E+00 0.  1.
         11    1    3    3    0    0 -0.44292304408E+01  0.14916947803E+02 -0.16822609941E+02  0.22915794106E+02  0.51100000000E-03 0. -1.
        -11    1    3    3    0    0 -0.60861497954E+01  0.40719430581E+01 -0.14334987436E+01  0.74616927375E+01  0.51100000000E-03 0.  1.
         12    1    3    3    0    0 -0.10471315369E+02 -0.26581369422E+02 -0.45174069528E+01  0.28924463893E+02  0.00000000000E+00 0. -1.
</event>
<event>
 7    1  0.1221195E-011  0.5930195E+02  0.7816164E-02  0.1266605E+00
        -11   -1    0    0    0    0  0.00000000000E+00  0.00000000000E+00  0.45593999997E+02  0.45594000000E+02  0.51100000000E-03 0.  1.
         11   -1    0    0    0    0 -0.00000000000E+00 -0.00000000000E+00 -0.45593999997E+02  0.45594000000E+02  0.51100000000E-03 0. -1.
    9900012    2    1    2    0    0 -0.16867902409E+01  0.83771302175E+01 -0.30719679156E+02  0.59301948826E+02  0.50000008751E+02 0.  0.
        -12    1    1    2    0    0  0.16867902409E+01 -0.83771302175E+01  0.30719679156E+02  0.31886051174E+02  0.00000000000E+00 0.  1.
         11    1    3    3    0    0  0.39133380638E+01  0.10641829747E+02 -0.53763906545E+01  0.12548638647E+02  0.51100000000E-03 0. -1.
        -11    1    3    3    0    0 -0.16986264452E+02 -0.18935211957E+01  0.19263705292E+01  0.17199694946E+02  0.51100000000E-03 0.  1.
         12    1    3    3    0    0  0.11386136147E+02 -0.37117833357E+00 -0.27269659031E+02  0.29553615234E+02  0.00000000000E+00 0. -1.
</event>
<event>
 7    1  0.1221195E-011  0.5930200E+02  0.7816164E-02  0.1266605E+00
        -11   -1    0    0    0    0  0.00000000000E+00  0.00000000000E+00  0.45593999997E+02  0.45594000000E+02  0.51100000000E-03 0. -1.
         11   -1    0    0    0    0 -0.00000000000E+00 -0.00000000000E+00 -0.45593999997E+02  0.45594000000E+02  0.51100000000E-03 0.  1.
    9900012    2    1    2    0    0  0.16946207269E+02  0.17468642685E+02  0.20600714654E+02  0.59302002096E+02  0.50000105902E+02 0.  0.
        -12    1    1    2    0    0 -0.16946207269E+02 -0.17468642685E+02 -0.20600714654E+02  0.31885997904E+02  0.00000000000E+00 0.  1.
         11    1    3    3    0    0  0.38484213715E+01 -0.53895298357E+01  0.25457105000E+02  0.26304402182E+02  0.51100000000E-03 0. -1.
        -11    1    3    3    0    0  0.36314214558E+01  0.11627845196E+02  0.70636143765E+01  0.14081500418E+02  0.51100000000E-03 0.  1.
        -12    1    3    3    0    0  0.94663644417E+01  0.11230327325E+02 -0.11920004722E+02  0.18916099496E+02  0.00000000000E+00 0.  1.
</event>
<event>
 7    1  0.1221195E-011  0.5930195E+02  0.7816164E-02  0.1266605E+00
        -11   -1    0    0    0    0  0.00000000000E+00  0.00000000000E+00  0.45593999997E+02  0.45594000000E+02  0.51100000000E-03 0. -1.
         11   -1    0    0    0    0 -0.00000000000E+00 -0.00000000000E+00 -0.45593999997E+02  0.45594000000E+02  0.51100000000E-03 0.  1.
    9900012    2    1    2    0    0  0.11026451278E+02  0.22285564804E+02  0.19962245307E+02  0.59301948753E+02  0.50000008618E+02 0.  0.
        -12    1    1    2    0    0 -0.11026451278E+02 -0.22285564804E+02 -0.19962245307E+02  0.31886051247E+02  0.00000000000E+00 0.  1.
         11    1    3    3    0    0  0.55506995824E+00  0.50849180027E+01 -0.51094625649E+01  0.72298756363E+01  0.51100000000E-03 0. -1.
        -11    1    3    3    0    0 -0.84424763610E+01 -0.86594172079E+01  0.12713142488E+01  0.12160475059E+02  0.51100000000E-03 0.  1.
         12    1    3    3    0    0  0.18913857681E+02  0.25860064009E+02  0.23800393623E+02  0.39911598058E+02  0.00000000000E+00 0. -1.
</event>
<event>
 7    1  0.1221195E-011  0.5930191E+02  0.7816164E-02  0.1266605E+00
        -11   -1    0    0    0    0  0.00000000000E+00  0.00000000000E+00  0.45593999997E+02  0.45594000000E+02  0.51100000000E-03 0.  1.
         11   -1    0    0    0    0 -0.00000000000E+00 -0.00000000000E+00 -0.45593999997E+02  0.45594000000E+02  0.51100000000E-03 0. -1.
    9900012    2    1    2    0    0 -0.15937009252E+02 -0.70709420864E+01 -0.26697124013E+02  0.59301907162E+02  0.49999932766E+02 0.  0.
        -12    1    1    2    0    0  0.15937009252E+02  0.70709420864E+01  0.26697124013E+02  0.31886092838E+02  0.00000000000E+00 0.  1.
         11    1    3    3    0    0  0.48203546983E+01  0.32368552551E+01 -0.12617956696E+02  0.13889776197E+02  0.51100000000E-03 0. -1.
        -11    1    3    3    0    0 -0.96218476311E+00 -0.16954275726E+02  0.43847060619E+01  0.17538498009E+02  0.51100000000E-03 0.  1.
         12    1    3    3    0    0 -0.19795179188E+02  0.66464783844E+01 -0.18463873379E+02  0.27873632956E+02  0.00000000000E+00 0. -1.
</event>
<event>
 7    1  0.1221195E-011  0.5930194E+02  0.7816164E-02  0.1266605E+00
        -11   -1    0    0    0    0  0.00000000000E+00  0.00000000000E+00  0.45593999997E+02  0.45594000000E+02  0.51100000000E-03 0.  1.
         11   -1    0    0    0    0 -0.00000000000E+00 -0.00000000000E+00 -0.45593999997E+02  0.45594000000E+02  0.51100000000E-03 0. -1.
    9900012    2    1    2    0    0 -0.32883636898E+00  0.89150664507E+01 -0.30612643836E+02  0.59301944963E+02  0.50000001706E+02 0.  0.
        -12    1    1    2    0    0  0.32883636898E+00 -0.89150664507E+01  0.30612643836E+02  0.31886055037E+02  0.00000000000E+00 0.  1.
         11    1    3    3    0    0  0.64475387469E+00 -0.72621947274E+01 -0.14607233573E+02  0.16325637897E+02  0.51100000000E-03 0. -1.
        -11    1    3    3    0    0  0.15087194480E+01 -0.49871083900E+01  0.88295205032E+01  0.10252215226E+02  0.51100000000E-03 0.  1.
         12    1    3    3    0    0 -0.24823096917E+01  0.21164369568E+02 -0.24834930766E+02  0.32724091840E+02  0.00000000000E+00 0. -1.
</event>
<event>
 7    1  0.1221195E-011  0.5930194E+02  0.7816164E-02  0.1266605E+00
        -11   -1    0    0    0    0  0.00000000000E+00  0.00000000000E+00  0.45593999997E+02  0.45594000000E+02  0.51100000000E-03 0. -1.
         11   -1    0    0    0    0 -0.00000000000E+00 -0.00000000000E+00 -0.45593999997E+02  0.45594000000E+02  0.51100000000E-03 0.  1.
    9900012    2    1    2    0    0  0.12082298291E+02 -0.34369052040E+00  0.29506288546E+02  0.59301935349E+02  0.49999984172E+02 0.  0.
        -12    1    1    2    0    0 -0.12082298291E+02  0.34369052040E+00 -0.29506288546E+02  0.31886064651E+02  0.00000000000E+00 0.  1.
         11    1    3    3    0    0  0.48773887507E+01 -0.64344614495E+01  0.22834752715E+02  0.24220180573E+02  0.51100000000E-03 0. -1.
        -11    1    3    3    0    0 -0.10072489344E+02 -0.68725997623E+01 -0.81556420613E+00  0.12220998908E+02  0.51100000000E-03 0.  1.
         12    1    3    3    0    0  0.17277398884E+02  0.12963370691E+02  0.74871000378E+01  0.22860755868E+02  0.00000000000E+00 0. -1.
</event>
<event>
 7    1  0.1221195E-011  0.5930194E+02  0.7816164E-02  0.1266605E+00
        -11   -1    0    0    0    0  0.00000000000E+00  0.00000000000E+00  0.45593999997E+02  0.45594000000E+02  0.51100000000E-03 0. -1.
         11   -1    0    0    0    0 -0.00000000000E+00 -0.00000000000E+00 -0.45593999997E+02  0.45594000000E+02  0.51100000000E-03 0.  1.
    9900012    2    1    2    0    0 -0.24473423169E+02 -0.17415275875E+02 -0.10699561159E+02  0.59301939026E+02  0.49999990878E+02 0.  0.
        -12    1    1    2    0    0  0.24473423169E+02  0.17415275875E+02  0.10699561159E+02  0.31886060974E+02  0.00000000000E+00 0.  1.
         11    1    3    3    0    0  0.32280074142E+00  0.10519316187E+02  0.18598387810E+01  0.10687338954E+02  0.51100000000E-03 0.  1.
        -11    1    3    3    0    0 -0.18944595460E+02 -0.29634570799E+02 -0.18809070012E+02  0.39885919803E+02  0.51100000000E-03 0. -1.
         12    1    3    3    0    0 -0.58516284512E+01  0.16999787364E+01  0.62496700720E+01  0.87286802693E+01  0.00000000000E+00 0. -1.
</event>
<event>
 7    1  0.1221195E-011  0.5930196E+02  0.7816164E-02  0.1266605E+00
        -11   -1    0    0    0    0  0.00000000000E+00  0.00000000000E+00  0.45593999997E+02  0.45594000000E+02  0.51100000000E-03 0.  1.
         11   -1    0    0    0    0 -0.00000000000E+00 -0.00000000000E+00 -0.45593999997E+02  0.45594000000E+02  0.51100000000E-03 0. -1.
    9900012    2    1    2    0    0  0.28397115151E+02 -0.61206302113E+01 -0.13147663032E+02  0.59301963773E+02  0.50000036010E+02 0.  0.
        -12    1    1    2    0    0 -0.28397115151E+02  0.61206302113E+01  0.13147663032E+02  0.31886036227E+02  0.00000000000E+00 0.  1.
         11    1    3    3    0    0  0.10464271859E+02  0.81710754722E+01 -0.96275346558E+01  0.16399904991E+02  0.51100000000E-03 0. -1.
        -11    1    3    3    0    0 -0.62099575861E+01  0.64162590097E+01 -0.63684403006E+01  0.10967633520E+02  0.51100000000E-03 0.  1.
        -12    1    3    3    0    0  0.24142800878E+02 -0.20707964693E+02  0.28483119242E+01  0.31934425261E+02  0.00000000000E+00 0.  1.
</event>
<event>
 7    1  0.1221195E-011  0.5930197E+02  0.7816164E-02  0.1266605E+00
        -11   -1    0    0    0    0  0.00000000000E+00  0.00000000000E+00  0.45593999997E+02  0.45594000000E+02  0.51100000000E-03 0.  1.
         11   -1    0    0    0    0 -0.00000000000E+00 -0.00000000000E+00 -0.45593999997E+02  0.45594000000E+02  0.51100000000E-03 0. -1.
    9900012    2    1    2    0    0 -0.19219603317E+02  0.21093340097E+02 -0.14226618279E+02  0.59301971464E+02  0.50000050037E+02 0.  0.
        -12    1    1    2    0    0  0.19219603317E+02 -0.21093340097E+02  0.14226618279E+02  0.31886028536E+02  0.00000000000E+00 0.  1.
         11    1    3    3    0    0 -0.72034079218E+01  0.18778875036E+01  0.42014854151E+01  0.85479838043E+01  0.51100000000E-03 0. -1.
        -11    1    3    3    0    0 -0.16005531417E+02  0.42548641758E+01  0.93013512512E+01  0.18994631885E+02  0.51100000000E-03 0.  1.
        -12    1    3    3    0    0  0.39893360209E+01  0.14960588418E+02 -0.27729454945E+02  0.31759355775E+02  0.00000000000E+00 0.  1.
</event>
<event>
 7    1  0.1221195E-011  0.5930193E+02  0.7816164E-02  0.1266605E+00
        -11   -1    0    0    0    0  0.00000000000E+00  0.00000000000E+00  0.45593999997E+02  0.45594000000E+02  0.51100000000E-03 0. -1.
         11   -1    0    0    0    0 -0.00000000000E+00 -0.00000000000E+00 -0.45593999997E+02  0.45594000000E+02  0.51100000000E-03 0.  1.
    9900012    2    1    2    0    0 -0.19533979151E+02  0.25118976015E+02 -0.20449587269E+01  0.59301934803E+02  0.49999983177E+02 0.  0.
        -12    1    1    2    0    0  0.19533979151E+02 -0.25118976015E+02  0.20449587269E+01  0.31886065197E+02  0.00000000000E+00 0.  1.
         11    1    3    3    0    0  0.16413330255E+01  0.98401072771E+01 -0.83703596925E+01  0.13022465472E+02  0.51100000000E-03 0. -1.
        -11    1    3    3    0    0  0.95170763178E+00 -0.16473336622E+00 -0.13033904959E+02  0.13069642812E+02  0.51100000000E-03 0.  1.
         12    1    3    3    0    0 -0.22127019808E+02  0.15443602104E+02  0.19359305924E+02  0.33209826519E+02  0.00000000000E+00 0. -1.
</event>
<event>
 7    1  0.1221195E-011  0.5930194E+02  0.7816164E-02  0.1266605E+00
        -11   -1    0    0    0    0  0.00000000000E+00  0.00000000000E+00  0.45593999997E+02  0.45594000000E+02  0.51100000000E-03 0.  1.
         11   -1    0    0    0    0 -0.00000000000E+00 -0.00000000000E+00 -0.45593999997E+02  0.45594000000E+02  0.51100000000E-03 0. -1.
    9900012    2    1    2    0    0 -0.23649359028E+02  0.66006405405E+01 -0.20343556483E+02  0.59301938338E+02  0.49999989622E+02 0.  0.
        -12    1    1    2    0    0  0.23649359028E+02 -0.66006405405E+01  0.20343556483E+02  0.31886061662E+02  0.00000000000E+00 0.  1.
         11    1    3    3    0    0 -0.68044802409E+01 -0.33857115269E+01  0.58075126015E+01  0.95651030715E+01  0.51100000000E-03 0. -1.
        -11    1    3    3    0    0  0.35209962336E+01 -0.77169461858E+00  0.78677643180E+01  0.86541690927E+01  0.51100000000E-03 0.  1.
         12    1    3    3    0    0 -0.20365875021E+02  0.10758046686E+02 -0.34018833402E+02  0.41082666173E+02  0.00000000000E+00 0. -1.
</event>
<event>
 7    1  0.1221195E-011  0.5930196E+02  0.7816164E-02  0.1266605E+00
        -11   -1    0    0    0    0  0.00000000000E+00  0.00000000000E+00  0.45593999997E+02  0.45594000000E+02  0.51100000000E-03 0.  1.
         11   -1    0    0    0    0 -0.00000000000E+00 -0.00000000000E+00 -0.45593999997E+02  0.45594000000E+02  0.51100000000E-03 0. -1.
    9900012    2    1    2    0    0  0.20790233326E+02 -0.12201280517E+02 -0.20871382784E+02  0.59301958111E+02  0.50000025685E+02 0.  0.
        -12    1    1    2    0    0 -0.20790233326E+02  0.12201280517E+02  0.20871382784E+02  0.31886041889E+02  0.00000000000E+00 0.  1.
         11    1    3    3    0    0  0.12662621212E+02 -0.49396321907E+01 -0.10306628297E+02  0.17057799660E+02  0.51100000000E-03 0. -1.
        -11    1    3    3    0    0  0.22835453470E+02 -0.44080599700E+00  0.97336037846E-01  0.22839915054E+02  0.51100000000E-03 0.  1.
         12    1    3    3    0    0 -0.14707841356E+02 -0.68208423294E+01 -0.10662090525E+02  0.19404243397E+02  0.00000000000E+00 0. -1.
</event>
<event>
 7    1  0.1221195E-011  0.5930194E+02  0.7816164E-02  0.1266605E+00
        -11   -1    0    0    0    0  0.00000000000E+00  0.00000000000E+00  0.45593999997E+02  0.45594000000E+02  0.51100000000E-03 0.  1.
         11   -1    0    0    0    0 -0.00000000000E+00 -0.00000000000E+00 -0.45593999997E+02  0.45594000000E+02  0.51100000000E-03 0. -1.
    9900012    2    1    2    0    0 -0.38134282961E+00  0.19773290475E+02 -0.25011846019E+02  0.59301939098E+02  0.49999991010E+02 0.  0.
        -12    1    1    2    0    0  0.38134282961E+00 -0.19773290475E+02  0.25011846019E+02  0.31886060902E+02  0.00000000000E+00 0.  1.
         11    1    3    3    0    0  0.45527185762E+01  0.23908266968E+02 -0.11164386632E+02  0.26776407619E+02  0.51100000000E-03 0. -1.
        -11    1    3    3    0    0 -0.33414102671E+01  0.94066383660E+01  0.33944559718E+01  0.10543822814E+02  0.51100000000E-03 0.  1.
        -12    1    3    3    0    0 -0.15926511387E+01 -0.13541614859E+02 -0.17241915358E+02  0.21981708665E+02  0.00000000000E+00 0.  1.
</event>
<event>
 7    1  0.1221195E-011  0.5930191E+02  0.7816164E-02  0.1266605E+00
        -11   -1    0    0    0    0  0.00000000000E+00  0.00000000000E+00  0.45593999997E+02  0.45594000000E+02  0.51100000000E-03 0.  1.
         11   -1    0    0    0    0 -0.00000000000E+00 -0.00000000000E+00 -0.45593999997E+02  0.45594000000E+02  0.51100000000E-03 0. -1.
    9900012    2    1    2    0    0 -0.16239480873E+01 -0.23926528784E+02 -0.21014442878E+02  0.59301909043E+02  0.49999936197E+02 0.  0.
        -12    1    1    2    0    0  0.16239480873E+01  0.23926528784E+02  0.21014442878E+02  0.31886090957E+02  0.00000000000E+00 0.  1.
         11    1    3    3    0    0 -0.69647115315E+00  0.64877628020E+01 -0.25402316478E+02  0.26226967438E+02  0.51100000000E-03 0. -1.
        -11    1    3    3    0    0  0.11472269825E+01 -0.12319042196E+01  0.34096404344E+01  0.38025472921E+01  0.51100000000E-03 0.  1.
        -12    1    3    3    0    0 -0.20747039167E+01 -0.29182387366E+02  0.97823316646E+00  0.29272394314E+02  0.00000000000E+00 0.  1.
</event>
<event>
 7    1  0.1221195E-011  0.5930194E+02  0.7816164E-02  0.1266605E+00
        -11   -1    0    0    0    0  0.00000000000E+00  0.00000000000E+00  0.45593999997E+02  0.45594000000E+02  0.51100000000E-03 0. -1.
         11   -1    0    0    0    0 -0.00000000000E+00 -0.00000000000E+00 -0.45593999997E+02  0.45594000000E+02  0.51100000000E-03 0.  1.
    9900012    2    1    2    0    0  0.12606700650E+02  0.23809537444E+02  0.17055722454E+02  0.59301942812E+02  0.49999997783E+02 0.  0.
        -12    1    1    2    0    0 -0.12606700650E+02 -0.23809537444E+02 -0.17055722454E+02  0.31886057188E+02  0.00000000000E+00 0.  1.
         11    1    3    3    0    0  0.16682672087E+02  0.68102582518E+01  0.12590134005E+02  0.21981870711E+02  0.51100000000E-03 0. -1.
        -11    1    3    3    0    0 -0.95462468017E+01  0.61162436486E+01  0.16616050559E+02  0.20115476649E+02  0.51100000000E-03 0.  1.
        -12    1    3    3    0    0  0.54702753649E+01  0.10883035544E+02 -0.12150462110E+02  0.17204595453E+02  0.00000000000E+00 0.  1.
</event>
<event>
 7    1  0.1221195E-011  0.5930197E+02  0.7816164E-02  0.1266605E+00
        -11   -1    0    0    0    0  0.00000000000E+00  0.00000000000E+00  0.45593999997E+02  0.45594000000E+02  0.51100000000E-03 0.  1.
         11   -1    0    0    0    0 -0.00000000000E+00 -0.00000000000E+00 -0.45593999997E+02  0.45594000000E+02  0.51100000000E-03 0. -1.
    9900012    2    1    2    0    0 -0.28280105466E+01 -0.26536745021E+02 -0.17450567080E+02  0.59301972161E+02  0.50000051308E+02 0.  0.
        -12    1    1    2    0    0  0.28280105466E+01  0.26536745021E+02  0.17450567080E+02  0.31886027839E+02  0.00000000000E+00 0.  1.
         11    1    3    3    0    0  0.93775268358E+01 -0.20655703517E+02 -0.15009678743E+01  0.22734313321E+02  0.51100000000E-03 0.  1.
        -11    1    3    3    0    0  0.97658404406E+01 -0.33912756016E+01 -0.79936255164E+01  0.13067916394E+02  0.51100000000E-03 0. -1.
        -12    1    3    3    0    0 -0.21971377823E+02 -0.24897659019E+01 -0.79559736898E+01  0.23499742446E+02  0.00000000000E+00 0.  1.
</event>
<event>
 7    1  0.1221195E-011  0.5930185E+02  0.7816164E-02  0.1266605E+00
        -11   -1    0    0    0    0  0.00000000000E+00  0.00000000000E+00  0.45593999997E+02  0.45594000000E+02  0.51100000000E-03 0. -1.
         11   -1    0    0    0    0 -0.00000000000E+00 -0.00000000000E+00 -0.45593999997E+02  0.45594000000E+02  0.51100000000E-03 0.  1.
    9900012    2    1    2    0    0  0.12973268329E+02 -0.18993863365E+02  0.22082883608E+02  0.59301854339E+02  0.49999836430E+02 0.  0.
        -12    1    1    2    0    0 -0.12973268329E+02  0.18993863365E+02 -0.22082883608E+02  0.31886145661E+02  0.00000000000E+00 0.  1.
         11    1    3    3    0    0  0.24901206752E+01  0.43510752224E+01  0.19020356322E+02  0.19669939284E+02  0.51100000000E-03 0. -1.
        -11    1    3    3    0    0 -0.88497841053E+01 -0.34750448996E+01 -0.50240674132E+01  0.10753411989E+02  0.51100000000E-03 0.  1.
         12    1    3    3    0    0  0.19332931759E+02 -0.19869893687E+02  0.80865946990E+01  0.28878503067E+02  0.00000000000E+00 0. -1.
</event>
<event>
 7    1  0.1221195E-011  0.5930190E+02  0.7816164E-02  0.1266605E+00
        -11   -1    0    0    0    0  0.00000000000E+00  0.00000000000E+00  0.45593999997E+02  0.45594000000E+02  0.51100000000E-03 0.  1.
         11   -1    0    0    0    0 -0.00000000000E+00 -0.00000000000E+00 -0.45593999997E+02  0.45594000000E+02  0.51100000000E-03 0. -1.
    9900012    2    1    2    0    0 -0.31024639777E+02 -0.73323390154E+01 -0.65715093244E+00  0.59301900896E+02  0.49999921338E+02 0.  0.
        -12    1    1    2    0    0  0.31024639777E+02  0.73323390154E+01  0.65715093244E+00  0.31886099104E+02  0.00000000000E+00 0.  1.
         11    1    3    3    0    0 -0.58517962874E+01 -0.76481859429E+00  0.13044277166E+02  0.14317179691E+02  0.51100000000E-03 0. -1.
        -11    1    3    3    0    0 -0.17580352376E+02 -0.13050642415E+02  0.61687557430E+01  0.22747342807E+02  0.51100000000E-03 0.  1.
         12    1    3    3    0    0 -0.75924911135E+01  0.64831219942E+01 -0.19870183841E+02  0.22237378397E+02  0.00000000000E+00 0. -1.
</event>
<event>
 7    1  0.1221195E-011  0.5930194E+02  0.7816164E-02  0.1266605E+00
        -11   -1    0    0    0    0  0.00000000000E+00  0.00000000000E+00  0.45593999997E+02  0.45594000000E+02  0.51100000000E-03 0. -1.
         11   -1    0    0    0    0 -0.00000000000E+00 -0.00000000000E+00 -0.45593999997E+02  0.45594000000E+02  0.51100000000E-03 0.  1.
    9900012    2    1    2    0    0 -0.16687692504E+02 -0.26893491040E+02 -0.38706104307E+01  0.59301944011E+02  0.49999999969E+02 0.  0.
        -12    1    1    2    0    0  0.16687692504E+02  0.26893491040E+02  0.38706104307E+01  0.31886055989E+02  0.00000000000E+00 0.  1.
         11    1    3    3    0    0  0.86362849324E+01 -0.87230827544E+01  0.49222111816E+01  0.13225193887E+02  0.51100000000E-03 0. -1.
        -11    1    3    3    0    0 -0.20154227888E+01 -0.17627185762E+02 -0.13496603589E+02  0.22292104334E+02  0.51100000000E-03 0.  1.
         12    1    3    3    0    0 -0.23308554648E+02 -0.54322252356E+00  0.47037819770E+01  0.23784645790E+02  0.00000000000E+00 0. -1.
</event>
<event>
 7    1  0.1221195E-011  0.5930194E+02  0.7816164E-02  0.1266605E+00
        -11   -1    0    0    0    0  0.00000000000E+00  0.00000000000E+00  0.45593999997E+02  0.45594000000E+02  0.51100000000E-03 0.  1.
         11   -1    0    0    0    0 -0.00000000000E+00 -0.00000000000E+00 -0.45593999997E+02  0.45594000000E+02  0.51100000000E-03 0. -1.
    9900012    2    1    2    0    0  0.31540340651E+02  0.34850846990E+01 -0.31276123573E+01  0.59301939365E+02  0.49999991496E+02 0.  0.
        -12    1    1    2    0    0 -0.31540340651E+02 -0.34850846990E+01  0.31276123573E+01  0.31886060635E+02  0.00000000000E+00 0.  1.
         11    1    3    3    0    0  0.19202075906E+02 -0.53080254207E+00  0.89313958699E+01  0.21184222971E+02  0.51100000000E-03 0.  1.
        -11    1    3    3    0    0  0.21857129726E+02  0.66567733137E+01 -0.15553092815E+02  0.27639563079E+02  0.51100000000E-03 0. -1.
        -12    1    3    3    0    0 -0.95188649814E+01 -0.26408860726E+01  0.34940845876E+01  0.10478153315E+02  0.00000000000E+00 0.  1.
</event>
<event>
 7    1  0.1221195E-011  0.5930195E+02  0.7816164E-02  0.1266605E+00
        -11   -1    0    0    0    0  0.00000000000E+00  0.00000000000E+00  0.45593999997E+02  0.45594000000E+02  0.51100000000E-03 0.  1.
         11   -1    0    0    0    0 -0.00000000000E+00 -0.00000000000E+00 -0.45593999997E+02  0.45594000000E+02  0.51100000000E-03 0. -1.
    9900012    2    1    2    0    0  0.30179140089E+02  0.25728635671E+01 -0.99659327906E+01  0.59301953838E+02  0.50000017891E+02 0.  0.
        -12    1    1    2    0    0 -0.30179140089E+02 -0.25728635671E+01  0.99659327906E+01  0.31886046162E+02  0.00000000000E+00 0.  1.
         11    1    3    3    0    0  0.15952416067E+02 -0.11422660215E+02 -0.60201205975E+01  0.20523123472E+02  0.51100000000E-03 0. -1.
        -11    1    3    3    0    0  0.22613271785E+02  0.89799778314E+00  0.38590196692E+00  0.22634384936E+02  0.51100000000E-03 0.  1.
         12    1    3    3    0    0 -0.83865477630E+01  0.13097525999E+02 -0.43317141600E+01  0.16144445430E+02  0.00000000000E+00 0. -1.
</event>
<event>
 7    1  0.1221195E-011  0.5930191E+02  0.7816164E-02  0.1266605E+00
        -11   -1    0    0    0    0  0.00000000000E+00  0.00000000000E+00  0.45593999997E+02  0.45594000000E+02  0.51100000000E-03 0. -1.
         11   -1    0    0    0    0 -0.00000000000E+00 -0.00000000000E+00 -0.45593999997E+02  0.45594000000E+02  0.51100000000E-03 0.  1.
    9900012    2    1    2    0    0 -0.11415883773E+02  0.21764256783E+02  0.20315445364E+02  0.59301912188E+02  0.49999941932E+02 0.  0.
        -12    1    1    2    0    0  0.11415883773E+02 -0.21764256783E+02 -0.20315445364E+02  0.31886087812E+02  0.00000000000E+00 0.  1.
         11    1    3    3    0    0 -0.79941389785E+01 -0.10554333885E+01 -0.91040182004E+01  0.12161551928E+02  0.51100000000E-03 0. -1.
        -11    1    3    3    0    0 -0.79902845957E+01 -0.34192248435E+01  0.13668822418E+02  0.16197915082E+02  0.51100000000E-03 0.  1.
         12    1    3    3    0    0  0.45685398017E+01  0.26238915015E+02  0.15750641146E+02  0.30942445178E+02  0.00000000000E+00 0. -1.
</event>
<event>
 7    1  0.1221195E-011  0.5930175E+02  0.7816164E-02  0.1266605E+00
        -11   -1    0    0    0    0  0.00000000000E+00  0.00000000000E+00  0.45593999997E+02  0.45594000000E+02  0.51100000000E-03 0. -1.
         11   -1    0    0    0    0 -0.00000000000E+00 -0.00000000000E+00 -0.45593999997E+02  0.45594000000E+02  0.51100000000E-03 0.  1.
    9900012    2    1    2    0    0  0.38757669176E+01 -0.20196173552E+02  0.24368540494E+02  0.59301752790E+02  0.49999651226E+02 0.  0.
        -12    1    1    2    0    0 -0.38757669176E+01  0.20196173552E+02 -0.24368540494E+02  0.31886247210E+02  0.00000000000E+00 0.  1.
         11    1    3    3    0    0  0.89310954597E+01  0.60023345426E+01  0.16788561319E+02  0.19941120267E+02  0.51100000000E-03 0. -1.
        -11    1    3    3    0    0  0.96544029318E+01 -0.30759038483E+01 -0.20027500346E+01  0.10328585983E+02  0.51100000000E-03 0.  1.
         12    1    3    3    0    0 -0.14709731474E+02 -0.23122604247E+02  0.95827292099E+01  0.29032046540E+02  0.00000000000E+00 0. -1.
</event>
<event>
 7    1  0.1221195E-011  0.5930194E+02  0.7816164E-02  0.1266605E+00
        -11   -1    0    0    0    0  0.00000000000E+00  0.00000000000E+00  0.45593999997E+02  0.45594000000E+02  0.51100000000E-03 0.  1.
         11   -1    0    0    0    0 -0.00000000000E+00 -0.00000000000E+00 -0.45593999997E+02  0.45594000000E+02  0.51100000000E-03 0. -1.
    9900012    2    1    2    0    0 -0.25229852252E+02  0.18420075728E+02  0.63934702253E+01  0.59301935708E+02  0.49999984828E+02 0.  0.
        -12    1    1    2    0    0  0.25229852252E+02 -0.18420075728E+02 -0.63934702253E+01  0.31886064292E+02  0.00000000000E+00 0.  1.
         11    1    3    3    0    0 -0.27704911167E+02  0.12274953633E+02  0.16450331033E+02  0.34479703897E+02  0.51100000000E-03 0. -1.
        -11    1    3    3    0    0 -0.88103942410E+01  0.10879539974E+00 -0.79185433764E+01  0.11846443035E+02  0.51100000000E-03 0.  1.
        -12    1    3    3    0    0  0.11285453156E+02  0.60363266957E+01 -0.21383174314E+01  0.12975788776E+02  0.00000000000E+00 0.  1.
</event>
<event>
 7    1  0.1221195E-011  0.5930196E+02  0.7816164E-02  0.1266605E+00
        -11   -1    0    0    0    0  0.00000000000E+00  0.00000000000E+00  0.45593999997E+02  0.45594000000E+02  0.51100000000E-03 0.  1.
         11   -1    0    0    0    0 -0.00000000000E+00 -0.00000000000E+00 -0.45593999997E+02  0.45594000000E+02  0.51100000000E-03 0. -1.
    9900012    2    1    2    0    0 -0.65124413121E+01 -0.45111049276E+01 -0.30886208038E+02  0.59301955929E+02  0.50000021705E+02 0.  0.
        -12    1    1    2    0    0  0.65124413121E+01  0.45111049276E+01  0.30886208038E+02  0.31886044071E+02  0.00000000000E+00 0.  1.
         11    1    3    3    0    0 -0.65713334257E+01 -0.12555177408E+02 -0.53028400456E+01  0.15130598652E+02  0.51100000000E-03 0. -1.
        -11    1    3    3    0    0 -0.17095735586E+02  0.16059215967E+01 -0.86705224363E+01  0.19235933015E+02  0.51100000000E-03 0.  1.
        -12    1    3    3    0    0  0.17154627699E+02  0.64381508841E+01 -0.16912845556E+02  0.24935424262E+02  0.00000000000E+00 0.  1.
</event>
<event>
 7    1  0.1221195E-011  0.5930196E+02  0.7816164E-02  0.1266605E+00
        -11   -1    0    0    0    0  0.00000000000E+00  0.00000000000E+00  0.45593999997E+02  0.45594000000E+02  0.51100000000E-03 0. -1.
         11   -1    0    0    0    0 -0.00000000000E+00 -0.00000000000E+00 -0.45593999997E+02  0.45594000000E+02  0.51100000000E-03 0.  1.
    9900012    2    1    2    0    0  0.76641635709E+01 -0.82493619457E+01  0.29831663819E+02  0.59301960077E+02  0.50000029269E+02 0.  0.
        -12    1    1    2    0    0 -0.76641635709E+01  0.82493619457E+01 -0.29831663819E+02  0.31886039923E+02  0.00000000000E+00 0.  1.
         11    1    3    3    0    0  0.20019613059E+01  0.11388000863E+02  0.67024293076E+01  0.13364766051E+02  0.51100000000E-03 0. -1.
        -11    1    3    3    0    0 -0.11581042384E+02  0.10240114377E+01  0.12310095340E+02  0.16932441929E+02  0.51100000000E-03 0.  1.
         12    1    3    3    0    0  0.17243244649E+02 -0.20661374246E+02  0.10819139172E+02  0.29004752097E+02  0.00000000000E+00 0. -1.
</event>
<event>
 7    1  0.1221195E-011  0.5930192E+02  0.7816164E-02  0.1266605E+00
        -11   -1    0    0    0    0  0.00000000000E+00  0.00000000000E+00  0.45593999997E+02  0.45594000000E+02  0.51100000000E-03 0. -1.
         11   -1    0    0    0    0 -0.00000000000E+00 -0.00000000000E+00 -0.45593999997E+02  0.45594000000E+02  0.51100000000E-03 0.  1.
    9900012    2    1    2    0    0 -0.50238765025E+01 -0.30484424366E+02  0.78855964873E+01  0.59301920028E+02  0.49999956230E+02 0.  0.
        -12    1    1    2    0    0  0.50238765025E+01  0.30484424366E+02 -0.78855964873E+01  0.31886079972E+02  0.00000000000E+00 0.  1.
         11    1    3    3    0    0  0.10759567109E+02 -0.49106045383E+01  0.58329228703E+01  0.13187316284E+02  0.51100000000E-03 0. -1.
        -11    1    3    3    0    0  0.94233586713E+01 -0.14260413621E+02 -0.45896217127E+01  0.17698127387E+02  0.51100000000E-03 0.  1.
         12    1    3    3    0    0 -0.25206802282E+02 -0.11313406206E+02  0.66422953297E+01  0.28416476357E+02  0.00000000000E+00 0. -1.
</event>
<event>
 7    1  0.1221195E-011  0.5930196E+02  0.7816164E-02  0.1266605E+00
        -11   -1    0    0    0    0  0.00000000000E+00  0.00000000000E+00  0.45593999997E+02  0.45594000000E+02  0.51100000000E-03 0.  1.
         11   -1    0    0    0    0 -0.00000000000E+00 -0.00000000000E+00 -0.45593999997E+02  0.45594000000E+02  0.51100000000E-03 0. -1.
    9900012    2    1    2    0    0 -0.25206232407E+02 -0.19358818468E+02 -0.25692942508E+01  0.59301964223E+02  0.50000036831E+02 0.  0.
        -12    1    1    2    0    0  0.25206232407E+02  0.19358818468E+02  0.25692942508E+01  0.31886035777E+02  0.00000000000E+00 0.  1.
         11    1    3    3    0    0 -0.10548227537E+02 -0.17336549288E+00 -0.15063273185E+02  0.18390142987E+02  0.51100000000E-03 0. -1.
        -11    1    3    3    0    0  0.57161289570E+01  0.64369397814E+00 -0.49222275820E+01  0.75707857466E+01  0.51100000000E-03 0.  1.
        -12    1    3    3    0    0 -0.20374133827E+02 -0.19829146953E+02  0.17416206516E+02  0.33341035489E+02  0.00000000000E+00 0.  1.
</event>
<event>
 7    1  0.1221195E-011  0.5930195E+02  0.7816164E-02  0.1266605E+00
        -11   -1    0    0    0    0  0.00000000000E+00  0.00000000000E+00  0.45593999997E+02  0.45594000000E+02  0.51100000000E-03 0.  1.
         11   -1    0    0    0    0 -0.00000000000E+00 -0.00000000000E+00 -0.45593999997E+02  0.45594000000E+02  0.51100000000E-03 0. -1.
    9900012    2    1    2    0    0 -0.30341584009E+01 -0.10300919983E+02 -0.30023405567E+02  0.59301953655E+02  0.50000017557E+02 0.  0.
        -12    1    1    2    0    0  0.30341584009E+01  0.10300919983E+02  0.30023405567E+02  0.31886046345E+02  0.00000000000E+00 0.  1.
         11    1    3    3    0    0  0.90771435543E+01  0.12323546868E+02 -0.96177526571E+01  0.18076656465E+02  0.51100000000E-03 0. -1.
        -11    1    3    3    0    0  0.47582005826E+01  0.19378160444E+01 -0.48471861537E-01  0.51378938865E+01  0.51100000000E-03 0.  1.
        -12    1    3    3    0    0 -0.16869502538E+02 -0.24562282896E+02 -0.20357181048E+02  0.36087403303E+02  0.00000000000E+00 0.  1.
</event>
<event>
 7    1  0.1221195E-011  0.5930199E+02  0.7816164E-02  0.1266605E+00
        -11   -1    0    0    0    0  0.00000000000E+00  0.00000000000E+00  0.45593999997E+02  0.45594000000E+02  0.51100000000E-03 0. -1.
         11   -1    0    0    0    0 -0.00000000000E+00 -0.00000000000E+00 -0.45593999997E+02  0.45594000000E+02  0.51100000000E-03 0.  1.
    9900012    2    1    2    0    0  0.29307555812E+02  0.91988381000E+01  0.85537350589E+01  0.59301986867E+02  0.50000078128E+02 0.  0.
        -12    1    1    2    0    0 -0.29307555812E+02 -0.91988381000E+01 -0.85537350589E+01  0.31886013133E+02  0.00000000000E+00 0.  1.
         11    1    3    3    0    0  0.15298780270E+02  0.10398323874E+02  0.12486882430E+02  0.22318155170E+02  0.51100000000E-03 0. -1.
        -11    1    3    3    0    0  0.23184200987E+02  0.63681111203E+01 -0.63054971033E+01  0.24855971287E+02  0.51100000000E-03 0.  1.
         12    1    3    3    0    0 -0.91754254446E+01 -0.75675968947E+01  0.23723497323E+01  0.12127860409E+02  0.00000000000E+00 0. -1.
</event>
<event>
 7    1  0.1221195E-011  0.5930190E+02  0.7816164E-02  0.1266605E+00
        -11   -1    0    0    0    0  0.00000000000E+00  0.00000000000E+00  0.45593999997E+02  0.45594000000E+02  0.51100000000E-03 0. -1.
         11   -1    0    0    0    0 -0.00000000000E+00 -0.00000000000E+00 -0.45593999997E+02  0.45594000000E+02  0.51100000000E-03 0.  1.
    9900012    2    1    2    0    0 -0.16882402290E+02  0.13382477718E+02  0.23507814914E+02  0.59301896773E+02  0.49999913819E+02 0.  0.
        -12    1    1    2    0    0  0.16882402290E+02 -0.13382477718E+02 -0.23507814914E+02  0.31886103227E+02  0.00000000000E+00 0.  1.
         11    1    3    3    0    0 -0.24700919085E+02  0.12690917513E+01  0.76317841991E+00  0.24745271044E+02  0.51100000000E-03 0. -1.
        -11    1    3    3    0    0 -0.54503463441E+01 -0.27240054257E+01  0.58833624321E+01  0.84699725264E+01  0.51100000000E-03 0.  1.
        -12    1    3    3    0    0  0.13268863139E+02  0.14837391392E+02  0.16861274062E+02  0.26086653203E+02  0.00000000000E+00 0.  1.
</event>
<event>
 7    1  0.1221195E-011  0.5930194E+02  0.7816164E-02  0.1266605E+00
        -11   -1    0    0    0    0  0.00000000000E+00  0.00000000000E+00  0.45593999997E+02  0.45594000000E+02  0.51100000000E-03 0.  1.
         11   -1    0    0    0    0 -0.00000000000E+00 -0.00000000000E+00 -0.45593999997E+02  0.45594000000E+02  0.51100000000E-03 0. -1.
    9900012    2    1    2    0    0 -0.69890826627E+01 -0.14738061838E+02 -0.27398231551E+02  0.59301939796E+02  0.49999992283E+02 0.  0.
        -12    1    1    2    0    0  0.69890826627E+01  0.14738061838E+02  0.27398231551E+02  0.31886060204E+02  0.00000000000E+00 0.  1.
         11    1    3    3    0    0  0.90804212527E+01  0.67583147994E+01 -0.76883566038E+01  0.13683555700E+02  0.51100000000E-03 0. -1.
        -11    1    3    3    0    0  0.51822087420E+00 -0.18444248110E+02  0.15087040094E+01  0.18513104258E+02  0.51100000000E-03 0.  1.
         12    1    3    3    0    0 -0.16587724790E+02 -0.30521285277E+01 -0.21218578956E+02  0.27105279839E+02  0.00000000000E+00 0. -1.
</event>
<event>
 7    1  0.1221195E-011  0.5930195E+02  0.7816164E-02  0.1266605E+00
        -11   -1    0    0    0    0  0.00000000000E+00  0.00000000000E+00  0.45593999997E+02  0.45594000000E+02  0.51100000000E-03 0. -1.
         11   -1    0    0    0    0 -0.00000000000E+00 -0.00000000000E+00 -0.45593999997E+02  0.45594000000E+02  0.51100000000E-03 0.  1.
    9900012    2    1    2    0    0 -0.16692877894E+02  0.23254778687E+01  0.27067691405E+02  0.59301953872E+02  0.50000017954E+02 0.  0.
        -12    1    1    2    0    0  0.16692877894E+02 -0.23254778687E+01 -0.27067691405E+02  0.31886046128E+02  0.00000000000E+00 0.  1.
         11    1    3    3    0    0 -0.87242207537E+01  0.17259717267E+02  0.23312373445E+02  0.30289876589E+02  0.51100000000E-03 0. -1.
        -11    1    3    3    0    0  0.70276750117E-01  0.55186425681E+00  0.10345677391E+02  0.10360624205E+02  0.51100000000E-03 0.  1.
        -12    1    3    3    0    0 -0.80389338900E+01 -0.15486103655E+02 -0.65903594310E+01  0.18651453078E+02  0.00000000000E+00 0.  1.
</event>
<event>
 7    1  0.1221195E-011  0.5930195E+02  0.7816164E-02  0.1266605E+00
        -11   -1    0    0    0    0  0.00000000000E+00  0.00000000000E+00  0.45593999997E+02  0.45594000000E+02  0.51100000000E-03 0. -1.
         11   -1    0    0    0    0 -0.00000000000E+00 -0.00000000000E+00 -0.45593999997E+02  0.45594000000E+02  0.51100000000E-03 0.  1.
    9900012    2    1    2    0    0  0.60053027174E+01  0.23350624236E+02  0.20866362909E+02  0.59301946403E+02  0.50000004331E+02 0.  0.
        -12    1    1    2    0    0 -0.60053027174E+01 -0.23350624236E+02 -0.20866362909E+02  0.31886053597E+02  0.00000000000E+00 0.  1.
         11    1    3    3    0    0 -0.10070766985E+02 -0.36319707594E+01  0.12888822478E+02  0.16755097863E+02  0.51100000000E-03 0. -1.
        -11    1    3    3    0    0  0.81874150536E+00  0.18722929637E+02 -0.66174117257E+01  0.19874822517E+02  0.51100000000E-03 0.  1.
         12    1    3    3    0    0  0.15257328197E+02  0.82596653585E+01  0.14594952157E+02  0.22672026023E+02  0.00000000000E+00 0. -1.
</event>
<event>
 7    1  0.1221195E-011  0.5930199E+02  0.7816164E-02  0.1266605E+00
        -11   -1    0    0    0    0  0.00000000000E+00  0.00000000000E+00  0.45593999997E+02  0.45594000000E+02  0.51100000000E-03 0.  1.
         11   -1    0    0    0    0 -0.00000000000E+00 -0.00000000000E+00 -0.45593999997E+02  0.45594000000E+02  0.51100000000E-03 0. -1.
    9900012    2    1    2    0    0  0.22607528414E+01 -0.27765395855E+02 -0.15514174204E+02  0.59301987210E+02  0.50000078754E+02 0.  0.
        -12    1    1    2    0    0 -0.22607528414E+01  0.27765395855E+02  0.15514174204E+02  0.31886012790E+02  0.00000000000E+00 0.  1.
         11    1    3    3    0    0  0.39589633296E+01  0.97330172123E-01 -0.10010904153E+02  0.10765735740E+02  0.51100000000E-03 0. -1.
        -11    1    3    3    0    0 -0.21799082275E+01 -0.14163175029E+02 -0.22515257362E+02  0.26688655663E+02  0.51100000000E-03 0.  1.
        -12    1    3    3    0    0  0.48169773929E+00 -0.13699550999E+02  0.17011987310E+02  0.21847595807E+02  0.00000000000E+00 0.  1.
</event>
<event>
 7    1  0.1221195E-011  0.5930199E+02  0.7816164E-02  0.1266605E+00
        -11   -1    0    0    0    0  0.00000000000E+00  0.00000000000E+00  0.45593999997E+02  0.45594000000E+02  0.51100000000E-03 0. -1.
         11   -1    0    0    0    0 -0.00000000000E+00 -0.00000000000E+00 -0.45593999997E+02  0.45594000000E+02  0.51100000000E-03 0.  1.
    9900012    2    1    2    0    0 -0.17816242665E+02 -0.38994926336E+01  0.26155177030E+02  0.59301986907E+02  0.50000078201E+02 0.  0.
        -12    1    1    2    0    0  0.17816242665E+02  0.38994926336E+01 -0.26155177030E+02  0.31886013093E+02  0.00000000000E+00 0.  1.
         11    1    3    3    0    0  0.23237479092E+01 -0.12452685613E+02  0.75951389477E+01  0.14770081896E+02  0.51100000000E-03 0. -1.
        -11    1    3    3    0    0 -0.23151761084E+02  0.12716506242E+01  0.25187942265E+02  0.34235267961E+02  0.51100000000E-03 0.  1.
        -12    1    3    3    0    0  0.30117705096E+01  0.72815423552E+01 -0.66279041823E+01  0.10296637049E+02  0.00000000000E+00 0.  1.
</event>
<event>
 7    1  0.1221195E-011  0.5930195E+02  0.7816164E-02  0.1266605E+00
        -11   -1    0    0    0    0  0.00000000000E+00  0.00000000000E+00  0.45593999997E+02  0.45594000000E+02  0.51100000000E-03 0.  1.
         11   -1    0    0    0    0 -0.00000000000E+00 -0.00000000000E+00 -0.45593999997E+02  0.45594000000E+02  0.51100000000E-03 0. -1.
    9900012    2    1    2    0    0  0.16260636344E+02 -0.23435309563E+02 -0.14251240307E+02  0.59301954793E+02  0.50000019634E+02 0.  0.
        -12    1    1    2    0    0 -0.16260636344E+02  0.23435309563E+02  0.14251240307E+02  0.31886045207E+02  0.00000000000E+00 0.  1.
         11    1    3    3    0    0 -0.11221251083E+02 -0.11533989831E+02 -0.28402646370E+01  0.16340639546E+02  0.51100000000E-03 0. -1.
        -11    1    3    3    0    0  0.26850112437E+01  0.57857230842E+00 -0.14747643817E+02  0.15001234273E+02  0.51100000000E-03 0.  1.
         12    1    3    3    0    0  0.24796876183E+02 -0.12479892040E+02  0.33366681471E+01  0.27960080975E+02  0.00000000000E+00 0. -1.
</event>
<event>
 7    1  0.1221195E-011  0.5930195E+02  0.7816164E-02  0.1266605E+00
        -11   -1    0    0    0    0  0.00000000000E+00  0.00000000000E+00  0.45593999997E+02  0.45594000000E+02  0.51100000000E-03 0.  1.
         11   -1    0    0    0    0 -0.00000000000E+00 -0.00000000000E+00 -0.45593999997E+02  0.45594000000E+02  0.51100000000E-03 0. -1.
    9900012    2    1    2    0    0  0.20072425604E+02 -0.20183082807E+02 -0.14368757818E+02  0.59301948152E+02  0.50000007522E+02 0.  0.
        -12    1    1    2    0    0 -0.20072425604E+02  0.20183082807E+02  0.14368757818E+02  0.31886051848E+02  0.00000000000E+00 0.  1.
         11    1    3    3    0    0  0.65112697339E+01  0.53800773532E+01  0.37442618146E+01  0.92391213149E+01  0.51100000000E-03 0. -1.
        -11    1    3    3    0    0  0.24330389883E+02 -0.71833987163E+01 -0.99161382674E+01  0.27237820900E+02  0.51100000000E-03 0.  1.
        -12    1    3    3    0    0 -0.10769234012E+02 -0.18379761444E+02 -0.81968813648E+01  0.22825005938E+02  0.00000000000E+00 0.  1.
</event>
<event>
 7    1  0.1221195E-011  0.5930194E+02  0.7816164E-02  0.1266605E+00
        -11   -1    0    0    0    0  0.00000000000E+00  0.00000000000E+00  0.45593999997E+02  0.45594000000E+02  0.51100000000E-03 0.  1.
         11   -1    0    0    0    0 -0.00000000000E+00 -0.00000000000E+00 -0.45593999997E+02  0.45594000000E+02  0.51100000000E-03 0. -1.
    9900012    2    1    2    0    0  0.75835616586E+00 -0.17638099876E+02 -0.26552652802E+02  0.59301936553E+02  0.49999986367E+02 0.  0.
        -12    1    1    2    0    0 -0.75835616586E+00  0.17638099876E+02  0.26552652802E+02  0.31886063447E+02  0.00000000000E+00 0.  1.
         11    1    3    3    0    0 -0.61151383771E+00 -0.44515729309E+00  0.13555333492E+01  0.15522838372E+01  0.51100000000E-03 0. -1.
        -11    1    3    3    0    0  0.26918558639E+01 -0.43004768062E+01  0.13467642052E+02  0.14391579880E+02  0.51100000000E-03 0.  1.
         12    1    3    3    0    0 -0.13219858604E+01 -0.12892465777E+02 -0.41375828204E+02  0.43358072835E+02  0.00000000000E+00 0. -1.
</event>
<event>
 7    1  0.1221195E-011  0.5930194E+02  0.7816164E-02  0.1266605E+00
        -11   -1    0    0    0    0  0.00000000000E+00  0.00000000000E+00  0.45593999997E+02  0.45594000000E+02  0.51100000000E-03 0.  1.
         11   -1    0    0    0    0 -0.00000000000E+00 -0.00000000000E+00 -0.45593999997E+02  0.45594000000E+02  0.51100000000E-03 0. -1.
    9900012    2    1    2    0    0  0.10807123310E+02 -0.13107001661E+02 -0.26983952880E+02  0.59301935335E+02  0.49999984146E+02 0.  0.
        -12    1    1    2    0    0 -0.10807123310E+02  0.13107001661E+02  0.26983952880E+02  0.31886064665E+02  0.00000000000E+00 0.  1.
         11    1    3    3    0    0 -0.24171626442E+01  0.20810708432E+01 -0.15565395779E+02  0.15888834983E+02  0.51100000000E-03 0. -1.
        -11    1    3    3    0    0  0.80895451920E+00  0.11983517597E+02 -0.33116417746E+01  0.12458975597E+02  0.51100000000E-03 0.  1.
        -12    1    3    3    0    0  0.12415331435E+02 -0.27171590101E+02 -0.81069153272E+01  0.30954124756E+02  0.00000000000E+00 0.  1.
</event>
<event>
 7    1  0.1221195E-011  0.5930194E+02  0.7816164E-02  0.1266605E+00
        -11   -1    0    0    0    0  0.00000000000E+00  0.00000000000E+00  0.45593999997E+02  0.45594000000E+02  0.51100000000E-03 0. -1.
         11   -1    0    0    0    0 -0.00000000000E+00 -0.00000000000E+00 -0.45593999997E+02  0.45594000000E+02  0.51100000000E-03 0.  1.
    9900012    2    1    2    0    0  0.12030406625E+02  0.28953735453E+02  0.58026754274E+01  0.59301944703E+02  0.50000001232E+02 0.  0.
        -12    1    1    2    0    0 -0.12030406625E+02 -0.28953735453E+02 -0.58026754274E+01  0.31886055297E+02  0.00000000000E+00 0.  1.
         11    1    3    3    0    0  0.89879282444E+01  0.36262339734E+01  0.17306218803E+02  0.19835262450E+02  0.51100000000E-03 0. -1.
        -11    1    3    3    0    0  0.74766431657E+01 -0.29389348871E+00 -0.11191677847E+02  0.13462548782E+02  0.51100000000E-03 0.  1.
         12    1    3    3    0    0 -0.44341647847E+01  0.25621394969E+02 -0.31186552883E+00  0.26004133471E+02  0.00000000000E+00 0. -1.
</event>
<event>
 7    1  0.1221195E-011  0.5930192E+02  0.7816164E-02  0.1266605E+00
        -11   -1    0    0    0    0  0.00000000000E+00  0.00000000000E+00  0.45593999997E+02  0.45594000000E+02  0.51100000000E-03 0. -1.
         11   -1    0    0    0    0 -0.00000000000E+00 -0.00000000000E+00 -0.45593999997E+02  0.45594000000E+02  0.51100000000E-03 0.  1.
    9900012    2    1    2    0    0  0.31387421192E+02 -0.15064177257E+01  0.54113122524E+01  0.59301924611E+02  0.49999964588E+02 0.  0.
        -12    1    1    2    0    0 -0.31387421192E+02  0.15064177257E+01 -0.54113122524E+01  0.31886075389E+02  0.00000000000E+00 0.  1.
         11    1    3    3    0    0  0.87704130082E+01 -0.89728974710E+01  0.14732835195E+02  0.19351730323E+02  0.51100000000E-03 0. -1.
        -11    1    3    3    0    0 -0.37632794669E+01 -0.33477762841E+01  0.57964771753E+01  0.76791292670E+01  0.51100000000E-03 0.  1.
         12    1    3    3    0    0  0.26380287651E+02  0.10814256029E+02 -0.15118000118E+02  0.32271065021E+02  0.00000000000E+00 0. -1.
</event>
<event>
 7    1  0.1221195E-011  0.5930200E+02  0.7816164E-02  0.1266605E+00
        -11   -1    0    0    0    0  0.00000000000E+00  0.00000000000E+00  0.45593999997E+02  0.45594000000E+02  0.51100000000E-03 0.  1.
         11   -1    0    0    0    0 -0.00000000000E+00 -0.00000000000E+00 -0.45593999997E+02  0.45594000000E+02  0.51100000000E-03 0. -1.
    9900012    2    1    2    0    0 -0.12682650897E+02 -0.49990181376E+00 -0.29250937441E+02  0.59302001870E+02  0.50000105490E+02 0.  0.
        -12    1    1    2    0    0  0.12682650897E+02  0.49990181376E+00  0.29250937441E+02  0.31885998130E+02  0.00000000000E+00 0.  1.
         11    1    3    3    0    0  0.50995527939E+01  0.19650756276E+01  0.58402849424E+01  0.79984929449E+01  0.51100000000E-03 0. -1.
        -11    1    3    3    0    0  0.74169770754E+01  0.26182995583E+01 -0.20007775593E+02  0.21498328445E+02  0.51100000000E-03 0.  1.
        -12    1    3    3    0    0 -0.25199180766E+02 -0.50832769996E+01 -0.15083446791E+02  0.29805180480E+02  0.00000000000E+00 0.  1.
</event>
<event>
 7    1  0.1221195E-011  0.5930175E+02  0.7816164E-02  0.1266605E+00
        -11   -1    0    0    0    0  0.00000000000E+00  0.00000000000E+00  0.45593999997E+02  0.45594000000E+02  0.51100000000E-03 0. -1.
         11   -1    0    0    0    0 -0.00000000000E+00 -0.00000000000E+00 -0.45593999997E+02  0.45594000000E+02  0.51100000000E-03 0.  1.
    9900012    2    1    2    0    0  0.27436713332E+02 -0.43590029555E+01  0.15651155470E+02  0.59301751980E+02  0.49999649750E+02 0.  0.
        -12    1    1    2    0    0 -0.27436713332E+02  0.43590029555E+01 -0.15651155470E+02  0.31886248020E+02  0.00000000000E+00 0.  1.
         11    1    3    3    0    0  0.19800181102E+02 -0.77203581900E+01  0.15354983941E+02  0.26218822139E+02  0.51100000000E-03 0. -1.
        -11    1    3    3    0    0  0.12623333765E+02 -0.62379213327E+01 -0.10679655739E+02  0.17672443659E+02  0.51100000000E-03 0.  1.
        -12    1    3    3    0    0 -0.49868015353E+01  0.95992765672E+01  0.10975827268E+02  0.15410486183E+02  0.00000000000E+00 0.  1.
</event>
<event>
 7    1  0.1221195E-011  0.5930179E+02  0.7816164E-02  0.1266605E+00
        -11   -1    0    0    0    0  0.00000000000E+00  0.00000000000E+00  0.45593999997E+02  0.45594000000E+02  0.51100000000E-03 0.  1.
         11   -1    0    0    0    0 -0.00000000000E+00 -0.00000000000E+00 -0.45593999997E+02  0.45594000000E+02  0.51100000000E-03 0. -1.
    9900012    2    1    2    0    0 -0.14667510570E+02 -0.16192753589E+02 -0.23224759135E+02  0.59301787118E+02  0.49999713833E+02 0.  0.
        -12    1    1    2    0    0  0.14667510570E+02  0.16192753589E+02  0.23224759135E+02  0.31886212882E+02  0.00000000000E+00 0.  1.
         11    1    3    3    0    0  0.73861123317E+01 -0.10721718776E+02  0.11035724646E+02  0.17067428852E+02  0.51100000000E-03 0.  1.
        -11    1    3    3    0    0 -0.62488514449E+01 -0.53111734198E+00 -0.17857032685E+02  0.18926273976E+02  0.51100000000E-03 0. -1.
        -12    1    3    3    0    0 -0.15804771456E+02 -0.49399174708E+01 -0.16403451096E+02  0.23308084290E+02  0.00000000000E+00 0.  1.
</event>
<event>
 7    1  0.1221195E-011  0.5930194E+02  0.7816164E-02  0.1266605E+00
        -11   -1    0    0    0    0  0.00000000000E+00  0.00000000000E+00  0.45593999997E+02  0.45594000000E+02  0.51100000000E-03 0.  1.
         11   -1    0    0    0    0 -0.00000000000E+00 -0.00000000000E+00 -0.45593999997E+02  0.45594000000E+02  0.51100000000E-03 0. -1.
    9900012    2    1    2    0    0  0.15040911365E+02 -0.18600671158E+02 -0.21083328553E+02  0.59301941525E+02  0.49999995435E+02 0.  0.
        -12    1    1    2    0    0 -0.15040911365E+02  0.18600671158E+02  0.21083328553E+02  0.31886058475E+02  0.00000000000E+00 0.  1.
         11    1    3    3    0    0  0.15300205031E+02 -0.12979927311E+02 -0.14298124925E+02  0.24637596547E+02  0.51100000000E-03 0. -1.
        -11    1    3    3    0    0  0.15238251187E+02 -0.16952132504E+01  0.34050905125E+01  0.15705817039E+02  0.51100000000E-03 0.  1.
        -12    1    3    3    0    0 -0.15497544853E+02 -0.39255305968E+01 -0.10190294140E+02  0.18958527938E+02  0.00000000000E+00 0.  1.
</event>
<event>
 7    1  0.1221195E-011  0.5930192E+02  0.7816164E-02  0.1266605E+00
        -11   -1    0    0    0    0  0.00000000000E+00  0.00000000000E+00  0.45593999997E+02  0.45594000000E+02  0.51100000000E-03 0.  1.
         11   -1    0    0    0    0 -0.00000000000E+00 -0.00000000000E+00 -0.45593999997E+02  0.45594000000E+02  0.51100000000E-03 0. -1.
    9900012    2    1    2    0    0  0.16919995693E+02 -0.20052913404E+02 -0.18119498471E+02  0.59301924433E+02  0.49999964264E+02 0.  0.
        -12    1    1    2    0    0 -0.16919995693E+02  0.20052913404E+02  0.18119498471E+02  0.31886075567E+02  0.00000000000E+00 0.  1.
         11    1    3    3    0    0  0.57020054421E+01 -0.39513750360E+01 -0.16407247478E+02  0.17813590340E+02  0.51100000000E-03 0. -1.
        -11    1    3    3    0    0  0.11409744593E+02 -0.26160236766E+02 -0.79804066758E+01  0.29634897508E+02  0.51100000000E-03 0.  1.
        -12    1    3    3    0    0 -0.19175434232E+00  0.10058698398E+02  0.62681556832E+01  0.11853436585E+02  0.00000000000E+00 0.  1.
</event>
<event>
 7    1  0.1221195E-011  0.5930191E+02  0.7816164E-02  0.1266605E+00
        -11   -1    0    0    0    0  0.00000000000E+00  0.00000000000E+00  0.45593999997E+02  0.45594000000E+02  0.51100000000E-03 0.  1.
         11   -1    0    0    0    0 -0.00000000000E+00 -0.00000000000E+00 -0.45593999997E+02  0.45594000000E+02  0.51100000000E-03 0. -1.
    9900012    2    1    2    0    0  0.42961533373E+01 -0.31239022833E+02 -0.47317439122E+01  0.59301907710E+02  0.49999933766E+02 0.  0.
        -12    1    1    2    0    0 -0.42961533373E+01  0.31239022833E+02  0.47317439122E+01  0.31886092290E+02  0.00000000000E+00 0.  1.
         11    1    3    3    0    0 -0.43650987779E+01 -0.16235286666E+02  0.40531204586E+01  0.17293536544E+02  0.51100000000E-03 0. -1.
        -11    1    3    3    0    0 -0.65533704468E+01 -0.19073233456E+01  0.11561350119E+02  0.13425697874E+02  0.51100000000E-03 0.  1.
        -12    1    3    3    0    0  0.15214622562E+02 -0.13096412821E+02 -0.20346214490E+02  0.28582673293E+02  0.00000000000E+00 0.  1.
</event>
<event>
 7    1  0.1221195E-011  0.5930195E+02  0.7816164E-02  0.1266605E+00
        -11   -1    0    0    0    0  0.00000000000E+00  0.00000000000E+00  0.45593999997E+02  0.45594000000E+02  0.51100000000E-03 0.  1.
         11   -1    0    0    0    0 -0.00000000000E+00 -0.00000000000E+00 -0.45593999997E+02  0.45594000000E+02  0.51100000000E-03 0. -1.
    9900012    2    1    2    0    0  0.22690874989E+02 -0.14040766230E+02 -0.17455699756E+02  0.59301946966E+02  0.50000005359E+02 0.  0.
        -12    1    1    2    0    0 -0.22690874989E+02  0.14040766230E+02  0.17455699756E+02  0.31886053034E+02  0.00000000000E+00 0.  1.
         11    1    3    3    0    0  0.13605138517E+02  0.82033678259E+01 -0.21316192838E+01  0.16029311862E+02  0.51100000000E-03 0. -1.
        -11    1    3    3    0    0  0.20795984836E+02 -0.92829206532E+01 -0.10929046583E+02  0.25260436668E+02  0.51100000000E-03 0.  1.
        -12    1    3    3    0    0 -0.11710248364E+02 -0.12961213403E+02 -0.43950338888E+01  0.18012198436E+02  0.00000000000E+00 0.  1.
</event>
<event>
 7    1  0.1221195E-011  0.5930195E+02  0.7816164E-02  0.1266605E+00
        -11   -1    0    0    0    0  0.00000000000E+00  0.00000000000E+00  0.45593999997E+02  0.45594000000E+02  0.51100000000E-03 0. -1.
         11   -1    0    0    0    0 -0.00000000000E+00 -0.00000000000E+00 -0.45593999997E+02  0.45594000000E+02  0.51100000000E-03 0.  1.
    9900012    2    1    2    0    0 -0.36255733414E+01 -0.31263210380E+02 -0.51173581094E+01  0.59301945692E+02  0.50000003035E+02 0.  0.
        -12    1    1    2    0    0  0.36255733414E+01  0.31263210380E+02  0.51173581094E+01  0.31886054308E+02  0.00000000000E+00 0.  1.
         11    1    3    3    0    0 -0.10746539324E+02 -0.34810985141E+02 -0.12120564862E+02  0.38395323761E+02  0.51100000000E-03 0. -1.
        -11    1    3    3    0    0  0.64311045919E+00 -0.32790263508E+01  0.10382719665E+02  0.10907175289E+02  0.51100000000E-03 0.  1.
        -12    1    3    3    0    0  0.64778555237E+01  0.68268011117E+01 -0.33795129133E+01  0.99994466415E+01  0.00000000000E+00 0.  1.
</event>
<event>
 7    1  0.1221195E-011  0.5930185E+02  0.7816164E-02  0.1266605E+00
        -11   -1    0    0    0    0  0.00000000000E+00  0.00000000000E+00  0.45593999997E+02  0.45594000000E+02  0.51100000000E-03 0.  1.
         11   -1    0    0    0    0 -0.00000000000E+00 -0.00000000000E+00 -0.45593999997E+02  0.45594000000E+02  0.51100000000E-03 0. -1.
    9900012    2    1    2    0    0  0.10057363389E+02 -0.28302250060E+01 -0.30125829382E+02  0.59301853669E+02  0.49999835206E+02 0.  0.
        -12    1    1    2    0    0 -0.10057363389E+02  0.28302250060E+01  0.30125829382E+02  0.31886146331E+02  0.00000000000E+00 0.  1.
         11    1    3    3    0    0  0.13198624264E+02 -0.43791209453E+01 -0.87262397402E+01  0.16417297067E+02  0.51100000000E-03 0. -1.
        -11    1    3    3    0    0  0.13521248362E+02 -0.13660015769E+01  0.22837921427E+01  0.13780632221E+02  0.51100000000E-03 0.  1.
         12    1    3    3    0    0 -0.16662509238E+02  0.29148975162E+01 -0.23683381784E+02  0.29103924381E+02  0.00000000000E+00 0. -1.
</event>
<event>
 7    1  0.1221195E-011  0.5930193E+02  0.7816164E-02  0.1266605E+00
        -11   -1    0    0    0    0  0.00000000000E+00  0.00000000000E+00  0.45593999997E+02  0.45594000000E+02  0.51100000000E-03 0.  1.
         11   -1    0    0    0    0 -0.00000000000E+00 -0.00000000000E+00 -0.45593999997E+02  0.45594000000E+02  0.51100000000E-03 0. -1.
    9900012    2    1    2    0    0  0.25517839779E+01 -0.30289753379E+02 -0.96301906535E+01  0.59301931988E+02  0.49999978042E+02 0.  0.
        -12    1    1    2    0    0 -0.25517839779E+01  0.30289753379E+02  0.96301906535E+01  0.31886068012E+02  0.00000000000E+00 0.  1.
         11    1    3    3    0    0 -0.74121938084E+00 -0.14177039957E+02 -0.13465241060E+01  0.14260119058E+02  0.51100000000E-03 0. -1.
        -11    1    3    3    0    0 -0.13863859863E+02 -0.79394560224E+01  0.98544876726E+01  0.18771054839E+02  0.51100000000E-03 0.  1.
         12    1    3    3    0    0  0.17156863222E+02 -0.81732573998E+01 -0.18138154220E+02  0.26270758090E+02  0.00000000000E+00 0. -1.
</event>
<event>
 7    1  0.1221195E-011  0.5930200E+02  0.7816164E-02  0.1266605E+00
        -11   -1    0    0    0    0  0.00000000000E+00  0.00000000000E+00  0.45593999997E+02  0.45594000000E+02  0.51100000000E-03 0.  1.
         11   -1    0    0    0    0 -0.00000000000E+00 -0.00000000000E+00 -0.45593999997E+02  0.45594000000E+02  0.51100000000E-03 0. -1.
    9900012    2    1    2    0    0 -0.20546676216E+02 -0.23622958813E+02  0.60420729110E+01  0.59302004145E+02  0.50000109639E+02 0.  0.
        -12    1    1    2    0    0  0.20546676216E+02  0.23622958813E+02 -0.60420729110E+01  0.31885995855E+02  0.00000000000E+00 0.  1.
         11    1    3    3    0    0 -0.13201447680E+02 -0.14079633366E+02 -0.11447813575E+01  0.19334549935E+02  0.51100000000E-03 0. -1.
        -11    1    3    3    0    0  0.49747527937E+00  0.28515182698E+01 -0.13945979617E+02  0.14243208411E+02  0.51100000000E-03 0.  1.
         12    1    3    3    0    0 -0.78427038149E+01 -0.12394843717E+02  0.21132833886E+02  0.25724245799E+02  0.00000000000E+00 0. -1.
</event>
<event>
 7    1  0.1221195E-011  0.5930196E+02  0.7816164E-02  0.1266605E+00
        -11   -1    0    0    0    0  0.00000000000E+00  0.00000000000E+00  0.45593999997E+02  0.45594000000E+02  0.51100000000E-03 0.  1.
         11   -1    0    0    0    0 -0.00000000000E+00 -0.00000000000E+00 -0.45593999997E+02  0.45594000000E+02  0.51100000000E-03 0. -1.
    9900012    2    1    2    0    0 -0.14560272519E+02 -0.15637336270E+02 -0.23668368335E+02  0.59301961032E+02  0.50000031011E+02 0.  0.
        -12    1    1    2    0    0  0.14560272519E+02  0.15637336270E+02  0.23668368335E+02  0.31886038968E+02  0.00000000000E+00 0.  1.
         11    1    3    3    0    0  0.14012480451E+02  0.61221028799E+01 -0.16146039439E+02  0.22237903271E+02  0.51100000000E-03 0.  1.
        -11    1    3    3    0    0 -0.13966026173E+02 -0.74319509441E+01 -0.37489447201E+01  0.16258486051E+02  0.51100000000E-03 0. -1.
        -12    1    3    3    0    0 -0.14606726798E+02 -0.14327488206E+02 -0.37733841759E+01  0.20805571710E+02  0.00000000000E+00 0.  1.
</event>
<event>
 7    1  0.1221195E-011  0.5930193E+02  0.7816164E-02  0.1266605E+00
        -11   -1    0    0    0    0  0.00000000000E+00  0.00000000000E+00  0.45593999997E+02  0.45594000000E+02  0.51100000000E-03 0. -1.
         11   -1    0    0    0    0 -0.00000000000E+00 -0.00000000000E+00 -0.45593999997E+02  0.45594000000E+02  0.51100000000E-03 0.  1.
    9900012    2    1    2    0    0  0.15910896736E+02 -0.26424451018E+02 -0.80816582220E+01  0.59301930217E+02  0.49999974813E+02 0.  0.
        -12    1    1    2    0    0 -0.15910896736E+02  0.26424451018E+02  0.80816582220E+01  0.31886069783E+02  0.00000000000E+00 0.  1.
         11    1    3    3    0    0  0.65256888850E+01  0.85362447408E+01 -0.15126555702E+02  0.18554373538E+02  0.51100000000E-03 0.  1.
        -11    1    3    3    0    0  0.81060926978E+01 -0.38137382154E+01  0.13911050992E+01  0.90657879778E+01  0.51100000000E-03 0. -1.
        -12    1    3    3    0    0  0.12791151537E+01 -0.31146957543E+02  0.56537923811E+01  0.31681768702E+02  0.00000000000E+00 0.  1.
</event>
<event>
 7    1  0.1221195E-011  0.5930194E+02  0.7816164E-02  0.1266605E+00
        -11   -1    0    0    0    0  0.00000000000E+00  0.00000000000E+00  0.45593999997E+02  0.45594000000E+02  0.51100000000E-03 0.  1.
         11   -1    0    0    0    0 -0.00000000000E+00 -0.00000000000E+00 -0.45593999997E+02  0.45594000000E+02  0.51100000000E-03 0. -1.
    9900012    2    1    2    0    0 -0.24637490813E+02  0.16040496754E+02 -0.12345745970E+02  0.59301938261E+02  0.49999989483E+02 0.  0.
        -12    1    1    2    0    0  0.24637490813E+02 -0.16040496754E+02  0.12345745970E+02  0.31886061739E+02  0.00000000000E+00 0.  1.
         11    1    3    3    0    0  0.45730450418E+00 -0.40294161916E+01 -0.16102296561E+02  0.16605097923E+02  0.51100000000E-03 0. -1.
        -11    1    3    3    0    0 -0.93413998446E+01  0.72967106832E+00 -0.10413811162E+02  0.14008627131E+02  0.51100000000E-03 0.  1.
        -12    1    3    3    0    0 -0.15753395472E+02  0.19340241877E+02  0.14170361752E+02  0.28688213206E+02  0.00000000000E+00 0.  1.
</event>
<event>
 7    1  0.1221195E-011  0.5930196E+02  0.7816164E-02  0.1266605E+00
        -11   -1    0    0    0    0  0.00000000000E+00  0.00000000000E+00  0.45593999997E+02  0.45594000000E+02  0.51100000000E-03 0. -1.
         11   -1    0    0    0    0 -0.00000000000E+00 -0.00000000000E+00 -0.45593999997E+02  0.45594000000E+02  0.51100000000E-03 0.  1.
    9900012    2    1    2    0    0 -0.18257061314E+02  0.26059357067E+02 -0.20758933799E+01  0.59301957412E+02  0.50000024410E+02 0.  0.
        -12    1    1    2    0    0  0.18257061314E+02 -0.26059357067E+02  0.20758933799E+01  0.31886042588E+02  0.00000000000E+00 0.  1.
         11    1    3    3    0    0 -0.14842064459E+02  0.13213058067E+02  0.24476628810E+01  0.20021559249E+02  0.51100000000E-03 0. -1.
        -11    1    3    3    0    0 -0.23279671725E+01  0.24384465559E+02  0.40982403226E+01  0.24835804109E+02  0.51100000000E-03 0.  1.
        -12    1    3    3    0    0 -0.10870296817E+01 -0.11538166559E+02 -0.86217965835E+01  0.14444594054E+02  0.00000000000E+00 0.  1.
</event>
<event>
 7    1  0.1221195E-011  0.5930193E+02  0.7816164E-02  0.1266605E+00
        -11   -1    0    0    0    0  0.00000000000E+00  0.00000000000E+00  0.45593999997E+02  0.45594000000E+02  0.51100000000E-03 0. -1.
         11   -1    0    0    0    0 -0.00000000000E+00 -0.00000000000E+00 -0.45593999997E+02  0.45594000000E+02  0.51100000000E-03 0.  1.
    9900012    2    1    2    0    0 -0.63196230585E+01  0.21167357354E+00  0.31252827003E+02  0.59301927225E+02  0.49999969356E+02 0.  0.
        -12    1    1    2    0    0  0.63196230585E+01 -0.21167357354E+00 -0.31252827003E+02  0.31886072775E+02  0.00000000000E+00 0.  1.
         11    1    3    3    0    0  0.33823890674E+01  0.90558731887E+01  0.16822828488E+02  0.19402498643E+02  0.51100000000E-03 0. -1.
        -11    1    3    3    0    0  0.11550844799E+02  0.17050156597E+01  0.10783628507E+02  0.15893889958E+02  0.51100000000E-03 0.  1.
        -12    1    3    3    0    0 -0.21252856925E+02 -0.10549215275E+02  0.36463700085E+01  0.24005538624E+02  0.00000000000E+00 0.  1.
</event>
<event>
 7    1  0.1221195E-011  0.5930195E+02  0.7816164E-02  0.1266605E+00
        -11   -1    0    0    0    0  0.00000000000E+00  0.00000000000E+00  0.45593999997E+02  0.45594000000E+02  0.51100000000E-03 0.  1.
         11   -1    0    0    0    0 -0.00000000000E+00 -0.00000000000E+00 -0.45593999997E+02  0.45594000000E+02  0.51100000000E-03 0. -1.
    9900012    2    1    2    0    0 -0.40807202396E+01  0.24472685912E+02 -0.20028870110E+02  0.59301948640E+02  0.50000008412E+02 0.  0.
        -12    1    1    2    0    0  0.40807202396E+01 -0.24472685912E+02  0.20028870110E+02  0.31886051360E+02  0.00000000000E+00 0.  1.
         11    1    3    3    0    0 -0.10303884712E+02  0.92220019881E+01 -0.27800920729E+02  0.31050065289E+02  0.51100000000E-03 0. -1.
        -11    1    3    3    0    0  0.11545590980E+02  0.14022684026E+02 -0.69314895476E+00  0.18177370385E+02  0.51100000000E-03 0.  1.
        -12    1    3    3    0    0 -0.53224265080E+01  0.12279998983E+01  0.84651995739E+01  0.10074512966E+02  0.00000000000E+00 0.  1.
</event>
<event>
 7    1  0.1221195E-011  0.5930194E+02  0.7816164E-02  0.1266605E+00
        -11   -1    0    0    0    0  0.00000000000E+00  0.00000000000E+00  0.45593999997E+02  0.45594000000E+02  0.51100000000E-03 0.  1.
         11   -1    0    0    0    0 -0.00000000000E+00 -0.00000000000E+00 -0.45593999997E+02  0.45594000000E+02  0.51100000000E-03 0. -1.
    9900012    2    1    2    0    0 -0.26941820711E+02 -0.69059072491E+01 -0.15593823256E+02  0.59301943770E+02  0.49999999530E+02 0.  0.
        -12    1    1    2    0    0  0.26941820711E+02  0.69059072491E+01  0.15593823256E+02  0.31886056230E+02  0.00000000000E+00 0.  1.
         11    1    3    3    0    0 -0.17036735502E+02  0.21604076073E+01 -0.16970712396E+02  0.24143794174E+02  0.51100000000E-03 0. -1.
        -11    1    3    3    0    0  0.47768450630E+01 -0.11432588124E+02 -0.10409294134E+02  0.16182574721E+02  0.51100000000E-03 0.  1.
         12    1    3    3    0    0 -0.14681930272E+02  0.23662732673E+01  0.11786183274E+02  0.18975574876E+02  0.00000000000E+00 0. -1.
</event>
<event>
 7    1  0.1221195E-011  0.5930195E+02  0.7816164E-02  0.1266605E+00
        -11   -1    0    0    0    0  0.00000000000E+00  0.00000000000E+00  0.45593999997E+02  0.45594000000E+02  0.51100000000E-03 0. -1.
         11   -1    0    0    0    0 -0.00000000000E+00 -0.00000000000E+00 -0.45593999997E+02  0.45594000000E+02  0.51100000000E-03 0.  1.
    9900012    2    1    2    0    0 -0.14071733718E+02  0.10877717818E+02  0.26464721526E+02  0.59301954146E+02  0.50000018453E+02 0.  0.
        -12    1    1    2    0    0  0.14071733718E+02 -0.10877717818E+02 -0.26464721526E+02  0.31886045854E+02  0.00000000000E+00 0.  1.
         11    1    3    3    0    0  0.89962753022E+01  0.15786387076E+02  0.16969097737E+01  0.18248903782E+02  0.51100000000E-03 0. -1.
        -11    1    3    3    0    0 -0.58702905233E+01  0.81265857337E+01  0.13178834720E+02  0.16558483969E+02  0.51100000000E-03 0.  1.
        -12    1    3    3    0    0 -0.17197718497E+02 -0.13035254992E+02  0.11588977033E+02  0.24494566395E+02  0.00000000000E+00 0.  1.
</event>
<event>
 7    1  0.1221195E-011  0.5930196E+02  0.7816164E-02  0.1266605E+00
        -11   -1    0    0    0    0  0.00000000000E+00  0.00000000000E+00  0.45593999997E+02  0.45594000000E+02  0.51100000000E-03 0. -1.
         11   -1    0    0    0    0 -0.00000000000E+00 -0.00000000000E+00 -0.45593999997E+02  0.45594000000E+02  0.51100000000E-03 0.  1.
    9900012    2    1    2    0    0 -0.14824019239E+02 -0.28175262997E+02  0.17670924084E+01  0.59301959058E+02  0.50000027412E+02 0.  0.
        -12    1    1    2    0    0  0.14824019239E+02  0.28175262997E+02 -0.17670924084E+01  0.31886040942E+02  0.00000000000E+00 0.  1.
         11    1    3    3    0    0 -0.12313819552E+02 -0.21684132580E+02  0.16202115920E+01  0.24989134510E+02  0.51100000000E-03 0. -1.
        -11    1    3    3    0    0 -0.11819096482E+02  0.27040192683E+01  0.11706337018E+02  0.16853518578E+02  0.51100000000E-03 0.  1.
         12    1    3    3    0    0  0.93088967952E+01 -0.91951496856E+01 -0.11559456201E+02  0.17459305970E+02  0.00000000000E+00 0. -1.
</event>
<event>
 7    1  0.1221195E-011  0.5930196E+02  0.7816164E-02  0.1266605E+00
        -11   -1    0    0    0    0  0.00000000000E+00  0.00000000000E+00  0.45593999997E+02  0.45594000000E+02  0.51100000000E-03 0.  1.
         11   -1    0    0    0    0 -0.00000000000E+00 -0.00000000000E+00 -0.45593999997E+02  0.45594000000E+02  0.51100000000E-03 0. -1.
    9900012    2    1    2    0    0  0.13902058738E+02  0.40232464779E+01 -0.28412425330E+02  0.59301958187E+02  0.50000025823E+02 0.  0.
        -12    1    1    2    0    0 -0.13902058738E+02 -0.40232464779E+01  0.28412425330E+02  0.31886041813E+02  0.00000000000E+00 0.  1.
         11    1    3    3    0    0 -0.23501810288E+01  0.13118106188E+02 -0.25122617145E+02  0.28438599707E+02  0.51100000000E-03 0. -1.
        -11    1    3    3    0    0 -0.21182382298E+01  0.67610775420E+00  0.72183899177E+01  0.75530926221E+01  0.51100000000E-03 0.  1.
         12    1    3    3    0    0  0.18370477996E+02 -0.97709674642E+01 -0.10508198102E+02  0.23310265858E+02  0.00000000000E+00 0. -1.
</event>
<event>
 7    1  0.1221195E-011  0.5930196E+02  0.7816164E-02  0.1266605E+00
        -11   -1    0    0    0    0  0.00000000000E+00  0.00000000000E+00  0.45593999997E+02  0.45594000000E+02  0.51100000000E-03 0. -1.
         11   -1    0    0    0    0 -0.00000000000E+00 -0.00000000000E+00 -0.45593999997E+02  0.45594000000E+02  0.51100000000E-03 0.  1.
    9900012    2    1    2    0    0  0.21939837981E+02  0.21371039306E+02 -0.88680351076E+01  0.59301955116E+02  0.50000020223E+02 0.  0.
        -12    1    1    2    0    0 -0.21939837981E+02 -0.21371039306E+02  0.88680351076E+01  0.31886044884E+02  0.00000000000E+00 0.  1.
         11    1    3    3    0    0  0.18764669602E+00  0.44004378591E+00  0.55412585107E+01  0.55618698258E+01  0.51100000000E-03 0. -1.
        -11    1    3    3    0    0 -0.11689255633E+02  0.87702678524E+01 -0.10388412738E+02  0.17929735495E+02  0.51100000000E-03 0.  1.
        -12    1    3    3    0    0  0.33441446918E+02  0.12160727668E+02 -0.40208808806E+01  0.35810349795E+02  0.00000000000E+00 0.  1.
</event>
<event>
 7    1  0.1221195E-011  0.5930191E+02  0.7816164E-02  0.1266605E+00
        -11   -1    0    0    0    0  0.00000000000E+00  0.00000000000E+00  0.45593999997E+02  0.45594000000E+02  0.51100000000E-03 0. -1.
         11   -1    0    0    0    0 -0.00000000000E+00 -0.00000000000E+00 -0.45593999997E+02  0.45594000000E+02  0.51100000000E-03 0.  1.
    9900012    2    1    2    0    0 -0.23181196397E+02  0.39190417756E+01  0.21540561346E+02  0.59301913098E+02  0.49999943592E+02 0.  0.
        -12    1    1    2    0    0  0.23181196397E+02 -0.39190417756E+01 -0.21540561346E+02  0.31886086902E+02  0.00000000000E+00 0.  1.
         11    1    3    3    0    0 -0.66882942814E+00 -0.10969006357E+02  0.13793967067E+02  0.17636325041E+02  0.51100000000E-03 0. -1.
        -11    1    3    3    0    0  0.50412292434E+01  0.11378167691E+02  0.60499295329E+01  0.13837569870E+02  0.51100000000E-03 0.  1.
        -12    1    3    3    0    0 -0.27553596212E+02  0.35098804414E+01  0.16966647460E+01  0.27828018187E+02  0.00000000000E+00 0.  1.
</event>
<event>
 7    1  0.1221195E-011  0.5930196E+02  0.7816164E-02  0.1266605E+00
        -11   -1    0    0    0    0  0.00000000000E+00  0.00000000000E+00  0.45593999997E+02  0.45594000000E+02  0.51100000000E-03 0.  1.
         11   -1    0    0    0    0 -0.00000000000E+00 -0.00000000000E+00 -0.45593999997E+02  0.45594000000E+02  0.51100000000E-03 0. -1.
    9900012    2    1    2    0    0 -0.29158617363E+02  0.11155225353E+02  0.64850091645E+01  0.59301962882E+02  0.50000034386E+02 0.  0.
        -12    1    1    2    0    0  0.29158617363E+02 -0.11155225353E+02 -0.64850091645E+01  0.31886037118E+02  0.00000000000E+00 0.  1.
         11    1    3    3    0    0 -0.17269447282E+02 -0.75352737534E+01  0.65985264977E+01  0.19963835107E+02  0.51100000000E-03 0. -1.
        -11    1    3    3    0    0 -0.30811079905E+00 -0.67785701794E+01  0.77253648503E+01  0.10282276415E+02  0.51100000000E-03 0.  1.
        -12    1    3    3    0    0 -0.11581059282E+02  0.25469069286E+02 -0.78388821835E+01  0.29055851360E+02  0.00000000000E+00 0.  1.
</event>
<event>
 7    1  0.1221195E-011  0.5930193E+02  0.7816164E-02  0.1266605E+00
        -11   -1    0    0    0    0  0.00000000000E+00  0.00000000000E+00  0.45593999997E+02  0.45594000000E+02  0.51100000000E-03 0. -1.
         11   -1    0    0    0    0 -0.00000000000E+00 -0.00000000000E+00 -0.45593999997E+02  0.45594000000E+02  0.51100000000E-03 0.  1.
    9900012    2    1    2    0    0  0.21685607924E+02 -0.22968129529E+02  0.43497957951E+01  0.59301932689E+02  0.49999979321E+02 0.  0.
        -12    1    1    2    0    0 -0.21685607924E+02  0.22968129529E+02 -0.43497957951E+01  0.31886067311E+02  0.00000000000E+00 0.  1.
         11    1    3    3    0    0  0.40367157174E+01 -0.17207405618E+01  0.17035018681E+02  0.17591130822E+02  0.51100000000E-03 0. -1.
        -11    1    3    3    0    0 -0.45038899512E+01  0.25264474049E+00  0.45061845627E+01  0.63760923481E+01  0.51100000000E-03 0.  1.
        -12    1    3    3    0    0  0.22152782158E+02 -0.21500033708E+02 -0.17191407449E+02  0.35334709519E+02  0.00000000000E+00 0.  1.
</event>
<event>
 7    1  0.1221195E-011  0.5930190E+02  0.7816164E-02  0.1266605E+00
        -11   -1    0    0    0    0  0.00000000000E+00  0.00000000000E+00  0.45593999997E+02  0.45594000000E+02  0.51100000000E-03 0. -1.
         11   -1    0    0    0    0 -0.00000000000E+00 -0.00000000000E+00 -0.45593999997E+02  0.45594000000E+02  0.51100000000E-03 0.  1.
    9900012    2    1    2    0    0 -0.16769389502E+02  0.26652694003E+02  0.50144786777E+01  0.59301897725E+02  0.49999915554E+02 0.  0.
        -12    1    1    2    0    0  0.16769389502E+02 -0.26652694003E+02 -0.50144786777E+01  0.31886102275E+02  0.00000000000E+00 0.  1.
         11    1    3    3    0    0 -0.38177720860E+01  0.20605599024E+02  0.48764351389E+01  0.21516173330E+02  0.51100000000E-03 0. -1.
        -11    1    3    3    0    0 -0.86050864675E+01  0.19437979776E+02 -0.64882371606E+01  0.22225656179E+02  0.51100000000E-03 0.  1.
         12    1    3    3    0    0 -0.43465309485E+01 -0.13390884797E+02  0.66262806994E+01  0.15560068215E+02  0.00000000000E+00 0. -1.
</event>
<event>
 7    1  0.1221195E-011  0.5930190E+02  0.7816164E-02  0.1266605E+00
        -11   -1    0    0    0    0  0.00000000000E+00  0.00000000000E+00  0.45593999997E+02  0.45594000000E+02  0.51100000000E-03 0.  1.
         11   -1    0    0    0    0 -0.00000000000E+00 -0.00000000000E+00 -0.45593999997E+02  0.45594000000E+02  0.51100000000E-03 0. -1.
    9900012    2    1    2    0    0  0.27359614801E+02  0.24520201479E+01 -0.16191432622E+02  0.59301899342E+02  0.49999918503E+02 0.  0.
        -12    1    1    2    0    0 -0.27359614801E+02 -0.24520201479E+01  0.16191432622E+02  0.31886100658E+02  0.00000000000E+00 0.  1.
         11    1    3    3    0    0  0.15831734753E+02  0.14434918031E+02 -0.15574925513E+02  0.26487525156E+02  0.51100000000E-03 0. -1.
        -11    1    3    3    0    0  0.20908874556E+02 -0.70598635224E+01  0.10313558934E+01  0.22092677596E+02  0.51100000000E-03 0.  1.
        -12    1    3    3    0    0 -0.93809945086E+01 -0.49230343607E+01 -0.16478630018E+01  0.10721696590E+02  0.00000000000E+00 0.  1.
</event>
<event>
 7    1  0.1221195E-011  0.5930195E+02  0.7816164E-02  0.1266605E+00
        -11   -1    0    0    0    0  0.00000000000E+00  0.00000000000E+00  0.45593999997E+02  0.45594000000E+02  0.51100000000E-03 0.  1.
         11   -1    0    0    0    0 -0.00000000000E+00 -0.00000000000E+00 -0.45593999997E+02  0.45594000000E+02  0.51100000000E-03 0. -1.
    9900012    2    1    2    0    0  0.80613719989E+01 -0.25167734874E+01 -0.30747359597E+02  0.59301953060E+02  0.50000016473E+02 0.  0.
        -12    1    1    2    0    0 -0.80613719989E+01  0.25167734874E+01  0.30747359597E+02  0.31886046940E+02  0.00000000000E+00 0.  1.
         11    1    3    3    0    0  0.47797945973E+01 -0.84135653964E+01 -0.35992284223E+02  0.37270350722E+02  0.51100000000E-03 0. -1.
        -11    1    3    3    0    0 -0.47835036353E+01 -0.52384079083E+01 -0.54143916343E+00  0.71144909215E+01  0.51100000000E-03 0.  1.
        -12    1    3    3    0    0  0.80650810369E+01  0.11135199817E+02  0.57863637899E+01  0.14917111417E+02  0.00000000000E+00 0.  1.
</event>
<event>
 7    1  0.1221195E-011  0.5930193E+02  0.7816164E-02  0.1266605E+00
        -11   -1    0    0    0    0  0.00000000000E+00  0.00000000000E+00  0.45593999997E+02  0.45594000000E+02  0.51100000000E-03 0.  1.
         11   -1    0    0    0    0 -0.00000000000E+00 -0.00000000000E+00 -0.45593999997E+02  0.45594000000E+02  0.51100000000E-03 0. -1.
    9900012    2    1    2    0    0  0.24697617264E+02 -0.15301253616E+02 -0.13138521411E+02  0.59301930854E+02  0.49999975974E+02 0.  0.
        -12    1    1    2    0    0 -0.24697617264E+02  0.15301253616E+02  0.13138521411E+02  0.31886069146E+02  0.00000000000E+00 0.  1.
         11    1    3    3    0    0  0.69889194701E+01  0.32029932391E+01 -0.14003762915E+01  0.78144235275E+01  0.51100000000E-03 0. -1.
        -11    1    3    3    0    0  0.20741888839E+02 -0.90007864964E+01 -0.25762241487E+02  0.34277298564E+02  0.51100000000E-03 0.  1.
        -12    1    3    3    0    0 -0.30331910452E+01 -0.95034603585E+01  0.14024096368E+02  0.17210208762E+02  0.00000000000E+00 0.  1.
</event>
<event>
 7    1  0.1221195E-011  0.5930197E+02  0.7816164E-02  0.1266605E+00
        -11   -1    0    0    0    0  0.00000000000E+00  0.00000000000E+00  0.45593999997E+02  0.45594000000E+02  0.51100000000E-03 0.  1.
         11   -1    0    0    0    0 -0.00000000000E+00 -0.00000000000E+00 -0.45593999997E+02  0.45594000000E+02  0.51100000000E-03 0. -1.
    9900012    2    1    2    0    0  0.16494912427E+01 -0.19158256595E+02 -0.25435397224E+02  0.59301967806E+02  0.50000043366E+02 0.  0.
        -12    1    1    2    0    0 -0.16494912427E+01  0.19158256595E+02  0.25435397224E+02  0.31886032194E+02  0.00000000000E+00 0.  1.
         11    1    3    3    0    0 -0.12124814904E+02  0.40489345482E+01 -0.71486927297E+00  0.12802970193E+02  0.51100000000E-03 0. -1.
        -11    1    3    3    0    0 -0.77621286768E+01 -0.61694264417E+01 -0.13694522137E+02  0.16907170107E+02  0.51100000000E-03 0.  1.
        -12    1    3    3    0    0  0.21536434823E+02 -0.17037764702E+02 -0.11026005815E+02  0.29591827506E+02  0.00000000000E+00 0.  1.
</event>
<event>
 7    1  0.1221195E-011  0.5930177E+02  0.7816164E-02  0.1266605E+00
        -11   -1    0    0    0    0  0.00000000000E+00  0.00000000000E+00  0.45593999997E+02  0.45594000000E+02  0.51100000000E-03 0.  1.
         11   -1    0    0    0    0 -0.00000000000E+00 -0.00000000000E+00 -0.45593999997E+02  0.45594000000E+02  0.51100000000E-03 0. -1.
    9900012    2    1    2    0    0 -0.76376196439E+01  0.23380110228E+02 -0.20292081146E+02  0.59301774991E+02  0.49999691717E+02 0.  0.
        -12    1    1    2    0    0  0.76376196439E+01 -0.23380110228E+02  0.20292081146E+02  0.31886225009E+02  0.00000000000E+00 0.  1.
         11    1    3    3    0    0 -0.12378470014E+02  0.21041875312E+01 -0.17123446530E+02  0.21233618306E+02  0.51100000000E-03 0. -1.
        -11    1    3    3    0    0  0.12203942586E+02  0.13443065031E+02 -0.13872102863E+02  0.22849233033E+02  0.51100000000E-03 0.  1.
         12    1    3    3    0    0 -0.74630922165E+01  0.78328576649E+01  0.10703468246E+02  0.15218923652E+02  0.00000000000E+00 0. -1.
</event>
<event>
 7    1  0.1221195E-011  0.5930194E+02  0.7816164E-02  0.1266605E+00
        -11   -1    0    0    0    0  0.00000000000E+00  0.00000000000E+00  0.45593999997E+02  0.45594000000E+02  0.51100000000E-03 0.  1.
         11   -1    0    0    0    0 -0.00000000000E+00 -0.00000000000E+00 -0.45593999997E+02  0.45594000000E+02  0.51100000000E-03 0. -1.
    9900012    2    1    2    0    0  0.27028759023E+02 -0.73164759927E+01  0.15252414055E+02  0.59301940824E+02  0.49999994157E+02 0.  0.
        -12    1    1    2    0    0 -0.27028759023E+02  0.73164759927E+01 -0.15252414055E+02  0.31886059176E+02  0.00000000000E+00 0.  1.
         11    1    3    3    0    0  0.12126608950E+02  0.51841874892E+01  0.39735749128E+01  0.13773878989E+02  0.51100000000E-03 0. -1.
        -11    1    3    3    0    0  0.24828749315E+02 -0.19322689446E+02  0.47213338512E+01  0.31813898119E+02  0.51100000000E-03 0.  1.
         12    1    3    3    0    0 -0.99265992424E+01  0.68220259638E+01  0.65575052913E+01  0.13714163715E+02  0.00000000000E+00 0. -1.
</event>
<event>
 7    1  0.1221195E-011  0.5930195E+02  0.7816164E-02  0.1266605E+00
        -11   -1    0    0    0    0  0.00000000000E+00  0.00000000000E+00  0.45593999997E+02  0.45594000000E+02  0.51100000000E-03 0.  1.
         11   -1    0    0    0    0 -0.00000000000E+00 -0.00000000000E+00 -0.45593999997E+02  0.45594000000E+02  0.51100000000E-03 0. -1.
    9900012    2    1    2    0    0  0.75219211140E-01 -0.94816883160E+01 -0.30443587238E+02  0.59301951716E+02  0.50000014021E+02 0.  0.
        -12    1    1    2    0    0 -0.75219211140E-01  0.94816883160E+01  0.30443587238E+02  0.31886048284E+02  0.00000000000E+00 0.  1.
         11    1    3    3    0    0 -0.14544394341E+02 -0.11471907079E+02  0.25913848842E+01  0.18704527116E+02  0.51100000000E-03 0. -1.
        -11    1    3    3    0    0  0.57491010697E+01  0.10642075173E+01  0.52716144459E+00  0.58704855165E+01  0.51100000000E-03 0.  1.
         12    1    3    3    0    0  0.88705124820E+01  0.92601124529E+00 -0.33562133567E+02  0.34726939083E+02  0.00000000000E+00 0. -1.
</event>
<event>
 7    1  0.1221195E-011  0.5930194E+02  0.7816164E-02  0.1266605E+00
        -11   -1    0    0    0    0  0.00000000000E+00  0.00000000000E+00  0.45593999997E+02  0.45594000000E+02  0.51100000000E-03 0.  1.
         11   -1    0    0    0    0 -0.00000000000E+00 -0.00000000000E+00 -0.45593999997E+02  0.45594000000E+02  0.51100000000E-03 0. -1.
    9900012    2    1    2    0    0  0.35648214206E+01 -0.23875343798E+02  0.20832208609E+02  0.59301938644E+02  0.49999990182E+02 0.  0.
        -12    1    1    2    0    0 -0.35648214206E+01  0.23875343798E+02 -0.20832208609E+02  0.31886061356E+02  0.00000000000E+00 0.  1.
         11    1    3    3    0    0  0.92331925384E+01 -0.15745410700E+02  0.26220494055E+00  0.18254822767E+02  0.51100000000E-03 0.  1.
        -11    1    3    3    0    0  0.48941806435E+01 -0.14782041738E+02  0.23532452192E+02  0.28217690702E+02  0.51100000000E-03 0. -1.
         12    1    3    3    0    0 -0.10562551761E+02  0.66521086400E+01 -0.29624485232E+01  0.12829425175E+02  0.00000000000E+00 0. -1.
</event>
<event>
 7    1  0.1221195E-011  0.5930189E+02  0.7816164E-02  0.1266605E+00
        -11   -1    0    0    0    0  0.00000000000E+00  0.00000000000E+00  0.45593999997E+02  0.45594000000E+02  0.51100000000E-03 0.  1.
         11   -1    0    0    0    0 -0.00000000000E+00 -0.00000000000E+00 -0.45593999997E+02  0.45594000000E+02  0.51100000000E-03 0. -1.
    9900012    2    1    2    0    0 -0.25978937241E+01  0.26066778141E+02 -0.18179609922E+02  0.59301887171E+02  0.49999896306E+02 0.  0.
        -12    1    1    2    0    0  0.25978937241E+01 -0.26066778141E+02  0.18179609922E+02  0.31886112829E+02  0.00000000000E+00 0.  1.
         11    1    3    3    0    0  0.26361421359E+01  0.29804143842E+01 -0.49906605017E+00  0.40101349660E+01  0.51100000000E-03 0. -1.
        -11    1    3    3    0    0  0.97858138717E+01 -0.98252346371E+01  0.21553561391E+01  0.14033636348E+02  0.51100000000E-03 0.  1.
        -12    1    3    3    0    0 -0.15019849732E+02  0.32911598394E+02 -0.19835900011E+02  0.41258115857E+02  0.00000000000E+00 0.  1.
</event>
<event>
 7    1  0.1221195E-011  0.5930195E+02  0.7816164E-02  0.1266605E+00
        -11   -1    0    0    0    0  0.00000000000E+00  0.00000000000E+00  0.45593999997E+02  0.45594000000E+02  0.51100000000E-03 0. -1.
         11   -1    0    0    0    0 -0.00000000000E+00 -0.00000000000E+00 -0.45593999997E+02  0.45594000000E+02  0.51100000000E-03 0.  1.
    9900012    2    1    2    0    0 -0.67570625213E+01 -0.31161519427E+02  0.14824847077E+00  0.59301950315E+02  0.50000011466E+02 0.  0.
        -12    1    1    2    0    0  0.67570625213E+01  0.31161519427E+02 -0.14824847077E+00  0.31886049685E+02  0.00000000000E+00 0.  1.
         11    1    3    3    0    0 -0.25240834713E+01 -0.63718027911E+01 -0.29882982488E+01  0.74766834133E+01  0.51100000000E-03 0. -1.
        -11    1    3    3    0    0 -0.95825726753E+01  0.11108821298E+02  0.49545827807E+01  0.15484815159E+02  0.51100000000E-03 0.  1.
         12    1    3    3    0    0  0.53495936253E+01 -0.35898537934E+02 -0.18180360612E+01  0.36340451743E+02  0.00000000000E+00 0. -1.
</event>
<event>
 7    1  0.1221195E-011  0.5930194E+02  0.7816164E-02  0.1266605E+00
        -11   -1    0    0    0    0  0.00000000000E+00  0.00000000000E+00  0.45593999997E+02  0.45594000000E+02  0.51100000000E-03 0.  1.
         11   -1    0    0    0    0 -0.00000000000E+00 -0.00000000000E+00 -0.45593999997E+02  0.45594000000E+02  0.51100000000E-03 0. -1.
    9900012    2    1    2    0    0 -0.21769974192E+02  0.39962340500E+01 -0.22952543280E+02  0.59301938689E+02  0.49999990264E+02 0.  0.
        -12    1    1    2    0    0  0.21769974192E+02 -0.39962340500E+01  0.22952543280E+02  0.31886061311E+02  0.00000000000E+00 0.  1.
         11    1    3    3    0    0 -0.35371821615E+00  0.98633765243E+01  0.15892358020E+01  0.99968486900E+01  0.51100000000E-03 0. -1.
        -11    1    3    3    0    0  0.94514858877E+01 -0.25446356746E+01 -0.93771317135E-01  0.97884906662E+01  0.51100000000E-03 0.  1.
         12    1    3    3    0    0 -0.30867741864E+02 -0.33225067996E+01 -0.24448007764E+02  0.39516599333E+02  0.00000000000E+00 0. -1.
</event>
<event>
 7    1  0.1221195E-011  0.5930195E+02  0.7816164E-02  0.1266605E+00
        -11   -1    0    0    0    0  0.00000000000E+00  0.00000000000E+00  0.45593999997E+02  0.45594000000E+02  0.51100000000E-03 0.  1.
         11   -1    0    0    0    0 -0.00000000000E+00 -0.00000000000E+00 -0.45593999997E+02  0.45594000000E+02  0.51100000000E-03 0. -1.
    9900012    2    1    2    0    0  0.28557374748E+02 -0.65243224491E-01  0.14184215139E+02  0.59301954960E+02  0.50000019938E+02 0.  0.
        -12    1    1    2    0    0 -0.28557374748E+02  0.65243224491E-01 -0.14184215139E+02  0.31886045040E+02  0.00000000000E+00 0.  1.
         11    1    3    3    0    0  0.16236421540E+02  0.82972630297E+01  0.30202090342E+02  0.35279345508E+02  0.51100000000E-03 0.  1.
        -11    1    3    3    0    0  0.31578618794E+01  0.81136439717E+00 -0.83377241758E+01  0.89525442488E+01  0.51100000000E-03 0. -1.
        -12    1    3    3    0    0  0.91630913288E+01 -0.91738706514E+01 -0.76801510269E+01  0.15070065203E+02  0.00000000000E+00 0.  1.
</event>
<event>
 7    1  0.1221195E-011  0.5930196E+02  0.7816164E-02  0.1266605E+00
        -11   -1    0    0    0    0  0.00000000000E+00  0.00000000000E+00  0.45593999997E+02  0.45594000000E+02  0.51100000000E-03 0. -1.
         11   -1    0    0    0    0 -0.00000000000E+00 -0.00000000000E+00 -0.45593999997E+02  0.45594000000E+02  0.51100000000E-03 0.  1.
    9900012    2    1    2    0    0 -0.31118728023E+02 -0.40150674285E+01  0.56766068618E+01  0.59301955001E+02  0.50000020012E+02 0.  0.
        -12    1    1    2    0    0  0.31118728023E+02  0.40150674285E+01 -0.56766068618E+01  0.31886044999E+02  0.00000000000E+00 0.  1.
         11    1    3    3    0    0 -0.54848678700E+01  0.10432651719E+02  0.39725563329E+01  0.12438054571E+02  0.51100000000E-03 0. -1.
        -11    1    3    3    0    0  0.44745165407E+01  0.62943181749E+01 -0.56516135162E+01  0.95697688142E+01  0.51100000000E-03 0.  1.
         12    1    3    3    0    0 -0.30108376694E+02 -0.20742037322E+02  0.73556640450E+01  0.37294131615E+02  0.00000000000E+00 0. -1.
</event>
<event>
 7    1  0.1221195E-011  0.5930200E+02  0.7816164E-02  0.1266605E+00
        -11   -1    0    0    0    0  0.00000000000E+00  0.00000000000E+00  0.45593999997E+02  0.45594000000E+02  0.51100000000E-03 0.  1.
         11   -1    0    0    0    0 -0.00000000000E+00 -0.00000000000E+00 -0.45593999997E+02  0.45594000000E+02  0.51100000000E-03 0. -1.
    9900012    2    1    2    0    0 -0.57191395558E+01 -0.64861719197E+01 -0.30691006630E+02  0.59302001954E+02  0.50000105644E+02 0.  0.
        -12    1    1    2    0    0  0.57191395558E+01  0.64861719197E+01  0.30691006630E+02  0.31885998046E+02  0.00000000000E+00 0.  1.
         11    1    3    3    0    0  0.16210760728E+01 -0.16730424867E+02 -0.29116027059E+02  0.33619607908E+02  0.51100000000E-03 0. -1.
        -11    1    3    3    0    0  0.52862951014E+01 -0.10203478306E+01 -0.61304168174E+01  0.81589237164E+01  0.51100000000E-03 0.  1.
        -12    1    3    3    0    0 -0.12626510730E+02  0.11264600778E+02  0.45554372471E+01  0.17523470330E+02  0.00000000000E+00 0.  1.
</event>
<event>
 7    1  0.1221195E-011  0.5930200E+02  0.7816164E-02  0.1266605E+00
        -11   -1    0    0    0    0  0.00000000000E+00  0.00000000000E+00  0.45593999997E+02  0.45594000000E+02  0.51100000000E-03 0. -1.
         11   -1    0    0    0    0 -0.00000000000E+00 -0.00000000000E+00 -0.45593999997E+02  0.45594000000E+02  0.51100000000E-03 0.  1.
    9900012    2    1    2    0    0 -0.19673951819E+02  0.38671707337E+01  0.24793096195E+02  0.59301999803E+02  0.50000101720E+02 0.  0.
        -12    1    1    2    0    0  0.19673951819E+02 -0.38671707337E+01 -0.24793096195E+02  0.31886000197E+02  0.00000000000E+00 0.  1.
         11    1    3    3    0    0 -0.81072417641E+01 -0.10232775510E+01  0.19858648721E+02  0.21474179734E+02  0.51100000000E-03 0. -1.
        -11    1    3    3    0    0  0.89753736529E+01  0.74971044152E+01  0.11201151952E+02  0.16193508333E+02  0.51100000000E-03 0.  1.
        -12    1    3    3    0    0 -0.20542083708E+02 -0.26066561306E+01 -0.62667044782E+01  0.21634311735E+02  0.00000000000E+00 0.  1.
</event>
<event>
 7    1  0.1221195E-011  0.5930195E+02  0.7816164E-02  0.1266605E+00
        -11   -1    0    0    0    0  0.00000000000E+00  0.00000000000E+00  0.45593999997E+02  0.45594000000E+02  0.51100000000E-03 0.  1.
         11   -1    0    0    0    0 -0.00000000000E+00 -0.00000000000E+00 -0.45593999997E+02  0.45594000000E+02  0.51100000000E-03 0. -1.
    9900012    2    1    2    0    0 -0.10479770712E+01 -0.13220819653E+02 -0.28997097144E+02  0.59301953349E+02  0.50000017001E+02 0.  0.
        -12    1    1    2    0    0  0.10479770712E+01  0.13220819653E+02  0.28997097144E+02  0.31886046651E+02  0.00000000000E+00 0.  1.
         11    1    3    3    0    0  0.96036501768E+01 -0.92164483425E+01 -0.16131538413E+02  0.20914099277E+02  0.51100000000E-03 0. -1.
        -11    1    3    3    0    0 -0.33987500222E+00  0.14748982992E+02 -0.57645875624E+01  0.15839144053E+02  0.51100000000E-03 0.  1.
         12    1    3    3    0    0 -0.10311752246E+02 -0.18753354302E+02 -0.71009711688E+01  0.22548710019E+02  0.00000000000E+00 0. -1.
</event>
<event>
 7    1  0.1221195E-011  0.5930192E+02  0.7816164E-02  0.1266605E+00
        -11   -1    0    0    0    0  0.00000000000E+00  0.00000000000E+00  0.45593999997E+02  0.45594000000E+02  0.51100000000E-03 0.  1.
         11   -1    0    0    0    0 -0.00000000000E+00 -0.00000000000E+00 -0.45593999997E+02  0.45594000000E+02  0.51100000000E-03 0. -1.
    9900012    2    1    2    0    0  0.29560444462E+02 -0.72018664050E+01 -0.95412438286E+01  0.59301920117E+02  0.49999956393E+02 0.  0.
        -12    1    1    2    0    0 -0.29560444462E+02  0.72018664050E+01  0.95412438286E+01  0.31886079883E+02  0.00000000000E+00 0.  1.
         11    1    3    3    0    0 -0.17178471881E+01  0.47457326463E+00  0.11158941040E+01  0.21027217262E+01  0.51100000000E-03 0. -1.
        -11    1    3    3    0    0  0.13872532616E+02  0.18355018073E+02  0.26791070101E+01  0.23163148842E+02  0.51100000000E-03 0.  1.
         12    1    3    3    0    0  0.17405759034E+02 -0.26031457743E+02 -0.13336244943E+02  0.34036049549E+02  0.00000000000E+00 0. -1.
</event>
<event>
 7    1  0.1221195E-011  0.5930193E+02  0.7816164E-02  0.1266605E+00
        -11   -1    0    0    0    0  0.00000000000E+00  0.00000000000E+00  0.45593999997E+02  0.45594000000E+02  0.51100000000E-03 0.  1.
         11   -1    0    0    0    0 -0.00000000000E+00 -0.00000000000E+00 -0.45593999997E+02  0.45594000000E+02  0.51100000000E-03 0. -1.
    9900012    2    1    2    0    0  0.18652463081E+02 -0.25565996067E+02 -0.38970009478E+01  0.59301934858E+02  0.49999983277E+02 0.  0.
        -12    1    1    2    0    0 -0.18652463081E+02  0.25565996067E+02  0.38970009478E+01  0.31886065142E+02  0.00000000000E+00 0.  1.
         11    1    3    3    0    0  0.15395268356E+02 -0.14125536035E+02 -0.53176138964E+01  0.21559732694E+02  0.51100000000E-03 0. -1.
        -11    1    3    3    0    0 -0.55748858300E-01  0.52875068204E+01 -0.13866381864E+02  0.14840396982E+02  0.51100000000E-03 0.  1.
        -12    1    3    3    0    0  0.33129435825E+01 -0.16727966852E+02  0.15286994813E+02  0.22901805182E+02  0.00000000000E+00 0.  1.
</event>
<event>
 7    1  0.1221195E-011  0.5930195E+02  0.7816164E-02  0.1266605E+00
        -11   -1    0    0    0    0  0.00000000000E+00  0.00000000000E+00  0.45593999997E+02  0.45594000000E+02  0.51100000000E-03 0.  1.
         11   -1    0    0    0    0 -0.00000000000E+00 -0.00000000000E+00 -0.45593999997E+02  0.45594000000E+02  0.51100000000E-03 0. -1.
    9900012    2    1    2    0    0 -0.28808475886E+02 -0.13124572102E+02 -0.38127822580E+01  0.59301953141E+02  0.50000016620E+02 0.  0.
        -12    1    1    2    0    0  0.28808475886E+02  0.13124572102E+02  0.38127822580E+01  0.31886046859E+02  0.00000000000E+00 0.  1.
         11    1    3    3    0    0  0.79626389849E+01 -0.81761513290E+01 -0.78058104841E+01  0.13826921123E+02  0.51100000000E-03 0. -1.
        -11    1    3    3    0    0  0.11561022456E+01 -0.30632711775E+01  0.66456776655E+01  0.74084569651E+01  0.51100000000E-03 0.  1.
        -12    1    3    3    0    0 -0.37927217117E+02 -0.18851495952E+01 -0.26526494393E+01  0.38066575053E+02  0.00000000000E+00 0.  1.
</event>
<event>
 7    1  0.1221195E-011  0.5930197E+02  0.7816164E-02  0.1266605E+00
        -11   -1    0    0    0    0  0.00000000000E+00  0.00000000000E+00  0.45593999997E+02  0.45594000000E+02  0.51100000000E-03 0.  1.
         11   -1    0    0    0    0 -0.00000000000E+00 -0.00000000000E+00 -0.45593999997E+02  0.45594000000E+02  0.51100000000E-03 0. -1.
    9900012    2    1    2    0    0 -0.23968559972E+02 -0.18514068441E+02  0.99727754529E+01  0.59301970965E+02  0.50000049128E+02 0.  0.
        -12    1    1    2    0    0  0.23968559972E+02  0.18514068441E+02 -0.99727754529E+01  0.31886029035E+02  0.00000000000E+00 0.  1.
         11    1    3    3    0    0 -0.21786617921E+02  0.87559604249E+01  0.54770304026E-02  0.23480280953E+02  0.51100000000E-03 0. -1.
        -11    1    3    3    0    0 -0.32704427588E+00  0.13429947311E+01 -0.37789498780E+01  0.40238110353E+01  0.51100000000E-03 0.  1.
        -12    1    3    3    0    0 -0.18548977755E+01 -0.28613023597E+02  0.13746248300E+02  0.31797878977E+02  0.00000000000E+00 0.  1.
</event>
<event>
 7    1  0.1221195E-011  0.5930195E+02  0.7816164E-02  0.1266605E+00
        -11   -1    0    0    0    0  0.00000000000E+00  0.00000000000E+00  0.45593999997E+02  0.45594000000E+02  0.51100000000E-03 0.  1.
         11   -1    0    0    0    0 -0.00000000000E+00 -0.00000000000E+00 -0.45593999997E+02  0.45594000000E+02  0.51100000000E-03 0. -1.
    9900012    2    1    2    0    0  0.12441097476E+02 -0.28141450732E+02  0.83664711962E+01  0.59301952958E+02  0.50000016286E+02 0.  0.
        -12    1    1    2    0    0 -0.12441097476E+02  0.28141450732E+02 -0.83664711962E+01  0.31886047042E+02  0.00000000000E+00 0.  1.
         11    1    3    3    0    0  0.26230199119E+01 -0.17507337572E+02 -0.18136566597E+02  0.25344075254E+02  0.51100000000E-03 0. -1.
        -11    1    3    3    0    0  0.16668185301E+00 -0.42004462324E+00  0.16971893153E+02  0.16977908522E+02  0.51100000000E-03 0.  1.
        -12    1    3    3    0    0  0.96513957112E+01 -0.10214068537E+02  0.95311446400E+01  0.16979969181E+02  0.00000000000E+00 0.  1.
</event>
<event>
 7    1  0.1221195E-011  0.5930195E+02  0.7816164E-02  0.1266605E+00
        -11   -1    0    0    0    0  0.00000000000E+00  0.00000000000E+00  0.45593999997E+02  0.45594000000E+02  0.51100000000E-03 0.  1.
         11   -1    0    0    0    0 -0.00000000000E+00 -0.00000000000E+00 -0.45593999997E+02  0.45594000000E+02  0.51100000000E-03 0. -1.
    9900012    2    1    2    0    0  0.30730502791E+02 -0.23560911395E+00 -0.85030025369E+01  0.59301947162E+02  0.50000005715E+02 0.  0.
        -12    1    1    2    0    0 -0.30730502791E+02  0.23560911395E+00  0.85030025369E+01  0.31886052838E+02  0.00000000000E+00 0.  1.
         11    1    3    3    0    0  0.32470510781E+02  0.78744427421E+00  0.13615502879E+02  0.35218405100E+02  0.51100000000E-03 0. -1.
        -11    1    3    3    0    0  0.29087024045E+01 -0.12232134021E+01 -0.28196902136E+01  0.42317199656E+01  0.51100000000E-03 0.  1.
        -12    1    3    3    0    0 -0.46487103940E+01  0.20016001393E+00 -0.19298815202E+02  0.19851822097E+02  0.00000000000E+00 0.  1.
</event>
<event>
 7    1  0.1221195E-011  0.5930194E+02  0.7816164E-02  0.1266605E+00
        -11   -1    0    0    0    0  0.00000000000E+00  0.00000000000E+00  0.45593999997E+02  0.45594000000E+02  0.51100000000E-03 0. -1.
         11   -1    0    0    0    0 -0.00000000000E+00 -0.00000000000E+00 -0.45593999997E+02  0.45594000000E+02  0.51100000000E-03 0.  1.
    9900012    2    1    2    0    0  0.22526942251E+02  0.18093056135E+02  0.13487001279E+02  0.59301937042E+02  0.49999987259E+02 0.  0.
        -12    1    1    2    0    0 -0.22526942251E+02 -0.18093056135E+02 -0.13487001279E+02  0.31886062958E+02  0.00000000000E+00 0.  1.
         11    1    3    3    0    0  0.16318311333E+00  0.13792953744E+02  0.21133046970E+02  0.25236439452E+02  0.51100000000E-03 0. -1.
        -11    1    3    3    0    0  0.15080079196E+02  0.12982427353E+02  0.82638055680E+00  0.19915700179E+02  0.51100000000E-03 0.  1.
        -12    1    3    3    0    0  0.72836799416E+01 -0.86823249622E+01 -0.84724262478E+01  0.14149797411E+02  0.00000000000E+00 0.  1.
</event>
<event>
 7    1  0.1221195E-011  0.5930189E+02  0.7816164E-02  0.1266605E+00
        -11   -1    0    0    0    0  0.00000000000E+00  0.00000000000E+00  0.45593999997E+02  0.45594000000E+02  0.51100000000E-03 0.  1.
         11   -1    0    0    0    0 -0.00000000000E+00 -0.00000000000E+00 -0.45593999997E+02  0.45594000000E+02  0.51100000000E-03 0. -1.
    9900012    2    1    2    0    0  0.27466839302E+02 -0.13922480579E+02  0.82741358465E+01  0.59301889376E+02  0.49999900329E+02 0.  0.
        -12    1    1    2    0    0 -0.27466839302E+02  0.13922480579E+02 -0.82741358465E+01  0.31886110624E+02  0.00000000000E+00 0.  1.
         11    1    3    3    0    0  0.17437137790E+02 -0.94207396851E+01 -0.72573810121E+01  0.21106247652E+02  0.51100000000E-03 0. -1.
        -11    1    3    3    0    0  0.18697079835E+02  0.66470549336E+01  0.46843570897E+01  0.20388902257E+02  0.51100000000E-03 0.  1.
         12    1    3    3    0    0 -0.86673783232E+01 -0.11148795828E+02  0.10847159769E+02  0.17806739467E+02  0.00000000000E+00 0. -1.
</event>
<event>
 7    1  0.1221195E-011  0.5930194E+02  0.7816164E-02  0.1266605E+00
        -11   -1    0    0    0    0  0.00000000000E+00  0.00000000000E+00  0.45593999997E+02  0.45594000000E+02  0.51100000000E-03 0.  1.
         11   -1    0    0    0    0 -0.00000000000E+00 -0.00000000000E+00 -0.45593999997E+02  0.45594000000E+02  0.51100000000E-03 0. -1.
    9900012    2    1    2    0    0 -0.21009016162E+02  0.19093820674E+02 -0.14517848008E+02  0.59301942564E+02  0.49999997330E+02 0.  0.
        -12    1    1    2    0    0  0.21009016162E+02 -0.19093820674E+02  0.14517848008E+02  0.31886057436E+02  0.00000000000E+00 0.  1.
         11    1    3    3    0    0 -0.42120807935E+00  0.95129249646E+01 -0.54136766147E+01  0.10953586279E+02  0.51100000000E-03 0. -1.
        -11    1    3    3    0    0 -0.28837767076E+02  0.19132139886E+02 -0.44293961592E+01  0.34889470290E+02  0.51100000000E-03 0.  1.
        -12    1    3    3    0    0  0.82499589931E+01 -0.95512441767E+01 -0.46747752346E+01  0.13458885994E+02  0.00000000000E+00 0.  1.
</event>
<event>
 7    1  0.1221195E-011  0.5930197E+02  0.7816164E-02  0.1266605E+00
        -11   -1    0    0    0    0  0.00000000000E+00  0.00000000000E+00  0.45593999997E+02  0.45594000000E+02  0.51100000000E-03 0. -1.
         11   -1    0    0    0    0 -0.00000000000E+00 -0.00000000000E+00 -0.45593999997E+02  0.45594000000E+02  0.51100000000E-03 0.  1.
    9900012    2    1    2    0    0 -0.23621498785E+01  0.23137955874E+02  0.21812253320E+02  0.59301966240E+02  0.50000040509E+02 0.  0.
        -12    1    1    2    0    0  0.23621498785E+01 -0.23137955874E+02 -0.21812253320E+02  0.31886033760E+02  0.00000000000E+00 0.  1.
         11    1    3    3    0    0 -0.28424015873E+01  0.54082185527E+01  0.22123624347E+02  0.22951750025E+02  0.51100000000E-03 0. -1.
        -11    1    3    3    0    0 -0.12409405491E+02  0.15117182984E+01  0.70654668017E+01  0.14359646870E+02  0.51100000000E-03 0.  1.
        -12    1    3    3    0    0  0.12889657200E+02  0.16218019023E+02 -0.73768378288E+01  0.21990569344E+02  0.00000000000E+00 0.  1.
</event>
<event>
 7    1  0.1221195E-011  0.5930194E+02  0.7816164E-02  0.1266605E+00
        -11   -1    0    0    0    0  0.00000000000E+00  0.00000000000E+00  0.45593999997E+02  0.45594000000E+02  0.51100000000E-03 0. -1.
         11   -1    0    0    0    0 -0.00000000000E+00 -0.00000000000E+00 -0.45593999997E+02  0.45594000000E+02  0.51100000000E-03 0.  1.
    9900012    2    1    2    0    0 -0.29728195282E+02  0.11260919470E+02  0.24793398654E+01  0.59301936771E+02  0.49999986766E+02 0.  0.
        -12    1    1    2    0    0  0.29728195282E+02 -0.11260919470E+02 -0.24793398654E+01  0.31886063229E+02  0.00000000000E+00 0.  1.
         11    1    3    3    0    0 -0.21809276715E+02  0.13535839866E+02  0.16590508551E+02  0.30563188413E+02  0.51100000000E-03 0. -1.
        -11    1    3    3    0    0 -0.80531800227E+01 -0.29889390330E+01  0.47821942537E+01  0.98314214213E+01  0.51100000000E-03 0.  1.
        -12    1    3    3    0    0  0.13426145509E+00  0.71401863700E+00 -0.18893362940E+02  0.18907326937E+02  0.00000000000E+00 0.  1.
</event>
<event>
 7    1  0.1221195E-011  0.5930195E+02  0.7816164E-02  0.1266605E+00
        -11   -1    0    0    0    0  0.00000000000E+00  0.00000000000E+00  0.45593999997E+02  0.45594000000E+02  0.51100000000E-03 0.  1.
         11   -1    0    0    0    0 -0.00000000000E+00 -0.00000000000E+00 -0.45593999997E+02  0.45594000000E+02  0.51100000000E-03 0. -1.
    9900012    2    1    2    0    0 -0.10672139962E+01  0.14073882227E+02 -0.28592081144E+02  0.59301949590E+02  0.50000010144E+02 0.  0.
        -12    1    1    2    0    0  0.10672139962E+01 -0.14073882227E+02  0.28592081144E+02  0.31886050410E+02  0.00000000000E+00 0.  1.
         11    1    3    3    0    0 -0.85568934735E+01  0.76295455361E+01 -0.15716853814E+01  0.11571542084E+02  0.51100000000E-03 0. -1.
        -11    1    3    3    0    0 -0.41295362202E+01 -0.12153148436E+02 -0.21625300251E+02  0.25147677776E+02  0.51100000000E-03 0.  1.
         12    1    3    3    0    0  0.11619215698E+02  0.18597485127E+02 -0.53950955112E+01  0.22582729730E+02  0.00000000000E+00 0. -1.
</event>
<event>
 7    1  0.1221195E-011  0.5930190E+02  0.7816164E-02  0.1266605E+00
        -11   -1    0    0    0    0  0.00000000000E+00  0.00000000000E+00  0.45593999997E+02  0.45594000000E+02  0.51100000000E-03 0.  1.
         11   -1    0    0    0    0 -0.00000000000E+00 -0.00000000000E+00 -0.45593999997E+02  0.45594000000E+02  0.51100000000E-03 0. -1.
    9900012    2    1    2    0    0  0.29964361934E+02  0.62515491138E+01  0.89318862510E+01  0.59301898883E+02  0.49999917667E+02 0.  0.
        -12    1    1    2    0    0 -0.29964361934E+02 -0.62515491138E+01 -0.89318862510E+01  0.31886101117E+02  0.00000000000E+00 0.  1.
         11    1    3    3    0    0  0.67223448678E+01  0.90202046843E+01 -0.15186266076E+02  0.18899118780E+02  0.51100000000E-03 0. -1.
        -11    1    3    3    0    0  0.61065684247E+00 -0.82512963032E+01  0.10705631041E+02  0.13530237570E+02  0.51100000000E-03 0.  1.
        -12    1    3    3    0    0  0.22631360224E+02  0.54826407326E+01  0.13412521286E+02  0.26872542534E+02  0.00000000000E+00 0.  1.
</event>
<event>
 7    1  0.1221195E-011  0.5930193E+02  0.7816164E-02  0.1266605E+00
        -11   -1    0    0    0    0  0.00000000000E+00  0.00000000000E+00  0.45593999997E+02  0.45594000000E+02  0.51100000000E-03 0. -1.
         11   -1    0    0    0    0 -0.00000000000E+00 -0.00000000000E+00 -0.45593999997E+02  0.45594000000E+02  0.51100000000E-03 0.  1.
    9900012    2    1    2    0    0 -0.24069841025E+01 -0.25519836630E+02  0.18964854370E+02  0.59301931955E+02  0.49999977982E+02 0.  0.
        -12    1    1    2    0    0  0.24069841025E+01  0.25519836630E+02 -0.18964854370E+02  0.31886068045E+02  0.00000000000E+00 0.  1.
         11    1    3    3    0    0 -0.26360751838E+01  0.32031270796E+01  0.36759639678E+01  0.55427093390E+01  0.51100000000E-03 0. -1.
        -11    1    3    3    0    0 -0.37647572216E+01 -0.19257526040E+01 -0.13547317716E+02  0.14191960315E+02  0.51100000000E-03 0.  1.
         12    1    3    3    0    0  0.39938483029E+01 -0.26797211106E+02  0.28836208118E+02  0.39567262301E+02  0.00000000000E+00 0. -1.
</event>
<event>
 7    1  0.1221195E-011  0.5930197E+02  0.7816164E-02  0.1266605E+00
        -11   -1    0    0    0    0  0.00000000000E+00  0.00000000000E+00  0.45593999997E+02  0.45594000000E+02  0.51100000000E-03 0.  1.
         11   -1    0    0    0    0 -0.00000000000E+00 -0.00000000000E+00 -0.45593999997E+02  0.45594000000E+02  0.51100000000E-03 0. -1.
    9900012    2    1    2    0    0 -0.31848059233E+02  0.14699651253E+01 -0.50938870098E+00  0.59301966205E+02  0.50000040445E+02 0.  0.
        -12    1    1    2    0    0  0.31848059233E+02 -0.14699651253E+01  0.50938870098E+00  0.31886033795E+02  0.00000000000E+00 0.  1.
         11    1    3    3    0    0 -0.58892760684E+01  0.79625057065E+01  0.11428806914E+02  0.15122919608E+02  0.51100000000E-03 0. -1.
        -11    1    3    3    0    0 -0.21168873054E+02 -0.16093112344E+02  0.19109590914E+01  0.26660105330E+02  0.51100000000E-03 0.  1.
         12    1    3    3    0    0 -0.47899101101E+01  0.96005717626E+01 -0.13849154706E+02  0.17518941267E+02  0.00000000000E+00 0. -1.
</event>
<event>
 7    1  0.1221195E-011  0.5930193E+02  0.7816164E-02  0.1266605E+00
        -11   -1    0    0    0    0  0.00000000000E+00  0.00000000000E+00  0.45593999997E+02  0.45594000000E+02  0.51100000000E-03 0.  1.
         11   -1    0    0    0    0 -0.00000000000E+00 -0.00000000000E+00 -0.45593999997E+02  0.45594000000E+02  0.51100000000E-03 0. -1.
    9900012    2    1    2    0    0  0.15957965707E+01 -0.23169382425E+01 -0.31761720351E+02  0.59301927034E+02  0.49999969008E+02 0.  0.
        -12    1    1    2    0    0 -0.15957965707E+01  0.23169382425E+01  0.31761720351E+02  0.31886072966E+02  0.00000000000E+00 0.  1.
         11    1    3    3    0    0  0.57482140520E+01 -0.80136451311E+01 -0.11932506661E+02  0.15480477659E+02  0.51100000000E-03 0. -1.
        -11    1    3    3    0    0 -0.49988526765E+01 -0.65904971146E+01  0.91492981763E+01  0.12334214109E+02  0.51100000000E-03 0.  1.
        -12    1    3    3    0    0  0.84643519527E+00  0.12287204003E+02 -0.28978511866E+02  0.31487235267E+02  0.00000000000E+00 0.  1.
</event>
<event>
 7    1  0.1221195E-011  0.5930195E+02  0.7816164E-02  0.1266605E+00
        -11   -1    0    0    0    0  0.00000000000E+00  0.00000000000E+00  0.45593999997E+02  0.45594000000E+02  0.51100000000E-03 0.  1.
         11   -1    0    0    0    0 -0.00000000000E+00 -0.00000000000E+00 -0.45593999997E+02  0.45594000000E+02  0.51100000000E-03 0. -1.
    9900012    2    1    2    0    0  0.68705432507E+01 -0.15860426619E+02 -0.26794827437E+02  0.59301948591E+02  0.50000008322E+02 0.  0.
        -12    1    1    2    0    0 -0.68705432507E+01  0.15860426619E+02  0.26794827437E+02  0.31886051409E+02  0.00000000000E+00 0.  1.
         11    1    3    3    0    0  0.17155944310E+02 -0.13279175407E+02 -0.16140539989E+02  0.27040339422E+02  0.51100000000E-03 0.  1.
        -11    1    3    3    0    0  0.69885131734E+01  0.20098208389E+00 -0.12849020681E+02  0.14627954160E+02  0.51100000000E-03 0. -1.
        -12    1    3    3    0    0 -0.17273914232E+02 -0.27822332955E+01  0.21947332337E+01  0.17633655009E+02  0.00000000000E+00 0.  1.
</event>
<event>
 7    1  0.1221195E-011  0.5930195E+02  0.7816164E-02  0.1266605E+00
        -11   -1    0    0    0    0  0.00000000000E+00  0.00000000000E+00  0.45593999997E+02  0.45594000000E+02  0.51100000000E-03 0. -1.
         11   -1    0    0    0    0 -0.00000000000E+00 -0.00000000000E+00 -0.45593999997E+02  0.45594000000E+02  0.51100000000E-03 0.  1.
    9900012    2    1    2    0    0 -0.29941392118E+02  0.72843511078E+01  0.81958374405E+01  0.59301945299E+02  0.50000002319E+02 0.  0.
        -12    1    1    2    0    0  0.29941392118E+02 -0.72843511078E+01 -0.81958374405E+01  0.31886054701E+02  0.00000000000E+00 0.  1.
         11    1    3    3    0    0 -0.18283746818E+02  0.23805069998E+01  0.14506401157E+02  0.23460560225E+02  0.51100000000E-03 0. -1.
        -11    1    3    3    0    0 -0.14552189780E+02 -0.81323701116E+01  0.59623201730E+01  0.17704545550E+02  0.51100000000E-03 0.  1.
        -12    1    3    3    0    0  0.28945444810E+01  0.13036214220E+02 -0.12272883890E+02  0.18136839523E+02  0.00000000000E+00 0.  1.
</event>
<event>
 7    1  0.1221195E-011  0.5930194E+02  0.7816164E-02  0.1266605E+00
        -11   -1    0    0    0    0  0.00000000000E+00  0.00000000000E+00  0.45593999997E+02  0.45594000000E+02  0.51100000000E-03 0. -1.
         11   -1    0    0    0    0 -0.00000000000E+00 -0.00000000000E+00 -0.45593999997E+02  0.45594000000E+02  0.51100000000E-03 0.  1.
    9900012    2    1    2    0    0 -0.28528578130E+02  0.14233762267E+02  0.49094618307E+00  0.59301940561E+02  0.49999993678E+02 0.  0.
        -12    1    1    2    0    0  0.28528578130E+02 -0.14233762267E+02 -0.49094618307E+00  0.31886059439E+02  0.00000000000E+00 0.  1.
         11    1    3    3    0    0 -0.28237280272E+02  0.24630628546E+02  0.25598550833E+00  0.37471020650E+02  0.51100000000E-03 0. -1.
        -11    1    3    3    0    0  0.47805949334E+00  0.46081038064E+01  0.42415126690E+01  0.62812094021E+01  0.51100000000E-03 0.  1.
        -12    1    3    3    0    0 -0.76935735197E+00 -0.15004970086E+02 -0.40065519943E+01  0.15549710509E+02  0.00000000000E+00 0.  1.
</event>
<event>
 7    1  0.1221195E-011  0.5930193E+02  0.7816164E-02  0.1266605E+00
        -11   -1    0    0    0    0  0.00000000000E+00  0.00000000000E+00  0.45593999997E+02  0.45594000000E+02  0.51100000000E-03 0.  1.
         11   -1    0    0    0    0 -0.00000000000E+00 -0.00000000000E+00 -0.45593999997E+02  0.45594000000E+02  0.51100000000E-03 0. -1.
    9900012    2    1    2    0    0 -0.14792075524E+02  0.27850633383E+02  0.47178594612E+01  0.59301929749E+02  0.49999973960E+02 0.  0.
        -12    1    1    2    0    0  0.14792075524E+02 -0.27850633383E+02 -0.47178594612E+01  0.31886070251E+02  0.00000000000E+00 0.  1.
         11    1    3    3    0    0 -0.19942474979E+02  0.23360785665E+02 -0.66667751145E+01  0.31430470977E+02  0.51100000000E-03 0. -1.
        -11    1    3    3    0    0  0.84386384198E+01  0.22171767328E+01 -0.56364658492E+01  0.10387311422E+02  0.51100000000E-03 0.  1.
        -12    1    3    3    0    0 -0.32882389648E+01  0.22726709853E+01  0.17021100425E+02  0.17484147350E+02  0.00000000000E+00 0.  1.
</event>
<event>
 7    1  0.1221195E-011  0.5930189E+02  0.7816164E-02  0.1266605E+00
        -11   -1    0    0    0    0  0.00000000000E+00  0.00000000000E+00  0.45593999997E+02  0.45594000000E+02  0.51100000000E-03 0.  1.
         11   -1    0    0    0    0 -0.00000000000E+00 -0.00000000000E+00 -0.45593999997E+02  0.45594000000E+02  0.51100000000E-03 0. -1.
    9900012    2    1    2    0    0 -0.25035349842E+02 -0.14872020623E+02 -0.12991470938E+02  0.59301889290E+02  0.49999900171E+02 0.  0.
        -12    1    1    2    0    0  0.25035349842E+02  0.14872020623E+02  0.12991470938E+02  0.31886110710E+02  0.00000000000E+00 0.  1.
         11    1    3    3    0    0 -0.12000260431E+02 -0.10427295394E+02 -0.24229240605E+02  0.28979144919E+02  0.51100000000E-03 0. -1.
        -11    1    3    3    0    0 -0.84697270277E+01  0.91123979595E+01  0.52657880903E+00  0.12451881705E+02  0.51100000000E-03 0.  1.
        -12    1    3    3    0    0 -0.45653623834E+01 -0.13557123188E+02  0.10711190858E+02  0.17870862666E+02  0.00000000000E+00 0.  1.
</event>
<event>
 7    1  0.1221195E-011  0.5930196E+02  0.7816164E-02  0.1266605E+00
        -11   -1    0    0    0    0  0.00000000000E+00  0.00000000000E+00  0.45593999997E+02  0.45594000000E+02  0.51100000000E-03 0. -1.
         11   -1    0    0    0    0 -0.00000000000E+00 -0.00000000000E+00 -0.45593999997E+02  0.45594000000E+02  0.51100000000E-03 0.  1.
    9900012    2    1    2    0    0 -0.30839759051E+02  0.17000973496E+01  0.79207571348E+01  0.59301961317E+02  0.50000031531E+02 0.  0.
        -12    1    1    2    0    0  0.30839759051E+02 -0.17000973496E+01 -0.79207571348E+01  0.31886038683E+02  0.00000000000E+00 0.  1.
         11    1    3    3    0    0 -0.17974075432E+02  0.93496035054E+01  0.98553826467E+00  0.20284322993E+02  0.51100000000E-03 0. -1.
        -11    1    3    3    0    0  0.94173875609E+01  0.67960681372E+01  0.17474176463E+00  0.11614829553E+02  0.51100000000E-03 0.  1.
         12    1    3    3    0    0 -0.22283071179E+02 -0.14445574293E+02  0.67604771055E+01  0.27402808771E+02  0.00000000000E+00 0. -1.
</event>
<event>
 7    1  0.1221195E-011  0.5930194E+02  0.7816164E-02  0.1266605E+00
        -11   -1    0    0    0    0  0.00000000000E+00  0.00000000000E+00  0.45593999997E+02  0.45594000000E+02  0.51100000000E-03 0.  1.
         11   -1    0    0    0    0 -0.00000000000E+00 -0.00000000000E+00 -0.45593999997E+02  0.45594000000E+02  0.51100000000E-03 0. -1.
    9900012    2    1    2    0    0 -0.28017050723E+02  0.15209515685E+02 -0.66041170191E+00  0.59301942824E+02  0.49999997805E+02 0.  0.
        -12    1    1    2    0    0  0.28017050723E+02 -0.15209515685E+02  0.66041170191E+00  0.31886057176E+02  0.00000000000E+00 0.  1.
         11    1    3    3    0    0 -0.65825706711E+00 -0.43813293361E+01 -0.58275136471E+01  0.73204688842E+01  0.51100000000E-03 0. -1.
        -11    1    3    3    0    0  0.40534077791E+01 -0.82841945577E+01  0.37636447560E+01  0.99610750526E+01  0.51100000000E-03 0.  1.
         12    1    3    3    0    0 -0.31412201435E+02  0.27875039579E+02  0.14034571891E+01  0.42020398887E+02  0.00000000000E+00 0. -1.
</event>
<event>
 7    1  0.1221195E-011  0.5930196E+02  0.7816164E-02  0.1266605E+00
        -11   -1    0    0    0    0  0.00000000000E+00  0.00000000000E+00  0.45593999997E+02  0.45594000000E+02  0.51100000000E-03 0. -1.
         11   -1    0    0    0    0 -0.00000000000E+00 -0.00000000000E+00 -0.45593999997E+02  0.45594000000E+02  0.51100000000E-03 0.  1.
    9900012    2    1    2    0    0  0.22431479392E+02 -0.16129415188E+02  0.15918232180E+02  0.59301962025E+02  0.50000032823E+02 0.  0.
        -12    1    1    2    0    0 -0.22431479392E+02  0.16129415188E+02 -0.15918232180E+02  0.31886037975E+02  0.00000000000E+00 0.  1.
         11    1    3    3    0    0  0.11536611756E+02 -0.36728323523E+01  0.42896041167E+01  0.12844602448E+02  0.51100000000E-03 0. -1.
        -11    1    3    3    0    0  0.12329145512E+02 -0.97655321880E+01 -0.13753110131E+02  0.20893096623E+02  0.51100000000E-03 0.  1.
         12    1    3    3    0    0 -0.14342778760E+01 -0.26910506475E+01  0.25381738194E+02  0.25564262954E+02  0.00000000000E+00 0. -1.
</event>
<event>
 7    1  0.1221195E-011  0.5930194E+02  0.7816164E-02  0.1266605E+00
        -11   -1    0    0    0    0  0.00000000000E+00  0.00000000000E+00  0.45593999997E+02  0.45594000000E+02  0.51100000000E-03 0.  1.
         11   -1    0    0    0    0 -0.00000000000E+00 -0.00000000000E+00 -0.45593999997E+02  0.45594000000E+02  0.51100000000E-03 0. -1.
    9900012    2    1    2    0    0  0.23164478423E+02 -0.16363524032E+02 -0.14572677338E+02  0.59301938716E+02  0.49999990313E+02 0.  0.
        -12    1    1    2    0    0 -0.23164478423E+02  0.16363524032E+02  0.14572677338E+02  0.31886061284E+02  0.00000000000E+00 0.  1.
         11    1    3    3    0    0  0.19638097733E+02 -0.75074685665E+01 -0.40639584150E+01  0.21413377247E+02  0.51100000000E-03 0. -1.
        -11    1    3    3    0    0  0.13038763793E+02  0.83721151573E+00  0.77054350490E+01  0.15168520492E+02  0.51100000000E-03 0.  1.
        -12    1    3    3    0    0 -0.95123831028E+01 -0.96932669817E+01 -0.18214153972E+02  0.22720040977E+02  0.00000000000E+00 0.  1.
</event>
<event>
 7    1  0.1221195E-011  0.5930192E+02  0.7816164E-02  0.1266605E+00
        -11   -1    0    0    0    0  0.00000000000E+00  0.00000000000E+00  0.45593999997E+02  0.45594000000E+02  0.51100000000E-03 0. -1.
         11   -1    0    0    0    0 -0.00000000000E+00 -0.00000000000E+00 -0.45593999997E+02  0.45594000000E+02  0.51100000000E-03 0.  1.
    9900012    2    1    2    0    0 -0.23028997413E+02  0.18022657249E+02  0.12711066780E+02  0.59301919732E+02  0.49999955690E+02 0.  0.
        -12    1    1    2    0    0  0.23028997413E+02 -0.18022657249E+02 -0.12711066780E+02  0.31886080268E+02  0.00000000000E+00 0.  1.
         11    1    3    3    0    0 -0.24974206847E+02  0.99554322617E+01  0.17387711005E+02  0.32018028256E+02  0.51100000000E-03 0. -1.
        -11    1    3    3    0    0 -0.75224447803E+01  0.48807634593E+01  0.73892734549E+01  0.11619397139E+02  0.51100000000E-03 0.  1.
        -12    1    3    3    0    0  0.94676542135E+01  0.31864615282E+01 -0.12065917680E+02  0.15664494337E+02  0.00000000000E+00 0.  1.
</event>
<event>
 7    1  0.1221195E-011  0.5930195E+02  0.7816164E-02  0.1266605E+00
        -11   -1    0    0    0    0  0.00000000000E+00  0.00000000000E+00  0.45593999997E+02  0.45594000000E+02  0.51100000000E-03 0.  1.
         11   -1    0    0    0    0 -0.00000000000E+00 -0.00000000000E+00 -0.45593999997E+02  0.45594000000E+02  0.51100000000E-03 0. -1.
    9900012    2    1    2    0    0  0.17811219812E+02  0.25981035393E+02  0.49463739475E+01  0.59301947148E+02  0.50000005690E+02 0.  0.
        -12    1    1    2    0    0 -0.17811219812E+02 -0.25981035393E+02 -0.49463739475E+01  0.31886052852E+02  0.00000000000E+00 0.  1.
         11    1    3    3    0    0 -0.88218641072E+01  0.69131334709E+00  0.59616943058E+01  0.10669817230E+02  0.51100000000E-03 0.  1.
        -11    1    3    3    0    0  0.48532970358E+01  0.21152706584E+02  0.99787610586E+01  0.23886547689E+02  0.51100000000E-03 0. -1.
        -12    1    3    3    0    0  0.21779786884E+02  0.41370154615E+01 -0.10994081417E+02  0.24745582229E+02  0.00000000000E+00 0.  1.
</event>
<event>
 7    1  0.1221195E-011  0.5930197E+02  0.7816164E-02  0.1266605E+00
        -11   -1    0    0    0    0  0.00000000000E+00  0.00000000000E+00  0.45593999997E+02  0.45594000000E+02  0.51100000000E-03 0.  1.
         11   -1    0    0    0    0 -0.00000000000E+00 -0.00000000000E+00 -0.45593999997E+02  0.45594000000E+02  0.51100000000E-03 0. -1.
    9900012    2    1    2    0    0  0.22266434250E+02 -0.18208333410E+02 -0.13761587432E+02  0.59301971893E+02  0.50000050819E+02 0.  0.
        -12    1    1    2    0    0 -0.22266434250E+02  0.18208333410E+02  0.13761587432E+02  0.31886028107E+02  0.00000000000E+00 0.  1.
         11    1    3    3    0    0  0.69607167274E+00  0.23052705611E+01  0.55579445094E+01  0.60571887509E+01  0.51100000000E-03 0. -1.
        -11    1    3    3    0    0  0.80910488094E+01  0.11698370404E+02 -0.90050946280E+01  0.16834745928E+02  0.51100000000E-03 0.  1.
         12    1    3    3    0    0  0.13479313768E+02 -0.32211974375E+02 -0.10314437313E+02  0.36410037214E+02  0.00000000000E+00 0. -1.
</event>
<event>
 7    1  0.1221195E-011  0.5930195E+02  0.7816164E-02  0.1266605E+00
        -11   -1    0    0    0    0  0.00000000000E+00  0.00000000000E+00  0.45593999997E+02  0.45594000000E+02  0.51100000000E-03 0. -1.
         11   -1    0    0    0    0 -0.00000000000E+00 -0.00000000000E+00 -0.45593999997E+02  0.45594000000E+02  0.51100000000E-03 0.  1.
    9900012    2    1    2    0    0 -0.23204756524E+02  0.19620305664E+02  0.96593348493E+01  0.59301954942E+02  0.50000019905E+02 0.  0.
        -12    1    1    2    0    0  0.23204756524E+02 -0.19620305664E+02 -0.96593348493E+01  0.31886045058E+02  0.00000000000E+00 0.  1.
         11    1    3    3    0    0 -0.21160976554E+02  0.48445423915E+01  0.75985252840E+01  0.22999871879E+02  0.51100000000E-03 0. -1.
        -11    1    3    3    0    0  0.23267662890E+01  0.24701754820E+01  0.16493213013E+02  0.16838696031E+02  0.51100000000E-03 0.  1.
         12    1    3    3    0    0 -0.43705462597E+01  0.12305587790E+02 -0.14432403448E+02  0.19463387032E+02  0.00000000000E+00 0. -1.
</event>
<event>
 7    1  0.1221195E-011  0.5930195E+02  0.7816164E-02  0.1266605E+00
        -11   -1    0    0    0    0  0.00000000000E+00  0.00000000000E+00  0.45593999997E+02  0.45594000000E+02  0.51100000000E-03 0. -1.
         11   -1    0    0    0    0 -0.00000000000E+00 -0.00000000000E+00 -0.45593999997E+02  0.45594000000E+02  0.51100000000E-03 0.  1.
    9900012    2    1    2    0    0  0.18585116994E+02  0.14121265339E+02  0.21723340068E+02  0.59301949567E+02  0.50000010103E+02 0.  0.
        -12    1    1    2    0    0 -0.18585116994E+02 -0.14121265339E+02 -0.21723340068E+02  0.31886050433E+02  0.00000000000E+00 0.  1.
         11    1    3    3    0    0  0.26513678494E+01  0.12435394442E+02  0.41499972462E+01  0.13375023880E+02  0.51100000000E-03 0. -1.
        -11    1    3    3    0    0 -0.66059017463E+01  0.10895738557E+02 -0.40424592568E+01  0.13367742281E+02  0.51100000000E-03 0.  1.
        -12    1    3    3    0    0  0.22539650891E+02 -0.92098676587E+01  0.21615802079E+02  0.32559183407E+02  0.00000000000E+00 0.  1.
</event>
<event>
 7    1  0.1221195E-011  0.5930197E+02  0.7816164E-02  0.1266605E+00
        -11   -1    0    0    0    0  0.00000000000E+00  0.00000000000E+00  0.45593999997E+02  0.45594000000E+02  0.51100000000E-03 0.  1.
         11   -1    0    0    0    0 -0.00000000000E+00 -0.00000000000E+00 -0.45593999997E+02  0.45594000000E+02  0.51100000000E-03 0. -1.
    9900012    2    1    2    0    0 -0.12010462253E+02 -0.86635104482E+01 -0.28238475106E+02  0.59301967116E+02  0.50000042107E+02 0.  0.
        -12    1    1    2    0    0  0.12010462253E+02  0.86635104482E+01  0.28238475106E+02  0.31886032884E+02  0.00000000000E+00 0.  1.
         11    1    3    3    0    0 -0.18387877737E+01 -0.34179232680E+01 -0.20620743181E+01  0.43949392142E+01  0.51100000000E-03 0. -1.
        -11    1    3    3    0    0 -0.37277570002E+01 -0.97404018296E+01  0.12018315385E+02  0.15912620935E+02  0.51100000000E-03 0.  1.
        -12    1    3    3    0    0 -0.64439174788E+01  0.44948146494E+01 -0.38194716172E+02  0.38994406967E+02  0.00000000000E+00 0.  1.
</event>
<event>
 7    1  0.1221195E-011  0.5930195E+02  0.7816164E-02  0.1266605E+00
        -11   -1    0    0    0    0  0.00000000000E+00  0.00000000000E+00  0.45593999997E+02  0.45594000000E+02  0.51100000000E-03 0.  1.
         11   -1    0    0    0    0 -0.00000000000E+00 -0.00000000000E+00 -0.45593999997E+02  0.45594000000E+02  0.51100000000E-03 0. -1.
    9900012    2    1    2    0    0  0.47214383400E+01  0.25457795696E+02 -0.18609910016E+02  0.59301951444E+02  0.50000013526E+02 0.  0.
        -12    1    1    2    0    0 -0.47214383400E+01 -0.25457795696E+02  0.18609910016E+02  0.31886048556E+02  0.00000000000E+00 0.  1.
         11    1    3    3    0    0 -0.75131980093E-01 -0.37273122870E+01 -0.42143475680E+01  0.56266533023E+01  0.51100000000E-03 0. -1.
        -11    1    3    3    0    0  0.86341916188E+00  0.10388770478E+02  0.15178445180E+02  0.18413507081E+02  0.51100000000E-03 0.  1.
         12    1    3    3    0    0  0.39331511582E+01  0.18796337505E+02 -0.29574007628E+02  0.35261791061E+02  0.00000000000E+00 0. -1.
</event>
<event>
 7    1  0.1221195E-011  0.5930194E+02  0.7816164E-02  0.1266605E+00
        -11   -1    0    0    0    0  0.00000000000E+00  0.00000000000E+00  0.45593999997E+02  0.45594000000E+02  0.51100000000E-03 0.  1.
         11   -1    0    0    0    0 -0.00000000000E+00 -0.00000000000E+00 -0.45593999997E+02  0.45594000000E+02  0.51100000000E-03 0. -1.
    9900012    2    1    2    0    0  0.11440666100E+02 -0.10129117041E+02 -0.27986294837E+02  0.59301944246E+02  0.50000000398E+02 0.  0.
        -12    1    1    2    0    0 -0.11440666100E+02  0.10129117041E+02  0.27986294837E+02  0.31886055754E+02  0.00000000000E+00 0.  1.
         11    1    3    3    0    0  0.22819919135E+01 -0.16766579207E+02 -0.27573754501E+02  0.32351778976E+02  0.51100000000E-03 0. -1.
        -11    1    3    3    0    0  0.13596554348E+02 -0.30178455606E+01 -0.57390650761E+01  0.15063550385E+02  0.51100000000E-03 0.  1.
        -12    1    3    3    0    0 -0.44378801617E+01  0.96553077261E+01  0.53265247408E+01  0.11886614885E+02  0.00000000000E+00 0.  1.
</event>
<event>
 7    1  0.1221195E-011  0.5930197E+02  0.7816164E-02  0.1266605E+00
        -11   -1    0    0    0    0  0.00000000000E+00  0.00000000000E+00  0.45593999997E+02  0.45594000000E+02  0.51100000000E-03 0.  1.
         11   -1    0    0    0    0 -0.00000000000E+00 -0.00000000000E+00 -0.45593999997E+02  0.45594000000E+02  0.51100000000E-03 0. -1.
    9900012    2    1    2    0    0 -0.35847532465E+01 -0.26608733222E+02 -0.17200105622E+02  0.59301972137E+02  0.50000051264E+02 0.  0.
        -12    1    1    2    0    0  0.35847532465E+01  0.26608733222E+02  0.17200105622E+02  0.31886027863E+02  0.00000000000E+00 0.  1.
         11    1    3    3    0    0  0.70904130002E+01 -0.61351121496E+01 -0.20846357590E+02  0.22857912911E+02  0.51100000000E-03 0. -1.
        -11    1    3    3    0    0 -0.28914731141E+01 -0.82321383399E+01 -0.12175193549E+02  0.14978786888E+02  0.51100000000E-03 0.  1.
        -12    1    3    3    0    0 -0.77836931325E+01 -0.12241482732E+02  0.15821445518E+02  0.21465272338E+02  0.00000000000E+00 0.  1.
</event>
<event>
 7    1  0.1221195E-011  0.5930194E+02  0.7816164E-02  0.1266605E+00
        -11   -1    0    0    0    0  0.00000000000E+00  0.00000000000E+00  0.45593999997E+02  0.45594000000E+02  0.51100000000E-03 0. -1.
         11   -1    0    0    0    0 -0.00000000000E+00 -0.00000000000E+00 -0.45593999997E+02  0.45594000000E+02  0.51100000000E-03 0.  1.
    9900012    2    1    2    0    0 -0.68184261965E+01  0.15886012598E+02 -0.26792998481E+02  0.59301935651E+02  0.49999984723E+02 0.  0.
        -12    1    1    2    0    0  0.68184261965E+01 -0.15886012598E+02  0.26792998481E+02  0.31886064349E+02  0.00000000000E+00 0.  1.
         11    1    3    3    0    0 -0.13974036415E+02 -0.30513052474E+01  0.74304818765E+01  0.16118195265E+02  0.51100000000E-03 0. -1.
        -11    1    3    3    0    0 -0.14335230769E+01  0.21110905891E+01 -0.18298114230E+02  0.18475190839E+02  0.51100000000E-03 0.  1.
        -12    1    3    3    0    0  0.85891332950E+01  0.16826227257E+02 -0.15925366127E+02  0.24708549547E+02  0.00000000000E+00 0.  1.
</event>
<event>
 7    1  0.1221195E-011  0.5930179E+02  0.7816164E-02  0.1266605E+00
        -11   -1    0    0    0    0  0.00000000000E+00  0.00000000000E+00  0.45593999997E+02  0.45594000000E+02  0.51100000000E-03 0.  1.
         11   -1    0    0    0    0 -0.00000000000E+00 -0.00000000000E+00 -0.45593999997E+02  0.45594000000E+02  0.51100000000E-03 0. -1.
    9900012    2    1    2    0    0 -0.22830021833E+02 -0.11716098744E+01 -0.22229428757E+02  0.59301794998E+02  0.49999728205E+02 0.  0.
        -12    1    1    2    0    0  0.22830021833E+02  0.11716098744E+01  0.22229428757E+02  0.31886205002E+02  0.00000000000E+00 0.  1.
         11    1    3    3    0    0 -0.23137573341E+01 -0.73053206730E+01 -0.10343701768E+02  0.12872969730E+02  0.51100000000E-03 0. -1.
        -11    1    3    3    0    0  0.78444612353E+01 -0.96329789667E+01 -0.28531197854E+01  0.12746377863E+02  0.51100000000E-03 0.  1.
        -12    1    3    3    0    0 -0.28360725734E+02  0.15766689765E+02 -0.90326072030E+01  0.33682447405E+02  0.00000000000E+00 0.  1.
</event>
<event>
 7    1  0.1221195E-011  0.5930195E+02  0.7816164E-02  0.1266605E+00
        -11   -1    0    0    0    0  0.00000000000E+00  0.00000000000E+00  0.45593999997E+02  0.45594000000E+02  0.51100000000E-03 0. -1.
         11   -1    0    0    0    0 -0.00000000000E+00 -0.00000000000E+00 -0.45593999997E+02  0.45594000000E+02  0.51100000000E-03 0.  1.
    9900012    2    1    2    0    0 -0.17461403186E+02  0.17798075174E+02  0.19875819833E+02  0.59301948266E+02  0.50000007730E+02 0.  0.
        -12    1    1    2    0    0  0.17461403186E+02 -0.17798075174E+02 -0.19875819833E+02  0.31886051734E+02  0.00000000000E+00 0.  1.
         11    1    3    3    0    0 -0.62647051791E+01 -0.83820405924E+01 -0.87629708922E+00  0.10501096720E+02  0.51100000000E-03 0. -1.
        -11    1    3    3    0    0 -0.47146939212E+01  0.10901976689E+02 -0.88850282450E+01  0.14833245150E+02  0.51100000000E-03 0.  1.
        -12    1    3    3    0    0 -0.64820040859E+01  0.15278139077E+02  0.29637145168E+02  0.33967606397E+02  0.00000000000E+00 0.  1.
</event>
<event>
 7    1  0.1221195E-011  0.5930194E+02  0.7816164E-02  0.1266605E+00
        -11   -1    0    0    0    0  0.00000000000E+00  0.00000000000E+00  0.45593999997E+02  0.45594000000E+02  0.51100000000E-03 0. -1.
         11   -1    0    0    0    0 -0.00000000000E+00 -0.00000000000E+00 -0.45593999997E+02  0.45594000000E+02  0.51100000000E-03 0.  1.
    9900012    2    1    2    0    0 -0.33192802023E+01  0.31485552560E+02  0.37898660012E+01  0.59301941521E+02  0.49999995428E+02 0.  0.
        -12    1    1    2    0    0  0.33192802023E+01 -0.31485552560E+02 -0.37898660012E+01  0.31886058479E+02  0.00000000000E+00 0.  1.
         11    1    3    3    0    0 -0.73371984567E+01  0.77367680541E+01  0.12417858921E+02  0.16367506883E+02  0.51100000000E-03 0. -1.
        -11    1    3    3    0    0  0.13397950762E+02 -0.20106723039E+01  0.16687093994E+01  0.13650365528E+02  0.51100000000E-03 0.  1.
         12    1    3    3    0    0 -0.93800325076E+01  0.25759456809E+02 -0.10296702319E+02  0.29284069109E+02  0.00000000000E+00 0. -1.
</event>
<event>
 7    1  0.1221195E-011  0.5930196E+02  0.7816164E-02  0.1266605E+00
        -11   -1    0    0    0    0  0.00000000000E+00  0.00000000000E+00  0.45593999997E+02  0.45594000000E+02  0.51100000000E-03 0.  1.
         11   -1    0    0    0    0 -0.00000000000E+00 -0.00000000000E+00 -0.45593999997E+02  0.45594000000E+02  0.51100000000E-03 0. -1.
    9900012    2    1    2    0    0  0.59885501638E+00  0.31723702333E+02 -0.31571739191E+01  0.59301958160E+02  0.50000025774E+02 0.  0.
        -12    1    1    2    0    0 -0.59885501638E+00 -0.31723702333E+02  0.31571739191E+01  0.31886041840E+02  0.00000000000E+00 0.  1.
         11    1    3    3    0    0 -0.87378589158E+01  0.16649274860E+02  0.85055373891E+01  0.20637167886E+02  0.51100000000E-03 0. -1.
        -11    1    3    3    0    0  0.54290480227E+01  0.53721791893E+01  0.11180805054E+02  0.13540504924E+02  0.51100000000E-03 0.  1.
        -12    1    3    3    0    0  0.39076659095E+01  0.97022482838E+01 -0.22843516362E+02  0.25124285351E+02  0.00000000000E+00 0.  1.
</event>
<event>
 7    1  0.1221195E-011  0.5930194E+02  0.7816164E-02  0.1266605E+00
        -11   -1    0    0    0    0  0.00000000000E+00  0.00000000000E+00  0.45593999997E+02  0.45594000000E+02  0.51100000000E-03 0. -1.
         11   -1    0    0    0    0 -0.00000000000E+00 -0.00000000000E+00 -0.45593999997E+02  0.45594000000E+02  0.51100000000E-03 0.  1.
    9900012    2    1    2    0    0  0.18144097681E+02  0.17191683835E+02  0.19797939353E+02  0.59301942288E+02  0.49999996828E+02 0.  0.
        -12    1    1    2    0    0 -0.18144097681E+02 -0.17191683835E+02 -0.19797939353E+02  0.31886057712E+02  0.00000000000E+00 0.  1.
         11    1    3    3    0    0  0.12577669238E+02 -0.11770083252E+02  0.11977313960E+01  0.17267518177E+02  0.51100000000E-03 0. -1.
        -11    1    3    3    0    0 -0.32012013585E+01 -0.29430018161E+01  0.66630418545E+00  0.43991943985E+01  0.51100000000E-03 0.  1.
         12    1    3    3    0    0  0.87676298018E+01  0.31904768903E+02  0.17933903772E+02  0.37635229713E+02  0.00000000000E+00 0. -1.
</event>
<event>
 7    1  0.1221195E-011  0.5930194E+02  0.7816164E-02  0.1266605E+00
        -11   -1    0    0    0    0  0.00000000000E+00  0.00000000000E+00  0.45593999997E+02  0.45594000000E+02  0.51100000000E-03 0.  1.
         11   -1    0    0    0    0 -0.00000000000E+00 -0.00000000000E+00 -0.45593999997E+02  0.45594000000E+02  0.51100000000E-03 0. -1.
    9900012    2    1    2    0    0 -0.33225183232E+01  0.12003442204E+02 -0.29353007209E+02  0.59301940586E+02  0.49999993722E+02 0.  0.
        -12    1    1    2    0    0  0.33225183232E+01 -0.12003442204E+02  0.29353007209E+02  0.31886059414E+02  0.00000000000E+00 0.  1.
         11    1    3    3    0    0 -0.16446684132E+02  0.17072919994E+02 -0.12149427590E+02  0.26638066880E+02  0.51100000000E-03 0. -1.
        -11    1    3    3    0    0  0.15431778455E+02  0.58433006966E+01 -0.88191037404E+01  0.18709904873E+02  0.51100000000E-03 0.  1.
        -12    1    3    3    0    0 -0.23076126463E+01 -0.10912778487E+02 -0.83844758786E+01  0.13953968833E+02  0.00000000000E+00 0.  1.
</event>
<event>
 7    1  0.1221195E-011  0.5930195E+02  0.7816164E-02  0.1266605E+00
        -11   -1    0    0    0    0  0.00000000000E+00  0.00000000000E+00  0.45593999997E+02  0.45594000000E+02  0.51100000000E-03 0.  1.
         11   -1    0    0    0    0 -0.00000000000E+00 -0.00000000000E+00 -0.45593999997E+02  0.45594000000E+02  0.51100000000E-03 0. -1.
    9900012    2    1    2    0    0 -0.21865037044E+00 -0.21403443721E+02 -0.23633985890E+02  0.59301945051E+02  0.50000001867E+02 0.  0.
        -12    1    1    2    0    0  0.21865037044E+00  0.21403443721E+02  0.23633985890E+02  0.31886054949E+02  0.00000000000E+00 0.  1.
         11    1    3    3    0    0  0.85323242059E+01 -0.11273374795E+01  0.50780652853E+01  0.99929071571E+01  0.51100000000E-03 0. -1.
        -11    1    3    3    0    0  0.77829913590E+01 -0.82839184374E+01  0.28464227508E+01  0.11717524564E+02  0.51100000000E-03 0.  1.
         12    1    3    3    0    0 -0.16533965935E+02 -0.11992187805E+02 -0.31558473926E+02  0.37591513330E+02  0.00000000000E+00 0. -1.
</event>
<event>
 7    1  0.1221195E-011  0.5930194E+02  0.7816164E-02  0.1266605E+00
        -11   -1    0    0    0    0  0.00000000000E+00  0.00000000000E+00  0.45593999997E+02  0.45594000000E+02  0.51100000000E-03 0. -1.
         11   -1    0    0    0    0 -0.00000000000E+00 -0.00000000000E+00 -0.45593999997E+02  0.45594000000E+02  0.51100000000E-03 0.  1.
    9900012    2    1    2    0    0 -0.80875994938E+01 -0.14431392205E+02  0.27258876701E+02  0.59301941831E+02  0.49999995995E+02 0.  0.
        -12    1    1    2    0    0  0.80875994938E+01  0.14431392205E+02 -0.27258876701E+02  0.31886058169E+02  0.00000000000E+00 0.  1.
         11    1    3    3    0    0  0.12564334830E+02 -0.21770032836E+01  0.59199855599E+01  0.14058736868E+02  0.51100000000E-03 0.  1.
        -11    1    3    3    0    0 -0.87046472379E+01 -0.87422047046E+01 -0.70740922109E+01  0.14221104300E+02  0.51100000000E-03 0. -1.
         12    1    3    3    0    0 -0.11947287086E+02 -0.35121842170E+01  0.28412983351E+02  0.31022100664E+02  0.00000000000E+00 0. -1.
</event>
<event>
 7    1  0.1221195E-011  0.5930193E+02  0.7816164E-02  0.1266605E+00
        -11   -1    0    0    0    0  0.00000000000E+00  0.00000000000E+00  0.45593999997E+02  0.45594000000E+02  0.51100000000E-03 0.  1.
         11   -1    0    0    0    0 -0.00000000000E+00 -0.00000000000E+00 -0.45593999997E+02  0.45594000000E+02  0.51100000000E-03 0. -1.
    9900012    2    1    2    0    0  0.94511799868E+01  0.29077978824E+02 -0.90480747871E+01  0.59301932306E+02  0.49999978623E+02 0.  0.
        -12    1    1    2    0    0 -0.94511799868E+01 -0.29077978824E+02  0.90480747871E+01  0.31886067694E+02  0.00000000000E+00 0.  1.
         11    1    3    3    0    0 -0.78576653533E+01  0.20362278976E+01 -0.47262596654E+01  0.93929047446E+01  0.51100000000E-03 0. -1.
        -11    1    3    3    0    0 -0.25006288322E+01 -0.72281937436E+01  0.51340738961E+01  0.92118751828E+01  0.51100000000E-03 0.  1.
         12    1    3    3    0    0  0.19809474172E+02  0.34269944670E+02 -0.94558890178E+01  0.40697152379E+02  0.00000000000E+00 0. -1.
</event>
<event>
 7    1  0.1221195E-011  0.5930195E+02  0.7816164E-02  0.1266605E+00
        -11   -1    0    0    0    0  0.00000000000E+00  0.00000000000E+00  0.45593999997E+02  0.45594000000E+02  0.51100000000E-03 0. -1.
         11   -1    0    0    0    0 -0.00000000000E+00 -0.00000000000E+00 -0.45593999997E+02  0.45594000000E+02  0.51100000000E-03 0.  1.
    9900012    2    1    2    0    0  0.72498009934E+01  0.25835841824E+02  0.17224102114E+02  0.59301952411E+02  0.50000015289E+02 0.  0.
        -12    1    1    2    0    0 -0.72498009934E+01 -0.25835841824E+02 -0.17224102114E+02  0.31886047589E+02  0.00000000000E+00 0.  1.
         11    1    3    3    0    0  0.56280936048E+00  0.16071432186E+02  0.29361373723E+02  0.33476827120E+02  0.51100000000E-03 0. -1.
        -11    1    3    3    0    0  0.25378564814E+01  0.11001485522E+02  0.16168913225E+01  0.11405601125E+02  0.51100000000E-03 0.  1.
         12    1    3    3    0    0  0.41491351515E+01 -0.12370758842E+01 -0.13754162931E+02  0.14419524166E+02  0.00000000000E+00 0. -1.
</event>
<event>
 7    1  0.1221195E-011  0.5930193E+02  0.7816164E-02  0.1266605E+00
        -11   -1    0    0    0    0  0.00000000000E+00  0.00000000000E+00  0.45593999997E+02  0.45594000000E+02  0.51100000000E-03 0.  1.
         11   -1    0    0    0    0 -0.00000000000E+00 -0.00000000000E+00 -0.45593999997E+02  0.45594000000E+02  0.51100000000E-03 0. -1.
    9900012    2    1    2    0    0 -0.10310654242E+02 -0.90869220443E+01 -0.28772199270E+02  0.59301934173E+02  0.49999982027E+02 0.  0.
        -12    1    1    2    0    0  0.10310654242E+02  0.90869220443E+01  0.28772199270E+02  0.31886065827E+02  0.00000000000E+00 0.  1.
         11    1    3    3    0    0  0.10217862589E+02  0.16447495643E+01  0.51028532224E+01  0.11539021981E+02  0.51100000000E-03 0. -1.
        -11    1    3    3    0    0 -0.37940833804E+01 -0.15554912134E+02 -0.19109231025E+02  0.24930163875E+02  0.51100000000E-03 0.  1.
        -12    1    3    3    0    0 -0.16734433451E+02  0.48232405254E+01 -0.14765821467E+02  0.22832748317E+02  0.00000000000E+00 0.  1.
</event>
<event>
 7    1  0.1221195E-011  0.5930197E+02  0.7816164E-02  0.1266605E+00
        -11   -1    0    0    0    0  0.00000000000E+00  0.00000000000E+00  0.45593999997E+02  0.45594000000E+02  0.51100000000E-03 0.  1.
         11   -1    0    0    0    0 -0.00000000000E+00 -0.00000000000E+00 -0.45593999997E+02  0.45594000000E+02  0.51100000000E-03 0. -1.
    9900012    2    1    2    0    0 -0.39438699313E+01 -0.15634910284E+02 -0.27508442824E+02  0.59301969262E+02  0.50000046022E+02 0.  0.
        -12    1    1    2    0    0  0.39438699313E+01  0.15634910284E+02  0.27508442824E+02  0.31886030738E+02  0.00000000000E+00 0.  1.
         11    1    3    3    0    0  0.14418023951E+01 -0.21772265671E+02 -0.70309704010E+01  0.22924765902E+02  0.51100000000E-03 0. -1.
        -11    1    3    3    0    0  0.10391394930E+02  0.92684418616E+01 -0.10622294341E+02  0.17513373189E+02  0.51100000000E-03 0.  1.
         12    1    3    3    0    0 -0.15777067256E+02 -0.31310864742E+01 -0.98551780811E+01  0.18863830171E+02  0.00000000000E+00 0. -1.
</event>
<event>
 7    1  0.1221195E-011  0.5930199E+02  0.7816164E-02  0.1266605E+00
        -11   -1    0    0    0    0  0.00000000000E+00  0.00000000000E+00  0.45593999997E+02  0.45594000000E+02  0.51100000000E-03 0. -1.
         11   -1    0    0    0    0 -0.00000000000E+00 -0.00000000000E+00 -0.45593999997E+02  0.45594000000E+02  0.51100000000E-03 0.  1.
    9900012    2    1    2    0    0  0.59984541585E+01  0.98985753214E+01  0.29711183028E+02  0.59301989860E+02  0.50000083588E+02 0.  0.
        -12    1    1    2    0    0 -0.59984541585E+01 -0.98985753214E+01 -0.29711183028E+02  0.31886010140E+02  0.00000000000E+00 0.  1.
         11    1    3    3    0    0  0.57572075078E+01  0.15665993890E+02  0.24580628285E+02  0.29711548091E+02  0.51100000000E-03 0. -1.
        -11    1    3    3    0    0  0.11291414569E+02  0.10446546515E+01  0.10582817235E+02  0.15510750052E+02  0.51100000000E-03 0.  1.
        -12    1    3    3    0    0 -0.11050167918E+02 -0.68120732201E+01 -0.54522624909E+01  0.14079691717E+02  0.00000000000E+00 0.  1.
</event>
<event>
 7    1  0.1221195E-011  0.5930188E+02  0.7816164E-02  0.1266605E+00
        -11   -1    0    0    0    0  0.00000000000E+00  0.00000000000E+00  0.45593999997E+02  0.45594000000E+02  0.51100000000E-03 0.  1.
         11   -1    0    0    0    0 -0.00000000000E+00 -0.00000000000E+00 -0.45593999997E+02  0.45594000000E+02  0.51100000000E-03 0. -1.
    9900012    2    1    2    0    0 -0.23824961704E+02 -0.17319941958E+02 -0.12211275757E+02  0.59301883189E+02  0.49999889045E+02 0.  0.
        -12    1    1    2    0    0  0.23824961704E+02  0.17319941958E+02  0.12211275757E+02  0.31886116811E+02  0.00000000000E+00 0.  1.
         11    1    3    3    0    0  0.57493245726E+01  0.85843736392E+01  0.49528543535E+01  0.11457616259E+02  0.51100000000E-03 0. -1.
        -11    1    3    3    0    0 -0.84262578050E+01 -0.77544653191E+00  0.33718655397E+01  0.91089305300E+01  0.51100000000E-03 0.  1.
         12    1    3    3    0    0 -0.21148028472E+02 -0.25128869066E+02 -0.20535995650E+02  0.38735336401E+02  0.00000000000E+00 0. -1.
</event>
<event>
 7    1  0.1221195E-011  0.5930196E+02  0.7816164E-02  0.1266605E+00
        -11   -1    0    0    0    0  0.00000000000E+00  0.00000000000E+00  0.45593999997E+02  0.45594000000E+02  0.51100000000E-03 0. -1.
         11   -1    0    0    0    0 -0.00000000000E+00 -0.00000000000E+00 -0.45593999997E+02  0.45594000000E+02  0.51100000000E-03 0.  1.
    9900012    2    1    2    0    0 -0.15347629787E+02  0.27890276469E+02  0.18172570089E+01  0.59301957840E+02  0.50000025190E+02 0.  0.
        -12    1    1    2    0    0  0.15347629787E+02 -0.27890276469E+02 -0.18172570089E+01  0.31886042160E+02  0.00000000000E+00 0.  1.
         11    1    3    3    0    0 -0.12109282475E+02 -0.34361154685E+01  0.23917461527E+01  0.12812574350E+02  0.51100000000E-03 0. -1.
        -11    1    3    3    0    0 -0.48072244521E+01  0.13203698651E+02 -0.16947804786E+02  0.22015339024E+02  0.51100000000E-03 0.  1.
         12    1    3    3    0    0  0.15688771395E+01  0.18122693286E+02  0.16373315642E+02  0.24474044466E+02  0.00000000000E+00 0. -1.
</event>
<event>
 7    1  0.1221195E-011  0.5930194E+02  0.7816164E-02  0.1266605E+00
        -11   -1    0    0    0    0  0.00000000000E+00  0.00000000000E+00  0.45593999997E+02  0.45594000000E+02  0.51100000000E-03 0.  1.
         11   -1    0    0    0    0 -0.00000000000E+00 -0.00000000000E+00 -0.45593999997E+02  0.45594000000E+02  0.51100000000E-03 0. -1.
    9900012    2    1    2    0    0  0.71536525887E+01 -0.17584989915E+02 -0.25618624043E+02  0.59301944843E+02  0.50000001486E+02 0.  0.
        -12    1    1    2    0    0 -0.71536525887E+01  0.17584989915E+02  0.25618624043E+02  0.31886055157E+02  0.00000000000E+00 0.  1.
         11    1    3    3    0    0  0.89866806849E+01 -0.15759737506E+01 -0.12205369355E+02  0.15238607691E+02  0.51100000000E-03 0. -1.
        -11    1    3    3    0    0  0.26743918763E+01 -0.24828503237E+02 -0.20147496439E+02  0.32086267435E+02  0.51100000000E-03 0.  1.
        -12    1    3    3    0    0 -0.45074199726E+01  0.88194870729E+01  0.67342417513E+01  0.11977069717E+02  0.00000000000E+00 0.  1.
</event>
<event>
 7    1  0.1221195E-011  0.5930195E+02  0.7816164E-02  0.1266605E+00
        -11   -1    0    0    0    0  0.00000000000E+00  0.00000000000E+00  0.45593999997E+02  0.45594000000E+02  0.51100000000E-03 0. -1.
         11   -1    0    0    0    0 -0.00000000000E+00 -0.00000000000E+00 -0.45593999997E+02  0.45594000000E+02  0.51100000000E-03 0.  1.
    9900012    2    1    2    0    0  0.14616202213E+02 -0.14506163601E+02  0.24344573158E+02  0.59301946751E+02  0.50000004966E+02 0.  0.
        -12    1    1    2    0    0 -0.14616202213E+02  0.14506163601E+02 -0.24344573158E+02  0.31886053249E+02  0.00000000000E+00 0.  1.
         11    1    3    3    0    0 -0.12636480210E+02 -0.12832079184E+02  0.45738868190E+01  0.18581262852E+02  0.51100000000E-03 0. -1.
        -11    1    3    3    0    0  0.17142938422E+02 -0.66098634075E+01  0.46837762229E+00  0.18379064445E+02  0.51100000000E-03 0.  1.
         12    1    3    3    0    0  0.10109744002E+02  0.49357789905E+01  0.19302308717E+02  0.22341619454E+02  0.00000000000E+00 0. -1.
</event>
<event>
 7    1  0.1221195E-011  0.5930194E+02  0.7816164E-02  0.1266605E+00
        -11   -1    0    0    0    0  0.00000000000E+00  0.00000000000E+00  0.45593999997E+02  0.45594000000E+02  0.51100000000E-03 0. -1.
         11   -1    0    0    0    0 -0.00000000000E+00 -0.00000000000E+00 -0.45593999997E+02  0.45594000000E+02  0.51100000000E-03 0.  1.
    9900012    2    1    2    0    0 -0.31690442023E+02 -0.38121774690E+00 -0.35058984668E+01  0.59301940873E+02  0.49999994247E+02 0.  0.
        -12    1    1    2    0    0  0.31690442023E+02  0.38121774690E+00  0.35058984668E+01  0.31886059127E+02  0.00000000000E+00 0.  1.
         11    1    3    3    0    0 -0.12886321252E+02 -0.23408058526E+01  0.41608269552E+01  0.13742238852E+02  0.51100000000E-03 0. -1.
        -11    1    3    3    0    0 -0.31313232835E+02  0.47909145607E+01 -0.82046528268E+01  0.32722893227E+02  0.51100000000E-03 0.  1.
         12    1    3    3    0    0  0.12509112064E+02 -0.28313264549E+01  0.53792740480E+00  0.12836808794E+02  0.00000000000E+00 0. -1.
</event>
<event>
 7    1  0.1221195E-011  0.5930194E+02  0.7816164E-02  0.1266605E+00
        -11   -1    0    0    0    0  0.00000000000E+00  0.00000000000E+00  0.45593999997E+02  0.45594000000E+02  0.51100000000E-03 0.  1.
         11   -1    0    0    0    0 -0.00000000000E+00 -0.00000000000E+00 -0.45593999997E+02  0.45594000000E+02  0.51100000000E-03 0. -1.
    9900012    2    1    2    0    0  0.79635233385E+01 -0.12902579980E+02 -0.28050426260E+02  0.59301942114E+02  0.49999996511E+02 0.  0.
        -12    1    1    2    0    0 -0.79635233385E+01  0.12902579980E+02  0.28050426260E+02  0.31886057886E+02  0.00000000000E+00 0.  1.
         11    1    3    3    0    0  0.75927451675E+01 -0.33774032488E+00 -0.27688124404E+01  0.80888917842E+01  0.51100000000E-03 0. -1.
        -11    1    3    3    0    0 -0.18393296289E+02 -0.12422597303E+01 -0.93972159986E+00  0.18459134177E+02  0.51100000000E-03 0.  1.
         12    1    3    3    0    0  0.18764074460E+02 -0.11322579925E+02 -0.24341892220E+02  0.32753916153E+02  0.00000000000E+00 0. -1.
</event>
<event>
 7    1  0.1221195E-011  0.5930196E+02  0.7816164E-02  0.1266605E+00
        -11   -1    0    0    0    0  0.00000000000E+00  0.00000000000E+00  0.45593999997E+02  0.45594000000E+02  0.51100000000E-03 0.  1.
         11   -1    0    0    0    0 -0.00000000000E+00 -0.00000000000E+00 -0.45593999997E+02  0.45594000000E+02  0.51100000000E-03 0. -1.
    9900012    2    1    2    0    0  0.22584342351E+02  0.14013428787E+02  0.17615075103E+02  0.59301959533E+02  0.50000028277E+02 0.  0.
        -12    1    1    2    0    0 -0.22584342351E+02 -0.14013428787E+02 -0.17615075103E+02  0.31886040467E+02  0.00000000000E+00 0.  1.
         11    1    3    3    0    0  0.14338193380E+00  0.13073405538E+00  0.14322259556E+02  0.14323573884E+02  0.51100000000E-03 0. -1.
        -11    1    3    3    0    0  0.46985218382E+01 -0.98290966123E+01  0.98038733337E+01  0.14656165265E+02  0.51100000000E-03 0.  1.
         12    1    3    3    0    0  0.17742438579E+02  0.23711791344E+02 -0.65110577864E+01  0.30322220383E+02  0.00000000000E+00 0. -1.
</event>
<event>
 7    1  0.1221195E-011  0.5930194E+02  0.7816164E-02  0.1266605E+00
        -11   -1    0    0    0    0  0.00000000000E+00  0.00000000000E+00  0.45593999997E+02  0.45594000000E+02  0.51100000000E-03 0.  1.
         11   -1    0    0    0    0 -0.00000000000E+00 -0.00000000000E+00 -0.45593999997E+02  0.45594000000E+02  0.51100000000E-03 0. -1.
    9900012    2    1    2    0    0  0.30623448731E+02  0.11071423708E+01 -0.88147120914E+01  0.59301944652E+02  0.50000001138E+02 0.  0.
        -12    1    1    2    0    0 -0.30623448731E+02 -0.11071423708E+01  0.88147120914E+01  0.31886055348E+02  0.00000000000E+00 0.  1.
         11    1    3    3    0    0  0.10903203755E+02  0.17397692395E+01 -0.75820794838E+01  0.13393826140E+02  0.51100000000E-03 0. -1.
        -11    1    3    3    0    0  0.95162218015E+01 -0.20649482439E+02  0.33373634694E+01  0.22980374182E+02  0.51100000000E-03 0.  1.
         12    1    3    3    0    0  0.10204023175E+02  0.20016855570E+02 -0.45699960770E+01  0.22927744329E+02  0.00000000000E+00 0. -1.
</event>
<event>
 7    1  0.1221195E-011  0.5930194E+02  0.7816164E-02  0.1266605E+00
        -11   -1    0    0    0    0  0.00000000000E+00  0.00000000000E+00  0.45593999997E+02  0.45594000000E+02  0.51100000000E-03 0. -1.
         11   -1    0    0    0    0 -0.00000000000E+00 -0.00000000000E+00 -0.45593999997E+02  0.45594000000E+02  0.51100000000E-03 0.  1.
    9900012    2    1    2    0    0  0.17846968520E+02 -0.20077413539E+02  0.17178596142E+02  0.59301937446E+02  0.49999987996E+02 0.  0.
        -12    1    1    2    0    0 -0.17846968520E+02  0.20077413539E+02 -0.17178596142E+02  0.31886062554E+02  0.00000000000E+00 0.  1.
         11    1    3    3    0    0 -0.14278585723E+01 -0.11635011824E+02  0.17058073153E+02  0.20697587787E+02  0.51100000000E-03 0. -1.
        -11    1    3    3    0    0 -0.91741328380E+00 -0.12914130659E+02  0.93368811963E+01  0.15962260759E+02  0.51100000000E-03 0.  1.
        -12    1    3    3    0    0  0.20192240376E+02  0.44717289436E+01 -0.92163582069E+01  0.22642088900E+02  0.00000000000E+00 0.  1.
</event>
<event>
 7    1  0.1221195E-011  0.5930193E+02  0.7816164E-02  0.1266605E+00
        -11   -1    0    0    0    0  0.00000000000E+00  0.00000000000E+00  0.45593999997E+02  0.45594000000E+02  0.51100000000E-03 0. -1.
         11   -1    0    0    0    0 -0.00000000000E+00 -0.00000000000E+00 -0.45593999997E+02  0.45594000000E+02  0.51100000000E-03 0.  1.
    9900012    2    1    2    0    0  0.85584233513E+01 -0.29620679257E+02  0.81295878364E+01  0.59301930184E+02  0.49999974753E+02 0.  0.
        -12    1    1    2    0    0 -0.85584233513E+01  0.29620679257E+02 -0.81295878364E+01  0.31886069816E+02  0.00000000000E+00 0.  1.
         11    1    3    3    0    0  0.71266255428E+01 -0.22186253625E+02  0.12800619563E+02  0.26587111595E+02  0.51100000000E-03 0. -1.
        -11    1    3    3    0    0  0.30232224573E+01 -0.41709446287E+01  0.13361630048E+02  0.14320258759E+02  0.51100000000E-03 0.  1.
         12    1    3    3    0    0 -0.15914246488E+01 -0.32634810036E+01 -0.18032661774E+02  0.18394559830E+02  0.00000000000E+00 0. -1.
</event>
<event>
 7    1  0.1221195E-011  0.5930219E+02  0.7816164E-02  0.1266604E+00
        -11   -1    0    0    0    0  0.00000000000E+00  0.00000000000E+00  0.45593999997E+02  0.45594000000E+02  0.51100000000E-03 0. -1.
         11   -1    0    0    0    0 -0.00000000000E+00 -0.00000000000E+00 -0.45593999997E+02  0.45594000000E+02  0.51100000000E-03 0.  1.
    9900012    2    1    2    0    0 -0.25419954556E+01  0.11852760442E+01  0.31762218920E+02  0.59302185428E+02  0.50000440254E+02 0.  0.
        -12    1    1    2    0    0  0.25419954556E+01 -0.11852760442E+01 -0.31762218920E+02  0.31885814572E+02  0.00000000000E+00 0.  1.
         11    1    3    3    0    0 -0.44594459326E+01  0.16295240697E+02  0.15328358958E+02  0.22811841574E+02  0.51100000000E-03 0. -1.
        -11    1    3    3    0    0  0.77775598348E+01 -0.36312377329E+01  0.21103568150E+02  0.22782381644E+02  0.51100000000E-03 0.  1.
        -12    1    3    3    0    0 -0.58601093577E+01 -0.11478726920E+02 -0.46697081877E+01  0.13707962210E+02  0.00000000000E+00 0.  1.
</event>
<event>
 7    1  0.1221195E-011  0.5930195E+02  0.7816164E-02  0.1266605E+00
        -11   -1    0    0    0    0  0.00000000000E+00  0.00000000000E+00  0.45593999997E+02  0.45594000000E+02  0.51100000000E-03 0.  1.
         11   -1    0    0    0    0 -0.00000000000E+00 -0.00000000000E+00 -0.45593999997E+02  0.45594000000E+02  0.51100000000E-03 0. -1.
    9900012    2    1    2    0    0 -0.14173650868E+02  0.24773016308E+02 -0.14217092996E+02  0.59301945851E+02  0.50000003325E+02 0.  0.
        -12    1    1    2    0    0  0.14173650868E+02 -0.24773016308E+02  0.14217092996E+02  0.31886054149E+02  0.00000000000E+00 0.  1.
         11    1    3    3    0    0  0.10118833124E+02  0.16351012006E+01  0.55540761730E+01  0.11658134590E+02  0.51100000000E-03 0.  1.
        -11    1    3    3    0    0 -0.10097340833E+02  0.24538539827E+02 -0.20238565404E+02  0.33372080526E+02  0.51100000000E-03 0. -1.
        -12    1    3    3    0    0 -0.14195143159E+02 -0.14006247193E+01  0.46739623503E+00  0.14271730735E+02  0.00000000000E+00 0.  1.
</event>
<event>
 7    1  0.1221195E-011  0.5930196E+02  0.7816164E-02  0.1266605E+00
        -11   -1    0    0    0    0  0.00000000000E+00  0.00000000000E+00  0.45593999997E+02  0.45594000000E+02  0.51100000000E-03 0. -1.
         11   -1    0    0    0    0 -0.00000000000E+00 -0.00000000000E+00 -0.45593999997E+02  0.45594000000E+02  0.51100000000E-03 0.  1.
    9900012    2    1    2    0    0  0.31511211648E+02 -0.48368202950E+01  0.60683488633E+00  0.59301960128E+02  0.50000029364E+02 0.  0.
        -12    1    1    2    0    0 -0.31511211648E+02  0.48368202950E+01 -0.60683488633E+00  0.31886039872E+02  0.00000000000E+00 0.  1.
         11    1    3    3    0    0  0.78897069644E+01  0.71072633556E+01  0.30527494316E+01  0.11048979489E+02  0.51100000000E-03 0. -1.
        -11    1    3    3    0    0  0.29200963170E+02 -0.20219755013E+02 -0.85775444716E+01  0.36539143563E+02  0.51100000000E-03 0.  1.
         12    1    3    3    0    0 -0.55794584864E+01  0.82756713629E+01  0.61316299263E+01  0.11713837077E+02  0.00000000000E+00 0. -1.
</event>
<event>
 7    1  0.1221195E-011  0.5930194E+02  0.7816164E-02  0.1266605E+00
        -11   -1    0    0    0    0  0.00000000000E+00  0.00000000000E+00  0.45593999997E+02  0.45594000000E+02  0.51100000000E-03 0. -1.
         11   -1    0    0    0    0 -0.00000000000E+00 -0.00000000000E+00 -0.45593999997E+02  0.45594000000E+02  0.51100000000E-03 0.  1.
    9900012    2    1    2    0    0 -0.26202599313E+02  0.18169389715E+02 -0.13334234793E+00  0.59301941706E+02  0.49999995765E+02 0.  0.
        -12    1    1    2    0    0  0.26202599313E+02 -0.18169389715E+02  0.13334234793E+00  0.31886058294E+02  0.00000000000E+00 0.  1.
         11    1    3    3    0    0  0.33950086539E+01  0.26689825689E+01  0.94661876458E+00  0.44210450189E+01  0.51100000000E-03 0. -1.
        -11    1    3    3    0    0  0.35076661374E+01 -0.11355636456E+02 -0.28261810208E+01  0.12216443855E+02  0.51100000000E-03 0.  1.
         12    1    3    3    0    0 -0.33105274104E+02  0.26856043602E+02  0.17462199083E+01  0.42664452832E+02  0.00000000000E+00 0. -1.
</event>
<event>
 7    1  0.1221195E-011  0.5930199E+02  0.7816164E-02  0.1266605E+00
        -11   -1    0    0    0    0  0.00000000000E+00  0.00000000000E+00  0.45593999997E+02  0.45594000000E+02  0.51100000000E-03 0.  1.
         11   -1    0    0    0    0 -0.00000000000E+00 -0.00000000000E+00 -0.45593999997E+02  0.45594000000E+02  0.51100000000E-03 0. -1.
    9900012    2    1    2    0    0 -0.16905880489E+02  0.26359805716E+02 -0.60058088300E+01  0.59301985947E+02  0.50000076451E+02 0.  0.
        -12    1    1    2    0    0  0.16905880489E+02 -0.26359805716E+02  0.60058088300E+01  0.31886014053E+02  0.00000000000E+00 0.  1.
         11    1    3    3    0    0  0.54996264415E+01  0.13907408274E+02 -0.85219631889E+01  0.17212953051E+02  0.51100000000E-03 0. -1.
        -11    1    3    3    0    0  0.46904379474E+01  0.13882797982E+02  0.29693881242E+01  0.14951573631E+02  0.51100000000E-03 0.  1.
         12    1    3    3    0    0 -0.27095944877E+02 -0.14304005397E+01 -0.45323376532E+00  0.27137459265E+02  0.00000000000E+00 0. -1.
</event>
<event>
 7    1  0.1221195E-011  0.5930190E+02  0.7816164E-02  0.1266605E+00
        -11   -1    0    0    0    0  0.00000000000E+00  0.00000000000E+00  0.45593999997E+02  0.45594000000E+02  0.51100000000E-03 0.  1.
         11   -1    0    0    0    0 -0.00000000000E+00 -0.00000000000E+00 -0.45593999997E+02  0.45594000000E+02  0.51100000000E-03 0. -1.
    9900012    2    1    2    0    0  0.21944766181E+02  0.22321856542E+02  0.60733110616E+01  0.59301903508E+02  0.49999926102E+02 0.  0.
        -12    1    1    2    0    0 -0.21944766181E+02 -0.22321856542E+02 -0.60733110616E+01  0.31886096492E+02  0.00000000000E+00 0.  1.
         11    1    3    3    0    0  0.18015915971E+02 -0.29102385280E+00 -0.12714233402E+02  0.22052429671E+02  0.51100000000E-03 0. -1.
        -11    1    3    3    0    0 -0.15833120447E+01 -0.41004016330E+01  0.50966611590E+01  0.67302396550E+01  0.51100000000E-03 0.  1.
        -12    1    3    3    0    0  0.55121622553E+01  0.26713282028E+02  0.13690883304E+02  0.30519234182E+02  0.00000000000E+00 0.  1.
</event>
<event>
 7    1  0.1221195E-011  0.5930194E+02  0.7816164E-02  0.1266605E+00
        -11   -1    0    0    0    0  0.00000000000E+00  0.00000000000E+00  0.45593999997E+02  0.45594000000E+02  0.51100000000E-03 0. -1.
         11   -1    0    0    0    0 -0.00000000000E+00 -0.00000000000E+00 -0.45593999997E+02  0.45594000000E+02  0.51100000000E-03 0.  1.
    9900012    2    1    2    0    0  0.25073949668E+02 -0.13595177939E+01  0.19651190114E+02  0.59301944843E+02  0.50000001487E+02 0.  0.
        -12    1    1    2    0    0 -0.25073949668E+02  0.13595177939E+01 -0.19651190114E+02  0.31886055157E+02  0.00000000000E+00 0.  1.
         11    1    3    3    0    0  0.11460120364E+02 -0.14792512250E+02  0.48746431924E+01  0.19336879891E+02  0.51100000000E-03 0. -1.
        -11    1    3    3    0    0  0.11825869365E+02 -0.84988196919E+01  0.93335857095E+01  0.17297310336E+02  0.51100000000E-03 0.  1.
        -12    1    3    3    0    0  0.17879599389E+01  0.21931814148E+02  0.54429612117E+01  0.22667754616E+02  0.00000000000E+00 0.  1.
</event>
<event>
 7    1  0.1221195E-011  0.5930194E+02  0.7816164E-02  0.1266605E+00
        -11   -1    0    0    0    0  0.00000000000E+00  0.00000000000E+00  0.45593999997E+02  0.45594000000E+02  0.51100000000E-03 0.  1.
         11   -1    0    0    0    0 -0.00000000000E+00 -0.00000000000E+00 -0.45593999997E+02  0.45594000000E+02  0.51100000000E-03 0. -1.
    9900012    2    1    2    0    0  0.25923509511E+02 -0.33848798527E+01 -0.18254726011E+02  0.59301940684E+02  0.49999993901E+02 0.  0.
        -12    1    1    2    0    0 -0.25923509511E+02  0.33848798527E+01  0.18254726011E+02  0.31886059316E+02  0.00000000000E+00 0.  1.
         11    1    3    3    0    0  0.19849817005E+01  0.17134129937E+02 -0.99271729787E+01  0.19901440266E+02  0.51100000000E-03 0. -1.
        -11    1    3    3    0    0  0.18814490557E+02 -0.32415510675E+01  0.98147311305E+00  0.19116903462E+02  0.51100000000E-03 0.  1.
        -12    1    3    3    0    0  0.51240372534E+01 -0.17277458722E+02 -0.93090261455E+01  0.20283596956E+02  0.00000000000E+00 0.  1.
</event>
<event>
 7    1  0.1221195E-011  0.5930193E+02  0.7816164E-02  0.1266605E+00
        -11   -1    0    0    0    0  0.00000000000E+00  0.00000000000E+00  0.45593999997E+02  0.45594000000E+02  0.51100000000E-03 0.  1.
         11   -1    0    0    0    0 -0.00000000000E+00 -0.00000000000E+00 -0.45593999997E+02  0.45594000000E+02  0.51100000000E-03 0. -1.
    9900012    2    1    2    0    0  0.12841939857E+02 -0.21099477783E+02 -0.20164780662E+02  0.59301925279E+02  0.49999965806E+02 0.  0.
        -12    1    1    2    0    0 -0.12841939857E+02  0.21099477783E+02  0.20164780662E+02  0.31886074721E+02  0.00000000000E+00 0.  1.
         11    1    3    3    0    0 -0.49098340466E+01  0.28521194280E-01 -0.21685254544E+02  0.22234152755E+02  0.51100000000E-03 0. -1.
        -11    1    3    3    0    0 -0.87323929061E-01  0.22600823612E+01  0.68147070958E+01  0.71802389105E+01  0.51100000000E-03 0.  1.
         12    1    3    3    0    0  0.17839097833E+02 -0.23388081338E+02 -0.52942332139E+01  0.29887533613E+02  0.00000000000E+00 0. -1.
</event>
<event>
 7    1  0.1221195E-011  0.5930196E+02  0.7816164E-02  0.1266605E+00
        -11   -1    0    0    0    0  0.00000000000E+00  0.00000000000E+00  0.45593999997E+02  0.45594000000E+02  0.51100000000E-03 0.  1.
         11   -1    0    0    0    0 -0.00000000000E+00 -0.00000000000E+00 -0.45593999997E+02  0.45594000000E+02  0.51100000000E-03 0. -1.
    9900012    2    1    2    0    0  0.22527288269E+02  0.22561396933E+02  0.47357961460E+00  0.59301958760E+02  0.50000026868E+02 0.  0.
        -12    1    1    2    0    0 -0.22527288269E+02 -0.22561396933E+02 -0.47357961460E+00  0.31886041240E+02  0.00000000000E+00 0.  1.
         11    1    3    3    0    0  0.50477547750E+01  0.82940763091E+01  0.14125244285E+02  0.17140421712E+02  0.51100000000E-03 0. -1.
        -11    1    3    3    0    0 -0.27717561599E+01 -0.24797329441E+01  0.75368993074E+01  0.84045558547E+01  0.51100000000E-03 0.  1.
         12    1    3    3    0    0  0.20251289654E+02  0.16747053568E+02 -0.21188563978E+02  0.33756981193E+02  0.00000000000E+00 0. -1.
</event>
<event>
 7    1  0.1221195E-011  0.5930192E+02  0.7816164E-02  0.1266605E+00
        -11   -1    0    0    0    0  0.00000000000E+00  0.00000000000E+00  0.45593999997E+02  0.45594000000E+02  0.51100000000E-03 0.  1.
         11   -1    0    0    0    0 -0.00000000000E+00 -0.00000000000E+00 -0.45593999997E+02  0.45594000000E+02  0.51100000000E-03 0. -1.
    9900012    2    1    2    0    0 -0.10516737799E+02  0.29613568883E+02  0.53997278202E+01  0.59301916885E+02  0.49999950497E+02 0.  0.
        -12    1    1    2    0    0  0.10516737799E+02 -0.29613568883E+02 -0.53997278202E+01  0.31886083115E+02  0.00000000000E+00 0.  1.
         11    1    3    3    0    0 -0.83786195274E+01  0.38081421099E+01  0.20608888863E+02  0.22570545229E+02  0.51100000000E-03 0.  1.
        -11    1    3    3    0    0  0.91508086123E+01  0.85083837695E+01 -0.80828656640E+01  0.14881619879E+02  0.51100000000E-03 0. -1.
        -12    1    3    3    0    0 -0.11288926884E+02  0.17297043004E+02 -0.71262953789E+01  0.21849751776E+02  0.00000000000E+00 0.  1.
</event>
<event>
 7    1  0.1221195E-011  0.5930190E+02  0.7816164E-02  0.1266605E+00
        -11   -1    0    0    0    0  0.00000000000E+00  0.00000000000E+00  0.45593999997E+02  0.45594000000E+02  0.51100000000E-03 0. -1.
         11   -1    0    0    0    0 -0.00000000000E+00 -0.00000000000E+00 -0.45593999997E+02  0.45594000000E+02  0.51100000000E-03 0.  1.
    9900012    2    1    2    0    0  0.27565952073E+02 -0.38717472849E+01  0.15551556996E+02  0.59301904821E+02  0.49999928497E+02 0.  0.
        -12    1    1    2    0    0 -0.27565952073E+02  0.38717472849E+01 -0.15551556996E+02  0.31886095179E+02  0.00000000000E+00 0.  1.
         11    1    3    3    0    0  0.24329800197E+02 -0.54275748916E+01  0.15296648585E+02  0.29246969160E+02  0.51100000000E-03 0. -1.
        -11    1    3    3    0    0  0.36059006405E+01  0.12565014558E+02  0.91001123788E+01  0.15927779376E+02  0.51100000000E-03 0.  1.
        -12    1    3    3    0    0 -0.36974876385E+00 -0.11009186951E+02 -0.88452039685E+01  0.14127156286E+02  0.00000000000E+00 0.  1.
</event>
<event>
 7    1  0.1221195E-011  0.5930158E+02  0.7816164E-02  0.1266606E+00
        -11   -1    0    0    0    0  0.00000000000E+00  0.00000000000E+00  0.45593999997E+02  0.45594000000E+02  0.51100000000E-03 0. -1.
         11   -1    0    0    0    0 -0.00000000000E+00 -0.00000000000E+00 -0.45593999997E+02  0.45594000000E+02  0.51100000000E-03 0.  1.
    9900012    2    1    2    0    0  0.15977463866E+02  0.18452107641E+02  0.20517905594E+02  0.59301575334E+02  0.49999327587E+02 0.  0.
        -12    1    1    2    0    0 -0.15977463866E+02 -0.18452107641E+02 -0.20517905594E+02  0.31886424666E+02  0.00000000000E+00 0.  1.
         11    1    3    3    0    0  0.15830541613E+02 -0.29184216917E+01 -0.30418211657E+00  0.16100178879E+02  0.51100000000E-03 0.  1.
        -11    1    3    3    0    0  0.12325653118E+01 -0.55671469185E+01  0.14399547456E+02  0.15487391945E+02  0.51100000000E-03 0. -1.
         12    1    3    3    0    0 -0.10856430588E+01  0.26937676251E+02  0.64225402548E+01  0.27714004510E+02  0.00000000000E+00 0. -1.
</event>
<event>
 7    1  0.1221195E-011  0.5930194E+02  0.7816164E-02  0.1266605E+00
        -11   -1    0    0    0    0  0.00000000000E+00  0.00000000000E+00  0.45593999997E+02  0.45594000000E+02  0.51100000000E-03 0. -1.
         11   -1    0    0    0    0 -0.00000000000E+00 -0.00000000000E+00 -0.45593999997E+02  0.45594000000E+02  0.51100000000E-03 0.  1.
    9900012    2    1    2    0    0 -0.91995786726E+01  0.19486957940E+02  0.23502062023E+02  0.59301941968E+02  0.49999996243E+02 0.  0.
        -12    1    1    2    0    0  0.91995786726E+01 -0.19486957940E+02 -0.23502062023E+02  0.31886058032E+02  0.00000000000E+00 0.  1.
         11    1    3    3    0    0 -0.61661695282E+01 -0.55182023884E+01  0.78951140744E+01  0.11437002700E+02  0.51100000000E-03 0. -1.
        -11    1    3    3    0    0  0.81623166125E+00  0.10878494528E+02 -0.12244534411E+02  0.16399283537E+02  0.51100000000E-03 0.  1.
         12    1    3    3    0    0 -0.38496408056E+01  0.14126665801E+02  0.27851482359E+02  0.31465655731E+02  0.00000000000E+00 0. -1.
</event>
<event>
 7    1  0.1221195E-011  0.5930195E+02  0.7816164E-02  0.1266605E+00
        -11   -1    0    0    0    0  0.00000000000E+00  0.00000000000E+00  0.45593999997E+02  0.45594000000E+02  0.51100000000E-03 0.  1.
         11   -1    0    0    0    0 -0.00000000000E+00 -0.00000000000E+00 -0.45593999997E+02  0.45594000000E+02  0.51100000000E-03 0. -1.
    9900012    2    1    2    0    0 -0.35558765504E+01 -0.31027374356E+02  0.64325835880E+01  0.59301947421E+02  0.50000006188E+02 0.  0.
        -12    1    1    2    0    0  0.35558765504E+01  0.31027374356E+02 -0.64325835880E+01  0.31886052579E+02  0.00000000000E+00 0.  1.
         11    1    3    3    0    0  0.14726139205E+01  0.13057768993E+01 -0.16605053831E+00  0.19751501493E+01  0.51100000000E-03 0. -1.
        -11    1    3    3    0    0 -0.18751007452E+02 -0.34965387286E+01 -0.97811943770E+01  0.21435900430E+02  0.51100000000E-03 0.  1.
         12    1    3    3    0    0  0.13722516981E+02 -0.28836612527E+02  0.16379828503E+02  0.35890896842E+02  0.00000000000E+00 0. -1.
</event>
<event>
 7    1  0.1221195E-011  0.5930195E+02  0.7816164E-02  0.1266605E+00
        -11   -1    0    0    0    0  0.00000000000E+00  0.00000000000E+00  0.45593999997E+02  0.45594000000E+02  0.51100000000E-03 0.  1.
         11   -1    0    0    0    0 -0.00000000000E+00 -0.00000000000E+00 -0.45593999997E+02  0.45594000000E+02  0.51100000000E-03 0. -1.
    9900012    2    1    2    0    0 -0.64843374538E+01 -0.30081276432E+02 -0.83540777499E+01  0.59301946010E+02  0.50000003616E+02 0.  0.
        -12    1    1    2    0    0  0.64843374538E+01  0.30081276432E+02  0.83540777499E+01  0.31886053990E+02  0.00000000000E+00 0.  1.
         11    1    3    3    0    0 -0.38560197760E+01 -0.65897913158E+01  0.28577098180E+01  0.81523459056E+01  0.51100000000E-03 0. -1.
        -11    1    3    3    0    0  0.54187007679E+01  0.62293013069E+01  0.10585265395E+02  0.13424394084E+02  0.51100000000E-03 0.  1.
         12    1    3    3    0    0 -0.80470184457E+01 -0.29720786423E+02 -0.21797052963E+02  0.37725206021E+02  0.00000000000E+00 0. -1.
</event>
<event>
 7    1  0.1221195E-011  0.5930194E+02  0.7816164E-02  0.1266605E+00
        -11   -1    0    0    0    0  0.00000000000E+00  0.00000000000E+00  0.45593999997E+02  0.45594000000E+02  0.51100000000E-03 0. -1.
         11   -1    0    0    0    0 -0.00000000000E+00 -0.00000000000E+00 -0.45593999997E+02  0.45594000000E+02  0.51100000000E-03 0.  1.
    9900012    2    1    2    0    0  0.59659534796E+01 -0.16452945961E+02  0.26653865782E+02  0.59301943599E+02  0.49999999218E+02 0.  0.
        -12    1    1    2    0    0 -0.59659534796E+01  0.16452945961E+02 -0.26653865782E+02  0.31886056401E+02  0.00000000000E+00 0.  1.
         11    1    3    3    0    0 -0.45983815039E+01 -0.81308089784E+01  0.27400027416E+01  0.97346177318E+01  0.51100000000E-03 0. -1.
        -11    1    3    3    0    0 -0.94208078955E+01  0.18775378439E+01 -0.66270716128E+01  0.11670254847E+02  0.51100000000E-03 0.  1.
         12    1    3    3    0    0  0.19985142879E+02 -0.10199674826E+02  0.30540934653E+02  0.37897071021E+02  0.00000000000E+00 0. -1.
</event>
<event>
 7    1  0.1221195E-011  0.5930197E+02  0.7816164E-02  0.1266605E+00
        -11   -1    0    0    0    0  0.00000000000E+00  0.00000000000E+00  0.45593999997E+02  0.45594000000E+02  0.51100000000E-03 0. -1.
         11   -1    0    0    0    0 -0.00000000000E+00 -0.00000000000E+00 -0.45593999997E+02  0.45594000000E+02  0.51100000000E-03 0.  1.
    9900012    2    1    2    0    0  0.12942662879E+02  0.28858038087E+02  0.40521980732E+01  0.59301965536E+02  0.50000039226E+02 0.  0.
        -12    1    1    2    0    0 -0.12942662879E+02 -0.28858038087E+02 -0.40521980732E+01  0.31886034464E+02  0.00000000000E+00 0.  1.
         11    1    3    3    0    0 -0.23643155871E+01  0.77173097934E+01  0.59659390497E+01  0.10036896316E+02  0.51100000000E-03 0. -1.
        -11    1    3    3    0    0 -0.74399924672E+01  0.90532835141E+01  0.14559147150E+02  0.18689146484E+02  0.51100000000E-03 0.  1.
        -12    1    3    3    0    0  0.22746970934E+02  0.12087444779E+02 -0.16472888127E+02  0.30575922736E+02  0.00000000000E+00 0.  1.
</event>
<event>
 7    1  0.1221195E-011  0.5930195E+02  0.7816164E-02  0.1266605E+00
        -11   -1    0    0    0    0  0.00000000000E+00  0.00000000000E+00  0.45593999997E+02  0.45594000000E+02  0.51100000000E-03 0. -1.
         11   -1    0    0    0    0 -0.00000000000E+00 -0.00000000000E+00 -0.45593999997E+02  0.45594000000E+02  0.51100000000E-03 0.  1.
    9900012    2    1    2    0    0 -0.21057570302E+02 -0.13915573474E+02  0.19484758037E+02  0.59301949007E+02  0.50000009081E+02 0.  0.
        -12    1    1    2    0    0  0.21057570302E+02  0.13915573474E+02 -0.19484758037E+02  0.31886050993E+02  0.00000000000E+00 0.  1.
         11    1    3    3    0    0 -0.19913888320E+02  0.95082379285E+01  0.13127917195E+02  0.25677066551E+02  0.51100000000E-03 0. -1.
        -11    1    3    3    0    0  0.25344782360E+01  0.43234413922E+01  0.58033722308E+00  0.50450487563E+01  0.51100000000E-03 0.  1.
         12    1    3    3    0    0 -0.36781602187E+01 -0.27747252795E+02  0.57765036188E+01  0.28579833700E+02  0.00000000000E+00 0. -1.
</event>
<event>
 7    1  0.1221195E-011  0.5930192E+02  0.7816164E-02  0.1266605E+00
        -11   -1    0    0    0    0  0.00000000000E+00  0.00000000000E+00  0.45593999997E+02  0.45594000000E+02  0.51100000000E-03 0.  1.
         11   -1    0    0    0    0 -0.00000000000E+00 -0.00000000000E+00 -0.45593999997E+02  0.45594000000E+02  0.51100000000E-03 0. -1.
    9900012    2    1    2    0    0  0.88059681888E+01 -0.29148508509E+02  0.94626517723E+01  0.59301915220E+02  0.49999947462E+02 0.  0.
        -12    1    1    2    0    0 -0.88059681888E+01  0.29148508509E+02 -0.94626517723E+01  0.31886084780E+02  0.00000000000E+00 0.  1.
         11    1    3    3    0    0 -0.58321145048E+01 -0.23571490167E+02  0.66589390957E+01  0.25178764434E+02  0.51100000000E-03 0. -1.
        -11    1    3    3    0    0  0.12293233757E+02 -0.19916780507E+01  0.15984788554E+02  0.20263362086E+02  0.51100000000E-03 0.  1.
         12    1    3    3    0    0  0.23448489365E+01 -0.35853402913E+01 -0.13181075877E+02  0.13859788700E+02  0.00000000000E+00 0. -1.
</event>
<event>
 7    1  0.1221195E-011  0.5930193E+02  0.7816164E-02  0.1266605E+00
        -11   -1    0    0    0    0  0.00000000000E+00  0.00000000000E+00  0.45593999997E+02  0.45594000000E+02  0.51100000000E-03 0.  1.
         11   -1    0    0    0    0 -0.00000000000E+00 -0.00000000000E+00 -0.45593999997E+02  0.45594000000E+02  0.51100000000E-03 0. -1.
    9900012    2    1    2    0    0  0.33560338720E+00 -0.82797274757E+00 -0.31873549406E+02  0.59301932192E+02  0.49999978415E+02 0.  0.
        -12    1    1    2    0    0 -0.33560338720E+00  0.82797274757E+00  0.31873549406E+02  0.31886067808E+02  0.00000000000E+00 0.  1.
         11    1    3    3    0    0  0.12749761047E+00  0.98075058921E+01 -0.60763801435E+01  0.11538016440E+02  0.51100000000E-03 0. -1.
        -11    1    3    3    0    0  0.11918458862E+02  0.10227681950E+02 -0.14214380001E+02  0.21182628231E+02  0.51100000000E-03 0.  1.
         12    1    3    3    0    0 -0.11710353086E+02 -0.20863160590E+02 -0.11582789262E+02  0.26581287521E+02  0.00000000000E+00 0. -1.
</event>
<event>
 7    1  0.1221195E-011  0.5930193E+02  0.7816164E-02  0.1266605E+00
        -11   -1    0    0    0    0  0.00000000000E+00  0.00000000000E+00  0.45593999997E+02  0.45594000000E+02  0.51100000000E-03 0.  1.
         11   -1    0    0    0    0 -0.00000000000E+00 -0.00000000000E+00 -0.45593999997E+02  0.45594000000E+02  0.51100000000E-03 0. -1.
    9900012    2    1    2    0    0  0.90556701590E+01 -0.10166406887E+02 -0.28833323090E+02  0.59301929194E+02  0.49999972947E+02 0.  0.
        -12    1    1    2    0    0 -0.90556701590E+01  0.10166406887E+02  0.28833323090E+02  0.31886070806E+02  0.00000000000E+00 0.  1.
         11    1    3    3    0    0  0.13631662310E+02 -0.67674859827E+01 -0.51001358617E+01  0.16050933616E+02  0.51100000000E-03 0. -1.
        -11    1    3    3    0    0 -0.10150730723E+02 -0.16513334100E+02 -0.21291311248E+02  0.28793184475E+02  0.51100000000E-03 0.  1.
         12    1    3    3    0    0  0.55747385724E+01  0.13114413195E+02 -0.24418759804E+01  0.14457811103E+02  0.00000000000E+00 0. -1.
</event>
<event>
 7    1  0.1221195E-011  0.5930185E+02  0.7816164E-02  0.1266605E+00
        -11   -1    0    0    0    0  0.00000000000E+00  0.00000000000E+00  0.45593999997E+02  0.45594000000E+02  0.51100000000E-03 0. -1.
         11   -1    0    0    0    0 -0.00000000000E+00 -0.00000000000E+00 -0.45593999997E+02  0.45594000000E+02  0.51100000000E-03 0.  1.
    9900012    2    1    2    0    0 -0.78902353292E+01 -0.26546842370E+02 -0.15803042367E+02  0.59301846243E+02  0.49999821664E+02 0.  0.
        -12    1    1    2    0    0  0.78902353292E+01  0.26546842370E+02  0.15803042367E+02  0.31886153757E+02  0.00000000000E+00 0.  1.
         11    1    3    3    0    0  0.10115091722E+02 -0.25430070155E+01  0.49109456660E+01  0.11528198160E+02  0.51100000000E-03 0. -1.
        -11    1    3    3    0    0 -0.57220002932E+01  0.52888804559E+01  0.27717434428E+01  0.82701938191E+01  0.51100000000E-03 0.  1.
         12    1    3    3    0    0 -0.12283326758E+02 -0.29292715810E+02 -0.23485731476E+02  0.39503454263E+02  0.00000000000E+00 0. -1.
</event>
<event>
 7    1  0.1221195E-011  0.5930193E+02  0.7816164E-02  0.1266605E+00
        -11   -1    0    0    0    0  0.00000000000E+00  0.00000000000E+00  0.45593999997E+02  0.45594000000E+02  0.51100000000E-03 0.  1.
         11   -1    0    0    0    0 -0.00000000000E+00 -0.00000000000E+00 -0.45593999997E+02  0.45594000000E+02  0.51100000000E-03 0. -1.
    9900012    2    1    2    0    0 -0.11801410840E+02 -0.12572514150E+02 -0.26821260579E+02  0.59301930488E+02  0.49999975307E+02 0.  0.
        -12    1    1    2    0    0  0.11801410840E+02  0.12572514150E+02  0.26821260579E+02  0.31886069512E+02  0.00000000000E+00 0.  1.
         11    1    3    3    0    0 -0.42157212813E+01  0.28555098919E+01 -0.48199810491E+01  0.70113094525E+01  0.51100000000E-03 0. -1.
        -11    1    3    3    0    0 -0.16445539211E+02 -0.44795981405E+00  0.74668280538E+01  0.18066819016E+02  0.51100000000E-03 0.  1.
         12    1    3    3    0    0  0.88598496517E+01 -0.14980064228E+02 -0.29468107583E+02  0.34223802019E+02  0.00000000000E+00 0. -1.
</event>
<event>
 7    1  0.1221195E-011  0.5930182E+02  0.7816164E-02  0.1266605E+00
        -11   -1    0    0    0    0  0.00000000000E+00  0.00000000000E+00  0.45593999997E+02  0.45594000000E+02  0.51100000000E-03 0. -1.
         11   -1    0    0    0    0 -0.00000000000E+00 -0.00000000000E+00 -0.45593999997E+02  0.45594000000E+02  0.51100000000E-03 0.  1.
    9900012    2    1    2    0    0  0.18350866515E+02  0.25834768746E+02 -0.35409912666E+01  0.59301824357E+02  0.49999781749E+02 0.  0.
        -12    1    1    2    0    0 -0.18350866515E+02 -0.25834768746E+02  0.35409912666E+01  0.31886175643E+02  0.00000000000E+00 0.  1.
         11    1    3    3    0    0  0.31422482994E+02  0.13760503192E+02  0.58615246782E+00  0.34308416760E+02  0.51100000000E-03 0. -1.
        -11    1    3    3    0    0 -0.58994307585E+00 -0.25532034803E+00 -0.71598804351E+01  0.71886792542E+01  0.51100000000E-03 0.  1.
        -12    1    3    3    0    0 -0.12481673404E+02  0.12329585902E+02  0.30327367007E+01  0.17804728343E+02  0.00000000000E+00 0.  1.
</event>
<event>
 7    1  0.1221195E-011  0.5930196E+02  0.7816164E-02  0.1266605E+00
        -11   -1    0    0    0    0  0.00000000000E+00  0.00000000000E+00  0.45593999997E+02  0.45594000000E+02  0.51100000000E-03 0.  1.
         11   -1    0    0    0    0 -0.00000000000E+00 -0.00000000000E+00 -0.45593999997E+02  0.45594000000E+02  0.51100000000E-03 0. -1.
    9900012    2    1    2    0    0 -0.19797799192E+02 -0.17510200895E+02  0.17837036065E+02  0.59301955344E+02  0.50000020638E+02 0.  0.
        -12    1    1    2    0    0  0.19797799192E+02  0.17510200895E+02 -0.17837036065E+02  0.31886044656E+02  0.00000000000E+00 0.  1.
         11    1    3    3    0    0 -0.36424559477E+01  0.31112411468E+01  0.11177012912E+02  0.12160301176E+02  0.51100000000E-03 0. -1.
        -11    1    3    3    0    0 -0.53002141938E+01  0.11551799036E+02  0.15394574296E+01  0.12802588055E+02  0.51100000000E-03 0.  1.
         12    1    3    3    0    0 -0.10855129050E+02 -0.32173241078E+02  0.51205657237E+01  0.34339066112E+02  0.00000000000E+00 0. -1.
</event>
<event>
 7    1  0.1221195E-011  0.5930194E+02  0.7816164E-02  0.1266605E+00
        -11   -1    0    0    0    0  0.00000000000E+00  0.00000000000E+00  0.45593999997E+02  0.45594000000E+02  0.51100000000E-03 0. -1.
         11   -1    0    0    0    0 -0.00000000000E+00 -0.00000000000E+00 -0.45593999997E+02  0.45594000000E+02  0.51100000000E-03 0.  1.
    9900012    2    1    2    0    0  0.10568746294E+02 -0.28821542977E+02  0.86221253481E+01  0.59301940612E+02  0.49999993771E+02 0.  0.
        -12    1    1    2    0    0 -0.10568746294E+02  0.28821542977E+02 -0.86221253481E+01  0.31886059388E+02  0.00000000000E+00 0.  1.
         11    1    3    3    0    0 -0.71144988489E+01 -0.83355823974E+01 -0.21110843346E+01  0.11160407927E+02  0.51100000000E-03 0. -1.
        -11    1    3    3    0    0  0.69333382100E+00 -0.16711124149E+02 -0.11209617411E+02  0.20134495397E+02  0.51100000000E-03 0.  1.
        -12    1    3    3    0    0  0.16989911322E+02 -0.37748364299E+01  0.21942827094E+02  0.28007037288E+02  0.00000000000E+00 0.  1.
</event>
<event>
 7    1  0.1221195E-011  0.5930194E+02  0.7816164E-02  0.1266605E+00
        -11   -1    0    0    0    0  0.00000000000E+00  0.00000000000E+00  0.45593999997E+02  0.45594000000E+02  0.51100000000E-03 0.  1.
         11   -1    0    0    0    0 -0.00000000000E+00 -0.00000000000E+00 -0.45593999997E+02  0.45594000000E+02  0.51100000000E-03 0. -1.
    9900012    2    1    2    0    0  0.15937630738E+02 -0.51239476153E+01 -0.27137758936E+02  0.59301939209E+02  0.49999991211E+02 0.  0.
        -12    1    1    2    0    0 -0.15937630738E+02  0.51239476153E+01  0.27137758936E+02  0.31886060791E+02  0.00000000000E+00 0.  1.
         11    1    3    3    0    0  0.62769440711E+00  0.73710354466E+01 -0.88773560673E+01  0.11555674573E+02  0.51100000000E-03 0. -1.
        -11    1    3    3    0    0  0.14400553964E+01  0.12952188674E+02 -0.12776799765E+02  0.18250467487E+02  0.51100000000E-03 0.  1.
        -12    1    3    3    0    0  0.13869880934E+02 -0.25447171736E+02 -0.54836031041E+01  0.29495797149E+02  0.00000000000E+00 0.  1.
</event>
<event>
 7    1  0.1221195E-011  0.5930196E+02  0.7816164E-02  0.1266605E+00
        -11   -1    0    0    0    0  0.00000000000E+00  0.00000000000E+00  0.45593999997E+02  0.45594000000E+02  0.51100000000E-03 0.  1.
         11   -1    0    0    0    0 -0.00000000000E+00 -0.00000000000E+00 -0.45593999997E+02  0.45594000000E+02  0.51100000000E-03 0. -1.
    9900012    2    1    2    0    0  0.87714851179E+00 -0.57394085013E+01 -0.31352980572E+02  0.59301959321E+02  0.50000027891E+02 0.  0.
        -12    1    1    2    0    0 -0.87714851179E+00  0.57394085013E+01  0.31352980572E+02  0.31886040679E+02  0.00000000000E+00 0.  1.
         11    1    3    3    0    0  0.38455337960E+01  0.11745525910E+02 -0.14529565141E+02  0.19074951443E+02  0.51100000000E-03 0. -1.
        -11    1    3    3    0    0 -0.93637378324E+01 -0.12134308739E+02 -0.24495853360E+02  0.28895810542E+02  0.51100000000E-03 0.  1.
        -12    1    3    3    0    0  0.63953525482E+01 -0.53506256724E+01  0.76724379294E+01  0.11331197337E+02  0.00000000000E+00 0.  1.
</event>
<event>
 7    1  0.1221195E-011  0.5930191E+02  0.7816164E-02  0.1266605E+00
        -11   -1    0    0    0    0  0.00000000000E+00  0.00000000000E+00  0.45593999997E+02  0.45594000000E+02  0.51100000000E-03 0. -1.
         11   -1    0    0    0    0 -0.00000000000E+00 -0.00000000000E+00 -0.45593999997E+02  0.45594000000E+02  0.51100000000E-03 0.  1.
    9900012    2    1    2    0    0  0.21498608968E+02 -0.11591385981E+01  0.23519973078E+02  0.59301907053E+02  0.49999932567E+02 0.  0.
        -12    1    1    2    0    0 -0.21498608968E+02  0.11591385981E+01 -0.23519973078E+02  0.31886092947E+02  0.00000000000E+00 0.  1.
         11    1    3    3    0    0 -0.17554865762E+01 -0.52109600531E+01 -0.83295723899E+00  0.55614436810E+01  0.51100000000E-03 0. -1.
        -11    1    3    3    0    0  0.20799123498E+02  0.12386778881E+02 -0.35943918981E+01  0.24473567021E+02  0.51100000000E-03 0.  1.
         12    1    3    3    0    0  0.24549720453E+01 -0.83349574259E+01  0.27947322215E+02  0.29266896351E+02  0.00000000000E+00 0. -1.
</event>
<event>
 7    1  0.1221195E-011  0.5930202E+02  0.7816164E-02  0.1266605E+00
        -11   -1    0    0    0    0  0.00000000000E+00  0.00000000000E+00  0.45593999997E+02  0.45594000000E+02  0.51100000000E-03 0. -1.
         11   -1    0    0    0    0 -0.00000000000E+00 -0.00000000000E+00 -0.45593999997E+02  0.45594000000E+02  0.51100000000E-03 0.  1.
    9900012    2    1    2    0    0  0.27309622636E+02 -0.12318987167E+02  0.10915266134E+02  0.59302016118E+02  0.50000131475E+02 0.  0.
        -12    1    1    2    0    0 -0.27309622636E+02  0.12318987167E+02 -0.10915266134E+02  0.31885983882E+02  0.00000000000E+00 0.  1.
         11    1    3    3    0    0  0.57444329109E+01  0.39678675510E+00  0.36092400747E+01  0.67957754064E+01  0.51100000000E-03 0. -1.
        -11    1    3    3    0    0  0.96366628767E+01 -0.16723378702E+02  0.24506170257E+02  0.31194375255E+02  0.51100000000E-03 0.  1.
        -12    1    3    3    0    0  0.11928526848E+02  0.40076047798E+01 -0.17200144197E+02  0.21311865457E+02  0.00000000000E+00 0.  1.
</event>
<event>
 7    1  0.1221195E-011  0.5930197E+02  0.7816164E-02  0.1266605E+00
        -11   -1    0    0    0    0  0.00000000000E+00  0.00000000000E+00  0.45593999997E+02  0.45594000000E+02  0.51100000000E-03 0.  1.
         11   -1    0    0    0    0 -0.00000000000E+00 -0.00000000000E+00 -0.45593999997E+02  0.45594000000E+02  0.51100000000E-03 0. -1.
    9900012    2    1    2    0    0 -0.25963180777E+02  0.18487206943E+02  0.92499352171E+00  0.59301965602E+02  0.50000039346E+02 0.  0.
        -12    1    1    2    0    0  0.25963180777E+02 -0.18487206943E+02 -0.92499352171E+00  0.31886034398E+02  0.00000000000E+00 0.  1.
         11    1    3    3    0    0 -0.13343893264E+00 -0.54151616459E+01 -0.13186812661E+02  0.14256009611E+02  0.51100000000E-03 0. -1.
        -11    1    3    3    0    0 -0.16890675218E+02  0.15115689562E+02 -0.40029144944E+01  0.23017434804E+02  0.51100000000E-03 0.  1.
        -12    1    3    3    0    0 -0.89390666263E+01  0.87866790266E+01  0.18114720677E+02  0.22028521187E+02  0.00000000000E+00 0.  1.
</event>
<event>
 7    1  0.1221195E-011  0.5930194E+02  0.7816164E-02  0.1266605E+00
        -11   -1    0    0    0    0  0.00000000000E+00  0.00000000000E+00  0.45593999997E+02  0.45594000000E+02  0.51100000000E-03 0.  1.
         11   -1    0    0    0    0 -0.00000000000E+00 -0.00000000000E+00 -0.45593999997E+02  0.45594000000E+02  0.51100000000E-03 0. -1.
    9900012    2    1    2    0    0  0.11957116054E+02  0.74506959372E+01 -0.28604818533E+02  0.59301935057E+02  0.49999983639E+02 0.  0.
        -12    1    1    2    0    0 -0.11957116054E+02 -0.74506959372E+01  0.28604818533E+02  0.31886064943E+02  0.00000000000E+00 0.  1.
         11    1    3    3    0    0 -0.44213387146E+01 -0.36463678395E+01 -0.25252224347E+02  0.25894382966E+02  0.51100000000E-03 0. -1.
        -11    1    3    3    0    0  0.14140251912E+02 -0.11883234582E+01 -0.11696118751E+02  0.18389073682E+02  0.51100000000E-03 0.  1.
        -12    1    3    3    0    0  0.22382028566E+01  0.12285387235E+02  0.83435245656E+01  0.15018478409E+02  0.00000000000E+00 0.  1.
</event>
<event>
 7    1  0.1221195E-011  0.5930183E+02  0.7816164E-02  0.1266605E+00
        -11   -1    0    0    0    0  0.00000000000E+00  0.00000000000E+00  0.45593999997E+02  0.45594000000E+02  0.51100000000E-03 0.  1.
         11   -1    0    0    0    0 -0.00000000000E+00 -0.00000000000E+00 -0.45593999997E+02  0.45594000000E+02  0.51100000000E-03 0. -1.
    9900012    2    1    2    0    0  0.11173964954E+02 -0.29857766447E+02  0.61961162349E+00  0.59301833273E+02  0.49999798009E+02 0.  0.
        -12    1    1    2    0    0 -0.11173964954E+02  0.29857766447E+02 -0.61961162349E+00  0.31886166727E+02  0.00000000000E+00 0.  1.
         11    1    3    3    0    0 -0.75383646461E+01  0.10608017836E+01  0.81010054769E+00  0.76556191859E+01  0.51100000000E-03 0. -1.
        -11    1    3    3    0    0 -0.21795516486E+01 -0.94507895855E+01  0.15151910916E+02  0.17990227176E+02  0.51100000000E-03 0.  1.
        -12    1    3    3    0    0  0.20891881249E+02 -0.21467778645E+02 -0.15342399841E+02  0.33655986911E+02  0.00000000000E+00 0.  1.
</event>
<event>
 7    1  0.1221195E-011  0.5930195E+02  0.7816164E-02  0.1266605E+00
        -11   -1    0    0    0    0  0.00000000000E+00  0.00000000000E+00  0.45593999997E+02  0.45594000000E+02  0.51100000000E-03 0.  1.
         11   -1    0    0    0    0 -0.00000000000E+00 -0.00000000000E+00 -0.45593999997E+02  0.45594000000E+02  0.51100000000E-03 0. -1.
    9900012    2    1    2    0    0  0.18068732847E+02  0.11966155763E+00 -0.26272168119E+02  0.59301949080E+02  0.50000009215E+02 0.  0.
        -12    1    1    2    0    0 -0.18068732847E+02 -0.11966155763E+00  0.26272168119E+02  0.31886050920E+02  0.00000000000E+00 0.  1.
         11    1    3    3    0    0  0.26393099609E+02  0.99485685894E+01 -0.12331268851E+02  0.30783598160E+02  0.51100000000E-03 0. -1.
        -11    1    3    3    0    0 -0.30420852481E+01  0.26874864508E+01  0.42088372806E+01  0.58473222585E+01  0.51100000000E-03 0.  1.
        -12    1    3    3    0    0 -0.52822815138E+01 -0.12516393483E+02 -0.18149736548E+02  0.22671028661E+02  0.00000000000E+00 0.  1.
</event>
<event>
 7    1  0.1221195E-011  0.5930197E+02  0.7816164E-02  0.1266605E+00
        -11   -1    0    0    0    0  0.00000000000E+00  0.00000000000E+00  0.45593999997E+02  0.45594000000E+02  0.51100000000E-03 0.  1.
         11   -1    0    0    0    0 -0.00000000000E+00 -0.00000000000E+00 -0.45593999997E+02  0.45594000000E+02  0.51100000000E-03 0. -1.
    9900012    2    1    2    0    0  0.11162609354E+02  0.20489781966E+02 -0.21732096400E+02  0.59301968159E+02  0.50000044011E+02 0.  0.
        -12    1    1    2    0    0 -0.11162609354E+02 -0.20489781966E+02  0.21732096400E+02  0.31886031841E+02  0.00000000000E+00 0.  1.
         11    1    3    3    0    0  0.57822272023E+01  0.10632896606E+02 -0.27567249964E+01  0.12413386911E+02  0.51100000000E-03 0. -1.
        -11    1    3    3    0    0  0.15815123198E+02 -0.27254811225E+01  0.59208802715E+01  0.17105647973E+02  0.51100000000E-03 0.  1.
         12    1    3    3    0    0 -0.10434741046E+02  0.12582366483E+02 -0.24896251675E+02  0.29782933275E+02  0.00000000000E+00 0. -1.
</event>
<event>
 7    1  0.1221195E-011  0.5930168E+02  0.7816164E-02  0.1266606E+00
        -11   -1    0    0    0    0  0.00000000000E+00  0.00000000000E+00  0.45593999997E+02  0.45594000000E+02  0.51100000000E-03 0. -1.
         11   -1    0    0    0    0 -0.00000000000E+00 -0.00000000000E+00 -0.45593999997E+02  0.45594000000E+02  0.51100000000E-03 0.  1.
    9900012    2    1    2    0    0 -0.22147610392E+02 -0.11335261852E+02  0.19943240029E+02  0.59301676440E+02  0.49999511981E+02 0.  0.
        -12    1    1    2    0    0  0.22147610392E+02  0.11335261852E+02 -0.19943240029E+02  0.31886323560E+02  0.00000000000E+00 0.  1.
         11    1    3    3    0    0 -0.16277387476E+02 -0.21132442148E+02 -0.10985555804E+01  0.26697196085E+02  0.51100000000E-03 0. -1.
        -11    1    3    3    0    0  0.21484703959E+01 -0.62743095529E+01  0.35012535313E+01  0.74994441100E+01  0.51100000000E-03 0.  1.
        -12    1    3    3    0    0 -0.80186933120E+01  0.16071489850E+02  0.17540542078E+02  0.25105036244E+02  0.00000000000E+00 0.  1.
</event>
<event>
 7    1  0.1221195E-011  0.5930184E+02  0.7816164E-02  0.1266605E+00
        -11   -1    0    0    0    0  0.00000000000E+00  0.00000000000E+00  0.45593999997E+02  0.45594000000E+02  0.51100000000E-03 0.  1.
         11   -1    0    0    0    0 -0.00000000000E+00 -0.00000000000E+00 -0.45593999997E+02  0.45594000000E+02  0.51100000000E-03 0. -1.
    9900012    2    1    2    0    0 -0.99635262130E+01 -0.12414470069E+02 -0.27628537431E+02  0.59301843093E+02  0.49999815920E+02 0.  0.
        -12    1    1    2    0    0  0.99635262130E+01  0.12414470069E+02  0.27628537431E+02  0.31886156907E+02  0.00000000000E+00 0.  1.
         11    1    3    3    0    0 -0.12586880244E+02 -0.15343482874E+02 -0.20626468545E+02  0.28623473337E+02  0.51100000000E-03 0. -1.
        -11    1    3    3    0    0 -0.34442115024E+01 -0.26098831561E+01 -0.17113177677E+02  0.17650352219E+02  0.51100000000E-03 0.  1.
        -12    1    3    3    0    0  0.60675655330E+01  0.55388959620E+01  0.10111108791E+02  0.13028017538E+02  0.00000000000E+00 0.  1.
</event>
<event>
 7    1  0.1221195E-011  0.5930193E+02  0.7816164E-02  0.1266605E+00
        -11   -1    0    0    0    0  0.00000000000E+00  0.00000000000E+00  0.45593999997E+02  0.45594000000E+02  0.51100000000E-03 0. -1.
         11   -1    0    0    0    0 -0.00000000000E+00 -0.00000000000E+00 -0.45593999997E+02  0.45594000000E+02  0.51100000000E-03 0.  1.
    9900012    2    1    2    0    0  0.27406480100E+02  0.15248193610E+02 -0.57531708833E+01  0.59301928824E+02  0.49999972272E+02 0.  0.
        -12    1    1    2    0    0 -0.27406480100E+02 -0.15248193610E+02  0.57531708833E+01  0.31886071176E+02  0.00000000000E+00 0.  1.
         11    1    3    3    0    0  0.19905390453E+01 -0.16761873930E+01  0.34970983000E+01  0.43590763527E+01  0.51100000000E-03 0. -1.
        -11    1    3    3    0    0  0.23448991221E+02  0.31596613463E+02 -0.63030674053E+01  0.39848837255E+02  0.51100000000E-03 0.  1.
         12    1    3    3    0    0  0.19669498334E+01 -0.14672232461E+02 -0.29472017780E+01  0.15094015216E+02  0.00000000000E+00 0. -1.
</event>
<event>
 7    1  0.1221195E-011  0.5930195E+02  0.7816164E-02  0.1266605E+00
        -11   -1    0    0    0    0  0.00000000000E+00  0.00000000000E+00  0.45593999997E+02  0.45594000000E+02  0.51100000000E-03 0.  1.
         11   -1    0    0    0    0 -0.00000000000E+00 -0.00000000000E+00 -0.45593999997E+02  0.45594000000E+02  0.51100000000E-03 0. -1.
    9900012    2    1    2    0    0 -0.98872965400E+01 -0.63900279298E+01 -0.29633238200E+02  0.59301954525E+02  0.50000019145E+02 0.  0.
        -12    1    1    2    0    0  0.98872965400E+01  0.63900279298E+01  0.29633238200E+02  0.31886045475E+02  0.00000000000E+00 0.  1.
         11    1    3    3    0    0  0.28939805417E+01  0.86367203229E-01 -0.48090912603E+01  0.56133716856E+01  0.51100000000E-03 0. -1.
        -11    1    3    3    0    0  0.54572243964E+01 -0.23482567380E+01  0.11437912224E+02  0.12888810811E+02  0.51100000000E-03 0.  1.
         12    1    3    3    0    0 -0.18238501478E+02 -0.41281383950E+01 -0.36262059164E+02  0.40799772028E+02  0.00000000000E+00 0. -1.
</event>
<event>
 7    1  0.1221195E-011  0.5930198E+02  0.7816164E-02  0.1266605E+00
        -11   -1    0    0    0    0  0.00000000000E+00  0.00000000000E+00  0.45593999997E+02  0.45594000000E+02  0.51100000000E-03 0.  1.
         11   -1    0    0    0    0 -0.00000000000E+00 -0.00000000000E+00 -0.45593999997E+02  0.45594000000E+02  0.51100000000E-03 0. -1.
    9900012    2    1    2    0    0 -0.18938590814E+02  0.22938584740E+02  0.11483439760E+02  0.59301979856E+02  0.50000065341E+02 0.  0.
        -12    1    1    2    0    0  0.18938590814E+02 -0.22938584740E+02 -0.11483439760E+02  0.31886020144E+02  0.00000000000E+00 0.  1.
         11    1    3    3    0    0 -0.70777663022E+00 -0.91884879613E+01 -0.99733064274E+01  0.13579252562E+02  0.51100000000E-03 0. -1.
        -11    1    3    3    0    0 -0.15086209717E+01 -0.15622734620E+01  0.33192537175E+01  0.39666208678E+01  0.51100000000E-03 0.  1.
        -12    1    3    3    0    0 -0.16722193213E+02  0.33689346164E+02  0.18137492470E+02  0.41756106426E+02  0.00000000000E+00 0.  1.
</event>
<event>
 7    1  0.1221195E-011  0.5930196E+02  0.7816164E-02  0.1266605E+00
        -11   -1    0    0    0    0  0.00000000000E+00  0.00000000000E+00  0.45593999997E+02  0.45594000000E+02  0.51100000000E-03 0. -1.
         11   -1    0    0    0    0 -0.00000000000E+00 -0.00000000000E+00 -0.45593999997E+02  0.45594000000E+02  0.51100000000E-03 0.  1.
    9900012    2    1    2    0    0  0.15384210504E+02 -0.25621681048E+02 -0.11116424553E+02  0.59301962815E+02  0.50000034263E+02 0.  0.
        -12    1    1    2    0    0 -0.15384210504E+02  0.25621681048E+02  0.11116424553E+02  0.31886037185E+02  0.00000000000E+00 0.  1.
         11    1    3    3    0    0  0.22543839386E+01 -0.15511868618E+02 -0.51180355161E-01  0.15674914183E+02  0.51100000000E-03 0. -1.
        -11    1    3    3    0    0 -0.10512921912E+02 -0.84820446412E+01  0.56339057348E+01  0.14635829410E+02  0.51100000000E-03 0.  1.
        -12    1    3    3    0    0  0.23642748477E+02 -0.16277677885E+01 -0.16699149933E+02  0.28991219222E+02  0.00000000000E+00 0.  1.
</event>
<event>
 7    1  0.1221195E-011  0.5930193E+02  0.7816164E-02  0.1266605E+00
        -11   -1    0    0    0    0  0.00000000000E+00  0.00000000000E+00  0.45593999997E+02  0.45594000000E+02  0.51100000000E-03 0. -1.
         11   -1    0    0    0    0 -0.00000000000E+00 -0.00000000000E+00 -0.45593999997E+02  0.45594000000E+02  0.51100000000E-03 0.  1.
    9900012    2    1    2    0    0  0.23024596353E+02  0.16574161019E+02 -0.14556331362E+02  0.59301927281E+02  0.49999969459E+02 0.  0.
        -12    1    1    2    0    0 -0.23024596353E+02 -0.16574161019E+02  0.14556331362E+02  0.31886072719E+02  0.00000000000E+00 0.  1.
         11    1    3    3    0    0  0.56075561238E+01  0.25684444028E+01 -0.62011536043E+01  0.87461933787E+01  0.51100000000E-03 0. -1.
        -11    1    3    3    0    0 -0.52877197919E+01  0.24332608417E+02 -0.35126820803E+01  0.25147062425E+02  0.51100000000E-03 0.  1.
         12    1    3    3    0    0  0.22704760021E+02 -0.10326891801E+02 -0.48424956777E+01  0.25408671477E+02  0.00000000000E+00 0. -1.
</event>
<event>
 7    1  0.1221195E-011  0.5930194E+02  0.7816164E-02  0.1266605E+00
        -11   -1    0    0    0    0  0.00000000000E+00  0.00000000000E+00  0.45593999997E+02  0.45594000000E+02  0.51100000000E-03 0.  1.
         11   -1    0    0    0    0 -0.00000000000E+00 -0.00000000000E+00 -0.45593999997E+02  0.45594000000E+02  0.51100000000E-03 0. -1.
    9900012    2    1    2    0    0  0.29274288454E+02  0.80773050068E+01 -0.97208072804E+01  0.59301938549E+02  0.49999990009E+02 0.  0.
        -12    1    1    2    0    0 -0.29274288454E+02 -0.80773050068E+01  0.97208072804E+01  0.31886061451E+02  0.00000000000E+00 0.  1.
         11    1    3    3    0    0  0.38605398594E+01  0.69095735365E+01  0.11175629450E+02  0.13694548855E+02  0.51100000000E-03 0. -1.
        -11    1    3    3    0    0  0.11966065463E+02  0.98722513015E+01  0.39838520113E+01  0.16016215082E+02  0.51100000000E-03 0.  1.
         12    1    3    3    0    0  0.13447683131E+02 -0.87045198312E+01 -0.24880288742E+02  0.29591174613E+02  0.00000000000E+00 0. -1.
</event>
<event>
 7    1  0.1221195E-011  0.5930198E+02  0.7816164E-02  0.1266605E+00
        -11   -1    0    0    0    0  0.00000000000E+00  0.00000000000E+00  0.45593999997E+02  0.45594000000E+02  0.51100000000E-03 0. -1.
         11   -1    0    0    0    0 -0.00000000000E+00 -0.00000000000E+00 -0.45593999997E+02  0.45594000000E+02  0.51100000000E-03 0.  1.
    9900012    2    1    2    0    0  0.88976599291E+01 -0.21442613778E+02  0.21857818474E+02  0.59301980080E+02  0.50000065752E+02 0.  0.
        -12    1    1    2    0    0 -0.88976599291E+01  0.21442613778E+02 -0.21857818474E+02  0.31886019920E+02  0.00000000000E+00 0.  1.
         11    1    3    3    0    0  0.18342325863E+01 -0.57443239881E+01  0.30227747929E+02  0.30823342006E+02  0.51100000000E-03 0. -1.
        -11    1    3    3    0    0 -0.12377524967E+01  0.43759001881E+01  0.12570666759E+01  0.47181299884E+01  0.51100000000E-03 0.  1.
        -12    1    3    3    0    0  0.83011798395E+01 -0.20074189978E+02 -0.96269961311E+01  0.23760508086E+02  0.00000000000E+00 0.  1.
</event>
<event>
 7    1  0.1221195E-011  0.5930191E+02  0.7816164E-02  0.1266605E+00
        -11   -1    0    0    0    0  0.00000000000E+00  0.00000000000E+00  0.45593999997E+02  0.45594000000E+02  0.51100000000E-03 0.  1.
         11   -1    0    0    0    0 -0.00000000000E+00 -0.00000000000E+00 -0.45593999997E+02  0.45594000000E+02  0.51100000000E-03 0. -1.
    9900012    2    1    2    0    0  0.20416874954E+02 -0.26968145775E+01 -0.24343399279E+02  0.59301910867E+02  0.49999939524E+02 0.  0.
        -12    1    1    2    0    0 -0.20416874954E+02  0.26968145775E+01  0.24343399279E+02  0.31886089133E+02  0.00000000000E+00 0.  1.
         11    1    3    3    0    0  0.20203591359E+02 -0.11231178122E+02 -0.18406564593E+02  0.29548707014E+02  0.51100000000E-03 0. -1.
        -11    1    3    3    0    0  0.54781308270E+01  0.12491860225E+02 -0.13862509589E+02  0.19448024620E+02  0.51100000000E-03 0.  1.
         12    1    3    3    0    0 -0.52648472320E+01 -0.39574966806E+01  0.79256749040E+01  0.10305179234E+02  0.00000000000E+00 0. -1.
</event>
<event>
 7    1  0.1221195E-011  0.5930194E+02  0.7816164E-02  0.1266605E+00
        -11   -1    0    0    0    0  0.00000000000E+00  0.00000000000E+00  0.45593999997E+02  0.45594000000E+02  0.51100000000E-03 0.  1.
         11   -1    0    0    0    0 -0.00000000000E+00 -0.00000000000E+00 -0.45593999997E+02  0.45594000000E+02  0.51100000000E-03 0. -1.
    9900012    2    1    2    0    0 -0.26518784437E+02  0.17581949035E+02 -0.20856520037E+01  0.59301940285E+02  0.49999993173E+02 0.  0.
        -12    1    1    2    0    0  0.26518784437E+02 -0.17581949035E+02  0.20856520037E+01  0.31886059715E+02  0.00000000000E+00 0.  1.
         11    1    3    3    0    0 -0.27033449102E+01  0.17340486665E+02  0.20741124723E+01  0.17672082342E+02  0.51100000000E-03 0.  1.
        -11    1    3    3    0    0  0.87100762557E+01 -0.12853189700E+01 -0.17731773248E+01  0.89811820670E+01  0.51100000000E-03 0. -1.
         12    1    3    3    0    0 -0.32525515783E+02  0.15267813394E+01 -0.23865871513E+01  0.32648675876E+02  0.00000000000E+00 0. -1.
</event>
<event>
 7    1  0.1221195E-011  0.5930191E+02  0.7816164E-02  0.1266605E+00
        -11   -1    0    0    0    0  0.00000000000E+00  0.00000000000E+00  0.45593999997E+02  0.45594000000E+02  0.51100000000E-03 0.  1.
         11   -1    0    0    0    0 -0.00000000000E+00 -0.00000000000E+00 -0.45593999997E+02  0.45594000000E+02  0.51100000000E-03 0. -1.
    9900012    2    1    2    0    0 -0.25470464998E+01  0.27163851068E+02  0.16503345292E+02  0.59301911237E+02  0.49999940198E+02 0.  0.
        -12    1    1    2    0    0  0.25470464998E+01 -0.27163851068E+02 -0.16503345292E+02  0.31886088763E+02  0.00000000000E+00 0.  1.
         11    1    3    3    0    0  0.56628187216E+01  0.21732964270E+02 -0.72199502820E+01  0.23590611144E+02  0.51100000000E-03 0.  1.
        -11    1    3    3    0    0 -0.74491911008E+01 -0.51895880210E+01 -0.66195909604E+00  0.91027722146E+01  0.51100000000E-03 0. -1.
        -12    1    3    3    0    0 -0.76067412059E+00  0.10620474820E+02  0.24385254670E+02  0.26608527878E+02  0.00000000000E+00 0.  1.
</event>
<event>
 7    1  0.1221195E-011  0.5930189E+02  0.7816164E-02  0.1266605E+00
        -11   -1    0    0    0    0  0.00000000000E+00  0.00000000000E+00  0.45593999997E+02  0.45594000000E+02  0.51100000000E-03 0. -1.
         11   -1    0    0    0    0 -0.00000000000E+00 -0.00000000000E+00 -0.45593999997E+02  0.45594000000E+02  0.51100000000E-03 0.  1.
    9900012    2    1    2    0    0  0.22239234098E+02 -0.16252844349E+02 -0.16061925749E+02  0.59301891089E+02  0.49999903452E+02 0.  0.
        -12    1    1    2    0    0 -0.22239234098E+02  0.16252844349E+02  0.16061925749E+02  0.31886108911E+02  0.00000000000E+00 0.  1.
         11    1    3    3    0    0  0.28372677443E+02 -0.83854620928E+01 -0.76959099446E+01  0.30570440460E+02  0.51100000000E-03 0. -1.
        -11    1    3    3    0    0 -0.29069245353E+01 -0.16901103771E+01 -0.17173845857E+02  0.17499933289E+02  0.51100000000E-03 0.  1.
        -12    1    3    3    0    0 -0.32265188095E+01 -0.61772718794E+01  0.88078300530E+01  0.11231517339E+02  0.00000000000E+00 0.  1.
</event>
<event>
 7    1  0.1221195E-011  0.5930194E+02  0.7816164E-02  0.1266605E+00
        -11   -1    0    0    0    0  0.00000000000E+00  0.00000000000E+00  0.45593999997E+02  0.45594000000E+02  0.51100000000E-03 0. -1.
         11   -1    0    0    0    0 -0.00000000000E+00 -0.00000000000E+00 -0.45593999997E+02  0.45594000000E+02  0.51100000000E-03 0.  1.
    9900012    2    1    2    0    0 -0.23133211279E+02  0.20795811249E+01  0.21846071282E+02  0.59301937964E+02  0.49999988941E+02 0.  0.
        -12    1    1    2    0    0  0.23133211279E+02 -0.20795811249E+01 -0.21846071282E+02  0.31886062036E+02  0.00000000000E+00 0.  1.
         11    1    3    3    0    0 -0.15436270731E+02  0.26691888392E+01 -0.28789226181E+01  0.15927687178E+02  0.51100000000E-03 0. -1.
        -11    1    3    3    0    0 -0.46475244874E+01 -0.15630168047E+02  0.22618684917E+02  0.27883804344E+02  0.51100000000E-03 0.  1.
         12    1    3    3    0    0 -0.30494160612E+01  0.15040560333E+02  0.21063089827E+01  0.15490446442E+02  0.00000000000E+00 0. -1.
</event>
<event>
 7    1  0.1221195E-011  0.5930192E+02  0.7816164E-02  0.1266605E+00
        -11   -1    0    0    0    0  0.00000000000E+00  0.00000000000E+00  0.45593999997E+02  0.45594000000E+02  0.51100000000E-03 0.  1.
         11   -1    0    0    0    0 -0.00000000000E+00 -0.00000000000E+00 -0.45593999997E+02  0.45594000000E+02  0.51100000000E-03 0. -1.
    9900012    2    1    2    0    0  0.16550955907E+02 -0.17723173854E+02 -0.20704521723E+02  0.59301917571E+02  0.49999951750E+02 0.  0.
        -12    1    1    2    0    0 -0.16550955907E+02  0.17723173854E+02  0.20704521723E+02  0.31886082429E+02  0.00000000000E+00 0.  1.
         11    1    3    3    0    0 -0.15128143790E+00 -0.36968703560E+01 -0.19507558523E+02  0.19855341254E+02  0.51100000000E-03 0. -1.
        -11    1    3    3    0    0  0.18921011078E+02 -0.38625804940E+01 -0.13329323541E+02  0.23464761977E+02  0.51100000000E-03 0.  1.
        -12    1    3    3    0    0 -0.22187737334E+01 -0.10163723004E+02  0.12132360341E+02  0.15981814341E+02  0.00000000000E+00 0.  1.
</event>
<event>
 7    1  0.1221195E-011  0.5930196E+02  0.7816164E-02  0.1266605E+00
        -11   -1    0    0    0    0  0.00000000000E+00  0.00000000000E+00  0.45593999997E+02  0.45594000000E+02  0.51100000000E-03 0.  1.
         11   -1    0    0    0    0 -0.00000000000E+00 -0.00000000000E+00 -0.45593999997E+02  0.45594000000E+02  0.51100000000E-03 0. -1.
    9900012    2    1    2    0    0  0.28773672335E+02  0.12372681208E+02 -0.59759572522E+01  0.59301960344E+02  0.50000029756E+02 0.  0.
        -12    1    1    2    0    0 -0.28773672335E+02 -0.12372681208E+02  0.59759572522E+01  0.31886039656E+02  0.00000000000E+00 0.  1.
         11    1    3    3    0    0  0.51056226434E+01 -0.52890115871E+01  0.94110786470E+01  0.11941918929E+02  0.51100000000E-03 0.  1.
        -11    1    3    3    0    0  0.16539415355E+02  0.25926396331E+02 -0.30738855024E+01  0.30905971257E+02  0.51100000000E-03 0. -1.
         12    1    3    3    0    0  0.71286343363E+01 -0.82647035366E+01 -0.12313150397E+02  0.16454070157E+02  0.00000000000E+00 0. -1.
</event>
<event>
 7    1  0.1221195E-011  0.5930196E+02  0.7816164E-02  0.1266605E+00
        -11   -1    0    0    0    0  0.00000000000E+00  0.00000000000E+00  0.45593999997E+02  0.45594000000E+02  0.51100000000E-03 0.  1.
         11   -1    0    0    0    0 -0.00000000000E+00 -0.00000000000E+00 -0.45593999997E+02  0.45594000000E+02  0.51100000000E-03 0. -1.
    9900012    2    1    2    0    0  0.38417771772E+01 -0.46900251179E+01 -0.31304373557E+02  0.59301962440E+02  0.50000033579E+02 0.  0.
        -12    1    1    2    0    0 -0.38417771772E+01  0.46900251179E+01  0.31304373557E+02  0.31886037560E+02  0.00000000000E+00 0.  1.
         11    1    3    3    0    0  0.37542433552E+01 -0.11074978428E+02 -0.98141990583E+01  0.15266564570E+02  0.51100000000E-03 0.  1.
        -11    1    3    3    0    0 -0.14970394482E+02  0.34760150447E+01  0.24914148943E+01  0.15569281935E+02  0.51100000000E-03 0. -1.
         12    1    3    3    0    0  0.15057928304E+02  0.29089382652E+01 -0.23981589393E+02  0.28466115935E+02  0.00000000000E+00 0. -1.
</event>
<event>
 7    1  0.1221195E-011  0.5930195E+02  0.7816164E-02  0.1266605E+00
        -11   -1    0    0    0    0  0.00000000000E+00  0.00000000000E+00  0.45593999997E+02  0.45594000000E+02  0.51100000000E-03 0.  1.
         11   -1    0    0    0    0 -0.00000000000E+00 -0.00000000000E+00 -0.45593999997E+02  0.45594000000E+02  0.51100000000E-03 0. -1.
    9900012    2    1    2    0    0 -0.76597622714E+00  0.12273007968E+02 -0.29419496629E+02  0.59301949350E+02  0.50000009707E+02 0.  0.
        -12    1    1    2    0    0  0.76597622714E+00 -0.12273007968E+02  0.29419496629E+02  0.31886050650E+02  0.00000000000E+00 0.  1.
         11    1    3    3    0    0  0.66669486262E+01  0.15820516700E+02 -0.14381864442E+02  0.22395869658E+02  0.51100000000E-03 0. -1.
        -11    1    3    3    0    0 -0.13333201613E+02 -0.50895024278E+01 -0.22883349205E+02  0.26968963112E+02  0.51100000000E-03 0.  1.
        -12    1    3    3    0    0  0.59002767595E+01  0.15419936955E+01  0.78457170185E+01  0.99371165803E+01  0.00000000000E+00 0.  1.
</event>
<event>
 7    1  0.1221195E-011  0.5930195E+02  0.7816164E-02  0.1266605E+00
        -11   -1    0    0    0    0  0.00000000000E+00  0.00000000000E+00  0.45593999997E+02  0.45594000000E+02  0.51100000000E-03 0. -1.
         11   -1    0    0    0    0 -0.00000000000E+00 -0.00000000000E+00 -0.45593999997E+02  0.45594000000E+02  0.51100000000E-03 0.  1.
    9900012    2    1    2    0    0  0.77018969102E+01  0.27379834963E+02 -0.14413389166E+02  0.59301947158E+02  0.50000005708E+02 0.  0.
        -12    1    1    2    0    0 -0.77018969102E+01 -0.27379834963E+02  0.14413389166E+02  0.31886052842E+02  0.00000000000E+00 0.  1.
         11    1    3    3    0    0 -0.56264389815E+01 -0.36967992822E+01 -0.15505271665E+01  0.69084929834E+01  0.51100000000E-03 0. -1.
        -11    1    3    3    0    0  0.20513239932E+00  0.15464322705E+01 -0.19367664587E+02  0.19430387642E+02  0.51100000000E-03 0.  1.
         12    1    3    3    0    0  0.13123203492E+02  0.29530201974E+02  0.65048025875E+01  0.32963066533E+02  0.00000000000E+00 0. -1.
</event>
<event>
 7    1  0.1221195E-011  0.5930201E+02  0.7816164E-02  0.1266605E+00
        -11   -1    0    0    0    0  0.00000000000E+00  0.00000000000E+00  0.45593999997E+02  0.45594000000E+02  0.51100000000E-03 0.  1.
         11   -1    0    0    0    0 -0.00000000000E+00 -0.00000000000E+00 -0.45593999997E+02  0.45594000000E+02  0.51100000000E-03 0. -1.
    9900012    2    1    2    0    0 -0.31611501491E+02 -0.39279476566E+01  0.14143328839E+01  0.59302013473E+02  0.50000126651E+02 0.  0.
        -12    1    1    2    0    0  0.31611501491E+02  0.39279476566E+01 -0.14143328839E+01  0.31885986527E+02  0.00000000000E+00 0.  1.
         11    1    3    3    0    0 -0.12325583232E+02  0.30624631073E+01  0.69049593821E+01  0.14456041872E+02  0.51100000000E-03 0. -1.
        -11    1    3    3    0    0  0.11663091041E+01  0.14655455284E+02 -0.10813319645E+01  0.14741503505E+02  0.51100000000E-03 0.  1.
         12    1    3    3    0    0 -0.20452227363E+02 -0.21645866048E+02 -0.44092945336E+01  0.30104468096E+02  0.00000000000E+00 0. -1.
</event>
<event>
 7    1  0.1221195E-011  0.5930195E+02  0.7816164E-02  0.1266605E+00
        -11   -1    0    0    0    0  0.00000000000E+00  0.00000000000E+00  0.45593999997E+02  0.45594000000E+02  0.51100000000E-03 0. -1.
         11   -1    0    0    0    0 -0.00000000000E+00 -0.00000000000E+00 -0.45593999997E+02  0.45594000000E+02  0.51100000000E-03 0.  1.
    9900012    2    1    2    0    0 -0.26536761409E+02 -0.18353325401E+01  0.17582720909E+02  0.59301949348E+02  0.50000009703E+02 0.  0.
        -12    1    1    2    0    0  0.26536761409E+02  0.18353325401E+01 -0.17582720909E+02  0.31886050652E+02  0.00000000000E+00 0.  1.
         11    1    3    3    0    0 -0.69549197019E-01  0.44090716214E+01  0.23021757132E+01  0.49744108122E+01  0.51100000000E-03 0. -1.
        -11    1    3    3    0    0 -0.37199166271E+02  0.33907238384E+01  0.81222654838E+01  0.38226249832E+02  0.51100000000E-03 0.  1.
         12    1    3    3    0    0  0.10731954058E+02 -0.96351279999E+01  0.71582797119E+01  0.16101288704E+02  0.00000000000E+00 0. -1.
</event>
<event>
 7    1  0.1221195E-011  0.5930194E+02  0.7816164E-02  0.1266605E+00
        -11   -1    0    0    0    0  0.00000000000E+00  0.00000000000E+00  0.45593999997E+02  0.45594000000E+02  0.51100000000E-03 0.  1.
         11   -1    0    0    0    0 -0.00000000000E+00 -0.00000000000E+00 -0.45593999997E+02  0.45594000000E+02  0.51100000000E-03 0. -1.
    9900012    2    1    2    0    0 -0.15314564104E+02  0.17535136727E+02 -0.21787708588E+02  0.59301935030E+02  0.49999983591E+02 0.  0.
        -12    1    1    2    0    0  0.15314564104E+02 -0.17535136727E+02  0.21787708588E+02  0.31886064970E+02  0.00000000000E+00 0.  1.
         11    1    3    3    0    0 -0.13681607585E+01 -0.15128116434E+01 -0.11360113473E+02  0.11541778083E+02  0.51100000000E-03 0. -1.
        -11    1    3    3    0    0 -0.35110247748E+01 -0.54452710768E+00  0.14180733845E+02  0.14619063492E+02  0.51100000000E-03 0.  1.
         12    1    3    3    0    0 -0.10435378571E+02  0.19592475478E+02 -0.24608328960E+02  0.33141093456E+02  0.00000000000E+00 0. -1.
</event>
<event>
 7    1  0.1221195E-011  0.5930194E+02  0.7816164E-02  0.1266605E+00
        -11   -1    0    0    0    0  0.00000000000E+00  0.00000000000E+00  0.45593999997E+02  0.45594000000E+02  0.51100000000E-03 0.  1.
         11   -1    0    0    0    0 -0.00000000000E+00 -0.00000000000E+00 -0.45593999997E+02  0.45594000000E+02  0.51100000000E-03 0. -1.
    9900012    2    1    2    0    0  0.26653980894E+02  0.13239292775E+02 -0.11445838716E+02  0.59301940435E+02  0.49999993448E+02 0.  0.
        -12    1    1    2    0    0 -0.26653980894E+02 -0.13239292775E+02  0.11445838716E+02  0.31886059565E+02  0.00000000000E+00 0.  1.
         11    1    3    3    0    0  0.20465344078E+02  0.12620569075E+02 -0.67370135156E+00  0.24053335440E+02  0.51100000000E-03 0. -1.
        -11    1    3    3    0    0  0.73514692799E+01  0.16753896912E+01  0.11045955168E+02  0.13374010506E+02  0.51100000000E-03 0.  1.
        -12    1    3    3    0    0 -0.11628324637E+01 -0.10566659918E+01 -0.21818092532E+02  0.21874594489E+02  0.00000000000E+00 0.  1.
</event>
<event>
 7    1  0.1221195E-011  0.5930195E+02  0.7816164E-02  0.1266605E+00
        -11   -1    0    0    0    0  0.00000000000E+00  0.00000000000E+00  0.45593999997E+02  0.45594000000E+02  0.51100000000E-03 0.  1.
         11   -1    0    0    0    0 -0.00000000000E+00 -0.00000000000E+00 -0.45593999997E+02  0.45594000000E+02  0.51100000000E-03 0. -1.
    9900012    2    1    2    0    0  0.46302087312E+01 -0.26137666284E+02 -0.17666451271E+02  0.59301953959E+02  0.50000018112E+02 0.  0.
        -12    1    1    2    0    0 -0.46302087312E+01  0.26137666284E+02  0.17666451271E+02  0.31886046041E+02  0.00000000000E+00 0.  1.
         11    1    3    3    0    0  0.17306427433E+02 -0.80029761142E+01 -0.15584840729E+02  0.24626151100E+02  0.51100000000E-03 0. -1.
        -11    1    3    3    0    0  0.31418631572E+01 -0.11024001780E+02  0.85795773607E+01  0.14318137703E+02  0.51100000000E-03 0.  1.
         12    1    3    3    0    0 -0.15818081859E+02 -0.71106883895E+01 -0.10661187903E+02  0.20357665156E+02  0.00000000000E+00 0. -1.
</event>
<event>
 7    1  0.1221195E-011  0.5930195E+02  0.7816164E-02  0.1266605E+00
        -11   -1    0    0    0    0  0.00000000000E+00  0.00000000000E+00  0.45593999997E+02  0.45594000000E+02  0.51100000000E-03 0.  1.
         11   -1    0    0    0    0 -0.00000000000E+00 -0.00000000000E+00 -0.45593999997E+02  0.45594000000E+02  0.51100000000E-03 0. -1.
    9900012    2    1    2    0    0  0.13810876868E+01 -0.27256948564E+02 -0.16488536694E+02  0.59301945202E+02  0.50000002142E+02 0.  0.
        -12    1    1    2    0    0 -0.13810876868E+01  0.27256948564E+02  0.16488536694E+02  0.31886054798E+02  0.00000000000E+00 0.  1.
         11    1    3    3    0    0  0.56451044656E+01 -0.12504713802E+02  0.22314794841E+00  0.13721693298E+02  0.51100000000E-03 0. -1.
        -11    1    3    3    0    0 -0.21788005144E+02 -0.11289211868E+02 -0.99884722133E+01  0.26494019139E+02  0.51100000000E-03 0.  1.
         12    1    3    3    0    0  0.17523988365E+02 -0.34630228946E+01 -0.67232124295E+01  0.19086232765E+02  0.00000000000E+00 0. -1.
</event>
<event>
 7    1  0.1221195E-011  0.5930194E+02  0.7816164E-02  0.1266605E+00
        -11   -1    0    0    0    0  0.00000000000E+00  0.00000000000E+00  0.45593999997E+02  0.45594000000E+02  0.51100000000E-03 0.  1.
         11   -1    0    0    0    0 -0.00000000000E+00 -0.00000000000E+00 -0.45593999997E+02  0.45594000000E+02  0.51100000000E-03 0. -1.
    9900012    2    1    2    0    0 -0.23577877329E+02 -0.81089429036E+01  0.19875853093E+02  0.59301940498E+02  0.49999993563E+02 0.  0.
        -12    1    1    2    0    0  0.23577877329E+02  0.81089429036E+01 -0.19875853093E+02  0.31886059502E+02  0.00000000000E+00 0.  1.
         11    1    3    3    0    0 -0.32316327297E+01 -0.53879087565E+01  0.15149284683E+02  0.16400421871E+02  0.51100000000E-03 0. -1.
        -11    1    3    3    0    0  0.10833491132E+02 -0.27970050006E+01  0.33982393100E+01  0.11693408303E+02  0.51100000000E-03 0.  1.
        -12    1    3    3    0    0 -0.31179735731E+02  0.75970853491E-01  0.13283290999E+01  0.31208110325E+02  0.00000000000E+00 0.  1.
</event>
<event>
 7    1  0.1221195E-011  0.5930193E+02  0.7816164E-02  0.1266605E+00
        -11   -1    0    0    0    0  0.00000000000E+00  0.00000000000E+00  0.45593999997E+02  0.45594000000E+02  0.51100000000E-03 0. -1.
         11   -1    0    0    0    0 -0.00000000000E+00 -0.00000000000E+00 -0.45593999997E+02  0.45594000000E+02  0.51100000000E-03 0.  1.
    9900012    2    1    2    0    0  0.62889818286E+01 -0.27385187732E+02 -0.15073883529E+02  0.59301925230E+02  0.49999965718E+02 0.  0.
        -12    1    1    2    0    0 -0.62889818286E+01  0.27385187732E+02  0.15073883529E+02  0.31886074770E+02  0.00000000000E+00 0.  1.
         11    1    3    3    0    0  0.16066833817E+02 -0.10421636800E+02 -0.81545309646E+01  0.20814659210E+02  0.51100000000E-03 0. -1.
        -11    1    3    3    0    0 -0.83388228888E+01 -0.81643668446E+01 -0.19703970755E+02  0.22900640098E+02  0.51100000000E-03 0.  1.
         12    1    3    3    0    0 -0.14390290999E+01 -0.87991840875E+01  0.12784618190E+02  0.15586625922E+02  0.00000000000E+00 0. -1.
</event>
<event>
 7    1  0.1221195E-011  0.5930194E+02  0.7816164E-02  0.1266605E+00
        -11   -1    0    0    0    0  0.00000000000E+00  0.00000000000E+00  0.45593999997E+02  0.45594000000E+02  0.51100000000E-03 0. -1.
         11   -1    0    0    0    0 -0.00000000000E+00 -0.00000000000E+00 -0.45593999997E+02  0.45594000000E+02  0.51100000000E-03 0.  1.
    9900012    2    1    2    0    0  0.85757814903E+01  0.29156139356E+02 -0.96486404283E+01  0.59301941096E+02  0.49999994653E+02 0.  0.
        -12    1    1    2    0    0 -0.85757814903E+01 -0.29156139356E+02  0.96486404283E+01  0.31886058904E+02  0.00000000000E+00 0.  1.
         11    1    3    3    0    0  0.16391551440E+02  0.21511117226E+01  0.86297074009E+01  0.18648916600E+02  0.51100000000E-03 0. -1.
        -11    1    3    3    0    0 -0.96178362035E+01  0.90903261851E+01  0.21665338451E+01  0.13410095919E+02  0.51100000000E-03 0.  1.
         12    1    3    3    0    0  0.18020662534E+01  0.17914701449E+02 -0.20444881674E+02  0.27242928577E+02  0.00000000000E+00 0. -1.
</event>
<event>
 7    1  0.1221195E-011  0.5930197E+02  0.7816164E-02  0.1266605E+00
        -11   -1    0    0    0    0  0.00000000000E+00  0.00000000000E+00  0.45593999997E+02  0.45594000000E+02  0.51100000000E-03 0.  1.
         11   -1    0    0    0    0 -0.00000000000E+00 -0.00000000000E+00 -0.45593999997E+02  0.45594000000E+02  0.51100000000E-03 0. -1.
    9900012    2    1    2    0    0 -0.21576530462E+02 -0.33777550783E+01 -0.23232799690E+02  0.59301970495E+02  0.50000048270E+02 0.  0.
        -12    1    1    2    0    0  0.21576530462E+02  0.33777550783E+01  0.23232799690E+02  0.31886029505E+02  0.00000000000E+00 0.  1.
         11    1    3    3    0    0 -0.41398673556E+01 -0.11525772990E+02 -0.80099186782E+01  0.14633548518E+02  0.51100000000E-03 0. -1.
        -11    1    3    3    0    0  0.21707443588E+01 -0.99859122477E+01  0.47984551280E+01  0.11289630037E+02  0.51100000000E-03 0.  1.
         12    1    3    3    0    0 -0.19607407466E+02  0.18133930160E+02 -0.20021336140E+02  0.33378791940E+02  0.00000000000E+00 0. -1.
</event>
<event>
 7    1  0.1221195E-011  0.5930196E+02  0.7816164E-02  0.1266605E+00
        -11   -1    0    0    0    0  0.00000000000E+00  0.00000000000E+00  0.45593999997E+02  0.45594000000E+02  0.51100000000E-03 0.  1.
         11   -1    0    0    0    0 -0.00000000000E+00 -0.00000000000E+00 -0.45593999997E+02  0.45594000000E+02  0.51100000000E-03 0. -1.
    9900012    2    1    2    0    0  0.17540110599E+01 -0.16805465118E+02 -0.27041063963E+02  0.59301963042E+02  0.50000034677E+02 0.  0.
        -12    1    1    2    0    0 -0.17540110599E+01  0.16805465118E+02  0.27041063963E+02  0.31886036958E+02  0.00000000000E+00 0.  1.
         11    1    3    3    0    0  0.73811225449E+01 -0.16736515842E+02  0.55227969168E+01  0.19107412661E+02  0.51100000000E-03 0. -1.
        -11    1    3    3    0    0 -0.52129624997E+01 -0.40280598083E+01  0.76198040303E+00  0.66318065592E+01  0.51100000000E-03 0.  1.
         12    1    3    3    0    0 -0.41414898530E+00  0.39591105320E+01 -0.33325841283E+02  0.33562743822E+02  0.00000000000E+00 0. -1.
</event>
<event>
 7    1  0.1221195E-011  0.5930189E+02  0.7816164E-02  0.1266605E+00
        -11   -1    0    0    0    0  0.00000000000E+00  0.00000000000E+00  0.45593999997E+02  0.45594000000E+02  0.51100000000E-03 0.  1.
         11   -1    0    0    0    0 -0.00000000000E+00 -0.00000000000E+00 -0.45593999997E+02  0.45594000000E+02  0.51100000000E-03 0. -1.
    9900012    2    1    2    0    0  0.23340895658E+02 -0.39385684312E+01 -0.21363857633E+02  0.59301887908E+02  0.49999897651E+02 0.  0.
        -12    1    1    2    0    0 -0.23340895658E+02  0.39385684312E+01  0.21363857633E+02  0.31886112092E+02  0.00000000000E+00 0.  1.
         11    1    3    3    0    0  0.23722582484E+02  0.56859268371E+01 -0.90697348247E+01  0.26025963455E+02  0.51100000000E-03 0. -1.
        -11    1    3    3    0    0  0.90805986194E+00  0.10449463530E+02 -0.65124208454E+01  0.12346152693E+02  0.51100000000E-03 0.  1.
         12    1    3    3    0    0 -0.12897466879E+01 -0.20073958799E+02 -0.57817019626E+01  0.20929771761E+02  0.00000000000E+00 0. -1.
</event>
<event>
 7    1  0.1221195E-011  0.5930196E+02  0.7816164E-02  0.1266605E+00
        -11   -1    0    0    0    0  0.00000000000E+00  0.00000000000E+00  0.45593999997E+02  0.45594000000E+02  0.51100000000E-03 0.  1.
         11   -1    0    0    0    0 -0.00000000000E+00 -0.00000000000E+00 -0.45593999997E+02  0.45594000000E+02  0.51100000000E-03 0. -1.
    9900012    2    1    2    0    0  0.85928781779E+01 -0.23800403444E+02 -0.19401625252E+02  0.59301955687E+02  0.50000021264E+02 0.  0.
        -12    1    1    2    0    0 -0.85928781779E+01  0.23800403444E+02  0.19401625252E+02  0.31886044313E+02  0.00000000000E+00 0.  1.
         11    1    3    3    0    0  0.12581422692E+02  0.35027810041E+01 -0.15214268451E+01  0.13148247474E+02  0.51100000000E-03 0.  1.
        -11    1    3    3    0    0 -0.17310858680E+02 -0.85412082245E+01 -0.10580523292E+02  0.22012849419E+02  0.51100000000E-03 0. -1.
         12    1    3    3    0    0  0.13322314165E+02 -0.18761976224E+02 -0.72996751151E+01  0.24140858794E+02  0.00000000000E+00 0. -1.
</event>
<event>
 7    1  0.1221195E-011  0.5930194E+02  0.7816164E-02  0.1266605E+00
        -11   -1    0    0    0    0  0.00000000000E+00  0.00000000000E+00  0.45593999997E+02  0.45594000000E+02  0.51100000000E-03 0.  1.
         11   -1    0    0    0    0 -0.00000000000E+00 -0.00000000000E+00 -0.45593999997E+02  0.45594000000E+02  0.51100000000E-03 0. -1.
    9900012    2    1    2    0    0  0.31592496278E+02  0.40401409814E+01 -0.15205470044E+01  0.59301943119E+02  0.49999998342E+02 0.  0.
        -12    1    1    2    0    0 -0.31592496278E+02 -0.40401409814E+01  0.15205470044E+01  0.31886056881E+02  0.00000000000E+00 0.  1.
         11    1    3    3    0    0  0.22683871140E+02 -0.49454345786E+01 -0.49654813885E+01  0.23741763599E+02  0.51100000000E-03 0. -1.
        -11    1    3    3    0    0  0.80361112914E+01 -0.10903485191E+02 -0.42810905127E+01  0.14205379623E+02  0.51100000000E-03 0.  1.
        -12    1    3    3    0    0  0.87251384641E+00  0.19889060751E+02  0.77260248969E+01  0.21354799897E+02  0.00000000000E+00 0.  1.
</event>
<event>
 7    1  0.1221195E-011  0.5930194E+02  0.7816164E-02  0.1266605E+00
        -11   -1    0    0    0    0  0.00000000000E+00  0.00000000000E+00  0.45593999997E+02  0.45594000000E+02  0.51100000000E-03 0. -1.
         11   -1    0    0    0    0 -0.00000000000E+00 -0.00000000000E+00 -0.45593999997E+02  0.45594000000E+02  0.51100000000E-03 0.  1.
    9900012    2    1    2    0    0  0.16418972734E+02  0.27331381572E+02  0.36530669787E+00  0.59301944533E+02  0.50000000922E+02 0.  0.
        -12    1    1    2    0    0 -0.16418972734E+02 -0.27331381572E+02 -0.36530669787E+00  0.31886055467E+02  0.00000000000E+00 0.  1.
         11    1    3    3    0    0 -0.21282107797E+00  0.62192189407E+01 -0.21113086917E+01  0.65712709347E+01  0.51100000000E-03 0. -1.
        -11    1    3    3    0    0  0.45120364083E+00  0.18043759715E+01 -0.19325621292E+02  0.19414916841E+02  0.51100000000E-03 0.  1.
         12    1    3    3    0    0  0.16180590171E+02  0.19307786660E+02  0.21802236682E+02  0.33315756757E+02  0.00000000000E+00 0. -1.
</event>
<event>
 7    1  0.1221195E-011  0.5930196E+02  0.7816164E-02  0.1266605E+00
        -11   -1    0    0    0    0  0.00000000000E+00  0.00000000000E+00  0.45593999997E+02  0.45594000000E+02  0.51100000000E-03 0.  1.
         11   -1    0    0    0    0 -0.00000000000E+00 -0.00000000000E+00 -0.45593999997E+02  0.45594000000E+02  0.51100000000E-03 0. -1.
    9900012    2    1    2    0    0 -0.17863666947E+02 -0.88857334171E+01  0.24872732651E+02  0.59301957839E+02  0.50000025188E+02 0.  0.
        -12    1    1    2    0    0  0.17863666947E+02  0.88857334171E+01 -0.24872732651E+02  0.31886042161E+02  0.00000000000E+00 0.  1.
         11    1    3    3    0    0  0.17953655636E+01  0.54464500571E+01 -0.74862662016E+00  0.57833898199E+01  0.51100000000E-03 0. -1.
        -11    1    3    3    0    0 -0.66937304036E+01 -0.24488151909E+02  0.30379327809E+01  0.25567648435E+02  0.51100000000E-03 0.  1.
         12    1    3    3    0    0 -0.12965302107E+02  0.10155968435E+02  0.22583426491E+02  0.27950919585E+02  0.00000000000E+00 0. -1.
</event>
<event>
 7    1  0.1221195E-011  0.5930188E+02  0.7816164E-02  0.1266605E+00
        -11   -1    0    0    0    0  0.00000000000E+00  0.00000000000E+00  0.45593999997E+02  0.45594000000E+02  0.51100000000E-03 0. -1.
         11   -1    0    0    0    0 -0.00000000000E+00 -0.00000000000E+00 -0.45593999997E+02  0.45594000000E+02  0.51100000000E-03 0.  1.
    9900012    2    1    2    0    0 -0.29683499036E+01 -0.28512709514E+02  0.13962054007E+02  0.59301879868E+02  0.49999882988E+02 0.  0.
        -12    1    1    2    0    0  0.29683499036E+01  0.28512709514E+02 -0.13962054007E+02  0.31886120132E+02  0.00000000000E+00 0.  1.
         11    1    3    3    0    0 -0.16468891056E+02  0.61396173297E+01  0.92254742289E+01  0.19850154875E+02  0.51100000000E-03 0. -1.
        -11    1    3    3    0    0 -0.13293816256E+01 -0.71864466601E+01  0.37688590285E+01  0.82229295110E+01  0.51100000000E-03 0.  1.
        -12    1    3    3    0    0  0.14829922778E+02 -0.27465880183E+02  0.96772074962E+00  0.31228795482E+02  0.00000000000E+00 0.  1.
</event>
<event>
 7    1  0.1221195E-011  0.5930195E+02  0.7816164E-02  0.1266605E+00
        -11   -1    0    0    0    0  0.00000000000E+00  0.00000000000E+00  0.45593999997E+02  0.45594000000E+02  0.51100000000E-03 0. -1.
         11   -1    0    0    0    0 -0.00000000000E+00 -0.00000000000E+00 -0.45593999997E+02  0.45594000000E+02  0.51100000000E-03 0.  1.
    9900012    2    1    2    0    0 -0.85182082390E+01 -0.76759726296E+01  0.29752981144E+02  0.59301947966E+02  0.50000007182E+02 0.  0.
        -12    1    1    2    0    0  0.85182082390E+01  0.76759726296E+01 -0.29752981144E+02  0.31886052034E+02  0.00000000000E+00 0.  1.
         11    1    3    3    0    0 -0.61424340386E+01 -0.22079743044E+02  0.23235629641E+02  0.32636467852E+02  0.51100000000E-03 0. -1.
        -11    1    3    3    0    0 -0.80915348386E+01  0.24549781809E+00 -0.30458903727E+01  0.86493152125E+01  0.51100000000E-03 0.  1.
        -12    1    3    3    0    0  0.57157606381E+01  0.14158272596E+02  0.95632418751E+01  0.18016164901E+02  0.00000000000E+00 0.  1.
</event>
<event>
 7    1  0.1221195E-011  0.5930196E+02  0.7816164E-02  0.1266605E+00
        -11   -1    0    0    0    0  0.00000000000E+00  0.00000000000E+00  0.45593999997E+02  0.45594000000E+02  0.51100000000E-03 0.  1.
         11   -1    0    0    0    0 -0.00000000000E+00 -0.00000000000E+00 -0.45593999997E+02  0.45594000000E+02  0.51100000000E-03 0. -1.
    9900012    2    1    2    0    0 -0.20016646608E+02  0.10968468106E+02 -0.22265351689E+02  0.59301963560E+02  0.50000035623E+02 0.  0.
        -12    1    1    2    0    0  0.20016646608E+02 -0.10968468106E+02  0.22265351689E+02  0.31886036440E+02  0.00000000000E+00 0.  1.
         11    1    3    3    0    0  0.30858816064E+01  0.17352563828E+02  0.37055453521E+01  0.18010141679E+02  0.51100000000E-03 0. -1.
        -11    1    3    3    0    0 -0.28750533279E+01 -0.89337894664E+01 -0.16044883551E+01  0.95211821226E+01  0.51100000000E-03 0.  1.
         12    1    3    3    0    0 -0.20227474886E+02  0.25496937446E+01 -0.24366408686E+02  0.31770639759E+02  0.00000000000E+00 0. -1.
</event>
<event>
 7    1  0.1221195E-011  0.5930195E+02  0.7816164E-02  0.1266605E+00
        -11   -1    0    0    0    0  0.00000000000E+00  0.00000000000E+00  0.45593999997E+02  0.45594000000E+02  0.51100000000E-03 0. -1.
         11   -1    0    0    0    0 -0.00000000000E+00 -0.00000000000E+00 -0.45593999997E+02  0.45594000000E+02  0.51100000000E-03 0.  1.
    9900012    2    1    2    0    0 -0.31533566788E+02 -0.39221512566E+01  0.26403304372E+01  0.59301945844E+02  0.50000003312E+02 0.  0.
        -12    1    1    2    0    0  0.31533566788E+02  0.39221512566E+01 -0.26403304372E+01  0.31886054156E+02  0.00000000000E+00 0.  1.
         11    1    3    3    0    0  0.50483167454E+01  0.58099619799E+01 -0.67183801651E+01  0.10216545036E+02  0.51100000000E-03 0. -1.
        -11    1    3    3    0    0 -0.12279717934E+02  0.10776760505E+02  0.21479023416E+01  0.16478577738E+02  0.51100000000E-03 0.  1.
         12    1    3    3    0    0 -0.24302165599E+02 -0.20508873742E+02  0.72108082606E+01  0.32606823070E+02  0.00000000000E+00 0. -1.
</event>
<event>
 7    1  0.1221195E-011  0.5930194E+02  0.7816164E-02  0.1266605E+00
        -11   -1    0    0    0    0  0.00000000000E+00  0.00000000000E+00  0.45593999997E+02  0.45594000000E+02  0.51100000000E-03 0.  1.
         11   -1    0    0    0    0 -0.00000000000E+00 -0.00000000000E+00 -0.45593999997E+02  0.45594000000E+02  0.51100000000E-03 0. -1.
    9900012    2    1    2    0    0 -0.60049771916E+01  0.95051550234E+01 -0.29838116645E+02  0.59301938343E+02  0.49999989632E+02 0.  0.
        -12    1    1    2    0    0  0.60049771916E+01 -0.95051550234E+01  0.29838116645E+02  0.31886061657E+02  0.00000000000E+00 0.  1.
         11    1    3    3    0    0 -0.95240579059E+01 -0.44549594100E+01 -0.37075634679E+02  0.38537735136E+02  0.51100000000E-03 0. -1.
        -11    1    3    3    0    0  0.90220055091E+00  0.13609253505E+02  0.63563710561E+00  0.13653929163E+02  0.51100000000E-03 0.  1.
        -12    1    3    3    0    0  0.26168801634E+01  0.35086092811E+00  0.66018809281E+01  0.71102740432E+01  0.00000000000E+00 0.  1.
</event>
<event>
 7    1  0.1221195E-011  0.5930195E+02  0.7816164E-02  0.1266605E+00
        -11   -1    0    0    0    0  0.00000000000E+00  0.00000000000E+00  0.45593999997E+02  0.45594000000E+02  0.51100000000E-03 0.  1.
         11   -1    0    0    0    0 -0.00000000000E+00 -0.00000000000E+00 -0.45593999997E+02  0.45594000000E+02  0.51100000000E-03 0. -1.
    9900012    2    1    2    0    0 -0.14434777011E+01 -0.13433525523E+02 -0.28882120574E+02  0.59301950939E+02  0.50000012605E+02 0.  0.
        -12    1    1    2    0    0  0.14434777011E+01  0.13433525523E+02  0.28882120574E+02  0.31886049061E+02  0.00000000000E+00 0.  1.
         11    1    3    3    0    0  0.16636511042E+02 -0.25703116773E+01 -0.21815588363E+01  0.16974663502E+02  0.51100000000E-03 0. -1.
        -11    1    3    3    0    0 -0.77345498900E+01  0.72493985502E+01 -0.35823372133E+01  0.11189735542E+02  0.51100000000E-03 0.  1.
         12    1    3    3    0    0 -0.10345438853E+02 -0.18112612396E+02 -0.23118224524E+02  0.31137551895E+02  0.00000000000E+00 0. -1.
</event>
<event>
 7    1  0.1221195E-011  0.5930195E+02  0.7816164E-02  0.1266605E+00
        -11   -1    0    0    0    0  0.00000000000E+00  0.00000000000E+00  0.45593999997E+02  0.45594000000E+02  0.51100000000E-03 0.  1.
         11   -1    0    0    0    0 -0.00000000000E+00 -0.00000000000E+00 -0.45593999997E+02  0.45594000000E+02  0.51100000000E-03 0. -1.
    9900012    2    1    2    0    0  0.90736498084E+00  0.14867672033E+02 -0.28193073289E+02  0.59301947181E+02  0.50000005751E+02 0.  0.
        -12    1    1    2    0    0 -0.90736498084E+00 -0.14867672033E+02  0.28193073289E+02  0.31886052819E+02  0.00000000000E+00 0.  1.
         11    1    3    3    0    0  0.12071204283E+02  0.27506948302E+02 -0.19026274769E+02  0.35557633633E+02  0.51100000000E-03 0. -1.
        -11    1    3    3    0    0 -0.26977647819E+01  0.27257935116E+01 -0.37995153292E+01  0.53985370319E+01  0.51100000000E-03 0.  1.
         12    1    3    3    0    0 -0.84660745202E+01 -0.15365069780E+02 -0.53672831913E+01  0.18345776516E+02  0.00000000000E+00 0. -1.
</event>
<event>
 7    1  0.1221195E-011  0.5930196E+02  0.7816164E-02  0.1266605E+00
        -11   -1    0    0    0    0  0.00000000000E+00  0.00000000000E+00  0.45593999997E+02  0.45594000000E+02  0.51100000000E-03 0. -1.
         11   -1    0    0    0    0 -0.00000000000E+00 -0.00000000000E+00 -0.45593999997E+02  0.45594000000E+02  0.51100000000E-03 0.  1.
    9900012    2    1    2    0    0  0.21410349398E+02 -0.82702673050E+01  0.22134113013E+02  0.59301963220E+02  0.50000035002E+02 0.  0.
        -12    1    1    2    0    0 -0.21410349398E+02  0.82702673050E+01 -0.22134113013E+02  0.31886036780E+02  0.00000000000E+00 0.  1.
         11    1    3    3    0    0 -0.18495877093E+00 -0.14284653505E+01 -0.67341392333E+01  0.68864616806E+01  0.51100000000E-03 0. -1.
        -11    1    3    3    0    0  0.13706565686E+02  0.10091784863E+02 -0.11492589687E+01  0.17059743875E+02  0.51100000000E-03 0.  1.
         12    1    3    3    0    0  0.78887424824E+01 -0.16933586818E+02  0.30017511215E+02  0.35355757665E+02  0.00000000000E+00 0. -1.
</event>
<event>
 7    1  0.1221195E-011  0.5930194E+02  0.7816164E-02  0.1266605E+00
        -11   -1    0    0    0    0  0.00000000000E+00  0.00000000000E+00  0.45593999997E+02  0.45594000000E+02  0.51100000000E-03 0. -1.
         11   -1    0    0    0    0 -0.00000000000E+00 -0.00000000000E+00 -0.45593999997E+02  0.45594000000E+02  0.51100000000E-03 0.  1.
    9900012    2    1    2    0    0  0.17434835923E+02  0.56430517691E+01  0.26094121497E+02  0.59301941704E+02  0.49999995763E+02 0.  0.
        -12    1    1    2    0    0 -0.17434835923E+02 -0.56430517691E+01 -0.26094121497E+02  0.31886058296E+02  0.00000000000E+00 0.  1.
         11    1    3    3    0    0  0.70199500884E+01 -0.55269774241E+01  0.75843188015E+01  0.11719601983E+02  0.51100000000E-03 0. -1.
        -11    1    3    3    0    0 -0.96019136973E+01 -0.75349468310E+01 -0.32105568262E+01  0.12620611942E+02  0.51100000000E-03 0.  1.
         12    1    3    3    0    0  0.20016799532E+02  0.18704976024E+02  0.21720359522E+02  0.34961727779E+02  0.00000000000E+00 0. -1.
</event>
<event>
 7    1  0.1221195E-011  0.5930196E+02  0.7816164E-02  0.1266605E+00
        -11   -1    0    0    0    0  0.00000000000E+00  0.00000000000E+00  0.45593999997E+02  0.45594000000E+02  0.51100000000E-03 0. -1.
         11   -1    0    0    0    0 -0.00000000000E+00 -0.00000000000E+00 -0.45593999997E+02  0.45594000000E+02  0.51100000000E-03 0.  1.
    9900012    2    1    2    0    0 -0.13499290155E+02 -0.25180398823E+02  0.14157544167E+02  0.59301962673E+02  0.50000034005E+02 0.  0.
        -12    1    1    2    0    0  0.13499290155E+02  0.25180398823E+02 -0.14157544167E+02  0.31886037327E+02  0.00000000000E+00 0.  1.
         11    1    3    3    0    0  0.12074975900E+01 -0.94287966874E+00  0.27134325431E+02  0.27177540164E+02  0.51100000000E-03 0. -1.
        -11    1    3    3    0    0 -0.58262297227E+01 -0.34293272217E+01 -0.28206796979E+01  0.73253991150E+01  0.51100000000E-03 0.  1.
        -12    1    3    3    0    0 -0.88805580219E+01 -0.20808191933E+02 -0.10156101566E+02  0.24799023394E+02  0.00000000000E+00 0.  1.
</event>
<event>
 7    1  0.1221195E-011  0.5930197E+02  0.7816164E-02  0.1266605E+00
        -11   -1    0    0    0    0  0.00000000000E+00  0.00000000000E+00  0.45593999997E+02  0.45594000000E+02  0.51100000000E-03 0.  1.
         11   -1    0    0    0    0 -0.00000000000E+00 -0.00000000000E+00 -0.45593999997E+02  0.45594000000E+02  0.51100000000E-03 0. -1.
    9900012    2    1    2    0    0 -0.19345977820E+02 -0.25260478438E+02 -0.20881954125E+01  0.59301965615E+02  0.50000039369E+02 0.  0.
        -12    1    1    2    0    0  0.19345977820E+02  0.25260478438E+02  0.20881954125E+01  0.31886034385E+02  0.00000000000E+00 0.  1.
         11    1    3    3    0    0 -0.19623112744E+02 -0.12956111875E+01 -0.16028255361E+02  0.25370260785E+02  0.51100000000E-03 0. -1.
        -11    1    3    3    0    0  0.43627125683E+01 -0.26497882255E+01  0.10874872469E+02  0.12013221469E+02  0.51100000000E-03 0.  1.
        -12    1    3    3    0    0 -0.40855776446E+01 -0.21315079025E+02  0.30651874803E+01  0.21918483361E+02  0.00000000000E+00 0.  1.
</event>
<event>
 7    1  0.1221195E-011  0.5930195E+02  0.7816164E-02  0.1266605E+00
        -11   -1    0    0    0    0  0.00000000000E+00  0.00000000000E+00  0.45593999997E+02  0.45594000000E+02  0.51100000000E-03 0.  1.
         11   -1    0    0    0    0 -0.00000000000E+00 -0.00000000000E+00 -0.45593999997E+02  0.45594000000E+02  0.51100000000E-03 0. -1.
    9900012    2    1    2    0    0 -0.10912569009E+02 -0.10918410582E+02 -0.27900256693E+02  0.59301950142E+02  0.50000011151E+02 0.  0.
        -12    1    1    2    0    0  0.10912569009E+02  0.10918410582E+02  0.27900256693E+02  0.31886049858E+02  0.00000000000E+00 0.  1.
         11    1    3    3    0    0 -0.31658682590E+01 -0.42241875177E+01 -0.38075901983E+02  0.38440093575E+02  0.51100000000E-03 0. -1.
        -11    1    3    3    0    0 -0.23888811550E+01 -0.97137786347E+01  0.13342598754E+01  0.10091803516E+02  0.51100000000E-03 0.  1.
        -12    1    3    3    0    0 -0.53578195950E+01  0.30195555701E+01  0.88413854148E+01  0.10770053050E+02  0.00000000000E+00 0.  1.
</event>
<event>
 7    1  0.1221195E-011  0.5930195E+02  0.7816164E-02  0.1266605E+00
        -11   -1    0    0    0    0  0.00000000000E+00  0.00000000000E+00  0.45593999997E+02  0.45594000000E+02  0.51100000000E-03 0. -1.
         11   -1    0    0    0    0 -0.00000000000E+00 -0.00000000000E+00 -0.45593999997E+02  0.45594000000E+02  0.51100000000E-03 0.  1.
    9900012    2    1    2    0    0  0.11428763519E+02 -0.12216110077E+02  0.27145354525E+02  0.59301948923E+02  0.50000008927E+02 0.  0.
        -12    1    1    2    0    0 -0.11428763519E+02  0.12216110077E+02 -0.27145354525E+02  0.31886051077E+02  0.00000000000E+00 0.  1.
         11    1    3    3    0    0 -0.15999520408E+01 -0.62071733624E+00  0.16791789595E+02  0.16879257525E+02  0.51100000000E-03 0. -1.
        -11    1    3    3    0    0  0.24685523104E+02 -0.93385429447E+01  0.14163530110E+02  0.29953113706E+02  0.51100000000E-03 0.  1.
         12    1    3    3    0    0 -0.11656807544E+02 -0.22568497964E+01 -0.38099651797E+01  0.12469577691E+02  0.00000000000E+00 0. -1.
</event>
<event>
 7    1  0.1221195E-011  0.5930200E+02  0.7816164E-02  0.1266605E+00
        -11   -1    0    0    0    0  0.00000000000E+00  0.00000000000E+00  0.45593999997E+02  0.45594000000E+02  0.51100000000E-03 0. -1.
         11   -1    0    0    0    0 -0.00000000000E+00 -0.00000000000E+00 -0.45593999997E+02  0.45594000000E+02  0.51100000000E-03 0.  1.
    9900012    2    1    2    0    0 -0.19485532309E+02 -0.16149203924E+02  0.19396764987E+02  0.59301996038E+02  0.50000094853E+02 0.  0.
        -12    1    1    2    0    0  0.19485532309E+02  0.16149203924E+02 -0.19396764987E+02  0.31886003962E+02  0.00000000000E+00 0.  1.
         11    1    3    3    0    0 -0.22804256164E+02  0.47933358878E+01  0.12756745732E+02  0.26565856471E+02  0.51100000000E-03 0. -1.
        -11    1    3    3    0    0  0.40052727713E+01  0.45817089695E+01  0.34733924234E+01  0.70070480406E+01  0.51100000000E-03 0.  1.
        -12    1    3    3    0    0 -0.68654891606E+00 -0.25524248781E+02  0.31666268322E+01  0.25729091526E+02  0.00000000000E+00 0.  1.
</event>
<event>
 7    1  0.1221195E-011  0.5930197E+02  0.7816164E-02  0.1266605E+00
        -11   -1    0    0    0    0  0.00000000000E+00  0.00000000000E+00  0.45593999997E+02  0.45594000000E+02  0.51100000000E-03 0.  1.
         11   -1    0    0    0    0 -0.00000000000E+00 -0.00000000000E+00 -0.45593999997E+02  0.45594000000E+02  0.51100000000E-03 0. -1.
    9900012    2    1    2    0    0 -0.54026497315E+00 -0.25398324756E+02 -0.19270503321E+02  0.59301967244E+02  0.50000042342E+02 0.  0.
        -12    1    1    2    0    0  0.54026497315E+00  0.25398324756E+02  0.19270503321E+02  0.31886032756E+02  0.00000000000E+00 0.  1.
         11    1    3    3    0    0  0.32207172747E+01 -0.22195320519E+02 -0.88484828157E+01  0.24110182934E+02  0.51100000000E-03 0. -1.
        -11    1    3    3    0    0  0.77010065758E+01 -0.62943673893E+01  0.83463053254E+01  0.12984043128E+02  0.51100000000E-03 0.  1.
         12    1    3    3    0    0 -0.11461988824E+02  0.30913631525E+01 -0.18768325830E+02  0.22207741182E+02  0.00000000000E+00 0. -1.
</event>
<event>
 7    1  0.1221195E-011  0.5930195E+02  0.7816164E-02  0.1266605E+00
        -11   -1    0    0    0    0  0.00000000000E+00  0.00000000000E+00  0.45593999997E+02  0.45594000000E+02  0.51100000000E-03 0. -1.
         11   -1    0    0    0    0 -0.00000000000E+00 -0.00000000000E+00 -0.45593999997E+02  0.45594000000E+02  0.51100000000E-03 0.  1.
    9900012    2    1    2    0    0  0.10639559801E+02 -0.28403737061E+02 -0.98360318855E+01  0.59301952345E+02  0.50000015169E+02 0.  0.
        -12    1    1    2    0    0 -0.10639559801E+02  0.28403737061E+02  0.98360318855E+01  0.31886047655E+02  0.00000000000E+00 0.  1.
         11    1    3    3    0    0 -0.80556694468E+01 -0.38211081085E+01  0.51657289592E+01  0.10304340510E+02  0.51100000000E-03 0. -1.
        -11    1    3    3    0    0 -0.42773590010E+01 -0.22080680211E+02 -0.22477173369E+01  0.22603196059E+02  0.51100000000E-03 0.  1.
        -12    1    3    3    0    0  0.22972588248E+02 -0.25019487417E+01 -0.12754043508E+02  0.26394415776E+02  0.00000000000E+00 0.  1.
</event>
<event>
 7    1  0.1221195E-011  0.5930193E+02  0.7816164E-02  0.1266605E+00
        -11   -1    0    0    0    0  0.00000000000E+00  0.00000000000E+00  0.45593999997E+02  0.45594000000E+02  0.51100000000E-03 0.  1.
         11   -1    0    0    0    0 -0.00000000000E+00 -0.00000000000E+00 -0.45593999997E+02  0.45594000000E+02  0.51100000000E-03 0. -1.
    9900012    2    1    2    0    0  0.32521176364E+01  0.27896717844E+02 -0.15096957473E+02  0.59301933129E+02  0.49999980123E+02 0.  0.
        -12    1    1    2    0    0 -0.32521176364E+01 -0.27896717844E+02  0.15096957473E+02  0.31886066871E+02  0.00000000000E+00 0.  1.
         11    1    3    3    0    0 -0.13331732864E+02  0.79774110978E-01  0.40740623624E+01  0.13940568477E+02  0.51100000000E-03 0. -1.
        -11    1    3    3    0    0  0.13128082557E+02  0.28987950463E+00 -0.84699296768E+01  0.15625949275E+02  0.51100000000E-03 0.  1.
         12    1    3    3    0    0  0.34557679428E+01  0.27527064228E+02 -0.10701090158E+02  0.29735415377E+02  0.00000000000E+00 0. -1.
</event>
<event>
 7    1  0.1221195E-011  0.5930200E+02  0.7816164E-02  0.1266605E+00
        -11   -1    0    0    0    0  0.00000000000E+00  0.00000000000E+00  0.45593999997E+02  0.45594000000E+02  0.51100000000E-03 0.  1.
         11   -1    0    0    0    0 -0.00000000000E+00 -0.00000000000E+00 -0.45593999997E+02  0.45594000000E+02  0.51100000000E-03 0. -1.
    9900012    2    1    2    0    0  0.15985311038E+02 -0.12143181125E+02 -0.24773570761E+02  0.59302002680E+02  0.50000106968E+02 0.  0.
        -12    1    1    2    0    0 -0.15985311038E+02  0.12143181125E+02  0.24773570761E+02  0.31885997320E+02  0.00000000000E+00 0.  1.
         11    1    3    3    0    0  0.34499396404E+01  0.12747907049E+02 -0.15355430300E+02  0.20253406075E+02  0.51100000000E-03 0. -1.
        -11    1    3    3    0    0 -0.24068634106E+00 -0.36746002889E+01 -0.13460045822E+02  0.13954692795E+02  0.51100000000E-03 0.  1.
        -12    1    3    3    0    0  0.12776057738E+02 -0.21216487885E+02  0.40419053610E+01  0.25093903811E+02  0.00000000000E+00 0.  1.
</event>
<event>
 7    1  0.1221195E-011  0.5930197E+02  0.7816164E-02  0.1266605E+00
        -11   -1    0    0    0    0  0.00000000000E+00  0.00000000000E+00  0.45593999997E+02  0.45594000000E+02  0.51100000000E-03 0.  1.
         11   -1    0    0    0    0 -0.00000000000E+00 -0.00000000000E+00 -0.45593999997E+02  0.45594000000E+02  0.51100000000E-03 0. -1.
    9900012    2    1    2    0    0 -0.16504886861E+02  0.18731804739E+02 -0.19834994451E+02  0.59301971650E+02  0.50000050376E+02 0.  0.
        -12    1    1    2    0    0  0.16504886861E+02 -0.18731804739E+02  0.19834994451E+02  0.31886028350E+02  0.00000000000E+00 0.  1.
         11    1    3    3    0    0 -0.17189825518E+01 -0.65259922502E+01 -0.12380535641E+02  0.14100394991E+02  0.51100000000E-03 0. -1.
        -11    1    3    3    0    0  0.40435810738E+01 -0.44728919844E+01  0.50388579056E+01  0.78579513780E+01  0.51100000000E-03 0.  1.
         12    1    3    3    0    0 -0.18829485383E+02  0.29730688973E+02 -0.12493316715E+02  0.37343625281E+02  0.00000000000E+00 0. -1.
</event>
<event>
 7    1  0.1221195E-011  0.5930194E+02  0.7816164E-02  0.1266605E+00
        -11   -1    0    0    0    0  0.00000000000E+00  0.00000000000E+00  0.45593999997E+02  0.45594000000E+02  0.51100000000E-03 0. -1.
         11   -1    0    0    0    0 -0.00000000000E+00 -0.00000000000E+00 -0.45593999997E+02  0.45594000000E+02  0.51100000000E-03 0.  1.
    9900012    2    1    2    0    0 -0.26683017895E+02  0.16633284487E+02  0.52982428309E+01  0.59301937623E+02  0.49999988320E+02 0.  0.
        -12    1    1    2    0    0  0.26683017895E+02 -0.16633284487E+02 -0.52982428309E+01  0.31886062377E+02  0.00000000000E+00 0.  1.
         11    1    3    3    0    0 -0.23891369203E+02  0.26450366783E+02 -0.31552393751E+01  0.35782327497E+02  0.51100000000E-03 0. -1.
        -11    1    3    3    0    0  0.10373885387E+01  0.57631031771E+01  0.29602318775E+01  0.65614408661E+01  0.51100000000E-03 0.  1.
        -12    1    3    3    0    0 -0.38290372310E+01 -0.15580185473E+02  0.54932503284E+01  0.16958169260E+02  0.00000000000E+00 0.  1.
</event>
<event>
 7    1  0.1221195E-011  0.5930195E+02  0.7816164E-02  0.1266605E+00
        -11   -1    0    0    0    0  0.00000000000E+00  0.00000000000E+00  0.45593999997E+02  0.45594000000E+02  0.51100000000E-03 0.  1.
         11   -1    0    0    0    0 -0.00000000000E+00 -0.00000000000E+00 -0.45593999997E+02  0.45594000000E+02  0.51100000000E-03 0. -1.
    9900012    2    1    2    0    0  0.25777710340E+02 -0.18331143340E+02 -0.40247637112E+01  0.59301954628E+02  0.50000019332E+02 0.  0.
        -12    1    1    2    0    0 -0.25777710340E+02  0.18331143340E+02  0.40247637112E+01  0.31886045372E+02  0.00000000000E+00 0.  1.
         11    1    3    3    0    0  0.39358991504E+01 -0.12502212378E+02 -0.22531547998E+01  0.13299373041E+02  0.51100000000E-03 0. -1.
        -11    1    3    3    0    0  0.50947032104E+01 -0.11642272932E+02 -0.17956279410E+02  0.21998329262E+02  0.51100000000E-03 0.  1.
        -12    1    3    3    0    0  0.16747107980E+02  0.58133419705E+01  0.16184670498E+02  0.24004252325E+02  0.00000000000E+00 0.  1.
</event>
<event>
 7    1  0.1221195E-011  0.5930195E+02  0.7816164E-02  0.1266605E+00
        -11   -1    0    0    0    0  0.00000000000E+00  0.00000000000E+00  0.45593999997E+02  0.45594000000E+02  0.51100000000E-03 0. -1.
         11   -1    0    0    0    0 -0.00000000000E+00 -0.00000000000E+00 -0.45593999997E+02  0.45594000000E+02  0.51100000000E-03 0.  1.
    9900012    2    1    2    0    0 -0.27284704188E+02 -0.13823391653E+02  0.90099364878E+01  0.59301949837E+02  0.50000010596E+02 0.  0.
        -12    1    1    2    0    0  0.27284704188E+02  0.13823391653E+02 -0.90099364878E+01  0.31886050163E+02  0.00000000000E+00 0.  1.
         11    1    3    3    0    0  0.49645289340E+01 -0.89406474987E+01 -0.12488849840E+01  0.10302496746E+02  0.51100000000E-03 0.  1.
        -11    1    3    3    0    0 -0.35900338959E+02 -0.70992547125E+01  0.17521542057E+02  0.40573860935E+02  0.51100000000E-03 0. -1.
         12    1    3    3    0    0  0.36511058369E+01  0.22165105578E+01 -0.72627205853E+01  0.84255921564E+01  0.00000000000E+00 0. -1.
</event>
<event>
 7    1  0.1221195E-011  0.5930192E+02  0.7816164E-02  0.1266605E+00
        -11   -1    0    0    0    0  0.00000000000E+00  0.00000000000E+00  0.45593999997E+02  0.45594000000E+02  0.51100000000E-03 0.  1.
         11   -1    0    0    0    0 -0.00000000000E+00 -0.00000000000E+00 -0.45593999997E+02  0.45594000000E+02  0.51100000000E-03 0. -1.
    9900012    2    1    2    0    0  0.54838147911E+01  0.69090144022E+00 -0.31403380473E+02  0.59301923499E+02  0.49999962561E+02 0.  0.
        -12    1    1    2    0    0 -0.54838147911E+01 -0.69090144022E+00  0.31403380473E+02  0.31886076501E+02  0.00000000000E+00 0.  1.
         11    1    3    3    0    0  0.36752405754E+00  0.14556363923E+02 -0.15888079595E+02  0.21551192034E+02  0.51100000000E-03 0. -1.
        -11    1    3    3    0    0  0.83073551098E-01 -0.31856998613E+01 -0.23359603366E+02  0.23575976216E+02  0.51100000000E-03 0.  1.
        -12    1    3    3    0    0  0.50332171824E+01 -0.10679762621E+02  0.78443024884E+01  0.14174755250E+02  0.00000000000E+00 0.  1.
</event>
<event>
 7    1  0.1221195E-011  0.5930195E+02  0.7816164E-02  0.1266605E+00
        -11   -1    0    0    0    0  0.00000000000E+00  0.00000000000E+00  0.45593999997E+02  0.45594000000E+02  0.51100000000E-03 0.  1.
         11   -1    0    0    0    0 -0.00000000000E+00 -0.00000000000E+00 -0.45593999997E+02  0.45594000000E+02  0.51100000000E-03 0. -1.
    9900012    2    1    2    0    0 -0.46846200487E+01  0.25966800923E+02 -0.17902505079E+02  0.59301951275E+02  0.50000013217E+02 0.  0.
        -12    1    1    2    0    0  0.46846200487E+01 -0.25966800923E+02  0.17902505079E+02  0.31886048725E+02  0.00000000000E+00 0.  1.
         11    1    3    3    0    0  0.29824017235E+01  0.23619791063E+02  0.11650919823E+01  0.23835827854E+02  0.51100000000E-03 0. -1.
        -11    1    3    3    0    0 -0.31269939594E+01  0.15365358500E+02 -0.71147745148E+01  0.17218953211E+02  0.51100000000E-03 0.  1.
        -12    1    3    3    0    0 -0.45400278129E+01 -0.13018348639E+02 -0.11952822547E+02  0.18247170210E+02  0.00000000000E+00 0.  1.
</event>
<event>
 7    1  0.1221195E-011  0.5930195E+02  0.7816164E-02  0.1266605E+00
        -11   -1    0    0    0    0  0.00000000000E+00  0.00000000000E+00  0.45593999997E+02  0.45594000000E+02  0.51100000000E-03 0. -1.
         11   -1    0    0    0    0 -0.00000000000E+00 -0.00000000000E+00 -0.45593999997E+02  0.45594000000E+02  0.51100000000E-03 0.  1.
    9900012    2    1    2    0    0  0.31749191211E+02 -0.74592015259E+00  0.28553136212E+01  0.59301947323E+02  0.50000006010E+02 0.  0.
        -12    1    1    2    0    0 -0.31749191211E+02  0.74592015259E+00 -0.28553136212E+01  0.31886052677E+02  0.00000000000E+00 0.  1.
         11    1    3    3    0    0 -0.12467081615E+01 -0.44102440925E+01 -0.10741843796E+02  0.11678687537E+02  0.51100000000E-03 0. -1.
        -11    1    3    3    0    0  0.11497179657E+02  0.57025669073E+01 -0.95270779102E+01  0.15983417131E+02  0.51100000000E-03 0.  1.
         12    1    3    3    0    0  0.21498719715E+02 -0.20382429674E+01  0.23124235327E+02  0.31639842656E+02  0.00000000000E+00 0. -1.
</event>
<event>
 7    1  0.1221195E-011  0.5930197E+02  0.7816164E-02  0.1266605E+00
        -11   -1    0    0    0    0  0.00000000000E+00  0.00000000000E+00  0.45593999997E+02  0.45594000000E+02  0.51100000000E-03 0. -1.
         11   -1    0    0    0    0 -0.00000000000E+00 -0.00000000000E+00 -0.45593999997E+02  0.45594000000E+02  0.51100000000E-03 0.  1.
    9900012    2    1    2    0    0 -0.26482286290E+00 -0.22011646759E+02  0.23068082042E+02  0.59301966486E+02  0.50000040958E+02 0.  0.
        -12    1    1    2    0    0  0.26482286290E+00  0.22011646759E+02 -0.23068082042E+02  0.31886033514E+02  0.00000000000E+00 0.  1.
         11    1    3    3    0    0  0.12198057278E+02 -0.22034228500E+02  0.23187907837E+02  0.34234177324E+02  0.51100000000E-03 0. -1.
        -11    1    3    3    0    0 -0.96943876155E+00 -0.40550676201E+01  0.89473392470E+01  0.98710822496E+01  0.51100000000E-03 0.  1.
        -12    1    3    3    0    0 -0.11493441380E+02  0.40776493618E+01 -0.90671650420E+01  0.15196706912E+02  0.00000000000E+00 0.  1.
</event>
<event>
 7    1  0.1221195E-011  0.5930194E+02  0.7816164E-02  0.1266605E+00
        -11   -1    0    0    0    0  0.00000000000E+00  0.00000000000E+00  0.45593999997E+02  0.45594000000E+02  0.51100000000E-03 0.  1.
         11   -1    0    0    0    0 -0.00000000000E+00 -0.00000000000E+00 -0.45593999997E+02  0.45594000000E+02  0.51100000000E-03 0. -1.
    9900012    2    1    2    0    0  0.69982798630E+01 -0.52795611737E+01 -0.30657321842E+02  0.59301936120E+02  0.49999985578E+02 0.  0.
        -12    1    1    2    0    0 -0.69982798630E+01  0.52795611737E+01  0.30657321842E+02  0.31886063880E+02  0.00000000000E+00 0.  1.
         11    1    3    3    0    0 -0.93197540602E+01  0.28330324964E+01 -0.16776974463E+02  0.19399761887E+02  0.51100000000E-03 0. -1.
        -11    1    3    3    0    0  0.61294198322E+01 -0.20471021844E+02 -0.72198549119E+01  0.22555682832E+02  0.51100000000E-03 0.  1.
         12    1    3    3    0    0  0.10188614091E+02  0.12358428174E+02 -0.66604924674E+01  0.17346491401E+02  0.00000000000E+00 0. -1.
</event>
<event>
 7    1  0.1221195E-011  0.5930189E+02  0.7816164E-02  0.1266605E+00
        -11   -1    0    0    0    0  0.00000000000E+00  0.00000000000E+00  0.45593999997E+02  0.45594000000E+02  0.51100000000E-03 0.  1.
         11   -1    0    0    0    0 -0.00000000000E+00 -0.00000000000E+00 -0.45593999997E+02  0.45594000000E+02  0.51100000000E-03 0. -1.
    9900012    2    1    2    0    0 -0.10660153198E+02 -0.16577465438E+02 -0.25065364251E+02  0.59301894694E+02  0.49999910028E+02 0.  0.
        -12    1    1    2    0    0  0.10660153198E+02  0.16577465438E+02  0.25065364251E+02  0.31886105306E+02  0.00000000000E+00 0.  1.
         11    1    3    3    0    0  0.35079861044E+01  0.18678655099E+01 -0.13869515585E+02  0.14427693887E+02  0.51100000000E-03 0. -1.
        -11    1    3    3    0    0  0.81884685192E+01 -0.18200198604E+02 -0.10394046618E+02  0.22501876617E+02  0.51100000000E-03 0.  1.
         12    1    3    3    0    0 -0.22356607822E+02 -0.24513234382E+00 -0.80180204745E+00  0.22372324190E+02  0.00000000000E+00 0. -1.
</event>
<event>
 7    1  0.1221195E-011  0.5930195E+02  0.7816164E-02  0.1266605E+00
        -11   -1    0    0    0    0  0.00000000000E+00  0.00000000000E+00  0.45593999997E+02  0.45594000000E+02  0.51100000000E-03 0.  1.
         11   -1    0    0    0    0 -0.00000000000E+00 -0.00000000000E+00 -0.45593999997E+02  0.45594000000E+02  0.51100000000E-03 0. -1.
    9900012    2    1    2    0    0 -0.22830625997E+02  0.52061060225E+01 -0.21642073677E+02  0.59301946992E+02  0.50000005407E+02 0.  0.
        -12    1    1    2    0    0  0.22830625997E+02 -0.52061060225E+01  0.21642073677E+02  0.31886053008E+02  0.00000000000E+00 0.  1.
         11    1    3    3    0    0 -0.58567806655E+01 -0.77771138359E+01  0.73251652025E+01  0.12183736081E+02  0.51100000000E-03 0. -1.
        -11    1    3    3    0    0 -0.14268396993E+02  0.99059668361E+01  0.49049190950E+00  0.17376878727E+02  0.51100000000E-03 0.  1.
         12    1    3    3    0    0 -0.27054483386E+01  0.30772530222E+01 -0.29457730789E+02  0.29741332185E+02  0.00000000000E+00 0. -1.
</event>
<event>
 7    1  0.1221195E-011  0.5930193E+02  0.7816164E-02  0.1266605E+00
        -11   -1    0    0    0    0  0.00000000000E+00  0.00000000000E+00  0.45593999997E+02  0.45594000000E+02  0.51100000000E-03 0. -1.
         11   -1    0    0    0    0 -0.00000000000E+00 -0.00000000000E+00 -0.45593999997E+02  0.45594000000E+02  0.51100000000E-03 0.  1.
    9900012    2    1    2    0    0  0.13559419441E+02 -0.28770336192E+02 -0.22652326018E+01  0.59301931272E+02  0.49999976737E+02 0.  0.
        -12    1    1    2    0    0 -0.13559419441E+02  0.28770336192E+02  0.22652326018E+01  0.31886068728E+02  0.00000000000E+00 0.  1.
         11    1    3    3    0    0  0.66432193743E+01 -0.25105018522E+02  0.22606067511E+01  0.26067310214E+02  0.51100000000E-03 0. -1.
        -11    1    3    3    0    0 -0.82882099882E+01 -0.83305284042E+00 -0.13120184473E+02  0.15541159632E+02  0.51100000000E-03 0.  1.
         12    1    3    3    0    0  0.15204410054E+02 -0.28322648293E+01  0.85943451205E+01  0.17693461426E+02  0.00000000000E+00 0. -1.
</event>
<event>
 7    1  0.1221195E-011  0.5930195E+02  0.7816164E-02  0.1266605E+00
        -11   -1    0    0    0    0  0.00000000000E+00  0.00000000000E+00  0.45593999997E+02  0.45594000000E+02  0.51100000000E-03 0.  1.
         11   -1    0    0    0    0 -0.00000000000E+00 -0.00000000000E+00 -0.45593999997E+02  0.45594000000E+02  0.51100000000E-03 0. -1.
    9900012    2    1    2    0    0 -0.25355447217E+02 -0.18920597969E+02 -0.39789902531E+01  0.59301951413E+02  0.50000013469E+02 0.  0.
        -12    1    1    2    0    0  0.25355447217E+02  0.18920597969E+02  0.39789902531E+01  0.31886048587E+02  0.00000000000E+00 0.  1.
         11    1    3    3    0    0 -0.13751428473E+02 -0.42554636726E+00 -0.72064215015E+01  0.15531110259E+02  0.51100000000E-03 0. -1.
        -11    1    3    3    0    0  0.12705628000E+02 -0.14026366710E+02  0.95187249860E+00  0.18949353748E+02  0.51100000000E-03 0.  1.
         12    1    3    3    0    0 -0.24309646743E+02 -0.44686848919E+01  0.22755587498E+01  0.24821487406E+02  0.00000000000E+00 0. -1.
</event>
<event>
 7    1  0.1221195E-011  0.5930194E+02  0.7816164E-02  0.1266605E+00
        -11   -1    0    0    0    0  0.00000000000E+00  0.00000000000E+00  0.45593999997E+02  0.45594000000E+02  0.51100000000E-03 0. -1.
         11   -1    0    0    0    0 -0.00000000000E+00 -0.00000000000E+00 -0.45593999997E+02  0.45594000000E+02  0.51100000000E-03 0.  1.
    9900012    2    1    2    0    0 -0.21717527704E+02  0.22923327832E+02  0.44261374221E+01  0.59301942530E+02  0.49999997269E+02 0.  0.
        -12    1    1    2    0    0  0.21717527704E+02 -0.22923327832E+02 -0.44261374221E+01  0.31886057470E+02  0.00000000000E+00 0.  1.
         11    1    3    3    0    0 -0.27321371540E+02  0.15211851401E+02 -0.11709933574E+02  0.33391320885E+02  0.51100000000E-03 0. -1.
        -11    1    3    3    0    0  0.90665186532E+01  0.14823205366E+01  0.10764449897E+01  0.92497442526E+01  0.51100000000E-03 0.  1.
        -12    1    3    3    0    0 -0.34626748178E+01  0.62291558943E+01  0.15059626007E+02  0.16660877393E+02  0.00000000000E+00 0.  1.
</event>
<event>
 7    1  0.1221195E-011  0.5930196E+02  0.7816164E-02  0.1266605E+00
        -11   -1    0    0    0    0  0.00000000000E+00  0.00000000000E+00  0.45593999997E+02  0.45594000000E+02  0.51100000000E-03 0. -1.
         11   -1    0    0    0    0 -0.00000000000E+00 -0.00000000000E+00 -0.45593999997E+02  0.45594000000E+02  0.51100000000E-03 0.  1.
    9900012    2    1    2    0    0  0.13901810290E+01 -0.44666123257E+01  0.31541022806E+02  0.59301963109E+02  0.50000034800E+02 0.  0.
        -12    1    1    2    0    0 -0.13901810290E+01  0.44666123257E+01 -0.31541022806E+02  0.31886036891E+02  0.00000000000E+00 0.  1.
         11    1    3    3    0    0 -0.99201448847E+01  0.24568776265E+01  0.84902974706E+01  0.13286484622E+02  0.51100000000E-03 0. -1.
        -11    1    3    3    0    0 -0.71840663065E+01 -0.14952950217E+02  0.17428313694E+01  0.16680497304E+02  0.51100000000E-03 0.  1.
         12    1    3    3    0    0  0.18494392220E+02  0.80294602646E+01  0.21307893966E+02  0.29334981183E+02  0.00000000000E+00 0. -1.
</event>
<event>
 7    1  0.1221195E-011  0.5930189E+02  0.7816164E-02  0.1266605E+00
        -11   -1    0    0    0    0  0.00000000000E+00  0.00000000000E+00  0.45593999997E+02  0.45594000000E+02  0.51100000000E-03 0.  1.
         11   -1    0    0    0    0 -0.00000000000E+00 -0.00000000000E+00 -0.45593999997E+02  0.45594000000E+02  0.51100000000E-03 0. -1.
    9900012    2    1    2    0    0 -0.27204886814E+02  0.59962540492E+01 -0.15513329487E+02  0.59301885139E+02  0.49999892601E+02 0.  0.
        -12    1    1    2    0    0  0.27204886814E+02 -0.59962540492E+01  0.15513329487E+02  0.31886114861E+02  0.00000000000E+00 0.  1.
         11    1    3    3    0    0 -0.23618416423E+02  0.34630082351E+01 -0.11294092422E+02  0.26407925785E+02  0.51100000000E-03 0. -1.
        -11    1    3    3    0    0 -0.17516305825E+02 -0.70389458751E+00  0.12682517728E+01  0.17576259561E+02  0.51100000000E-03 0.  1.
         12    1    3    3    0    0  0.13929835434E+02  0.32371404015E+01 -0.54874888377E+01  0.15317699793E+02  0.00000000000E+00 0. -1.
</event>
<event>
 7    1  0.1221195E-011  0.5930196E+02  0.7816164E-02  0.1266605E+00
        -11   -1    0    0    0    0  0.00000000000E+00  0.00000000000E+00  0.45593999997E+02  0.45594000000E+02  0.51100000000E-03 0. -1.
         11   -1    0    0    0    0 -0.00000000000E+00 -0.00000000000E+00 -0.45593999997E+02  0.45594000000E+02  0.51100000000E-03 0.  1.
    9900012    2    1    2    0    0  0.25978630674E+01 -0.35643216987E+01  0.31579520581E+02  0.59301962274E+02  0.50000033278E+02 0.  0.
        -12    1    1    2    0    0 -0.25978630674E+01  0.35643216987E+01 -0.31579520581E+02  0.31886037726E+02  0.00000000000E+00 0.  1.
         11    1    3    3    0    0 -0.56934884816E+01 -0.21294567777E+01 -0.53223736000E+01  0.80794837866E+01  0.51100000000E-03 0. -1.
        -11    1    3    3    0    0  0.86481642211E+00 -0.12119623359E+02  0.60409204692E-01  0.12150589589E+02  0.51100000000E-03 0.  1.
         12    1    3    3    0    0  0.74265351269E+01  0.10684758438E+02  0.36841484977E+02  0.39071888899E+02  0.00000000000E+00 0. -1.
</event>
<event>
 7    1  0.1221195E-011  0.5930194E+02  0.7816164E-02  0.1266605E+00
        -11   -1    0    0    0    0  0.00000000000E+00  0.00000000000E+00  0.45593999997E+02  0.45594000000E+02  0.51100000000E-03 0. -1.
         11   -1    0    0    0    0 -0.00000000000E+00 -0.00000000000E+00 -0.45593999997E+02  0.45594000000E+02  0.51100000000E-03 0.  1.
    9900012    2    1    2    0    0  0.40122303498E+01 -0.31380676848E+02 -0.39844434872E+01  0.59301942518E+02  0.49999997247E+02 0.  0.
        -12    1    1    2    0    0 -0.40122303498E+01  0.31380676848E+02  0.39844434872E+01  0.31886057482E+02  0.00000000000E+00 0.  1.
         11    1    3    3    0    0 -0.47575059500E+01 -0.63817276632E+01 -0.10069578474E+02  0.12835759492E+02  0.51100000000E-03 0. -1.
        -11    1    3    3    0    0  0.22064678508E+01  0.31445657228E+01  0.15580832462E+02  0.16047402731E+02  0.51100000000E-03 0.  1.
         12    1    3    3    0    0  0.65632684490E+01 -0.28143514908E+02 -0.94956974750E+01  0.30418780295E+02  0.00000000000E+00 0. -1.
</event>
<event>
 7    1  0.1221195E-011  0.5930191E+02  0.7816164E-02  0.1266605E+00
        -11   -1    0    0    0    0  0.00000000000E+00  0.00000000000E+00  0.45593999997E+02  0.45594000000E+02  0.51100000000E-03 0.  1.
         11   -1    0    0    0    0 -0.00000000000E+00 -0.00000000000E+00 -0.45593999997E+02  0.45594000000E+02  0.51100000000E-03 0. -1.
    9900012    2    1    2    0    0  0.44636895230E+01 -0.28725225030E+02 -0.13101887780E+02  0.59301913056E+02  0.49999943515E+02 0.  0.
        -12    1    1    2    0    0 -0.44636895230E+01  0.28725225030E+02  0.13101887780E+02  0.31886086944E+02  0.00000000000E+00 0.  1.
         11    1    3    3    0    0  0.17683127475E+02 -0.12778775969E+02  0.24206216573E+01  0.21951071091E+02  0.51100000000E-03 0. -1.
        -11    1    3    3    0    0  0.69951792876E+01 -0.86663793865E+01 -0.10455198390E+02  0.15275792568E+02  0.51100000000E-03 0.  1.
        -12    1    3    3    0    0 -0.20214617240E+02 -0.72800696749E+01 -0.50673110474E+01  0.22075049397E+02  0.00000000000E+00 0.  1.
</event>
<event>
 7    1  0.1221195E-011  0.5930194E+02  0.7816164E-02  0.1266605E+00
        -11   -1    0    0    0    0  0.00000000000E+00  0.00000000000E+00  0.45593999997E+02  0.45594000000E+02  0.51100000000E-03 0. -1.
         11   -1    0    0    0    0 -0.00000000000E+00 -0.00000000000E+00 -0.45593999997E+02  0.45594000000E+02  0.51100000000E-03 0.  1.
    9900012    2    1    2    0    0 -0.13326345273E+02 -0.31392900040E+01  0.28797116480E+02  0.59301944464E+02  0.50000000796E+02 0.  0.
        -12    1    1    2    0    0  0.13326345273E+02  0.31392900040E+01 -0.28797116480E+02  0.31886055536E+02  0.00000000000E+00 0.  1.
         11    1    3    3    0    0 -0.77360387679E+01 -0.10199298983E+02 -0.24952518261E+00  0.12803681449E+02  0.51100000000E-03 0. -1.
        -11    1    3    3    0    0 -0.20588885103E+02  0.38003022798E+01  0.17594216726E+02  0.27347777783E+02  0.51100000000E-03 0.  1.
         12    1    3    3    0    0  0.14998578597E+02  0.32597066996E+01  0.11452424936E+02  0.19150485232E+02  0.00000000000E+00 0. -1.
</event>
<event>
 7    1  0.1221195E-011  0.5930195E+02  0.7816164E-02  0.1266605E+00
        -11   -1    0    0    0    0  0.00000000000E+00  0.00000000000E+00  0.45593999997E+02  0.45594000000E+02  0.51100000000E-03 0.  1.
         11   -1    0    0    0    0 -0.00000000000E+00 -0.00000000000E+00 -0.45593999997E+02  0.45594000000E+02  0.51100000000E-03 0. -1.
    9900012    2    1    2    0    0 -0.10179776314E+02 -0.15563888030E+02 -0.25900916144E+02  0.59301954251E+02  0.50000018645E+02 0.  0.
        -12    1    1    2    0    0  0.10179776314E+02  0.15563888030E+02  0.25900916144E+02  0.31886045749E+02  0.00000000000E+00 0.  1.
         11    1    3    3    0    0  0.11170238137E+02 -0.10919787752E+02 -0.15493566751E+02  0.22001513483E+02  0.51100000000E-03 0. -1.
        -11    1    3    3    0    0  0.70789821678E+01 -0.12364016232E+01 -0.20107316599E+01  0.74621524760E+01  0.51100000000E-03 0.  1.
        -12    1    3    3    0    0 -0.28428996619E+02 -0.34076986547E+01 -0.83966177331E+01  0.29838288292E+02  0.00000000000E+00 0.  1.
</event>
<event>
 7    1  0.1221195E-011  0.5930191E+02  0.7816164E-02  0.1266605E+00
        -11   -1    0    0    0    0  0.00000000000E+00  0.00000000000E+00  0.45593999997E+02  0.45594000000E+02  0.51100000000E-03 0. -1.
         11   -1    0    0    0    0 -0.00000000000E+00 -0.00000000000E+00 -0.45593999997E+02  0.45594000000E+02  0.51100000000E-03 0.  1.
    9900012    2    1    2    0    0 -0.29320349550E+02 -0.74586811018E+01  0.10070135016E+02  0.59301914621E+02  0.49999946370E+02 0.  0.
        -12    1    1    2    0    0  0.29320349550E+02  0.74586811018E+01 -0.10070135016E+02  0.31886085379E+02  0.00000000000E+00 0.  1.
         11    1    3    3    0    0 -0.16519933173E+02  0.10140608518E+02 -0.15662834691E+00  0.19384650264E+02  0.51100000000E-03 0. -1.
        -11    1    3    3    0    0 -0.18774449519E+02 -0.22856272485E+01 -0.25684127354E+01  0.19086665264E+02  0.51100000000E-03 0.  1.
        -12    1    3    3    0    0  0.59740331419E+01 -0.15313662371E+02  0.12795176098E+02  0.20830599093E+02  0.00000000000E+00 0.  1.
</event>
<event>
 7    1  0.1221195E-011  0.5930192E+02  0.7816164E-02  0.1266605E+00
        -11   -1    0    0    0    0  0.00000000000E+00  0.00000000000E+00  0.45593999997E+02  0.45594000000E+02  0.51100000000E-03 0.  1.
         11   -1    0    0    0    0 -0.00000000000E+00 -0.00000000000E+00 -0.45593999997E+02  0.45594000000E+02  0.51100000000E-03 0. -1.
    9900012    2    1    2    0    0  0.31600037122E+02  0.40891680576E+01 -0.11992445479E+01  0.59301924215E+02  0.49999963866E+02 0.  0.
        -12    1    1    2    0    0 -0.31600037122E+02 -0.40891680576E+01  0.11992445479E+01  0.31886075785E+02  0.00000000000E+00 0.  1.
         11    1    3    3    0    0 -0.84963502145E+01 -0.32446075781E+01 -0.70108237657E+01  0.11483339908E+02  0.51100000000E-03 0. -1.
        -11    1    3    3    0    0  0.20305410829E+02 -0.82928187601E+01  0.54453918776E+01  0.22599399215E+02  0.51100000000E-03 0.  1.
         12    1    3    3    0    0  0.19790976508E+02  0.15626594396E+02  0.36618734022E+00  0.25219185092E+02  0.00000000000E+00 0. -1.
</event>
<event>
 7    1  0.1221195E-011  0.5930197E+02  0.7816164E-02  0.1266605E+00
        -11   -1    0    0    0    0  0.00000000000E+00  0.00000000000E+00  0.45593999997E+02  0.45594000000E+02  0.51100000000E-03 0.  1.
         11   -1    0    0    0    0 -0.00000000000E+00 -0.00000000000E+00 -0.45593999997E+02  0.45594000000E+02  0.51100000000E-03 0. -1.
    9900012    2    1    2    0    0 -0.20364174186E+02  0.14613141215E+02 -0.19709779429E+02  0.59301970276E+02  0.50000047870E+02 0.  0.
        -12    1    1    2    0    0  0.20364174186E+02 -0.14613141215E+02  0.19709779429E+02  0.31886029724E+02  0.00000000000E+00 0.  1.
         11    1    3    3    0    0 -0.23808476900E+01 -0.32139463306E+00 -0.93684461438E+01  0.96715827890E+01  0.51100000000E-03 0. -1.
        -11    1    3    3    0    0 -0.58955834069E+01 -0.14102590311E+02  0.28055720208E+01  0.15540662528E+02  0.51100000000E-03 0.  1.
        -12    1    3    3    0    0 -0.12087743089E+02  0.29037126160E+02 -0.13146905306E+02  0.34089724958E+02  0.00000000000E+00 0.  1.
</event>
<event>
 7    1  0.1221195E-011  0.5930209E+02  0.7816164E-02  0.1266604E+00
        -11   -1    0    0    0    0  0.00000000000E+00  0.00000000000E+00  0.45593999997E+02  0.45594000000E+02  0.51100000000E-03 0. -1.
         11   -1    0    0    0    0 -0.00000000000E+00 -0.00000000000E+00 -0.45593999997E+02  0.45594000000E+02  0.51100000000E-03 0.  1.
    9900012    2    1    2    0    0 -0.12768199371E+02  0.21572921936E+02  0.19705167301E+02  0.59302086270E+02  0.50000259415E+02 0.  0.
        -12    1    1    2    0    0  0.12768199371E+02 -0.21572921936E+02 -0.19705167301E+02  0.31885913730E+02  0.00000000000E+00 0.  1.
         11    1    3    3    0    0 -0.82144378680E+01  0.20588822180E+02  0.13622679971E+02  0.26018339649E+02  0.51100000000E-03 0. -1.
        -11    1    3    3    0    0  0.91829436300E+01  0.94864739094E+01  0.10115798736E+02  0.16632769621E+02  0.51100000000E-03 0.  1.
        -12    1    3    3    0    0 -0.13736705133E+02 -0.85023741530E+01 -0.40333114055E+01  0.16650977000E+02  0.00000000000E+00 0.  1.
</event>
<event>
 7    1  0.1221195E-011  0.5930194E+02  0.7816164E-02  0.1266605E+00
        -11   -1    0    0    0    0  0.00000000000E+00  0.00000000000E+00  0.45593999997E+02  0.45594000000E+02  0.51100000000E-03 0. -1.
         11   -1    0    0    0    0 -0.00000000000E+00 -0.00000000000E+00 -0.45593999997E+02  0.45594000000E+02  0.51100000000E-03 0.  1.
    9900012    2    1    2    0    0  0.29231767524E+02  0.12720007186E+02  0.65275293046E+00  0.59301938754E+02  0.49999990382E+02 0.  0.
        -12    1    1    2    0    0 -0.29231767524E+02 -0.12720007186E+02 -0.65275293046E+00  0.31886061246E+02  0.00000000000E+00 0.  1.
         11    1    3    3    0    0  0.11099446575E+02 -0.12468902052E+02 -0.67021858138E+01  0.17988622171E+02  0.51100000000E-03 0. -1.
        -11    1    3    3    0    0  0.23973179325E+02  0.13926987147E+02  0.71202370853E+01  0.28624675969E+02  0.51100000000E-03 0.  1.
        -12    1    3    3    0    0 -0.58408583758E+01  0.11261922091E+02  0.23470165895E+00  0.12688640614E+02  0.00000000000E+00 0.  1.
</event>
<event>
 7    1  0.1221195E-011  0.5930213E+02  0.7816164E-02  0.1266604E+00
        -11   -1    0    0    0    0  0.00000000000E+00  0.00000000000E+00  0.45593999997E+02  0.45594000000E+02  0.51100000000E-03 0.  1.
         11   -1    0    0    0    0 -0.00000000000E+00 -0.00000000000E+00 -0.45593999997E+02  0.45594000000E+02  0.51100000000E-03 0. -1.
    9900012    2    1    2    0    0  0.23866553733E+01  0.66960080321E+01 -0.31083377598E+02  0.59302125222E+02  0.50000330455E+02 0.  0.
        -12    1    1    2    0    0 -0.23866553733E+01 -0.66960080321E+01  0.31083377598E+02  0.31885874778E+02  0.00000000000E+00 0.  1.
         11    1    3    3    0    0  0.24972491951E+01 -0.29173692033E+01 -0.23027980681E+02  0.23345988759E+02  0.51100000000E-03 0. -1.
        -11    1    3    3    0    0 -0.63289481908E+01 -0.10242502573E+02  0.29807948993E+01  0.12403611677E+02  0.51100000000E-03 0.  1.
        -12    1    3    3    0    0  0.62183543690E+01  0.19855879808E+02 -0.11036191816E+02  0.23552524786E+02  0.00000000000E+00 0.  1.
</event>
<event>
 7    1  0.1221195E-011  0.5930197E+02  0.7816164E-02  0.1266605E+00
        -11   -1    0    0    0    0  0.00000000000E+00  0.00000000000E+00  0.45593999997E+02  0.45594000000E+02  0.51100000000E-03 0.  1.
         11   -1    0    0    0    0 -0.00000000000E+00 -0.00000000000E+00 -0.45593999997E+02  0.45594000000E+02  0.51100000000E-03 0. -1.
    9900012    2    1    2    0    0  0.24877548064E+02 -0.16354769209E+02 -0.11416998255E+02  0.59301972924E+02  0.50000052699E+02 0.  0.
        -12    1    1    2    0    0 -0.24877548064E+02  0.16354769209E+02  0.11416998255E+02  0.31886027076E+02  0.00000000000E+00 0.  1.
         11    1    3    3    0    0  0.13946765103E+02 -0.29931428694E+02 -0.74808342151E+01  0.33858020635E+02  0.51100000000E-03 0. -1.
        -11    1    3    3    0    0  0.40705602984E+01 -0.31395532334E+01 -0.52237583395E+01  0.73289772205E+01  0.51100000000E-03 0.  1.
        -12    1    3    3    0    0  0.68602226627E+01  0.16716212718E+02  0.12875942995E+01  0.18114975068E+02  0.00000000000E+00 0.  1.
</event>
<event>
 7    1  0.1221195E-011  0.5930195E+02  0.7816164E-02  0.1266605E+00
        -11   -1    0    0    0    0  0.00000000000E+00  0.00000000000E+00  0.45593999997E+02  0.45594000000E+02  0.51100000000E-03 0.  1.
         11   -1    0    0    0    0 -0.00000000000E+00 -0.00000000000E+00 -0.45593999997E+02  0.45594000000E+02  0.51100000000E-03 0. -1.
    9900012    2    1    2    0    0  0.22933958689E+01 -0.23031977624E+02 -0.21931448316E+02  0.59301951592E+02  0.50000013795E+02 0.  0.
        -12    1    1    2    0    0 -0.22933958689E+01  0.23031977624E+02  0.21931448316E+02  0.31886048408E+02  0.00000000000E+00 0.  1.
         11    1    3    3    0    0  0.12602477911E+02  0.32674499578E+01 -0.16602014158E+02  0.21097998794E+02  0.51100000000E-03 0. -1.
        -11    1    3    3    0    0 -0.20183912132E+01 -0.31405263536E+00  0.77067676278E+01  0.79728790081E+01  0.51100000000E-03 0.  1.
        -12    1    3    3    0    0 -0.82906908287E+01 -0.25985374946E+02 -0.13036201785E+02  0.30231073790E+02  0.00000000000E+00 0.  1.
</event>
<event>
 7    1  0.1221195E-011  0.5930196E+02  0.7816164E-02  0.1266605E+00
        -11   -1    0    0    0    0  0.00000000000E+00  0.00000000000E+00  0.45593999997E+02  0.45594000000E+02  0.51100000000E-03 0.  1.
         11   -1    0    0    0    0 -0.00000000000E+00 -0.00000000000E+00 -0.45593999997E+02  0.45594000000E+02  0.51100000000E-03 0. -1.
    9900012    2    1    2    0    0 -0.14338336751E+02 -0.23313733391E+02 -0.16358536716E+02  0.59301956205E+02  0.50000022209E+02 0.  0.
        -12    1    1    2    0    0  0.14338336751E+02  0.23313733391E+02  0.16358536716E+02  0.31886043795E+02  0.00000000000E+00 0.  1.
         11    1    3    3    0    0 -0.65189645595E+01 -0.93512251854E+00 -0.16437407485E+02  0.17707617517E+02  0.51100000000E-03 0. -1.
        -11    1    3    3    0    0  0.53239319701E+01 -0.24717478397E+02 -0.73313831222E+01  0.26325789042E+02  0.51100000000E-03 0.  1.
         12    1    3    3    0    0 -0.13143304162E+02  0.23388675248E+01  0.74102538909E+01  0.15268549647E+02  0.00000000000E+00 0. -1.
</event>
<event>
 7    1  0.1221195E-011  0.5930194E+02  0.7816164E-02  0.1266605E+00
        -11   -1    0    0    0    0  0.00000000000E+00  0.00000000000E+00  0.45593999997E+02  0.45594000000E+02  0.51100000000E-03 0.  1.
         11   -1    0    0    0    0 -0.00000000000E+00 -0.00000000000E+00 -0.45593999997E+02  0.45594000000E+02  0.51100000000E-03 0. -1.
    9900012    2    1    2    0    0 -0.13040253221E+02  0.51309602180E+01 -0.28641681128E+02  0.59301939493E+02  0.49999991729E+02 0.  0.
        -12    1    1    2    0    0  0.13040253221E+02 -0.51309602180E+01  0.28641681128E+02  0.31886060507E+02  0.00000000000E+00 0.  1.
         11    1    3    3    0    0 -0.21070896255E+02  0.11609280970E+02 -0.11772131214E+02  0.26783225109E+02  0.51100000000E-03 0.  1.
        -11    1    3    3    0    0 -0.86838677843E+01 -0.55973719663E+01 -0.10148060858E+02  0.14481825577E+02  0.51100000000E-03 0. -1.
        -12    1    3    3    0    0  0.16714510819E+02 -0.88094878611E+00 -0.67214890563E+01  0.18036888806E+02  0.00000000000E+00 0.  1.
</event>
<event>
 7    1  0.1221195E-011  0.5930193E+02  0.7816164E-02  0.1266605E+00
        -11   -1    0    0    0    0  0.00000000000E+00  0.00000000000E+00  0.45593999997E+02  0.45594000000E+02  0.51100000000E-03 0. -1.
         11   -1    0    0    0    0 -0.00000000000E+00 -0.00000000000E+00 -0.45593999997E+02  0.45594000000E+02  0.51100000000E-03 0.  1.
    9900012    2    1    2    0    0 -0.24198833790E+02  0.16509010457E+02 -0.12593260422E+02  0.59301934217E+02  0.49999982108E+02 0.  0.
        -12    1    1    2    0    0  0.24198833790E+02 -0.16509010457E+02  0.12593260422E+02  0.31886065783E+02  0.00000000000E+00 0.  1.
         11    1    3    3    0    0 -0.62634802506E+01  0.86980027452E+01  0.24869278680E+01  0.11003238027E+02  0.51100000000E-03 0. -1.
        -11    1    3    3    0    0 -0.56535922419E+01  0.59704474308E+01 -0.28707252198E+02  0.29861608744E+02  0.51100000000E-03 0.  1.
         12    1    3    3    0    0 -0.12281761297E+02  0.18405602813E+01  0.13627063909E+02  0.18437087446E+02  0.00000000000E+00 0. -1.
</event>
<event>
 7    1  0.1221195E-011  0.5930193E+02  0.7816164E-02  0.1266605E+00
        -11   -1    0    0    0    0  0.00000000000E+00  0.00000000000E+00  0.45593999997E+02  0.45594000000E+02  0.51100000000E-03 0. -1.
         11   -1    0    0    0    0 -0.00000000000E+00 -0.00000000000E+00 -0.45593999997E+02  0.45594000000E+02  0.51100000000E-03 0.  1.
    9900012    2    1    2    0    0 -0.21815520159E+02 -0.23226254272E+02  0.11600582851E+01  0.59301928707E+02  0.49999972058E+02 0.  0.
        -12    1    1    2    0    0  0.21815520159E+02  0.23226254272E+02 -0.11600582851E+01  0.31886071293E+02  0.00000000000E+00 0.  1.
         11    1    3    3    0    0 -0.53945171016E+01 -0.11481279044E+01  0.38727636674E+01  0.67392366874E+01  0.51100000000E-03 0. -1.
        -11    1    3    3    0    0 -0.16575617040E+02  0.49559060824E+01  0.12683152562E+02  0.21451676963E+02  0.51100000000E-03 0.  1.
         12    1    3    3    0    0  0.15461398261E+00 -0.27034032450E+02 -0.15395857945E+02  0.31111015056E+02  0.00000000000E+00 0. -1.
</event>
<event>
 7    1  0.1221195E-011  0.5930168E+02  0.7816164E-02  0.1266606E+00
        -11   -1    0    0    0    0  0.00000000000E+00  0.00000000000E+00  0.45593999997E+02  0.45594000000E+02  0.51100000000E-03 0.  1.
         11   -1    0    0    0    0 -0.00000000000E+00 -0.00000000000E+00 -0.45593999997E+02  0.45594000000E+02  0.51100000000E-03 0. -1.
    9900012    2    1    2    0    0  0.11317352459E+02 -0.23836573385E+02 -0.17901749548E+02  0.59301681080E+02  0.49999520443E+02 0.  0.
        -12    1    1    2    0    0 -0.11317352459E+02  0.23836573385E+02  0.17901749548E+02  0.31886318920E+02  0.00000000000E+00 0.  1.
         11    1    3    3    0    0 -0.70487079958E+00 -0.11866209394E+02  0.77820487026E+01  0.14207886911E+02  0.51100000000E-03 0. -1.
        -11    1    3    3    0    0  0.93595451337E+01  0.10672271535E+02 -0.11223842674E+02  0.18096218098E+02  0.51100000000E-03 0.  1.
        -12    1    3    3    0    0  0.26626781253E+01 -0.22642635526E+02 -0.14459955576E+02  0.26997576070E+02  0.00000000000E+00 0.  1.
</event>
<event>
 7    1  0.1221195E-011  0.5930175E+02  0.7816164E-02  0.1266605E+00
        -11   -1    0    0    0    0  0.00000000000E+00  0.00000000000E+00  0.45593999997E+02  0.45594000000E+02  0.51100000000E-03 0.  1.
         11   -1    0    0    0    0 -0.00000000000E+00 -0.00000000000E+00 -0.45593999997E+02  0.45594000000E+02  0.51100000000E-03 0. -1.
    9900012    2    1    2    0    0 -0.15066608787E+02  0.25083414819E+02 -0.12670927646E+02  0.59301752075E+02  0.49999649923E+02 0.  0.
        -12    1    1    2    0    0  0.15066608787E+02 -0.25083414819E+02  0.12670927646E+02  0.31886247925E+02  0.00000000000E+00 0.  1.
         11    1    3    3    0    0  0.45398389039E+01  0.22232385399E+02 -0.16335919624E+02  0.27959817024E+02  0.51100000000E-03 0. -1.
        -11    1    3    3    0    0 -0.78348799576E+01  0.12720041833E+02 -0.17782133026E+01  0.15044828048E+02  0.51100000000E-03 0.  1.
        -12    1    3    3    0    0 -0.11771567734E+02 -0.98690124135E+01  0.54432052803E+01  0.16297107002E+02  0.00000000000E+00 0.  1.
</event>
<event>
 7    1  0.1221195E-011  0.5930195E+02  0.7816164E-02  0.1266605E+00
        -11   -1    0    0    0    0  0.00000000000E+00  0.00000000000E+00  0.45593999997E+02  0.45594000000E+02  0.51100000000E-03 0.  1.
         11   -1    0    0    0    0 -0.00000000000E+00 -0.00000000000E+00 -0.45593999997E+02  0.45594000000E+02  0.51100000000E-03 0. -1.
    9900012    2    1    2    0    0 -0.59626520877E+01 -0.29846287400E+02  0.95060936272E+01  0.59301954345E+02  0.50000018816E+02 0.  0.
        -12    1    1    2    0    0  0.59626520877E+01  0.29846287400E+02 -0.95060936272E+01  0.31886045655E+02  0.00000000000E+00 0.  1.
         11    1    3    3    0    0 -0.20076682775E+02 -0.16494525125E+02  0.18754674458E+02  0.32044974093E+02  0.51100000000E-03 0. -1.
        -11    1    3    3    0    0 -0.12175386205E+01  0.18507468664E+01  0.19350221092E+01  0.29414239885E+01  0.51100000000E-03 0.  1.
         12    1    3    3    0    0  0.15331569308E+02 -0.15202509142E+02 -0.11183602940E+02  0.24315556263E+02  0.00000000000E+00 0. -1.
</event>
<event>
 7    1  0.1221195E-011  0.5930193E+02  0.7816164E-02  0.1266605E+00
        -11   -1    0    0    0    0  0.00000000000E+00  0.00000000000E+00  0.45593999997E+02  0.45594000000E+02  0.51100000000E-03 0.  1.
         11   -1    0    0    0    0 -0.00000000000E+00 -0.00000000000E+00 -0.45593999997E+02  0.45594000000E+02  0.51100000000E-03 0. -1.
    9900012    2    1    2    0    0 -0.18603729628E+02 -0.44999324442E+01 -0.25502415048E+02  0.59301932175E+02  0.49999978384E+02 0.  0.
        -12    1    1    2    0    0  0.18603729628E+02  0.44999324442E+01  0.25502415048E+02  0.31886067825E+02  0.00000000000E+00 0.  1.
         11    1    3    3    0    0  0.91821448659E+01  0.18901095543E+00 -0.36002446470E+00  0.91911439634E+01  0.51100000000E-03 0. -1.
        -11    1    3    3    0    0  0.65767717940E+01  0.41832246326E+01 -0.35129106006E+01  0.85494933596E+01  0.51100000000E-03 0.  1.
        -12    1    3    3    0    0 -0.34362646288E+02 -0.88721680322E+01 -0.21629479982E+02  0.41561294852E+02  0.00000000000E+00 0.  1.
</event>
<event>
 7    1  0.1221195E-011  0.5930195E+02  0.7816164E-02  0.1266605E+00
        -11   -1    0    0    0    0  0.00000000000E+00  0.00000000000E+00  0.45593999997E+02  0.45594000000E+02  0.51100000000E-03 0.  1.
         11   -1    0    0    0    0 -0.00000000000E+00 -0.00000000000E+00 -0.45593999997E+02  0.45594000000E+02  0.51100000000E-03 0. -1.
    9900012    2    1    2    0    0 -0.30848829748E+02 -0.40908597481E+01 -0.69523287131E+01  0.59301948115E+02  0.50000007454E+02 0.  0.
        -12    1    1    2    0    0  0.30848829748E+02  0.40908597481E+01  0.69523287131E+01  0.31886051885E+02  0.00000000000E+00 0.  1.
         11    1    3    3    0    0 -0.13177929373E+02 -0.15498637803E+02  0.12527835997E+02  0.23891677867E+02  0.51100000000E-03 0. -1.
        -11    1    3    3    0    0  0.15613843316E+00 -0.50991170124E+01 -0.19991251532E+01  0.54792221305E+01  0.51100000000E-03 0.  1.
        -12    1    3    3    0    0 -0.17827038808E+02  0.16506895067E+02 -0.17481039557E+02  0.29931048117E+02  0.00000000000E+00 0.  1.
</event>
<event>
 7    1  0.1221195E-011  0.5930193E+02  0.7816164E-02  0.1266605E+00
        -11   -1    0    0    0    0  0.00000000000E+00  0.00000000000E+00  0.45593999997E+02  0.45594000000E+02  0.51100000000E-03 0. -1.
         11   -1    0    0    0    0 -0.00000000000E+00 -0.00000000000E+00 -0.45593999997E+02  0.45594000000E+02  0.51100000000E-03 0.  1.
    9900012    2    1    2    0    0  0.66649125097E+01  0.30237262392E+02  0.76163275715E+01  0.59301928724E+02  0.49999972089E+02 0.  0.
        -12    1    1    2    0    0 -0.66649125097E+01 -0.30237262392E+02 -0.76163275715E+01  0.31886071276E+02  0.00000000000E+00 0.  1.
         11    1    3    3    0    0  0.11572127244E+01  0.15166094986E+02  0.16602549593E+02  0.22516532407E+02  0.51100000000E-03 0. -1.
        -11    1    3    3    0    0  0.57573392900E+01 -0.94844633905E+01 -0.33522716558E+01  0.11590501586E+02  0.51100000000E-03 0.  1.
         12    1    3    3    0    0 -0.24963950477E+00  0.24555630797E+02 -0.56339503659E+01  0.25194894730E+02  0.00000000000E+00 0. -1.
</event>
<event>
 7    1  0.1221195E-011  0.5930196E+02  0.7816164E-02  0.1266605E+00
        -11   -1    0    0    0    0  0.00000000000E+00  0.00000000000E+00  0.45593999997E+02  0.45594000000E+02  0.51100000000E-03 0.  1.
         11   -1    0    0    0    0 -0.00000000000E+00 -0.00000000000E+00 -0.45593999997E+02  0.45594000000E+02  0.51100000000E-03 0. -1.
    9900012    2    1    2    0    0 -0.50470657143E+01  0.15524102895E+02 -0.27390676942E+02  0.59301955617E+02  0.50000021137E+02 0.  0.
        -12    1    1    2    0    0  0.50470657143E+01 -0.15524102895E+02  0.27390676942E+02  0.31886044383E+02  0.00000000000E+00 0.  1.
         11    1    3    3    0    0  0.10719014982E+02  0.12514117248E+02 -0.44210423876E+01  0.17060071182E+02  0.51100000000E-03 0. -1.
        -11    1    3    3    0    0 -0.19590104441E+00 -0.11835873407E+02 -0.15425300874E+02  0.19443924085E+02  0.51100000000E-03 0.  1.
        -12    1    3    3    0    0 -0.15570179652E+02  0.14845859054E+02 -0.75443336803E+01  0.22797960350E+02  0.00000000000E+00 0.  1.
</event>
<event>
 7    1  0.1221195E-011  0.5930195E+02  0.7816164E-02  0.1266605E+00
        -11   -1    0    0    0    0  0.00000000000E+00  0.00000000000E+00  0.45593999997E+02  0.45594000000E+02  0.51100000000E-03 0. -1.
         11   -1    0    0    0    0 -0.00000000000E+00 -0.00000000000E+00 -0.45593999997E+02  0.45594000000E+02  0.51100000000E-03 0.  1.
    9900012    2    1    2    0    0  0.28846763006E+02 -0.12574808233E+02  0.51437844436E+01  0.59301952010E+02  0.50000014558E+02 0.  0.
        -12    1    1    2    0    0 -0.28846763006E+02  0.12574808233E+02 -0.51437844436E+01  0.31886047990E+02  0.00000000000E+00 0.  1.
         11    1    3    3    0    0  0.21712309987E+02  0.28186692591E+01  0.11279960487E+02  0.24629389156E+02  0.51100000000E-03 0. -1.
        -11    1    3    3    0    0 -0.19747495799E+00 -0.69649327664E+01  0.11705348979E+02  0.13622205394E+02  0.51100000000E-03 0.  1.
         12    1    3    3    0    0  0.73319279770E+01 -0.84285447259E+01 -0.17841525023E+02  0.21050357460E+02  0.00000000000E+00 0. -1.
</event>
<event>
 7    1  0.1221195E-011  0.5930195E+02  0.7816164E-02  0.1266605E+00
        -11   -1    0    0    0    0  0.00000000000E+00  0.00000000000E+00  0.45593999997E+02  0.45594000000E+02  0.51100000000E-03 0. -1.
         11   -1    0    0    0    0 -0.00000000000E+00 -0.00000000000E+00 -0.45593999997E+02  0.45594000000E+02  0.51100000000E-03 0.  1.
    9900012    2    1    2    0    0 -0.62138258743E+01 -0.22159088589E+02  0.22069960724E+02  0.59301952809E+02  0.50000016015E+02 0.  0.
        -12    1    1    2    0    0  0.62138258743E+01  0.22159088589E+02 -0.22069960724E+02  0.31886047191E+02  0.00000000000E+00 0.  1.
         11    1    3    3    0    0 -0.16025568888E+02 -0.13998339254E+02  0.15134840439E+02  0.26111984900E+02  0.51100000000E-03 0. -1.
        -11    1    3    3    0    0 -0.77991730176E+00  0.39122157503E+01  0.14784999619E+02  0.15313716631E+02  0.51100000000E-03 0.  1.
        -12    1    3    3    0    0  0.10591660315E+02 -0.12072965086E+02 -0.78498793336E+01  0.17876251278E+02  0.00000000000E+00 0.  1.
</event>
<event>
 7    1  0.1221195E-011  0.5930196E+02  0.7816164E-02  0.1266605E+00
        -11   -1    0    0    0    0  0.00000000000E+00  0.00000000000E+00  0.45593999997E+02  0.45594000000E+02  0.51100000000E-03 0. -1.
         11   -1    0    0    0    0 -0.00000000000E+00 -0.00000000000E+00 -0.45593999997E+02  0.45594000000E+02  0.51100000000E-03 0.  1.
    9900012    2    1    2    0    0 -0.20332934981E+01 -0.21501904001E+02  0.23457481528E+02  0.59301959202E+02  0.50000027675E+02 0.  0.
        -12    1    1    2    0    0  0.20332934981E+01  0.21501904001E+02 -0.23457481528E+02  0.31886040798E+02  0.00000000000E+00 0.  1.
         11    1    3    3    0    0 -0.27962068529E+01  0.43402971099E+01 -0.95146639672E+01  0.10825238216E+02  0.51100000000E-03 0. -1.
        -11    1    3    3    0    0 -0.90208079010E+01 -0.76667950177E+01  0.32259844125E+01  0.12270358459E+02  0.51100000000E-03 0.  1.
         12    1    3    3    0    0  0.97837212557E+01 -0.18175406093E+02  0.29746161083E+02  0.36206362527E+02  0.00000000000E+00 0. -1.
</event>
<event>
 7    1  0.1221195E-011  0.5930194E+02  0.7816164E-02  0.1266605E+00
        -11   -1    0    0    0    0  0.00000000000E+00  0.00000000000E+00  0.45593999997E+02  0.45594000000E+02  0.51100000000E-03 0. -1.
         11   -1    0    0    0    0 -0.00000000000E+00 -0.00000000000E+00 -0.45593999997E+02  0.45594000000E+02  0.51100000000E-03 0.  1.
    9900012    2    1    2    0    0  0.29195214995E+02  0.12174046876E+01  0.12762378452E+02  0.59301937896E+02  0.49999988816E+02 0.  0.
        -12    1    1    2    0    0 -0.29195214995E+02 -0.12174046876E+01 -0.12762378452E+02  0.31886062104E+02  0.00000000000E+00 0.  1.
         11    1    3    3    0    0  0.20168225999E+01  0.19043665938E+01 -0.74603084729E+01  0.79592957160E+01  0.51100000000E-03 0. -1.
        -11    1    3    3    0    0  0.11422462815E+02  0.27442455831E+00 -0.11311725611E+02  0.16078031663E+02  0.51100000000E-03 0.  1.
         12    1    3    3    0    0  0.15755929580E+02 -0.96138646450E+00  0.31534412536E+02  0.35264610516E+02  0.00000000000E+00 0. -1.
</event>
<event>
 7    1  0.1221195E-011  0.5930195E+02  0.7816164E-02  0.1266605E+00
        -11   -1    0    0    0    0  0.00000000000E+00  0.00000000000E+00  0.45593999997E+02  0.45594000000E+02  0.51100000000E-03 0. -1.
         11   -1    0    0    0    0 -0.00000000000E+00 -0.00000000000E+00 -0.45593999997E+02  0.45594000000E+02  0.51100000000E-03 0.  1.
    9900012    2    1    2    0    0  0.21303527712E+02  0.17571999804E+02  0.15940671919E+02  0.59301945190E+02  0.50000002120E+02 0.  0.
        -12    1    1    2    0    0 -0.21303527712E+02 -0.17571999804E+02 -0.15940671919E+02  0.31886054810E+02  0.00000000000E+00 0.  1.
         11    1    3    3    0    0 -0.86043453928E+00  0.67186017363E+01  0.24214641762E+02  0.25144161009E+02  0.51100000000E-03 0. -1.
        -11    1    3    3    0    0  0.24573583764E+01  0.12656792739E+02 -0.51905983420E+00  0.12903582294E+02  0.51100000000E-03 0.  1.
        -12    1    3    3    0    0  0.19706603875E+02 -0.18033946714E+01 -0.77549100090E+01  0.21254201888E+02  0.00000000000E+00 0.  1.
</event>
<event>
 7    1  0.1221195E-011  0.5930196E+02  0.7816164E-02  0.1266605E+00
        -11   -1    0    0    0    0  0.00000000000E+00  0.00000000000E+00  0.45593999997E+02  0.45594000000E+02  0.51100000000E-03 0.  1.
         11   -1    0    0    0    0 -0.00000000000E+00 -0.00000000000E+00 -0.45593999997E+02  0.45594000000E+02  0.51100000000E-03 0. -1.
    9900012    2    1    2    0    0  0.30878352775E+02 -0.34547832991E+01 -0.71631936702E+01  0.59301960087E+02  0.50000029289E+02 0.  0.
        -12    1    1    2    0    0 -0.30878352775E+02  0.34547832991E+01  0.71631936702E+01  0.31886039913E+02  0.00000000000E+00 0.  1.
         11    1    3    3    0    0  0.53057453395E+01  0.10929922699E+02  0.62715080459E+01  0.13672818190E+02  0.51100000000E-03 0. -1.
        -11    1    3    3    0    0  0.17432079333E+02 -0.73767507435E+01  0.88465210747E+01  0.20893893290E+02  0.51100000000E-03 0.  1.
         12    1    3    3    0    0  0.81405281022E+01 -0.70079552550E+01 -0.22281222791E+02  0.24735248608E+02  0.00000000000E+00 0. -1.
</event>
<event>
 7    1  0.1221195E-011  0.5930194E+02  0.7816164E-02  0.1266605E+00
        -11   -1    0    0    0    0  0.00000000000E+00  0.00000000000E+00  0.45593999997E+02  0.45594000000E+02  0.51100000000E-03 0.  1.
         11   -1    0    0    0    0 -0.00000000000E+00 -0.00000000000E+00 -0.45593999997E+02  0.45594000000E+02  0.51100000000E-03 0. -1.
    9900012    2    1    2    0    0  0.31728975459E+02  0.27862949583E+01 -0.14931660673E+01  0.59301939281E+02  0.49999991342E+02 0.  0.
        -12    1    1    2    0    0 -0.31728975459E+02 -0.27862949583E+01  0.14931660673E+01  0.31886060719E+02  0.00000000000E+00 0.  1.
         11    1    3    3    0    0  0.77421564972E+00  0.12128798009E+01 -0.98982671412E+01  0.10002308731E+02  0.51100000000E-03 0. -1.
        -11    1    3    3    0    0 -0.55654862474E+01 -0.62112396426E+01 -0.48839026250E+01  0.96647110758E+01  0.51100000000E-03 0.  1.
         12    1    3    3    0    0  0.36520246057E+02  0.77846547999E+01  0.13289003699E+02  0.39634919474E+02  0.00000000000E+00 0. -1.
</event>
<event>
 7    1  0.1221195E-011  0.5930195E+02  0.7816164E-02  0.1266605E+00
        -11   -1    0    0    0    0  0.00000000000E+00  0.00000000000E+00  0.45593999997E+02  0.45594000000E+02  0.51100000000E-03 0. -1.
         11   -1    0    0    0    0 -0.00000000000E+00 -0.00000000000E+00 -0.45593999997E+02  0.45594000000E+02  0.51100000000E-03 0.  1.
    9900012    2    1    2    0    0  0.24250616361E+02 -0.97248267936E+01  0.18277194315E+02  0.59301945336E+02  0.50000002385E+02 0.  0.
        -12    1    1    2    0    0 -0.24250616361E+02  0.97248267936E+01 -0.18277194315E+02  0.31886054664E+02  0.00000000000E+00 0.  1.
         11    1    3    3    0    0  0.16642570171E+02  0.12750179607E+01  0.51382856378E+01  0.17464329138E+02  0.51100000000E-03 0. -1.
        -11    1    3    3    0    0  0.19913062805E+01 -0.20210646145E+02  0.20437881247E+02  0.28812193746E+02  0.51100000000E-03 0.  1.
        -12    1    3    3    0    0  0.56167399094E+01  0.92108013907E+01 -0.72989725699E+01  0.13025422452E+02  0.00000000000E+00 0.  1.
</event>
<event>
 7    1  0.1221195E-011  0.5930185E+02  0.7816164E-02  0.1266605E+00
        -11   -1    0    0    0    0  0.00000000000E+00  0.00000000000E+00  0.45593999997E+02  0.45594000000E+02  0.51100000000E-03 0.  1.
         11   -1    0    0    0    0 -0.00000000000E+00 -0.00000000000E+00 -0.45593999997E+02  0.45594000000E+02  0.51100000000E-03 0. -1.
    9900012    2    1    2    0    0  0.31660456225E+02  0.32386273927E+01 -0.19629214369E+01  0.59301854790E+02  0.49999837252E+02 0.  0.
        -12    1    1    2    0    0 -0.31660456225E+02 -0.32386273927E+01  0.19629214369E+01  0.31886145210E+02  0.00000000000E+00 0.  1.
         11    1    3    3    0    0  0.52567962941E+01  0.17684139376E+02  0.24433147756E+01  0.18610010212E+02  0.51100000000E-03 0. -1.
        -11    1    3    3    0    0  0.90249375112E+01 -0.33187057489E+01  0.11242484714E+02  0.14793808426E+02  0.51100000000E-03 0.  1.
        -12    1    3    3    0    0  0.17378722420E+02 -0.11126806234E+02 -0.15648720927E+02  0.25898036152E+02  0.00000000000E+00 0.  1.
</event>
<event>
 7    1  0.1221195E-011  0.5930197E+02  0.7816164E-02  0.1266605E+00
        -11   -1    0    0    0    0  0.00000000000E+00  0.00000000000E+00  0.45593999997E+02  0.45594000000E+02  0.51100000000E-03 0.  1.
         11   -1    0    0    0    0 -0.00000000000E+00 -0.00000000000E+00 -0.45593999997E+02  0.45594000000E+02  0.51100000000E-03 0. -1.
    9900012    2    1    2    0    0  0.63291673932E+01 -0.98061983712E+01 -0.29673207151E+02  0.59301966866E+02  0.50000041652E+02 0.  0.
        -12    1    1    2    0    0 -0.63291673932E+01  0.98061983712E+01  0.29673207151E+02  0.31886033134E+02  0.00000000000E+00 0.  1.
         11    1    3    3    0    0  0.18172565974E+02 -0.17935655932E+02 -0.97977873244E+01  0.27348245730E+02  0.51100000000E-03 0. -1.
        -11    1    3    3    0    0 -0.10451763262E+02 -0.23766738955E+01 -0.16133717065E+01  0.10839322055E+02  0.51100000000E-03 0.  1.
         12    1    3    3    0    0 -0.13916353186E+01  0.10506131456E+02 -0.18262048120E+02  0.21114399081E+02  0.00000000000E+00 0. -1.
</event>
<event>
 7    1  0.1221195E-011  0.5930199E+02  0.7816164E-02  0.1266605E+00
        -11   -1    0    0    0    0  0.00000000000E+00  0.00000000000E+00  0.45593999997E+02  0.45594000000E+02  0.51100000000E-03 0.  1.
         11   -1    0    0    0    0 -0.00000000000E+00 -0.00000000000E+00 -0.45593999997E+02  0.45594000000E+02  0.51100000000E-03 0. -1.
    9900012    2    1    2    0    0 -0.26586338939E+02 -0.12813874666E+02 -0.12070151802E+02  0.59301994188E+02  0.50000091480E+02 0.  0.
        -12    1    1    2    0    0  0.26586338939E+02  0.12813874666E+02  0.12070151802E+02  0.31886005812E+02  0.00000000000E+00 0.  1.
         11    1    3    3    0    0 -0.87447737077E+01  0.61464612301E+01 -0.13444635925E+02  0.17175805316E+02  0.51100000000E-03 0. -1.
        -11    1    3    3    0    0  0.40085449498E+01 -0.52061492075E+00 -0.10436210319E+02  0.11191691498E+02  0.51100000000E-03 0.  1.
         12    1    3    3    0    0 -0.21850110181E+02 -0.18439720976E+02  0.11810694441E+02  0.30934497373E+02  0.00000000000E+00 0. -1.
</event>
<event>
 7    1  0.1221195E-011  0.5930194E+02  0.7816164E-02  0.1266605E+00
        -11   -1    0    0    0    0  0.00000000000E+00  0.00000000000E+00  0.45593999997E+02  0.45594000000E+02  0.51100000000E-03 0.  1.
         11   -1    0    0    0    0 -0.00000000000E+00 -0.00000000000E+00 -0.45593999997E+02  0.45594000000E+02  0.51100000000E-03 0. -1.
    9900012    2    1    2    0    0 -0.18268729871E+02  0.19507116426E+02 -0.17391004786E+02  0.59301935178E+02  0.49999983861E+02 0.  0.
        -12    1    1    2    0    0  0.18268729871E+02 -0.19507116426E+02  0.17391004786E+02  0.31886064822E+02  0.00000000000E+00 0.  1.
         11    1    3    3    0    0 -0.50810349186E+01  0.83181183777E+01 -0.50844051941E+01  0.10993597483E+02  0.51100000000E-03 0. -1.
        -11    1    3    3    0    0 -0.89288814216E+01  0.19794737256E+02  0.10086427732E+02  0.23943528795E+02  0.51100000000E-03 0.  1.
        -12    1    3    3    0    0 -0.42588135307E+01 -0.86057392082E+01 -0.22393027324E+02  0.24364808900E+02  0.00000000000E+00 0.  1.
</event>
<event>
 7    1  0.1221195E-011  0.5930192E+02  0.7816164E-02  0.1266605E+00
        -11   -1    0    0    0    0  0.00000000000E+00  0.00000000000E+00  0.45593999997E+02  0.45594000000E+02  0.51100000000E-03 0.  1.
         11   -1    0    0    0    0 -0.00000000000E+00 -0.00000000000E+00 -0.45593999997E+02  0.45594000000E+02  0.51100000000E-03 0. -1.
    9900012    2    1    2    0    0 -0.86133668472E+01  0.30590433778E+02  0.25994921690E+01  0.59301920174E+02  0.49999956496E+02 0.  0.
        -12    1    1    2    0    0  0.86133668472E+01 -0.30590433778E+02 -0.25994921690E+01  0.31886079826E+02  0.00000000000E+00 0.  1.
         11    1    3    3    0    0 -0.48432855864E+01  0.30265595400E+02  0.19214352795E+01  0.30710838380E+02  0.51100000000E-03 0.  1.
        -11    1    3    3    0    0  0.87223888134E+01  0.59489042438E+01  0.78224770122E+01  0.13140040912E+02  0.51100000000E-03 0. -1.
        -12    1    3    3    0    0 -0.12492470074E+02 -0.56240658664E+01 -0.71444201227E+01  0.15451040881E+02  0.00000000000E+00 0.  1.
</event>
<event>
 7    1  0.1221195E-011  0.5930195E+02  0.7816164E-02  0.1266605E+00
        -11   -1    0    0    0    0  0.00000000000E+00  0.00000000000E+00  0.45593999997E+02  0.45594000000E+02  0.51100000000E-03 0.  1.
         11   -1    0    0    0    0 -0.00000000000E+00 -0.00000000000E+00 -0.45593999997E+02  0.45594000000E+02  0.51100000000E-03 0. -1.
    9900012    2    1    2    0    0 -0.37232953078E+01 -0.26469303484E+02 -0.17384859586E+02  0.59301948227E+02  0.50000007658E+02 0.  0.
        -12    1    1    2    0    0  0.37232953078E+01  0.26469303484E+02  0.17384859586E+02  0.31886051773E+02  0.00000000000E+00 0.  1.
         11    1    3    3    0    0 -0.21247048103E+02 -0.42523411913E+01 -0.50378734352E+01  0.22246339648E+02  0.51100000000E-03 0. -1.
        -11    1    3    3    0    0  0.16224587883E+01 -0.17726883402E+02 -0.29392779539E+01  0.18042009944E+02  0.51100000000E-03 0.  1.
        -12    1    3    3    0    0  0.15901294007E+02 -0.44900788905E+01 -0.94077081964E+01  0.19013598635E+02  0.00000000000E+00 0.  1.
</event>
<event>
 7    1  0.1221195E-011  0.5930196E+02  0.7816164E-02  0.1266605E+00
        -11   -1    0    0    0    0  0.00000000000E+00  0.00000000000E+00  0.45593999997E+02  0.45594000000E+02  0.51100000000E-03 0. -1.
         11   -1    0    0    0    0 -0.00000000000E+00 -0.00000000000E+00 -0.45593999997E+02  0.45594000000E+02  0.51100000000E-03 0.  1.
    9900012    2    1    2    0    0  0.74769221089E+01  0.61484835661E+01  0.30381102237E+02  0.59301959363E+02  0.50000027968E+02 0.  0.
        -12    1    1    2    0    0 -0.74769221089E+01 -0.61484835661E+01 -0.30381102237E+02  0.31886040637E+02  0.00000000000E+00 0.  1.
         11    1    3    3    0    0  0.22537232161E+01 -0.37311443955E+01 -0.38630544475E+00  0.43760643268E+01  0.51100000000E-03 0. -1.
        -11    1    3    3    0    0 -0.34367846600E+01  0.54915215998E+01 -0.10606387862E+02  0.12428345104E+02  0.51100000000E-03 0.  1.
         12    1    3    3    0    0  0.86599835528E+01  0.43881063619E+01  0.41373795543E+02  0.42497549932E+02  0.00000000000E+00 0. -1.
</event>
<event>
 7    1  0.1221195E-011  0.5930195E+02  0.7816164E-02  0.1266605E+00
        -11   -1    0    0    0    0  0.00000000000E+00  0.00000000000E+00  0.45593999997E+02  0.45594000000E+02  0.51100000000E-03 0.  1.
         11   -1    0    0    0    0 -0.00000000000E+00 -0.00000000000E+00 -0.45593999997E+02  0.45594000000E+02  0.51100000000E-03 0. -1.
    9900012    2    1    2    0    0  0.10247355953E+02  0.30082769229E+02 -0.25958940054E+01  0.59301953300E+02  0.50000016910E+02 0.  0.
        -12    1    1    2    0    0 -0.10247355953E+02 -0.30082769229E+02  0.25958940054E+01  0.31886046700E+02  0.00000000000E+00 0.  1.
         11    1    3    3    0    0  0.17084010828E+02 -0.16827593092E+00 -0.65018100431E+01  0.18280188096E+02  0.51100000000E-03 0. -1.
        -11    1    3    3    0    0 -0.23657746299E+01  0.23546702273E+01 -0.92666341929E+01  0.98494604424E+01  0.51100000000E-03 0.  1.
         12    1    3    3    0    0 -0.44708802446E+01  0.27896374932E+02  0.13172550231E+02  0.31172304761E+02  0.00000000000E+00 0. -1.
</event>
<event>
 7    1  0.1221195E-011  0.5930194E+02  0.7816164E-02  0.1266605E+00
        -11   -1    0    0    0    0  0.00000000000E+00  0.00000000000E+00  0.45593999997E+02  0.45594000000E+02  0.51100000000E-03 0. -1.
         11   -1    0    0    0    0 -0.00000000000E+00 -0.00000000000E+00 -0.45593999997E+02  0.45594000000E+02  0.51100000000E-03 0.  1.
    9900012    2    1    2    0    0 -0.26408534692E+02  0.17862770115E+02 -0.48150242183E+00  0.59301935562E+02  0.49999984560E+02 0.  0.
        -12    1    1    2    0    0  0.26408534692E+02 -0.17862770115E+02  0.48150242183E+00  0.31886064438E+02  0.00000000000E+00 0.  1.
         11    1    3    3    0    0 -0.22975026423E+02  0.45283075673E+01  0.18580962815E+02  0.29893303397E+02  0.51100000000E-03 0. -1.
        -11    1    3    3    0    0 -0.84566032874E+01  0.40423079961E+00 -0.82455693743E+01  0.11818077520E+02  0.51100000000E-03 0.  1.
        -12    1    3    3    0    0  0.50230950182E+01  0.12930231748E+02 -0.10816895863E+02  0.17590554645E+02  0.00000000000E+00 0.  1.
</event>
<event>
 7    1  0.1221195E-011  0.5930194E+02  0.7816164E-02  0.1266605E+00
        -11   -1    0    0    0    0  0.00000000000E+00  0.00000000000E+00  0.45593999997E+02  0.45594000000E+02  0.51100000000E-03 0. -1.
         11   -1    0    0    0    0 -0.00000000000E+00 -0.00000000000E+00 -0.45593999997E+02  0.45594000000E+02  0.51100000000E-03 0.  1.
    9900012    2    1    2    0    0  0.25151627373E+02  0.16334070844E+02  0.10831194015E+02  0.59301937313E+02  0.49999987754E+02 0.  0.
        -12    1    1    2    0    0 -0.25151627373E+02 -0.16334070844E+02 -0.10831194015E+02  0.31886062687E+02  0.00000000000E+00 0.  1.
         11    1    3    3    0    0 -0.71442928983E+01  0.22939337761E+01  0.63252311075E+01  0.98138474621E+01  0.51100000000E-03 0. -1.
        -11    1    3    3    0    0  0.10439891403E+01  0.14951117503E+02 -0.65081499639E+01  0.16339579068E+02  0.51100000000E-03 0.  1.
         12    1    3    3    0    0  0.31251931131E+02 -0.91098043454E+00  0.11014112871E+02  0.33148510783E+02  0.00000000000E+00 0. -1.
</event>
<event>
 7    1  0.1221195E-011  0.5930194E+02  0.7816164E-02  0.1266605E+00
        -11   -1    0    0    0    0  0.00000000000E+00  0.00000000000E+00  0.45593999997E+02  0.45594000000E+02  0.51100000000E-03 0. -1.
         11   -1    0    0    0    0 -0.00000000000E+00 -0.00000000000E+00 -0.45593999997E+02  0.45594000000E+02  0.51100000000E-03 0.  1.
    9900012    2    1    2    0    0  0.14590437015E+02  0.16567142514E+02  0.23008042968E+02  0.59301935574E+02  0.49999984583E+02 0.  0.
        -12    1    1    2    0    0 -0.14590437015E+02 -0.16567142514E+02 -0.23008042968E+02  0.31886064426E+02  0.00000000000E+00 0.  1.
         11    1    3    3    0    0  0.11355125669E+02  0.13817511327E+02  0.11999024270E+02  0.21536923688E+02  0.51100000000E-03 0. -1.
        -11    1    3    3    0    0 -0.14527008992E+02  0.88394792809E+01  0.26462913901E+01  0.17209684558E+02  0.51100000000E-03 0.  1.
         12    1    3    3    0    0  0.17762320337E+02 -0.60898480938E+01  0.83627273076E+01  0.20555327329E+02  0.00000000000E+00 0. -1.
</event>
<event>
 7    1  0.1221195E-011  0.5930196E+02  0.7816164E-02  0.1266605E+00
        -11   -1    0    0    0    0  0.00000000000E+00  0.00000000000E+00  0.45593999997E+02  0.45594000000E+02  0.51100000000E-03 0.  1.
         11   -1    0    0    0    0 -0.00000000000E+00 -0.00000000000E+00 -0.45593999997E+02  0.45594000000E+02  0.51100000000E-03 0. -1.
    9900012    2    1    2    0    0  0.31429372826E+02  0.70966199616E+00  0.53301722234E+01  0.59301955524E+02  0.50000020966E+02 0.  0.
        -12    1    1    2    0    0 -0.31429372826E+02 -0.70966199616E+00 -0.53301722234E+01  0.31886044476E+02  0.00000000000E+00 0.  1.
         11    1    3    3    0    0  0.34756009088E+01 -0.76272036485E+01 -0.21822628096E+01  0.86611955528E+01  0.51100000000E-03 0. -1.
        -11    1    3    3    0    0  0.21220778461E+02 -0.51310676102E+01  0.21097872901E+02  0.30360657676E+02  0.51100000000E-03 0.  1.
         12    1    3    3    0    0  0.67329934569E+01  0.13467933255E+02 -0.13585437868E+02  0.20280102295E+02  0.00000000000E+00 0. -1.
</event>
<event>
 7    1  0.1221195E-011  0.5930199E+02  0.7816164E-02  0.1266605E+00
        -11   -1    0    0    0    0  0.00000000000E+00  0.00000000000E+00  0.45593999997E+02  0.45594000000E+02  0.51100000000E-03 0.  1.
         11   -1    0    0    0    0 -0.00000000000E+00 -0.00000000000E+00 -0.45593999997E+02  0.45594000000E+02  0.51100000000E-03 0. -1.
    9900012    2    1    2    0    0  0.20068053101E+02 -0.81961516365E+01 -0.23384051824E+02  0.59301991522E+02  0.50000086619E+02 0.  0.
        -12    1    1    2    0    0 -0.20068053101E+02  0.81961516365E+01  0.23384051824E+02  0.31886008478E+02  0.00000000000E+00 0.  1.
         11    1    3    3    0    0 -0.32278986404E+01 -0.13111244319E+01 -0.30559815492E+01  0.46343716293E+01  0.51100000000E-03 0. -1.
        -11    1    3    3    0    0 -0.53672603638E+01  0.13814416624E+02 -0.98369359283E+01  0.17787942523E+02  0.51100000000E-03 0.  1.
         12    1    3    3    0    0  0.28663212105E+02 -0.20699443829E+02 -0.10491134347E+02  0.36879677370E+02  0.00000000000E+00 0. -1.
</event>
<event>
 7    1  0.1221195E-011  0.5930196E+02  0.7816164E-02  0.1266605E+00
        -11   -1    0    0    0    0  0.00000000000E+00  0.00000000000E+00  0.45593999997E+02  0.45594000000E+02  0.51100000000E-03 0.  1.
         11   -1    0    0    0    0 -0.00000000000E+00 -0.00000000000E+00 -0.45593999997E+02  0.45594000000E+02  0.51100000000E-03 0. -1.
    9900012    2    1    2    0    0  0.28345696514E+02  0.13505962099E+02  0.55524980842E+01  0.59301956689E+02  0.50000023091E+02 0.  0.
        -12    1    1    2    0    0 -0.28345696514E+02 -0.13505962099E+02 -0.55524980842E+01  0.31886043311E+02  0.00000000000E+00 0.  1.
         11    1    3    3    0    0  0.53801331990E+01  0.17566979545E+02  0.61097106646E+01  0.19361641672E+02  0.51100000000E-03 0.  1.
        -11    1    3    3    0    0  0.71374545513E+01  0.10670109092E+02 -0.10072035146E+02  0.16316874019E+02  0.51100000000E-03 0. -1.
        -12    1    3    3    0    0  0.15828108763E+02 -0.14731126538E+02  0.95148225653E+01  0.23623440997E+02  0.00000000000E+00 0.  1.
</event>
<event>
 7    1  0.1221195E-011  0.5930185E+02  0.7816164E-02  0.1266605E+00
        -11   -1    0    0    0    0  0.00000000000E+00  0.00000000000E+00  0.45593999997E+02  0.45594000000E+02  0.51100000000E-03 0.  1.
         11   -1    0    0    0    0 -0.00000000000E+00 -0.00000000000E+00 -0.45593999997E+02  0.45594000000E+02  0.51100000000E-03 0. -1.
    9900012    2    1    2    0    0  0.30978370814E+02 -0.73672116577E+01  0.16706497622E+01  0.59301853532E+02  0.49999834958E+02 0.  0.
        -12    1    1    2    0    0 -0.30978370814E+02  0.73672116577E+01 -0.16706497622E+01  0.31886146468E+02  0.00000000000E+00 0.  1.
         11    1    3    3    0    0  0.23922602489E+02 -0.13720154810E+02 -0.89098416671E+01  0.28981353258E+02  0.51100000000E-03 0. -1.
        -11    1    3    3    0    0  0.85991296965E+01  0.44510047193E+01 -0.73919974943E+01  0.12181875954E+02  0.51100000000E-03 0.  1.
        -12    1    3    3    0    0 -0.15433613712E+01  0.19019384330E+01  0.17972488924E+02  0.18138624320E+02  0.00000000000E+00 0.  1.
</event>
<event>
 7    1  0.1221195E-011  0.5930193E+02  0.7816164E-02  0.1266605E+00
        -11   -1    0    0    0    0  0.00000000000E+00  0.00000000000E+00  0.45593999997E+02  0.45594000000E+02  0.51100000000E-03 0. -1.
         11   -1    0    0    0    0 -0.00000000000E+00 -0.00000000000E+00 -0.45593999997E+02  0.45594000000E+02  0.51100000000E-03 0.  1.
    9900012    2    1    2    0    0 -0.95551685577E+01  0.23895184950E+02  0.18826580766E+02  0.59301933242E+02  0.49999980329E+02 0.  0.
        -12    1    1    2    0    0  0.95551685577E+01 -0.23895184950E+02 -0.18826580766E+02  0.31886066758E+02  0.00000000000E+00 0.  1.
         11    1    3    3    0    0 -0.13408621537E+02  0.20734950767E+01  0.24496261376E+02  0.28002809413E+02  0.51100000000E-03 0. -1.
        -11    1    3    3    0    0 -0.65106938517E+01  0.29037800670E+01 -0.65905808251E+01  0.97085956235E+01  0.51100000000E-03 0.  1.
        -12    1    3    3    0    0  0.10364146831E+02  0.18917909807E+02  0.92090021505E+00  0.21590528206E+02  0.00000000000E+00 0.  1.
</event>
<event>
 7    1  0.1221195E-011  0.5930195E+02  0.7816164E-02  0.1266605E+00
        -11   -1    0    0    0    0  0.00000000000E+00  0.00000000000E+00  0.45593999997E+02  0.45594000000E+02  0.51100000000E-03 0. -1.
         11   -1    0    0    0    0 -0.00000000000E+00 -0.00000000000E+00 -0.45593999997E+02  0.45594000000E+02  0.51100000000E-03 0.  1.
    9900012    2    1    2    0    0 -0.18106451883E+02 -0.15497145462E+02  0.21182895072E+02  0.59301950372E+02  0.50000011570E+02 0.  0.
        -12    1    1    2    0    0  0.18106451883E+02  0.15497145462E+02 -0.21182895072E+02  0.31886049628E+02  0.00000000000E+00 0.  1.
         11    1    3    3    0    0 -0.83300665897E+01  0.11547431834E+02  0.57877164735E+01  0.15369803303E+02  0.51100000000E-03 0. -1.
        -11    1    3    3    0    0 -0.43127468548E+01 -0.21810476245E+02 -0.44674955785E+01  0.22677195075E+02  0.51100000000E-03 0.  1.
         12    1    3    3    0    0 -0.54636384381E+01 -0.52341010514E+01  0.19862674177E+02  0.21254951994E+02  0.00000000000E+00 0. -1.
</event>
<event>
 7    1  0.1221195E-011  0.5930195E+02  0.7816164E-02  0.1266605E+00
        -11   -1    0    0    0    0  0.00000000000E+00  0.00000000000E+00  0.45593999997E+02  0.45594000000E+02  0.51100000000E-03 0. -1.
         11   -1    0    0    0    0 -0.00000000000E+00 -0.00000000000E+00 -0.45593999997E+02  0.45594000000E+02  0.51100000000E-03 0.  1.
    9900012    2    1    2    0    0  0.13609990003E+02 -0.14917234393E+02  0.24677209158E+02  0.59301947224E+02  0.50000005829E+02 0.  0.
        -12    1    1    2    0    0 -0.13609990003E+02  0.14917234393E+02 -0.24677209158E+02  0.31886052776E+02  0.00000000000E+00 0.  1.
         11    1    3    3    0    0  0.92617381210E+01  0.18440564199E+00  0.15385921521E+02  0.17959409227E+02  0.51100000000E-03 0. -1.
        -11    1    3    3    0    0 -0.35088349637E+01  0.11612156471E+02  0.49461580344E+00  0.12140788515E+02  0.51100000000E-03 0.  1.
        -12    1    3    3    0    0  0.78570868457E+01 -0.26713796506E+02  0.87966718337E+01  0.29201749482E+02  0.00000000000E+00 0.  1.
</event>
<event>
 7    1  0.1221195E-011  0.5930195E+02  0.7816164E-02  0.1266605E+00
        -11   -1    0    0    0    0  0.00000000000E+00  0.00000000000E+00  0.45593999997E+02  0.45594000000E+02  0.51100000000E-03 0. -1.
         11   -1    0    0    0    0 -0.00000000000E+00 -0.00000000000E+00 -0.45593999997E+02  0.45594000000E+02  0.51100000000E-03 0.  1.
    9900012    2    1    2    0    0  0.10828931076E+02 -0.23582641305E+02  0.18528726795E+02  0.59301946061E+02  0.50000003709E+02 0.  0.
        -12    1    1    2    0    0 -0.10828931076E+02  0.23582641305E+02 -0.18528726795E+02  0.31886053939E+02  0.00000000000E+00 0.  1.
         11    1    3    3    0    0  0.81225111993E+01  0.41761157524E+01  0.16476931432E+02  0.18838906567E+02  0.51100000000E-03 0. -1.
        -11    1    3    3    0    0  0.54625192999E+01 -0.18727165353E+02  0.14879505539E+02  0.24534578142E+02  0.51100000000E-03 0.  1.
        -12    1    3    3    0    0 -0.27560994235E+01 -0.90315917041E+01 -0.12827710175E+02  0.15928461353E+02  0.00000000000E+00 0.  1.
</event>
<event>
 7    1  0.1221195E-011  0.5930193E+02  0.7816164E-02  0.1266605E+00
        -11   -1    0    0    0    0  0.00000000000E+00  0.00000000000E+00  0.45593999997E+02  0.45594000000E+02  0.51100000000E-03 0. -1.
         11   -1    0    0    0    0 -0.00000000000E+00 -0.00000000000E+00 -0.45593999997E+02  0.45594000000E+02  0.51100000000E-03 0.  1.
    9900012    2    1    2    0    0  0.28759136254E+02  0.88890126575E+01  0.10517554816E+02  0.59301930575E+02  0.49999975465E+02 0.  0.
        -12    1    1    2    0    0 -0.28759136254E+02 -0.88890126575E+01 -0.10517554816E+02  0.31886069425E+02  0.00000000000E+00 0.  1.
         11    1    3    3    0    0  0.19829248315E+02  0.11718044440E+01  0.93969676904E+01  0.21974421868E+02  0.51100000000E-03 0. -1.
        -11    1    3    3    0    0  0.21132966716E+02  0.11581456062E+02 -0.19080031621E+01  0.24173805722E+02  0.51100000000E-03 0.  1.
         12    1    3    3    0    0 -0.12203078777E+02 -0.38642478491E+01  0.30285902874E+01  0.13153702985E+02  0.00000000000E+00 0. -1.
</event>
<event>
 7    1  0.1221195E-011  0.5930188E+02  0.7816164E-02  0.1266605E+00
        -11   -1    0    0    0    0  0.00000000000E+00  0.00000000000E+00  0.45593999997E+02  0.45594000000E+02  0.51100000000E-03 0.  1.
         11   -1    0    0    0    0 -0.00000000000E+00 -0.00000000000E+00 -0.45593999997E+02  0.45594000000E+02  0.51100000000E-03 0. -1.
    9900012    2    1    2    0    0 -0.19745069684E+02 -0.51250510872E+00 -0.25031859019E+02  0.59301883832E+02  0.49999890217E+02 0.  0.
        -12    1    1    2    0    0  0.19745069684E+02  0.51250510872E+00  0.25031859019E+02  0.31886116168E+02  0.00000000000E+00 0.  1.
         11    1    3    3    0    0 -0.67617635349E+01 -0.21444413897E+01 -0.15627226427E+02  0.17161884542E+02  0.51100000000E-03 0. -1.
        -11    1    3    3    0    0 -0.16711217739E+02  0.17547256607E+02 -0.88087835104E+01  0.25783050245E+02  0.51100000000E-03 0.  1.
        -12    1    3    3    0    0  0.37279115893E+01 -0.15915320326E+02 -0.59584908143E+00  0.16356949044E+02  0.00000000000E+00 0.  1.
</event>
<event>
 7    1  0.1221195E-011  0.5930195E+02  0.7816164E-02  0.1266605E+00
        -11   -1    0    0    0    0  0.00000000000E+00  0.00000000000E+00  0.45593999997E+02  0.45594000000E+02  0.51100000000E-03 0.  1.
         11   -1    0    0    0    0 -0.00000000000E+00 -0.00000000000E+00 -0.45593999997E+02  0.45594000000E+02  0.51100000000E-03 0. -1.
    9900012    2    1    2    0    0  0.11972061987E+02  0.26959630028E+02 -0.12106550540E+02  0.59301945282E+02  0.50000002288E+02 0.  0.
        -12    1    1    2    0    0 -0.11972061987E+02 -0.26959630028E+02  0.12106550540E+02  0.31886054718E+02  0.00000000000E+00 0.  1.
         11    1    3    3    0    0 -0.45072152424E+00  0.13341106496E+02 -0.32233663998E+00  0.13352609243E+02  0.51100000000E-03 0. -1.
        -11    1    3    3    0    0  0.14239393225E+02  0.41257478018E+01  0.12766674583E+02  0.19564511098E+02  0.51100000000E-03 0.  1.
         12    1    3    3    0    0 -0.18166097130E+01  0.94927757308E+01 -0.24550888482E+02  0.26384824942E+02  0.00000000000E+00 0. -1.
</event>
<event>
 7    1  0.1221195E-011  0.5930194E+02  0.7816164E-02  0.1266605E+00
        -11   -1    0    0    0    0  0.00000000000E+00  0.00000000000E+00  0.45593999997E+02  0.45594000000E+02  0.51100000000E-03 0.  1.
         11   -1    0    0    0    0 -0.00000000000E+00 -0.00000000000E+00 -0.45593999997E+02  0.45594000000E+02  0.51100000000E-03 0. -1.
    9900012    2    1    2    0    0  0.14125008025E+02 -0.12700053291E+02 -0.25610816763E+02  0.59301935010E+02  0.49999983554E+02 0.  0.
        -12    1    1    2    0    0 -0.14125008025E+02  0.12700053291E+02  0.25610816763E+02  0.31886064990E+02  0.00000000000E+00 0.  1.
         11    1    3    3    0    0  0.67988443388E+01  0.26463788494E+01  0.26633447119E+01  0.77666602007E+01  0.51100000000E-03 0. -1.
        -11    1    3    3    0    0 -0.72323937084E+01  0.71354964597E+01  0.27729418034E+01  0.10531478291E+02  0.51100000000E-03 0.  1.
         12    1    3    3    0    0  0.14558557395E+02 -0.22481928600E+02 -0.31047103278E+02  0.41003796519E+02  0.00000000000E+00 0. -1.
</event>
<event>
 7    1  0.1221195E-011  0.5930196E+02  0.7816164E-02  0.1266605E+00
        -11   -1    0    0    0    0  0.00000000000E+00  0.00000000000E+00  0.45593999997E+02  0.45594000000E+02  0.51100000000E-03 0. -1.
         11   -1    0    0    0    0 -0.00000000000E+00 -0.00000000000E+00 -0.45593999997E+02  0.45594000000E+02  0.51100000000E-03 0.  1.
    9900012    2    1    2    0    0  0.12003892197E+01 -0.31589342926E+02  0.41703860586E+01  0.59301958529E+02  0.50000026448E+02 0.  0.
        -12    1    1    2    0    0 -0.12003892197E+01  0.31589342926E+02 -0.41703860586E+01  0.31886041471E+02  0.00000000000E+00 0.  1.
         11    1    3    3    0    0  0.12944879375E+02 -0.27617003801E+01  0.34871590221E+01  0.13687847506E+02  0.51100000000E-03 0. -1.
        -11    1    3    3    0    0  0.10130442286E+02 -0.14284388347E+02  0.65533049079E+01  0.18698005691E+02  0.51100000000E-03 0.  1.
        -12    1    3    3    0    0 -0.21874932442E+02 -0.14543254199E+02 -0.58700778714E+01  0.26916105332E+02  0.00000000000E+00 0.  1.
</event>
<event>
 7    1  0.1221195E-011  0.5930187E+02  0.7816164E-02  0.1266605E+00
        -11   -1    0    0    0    0  0.00000000000E+00  0.00000000000E+00  0.45593999997E+02  0.45594000000E+02  0.51100000000E-03 0.  1.
         11   -1    0    0    0    0 -0.00000000000E+00 -0.00000000000E+00 -0.45593999997E+02  0.45594000000E+02  0.51100000000E-03 0. -1.
    9900012    2    1    2    0    0  0.14816813401E+02  0.26947674843E+02 -0.84267420136E+01  0.59301872612E+02  0.49999869755E+02 0.  0.
        -12    1    1    2    0    0 -0.14816813401E+02 -0.26947674843E+02  0.84267420136E+01  0.31886127388E+02  0.00000000000E+00 0.  1.
         11    1    3    3    0    0  0.28168441350E+01  0.19308286928E+02 -0.21701794242E+02  0.29184112605E+02  0.51100000000E-03 0. -1.
        -11    1    3    3    0    0  0.34258447105E+01 -0.66541379930E+01 -0.17401987892E+01  0.76838959192E+01  0.51100000000E-03 0.  1.
         12    1    3    3    0    0  0.85741245560E+01  0.14293525908E+02  0.15015251018E+02  0.22433864088E+02  0.00000000000E+00 0. -1.
</event>
<event>
 7    1  0.1221195E-011  0.5930199E+02  0.7816164E-02  0.1266605E+00
        -11   -1    0    0    0    0  0.00000000000E+00  0.00000000000E+00  0.45593999997E+02  0.45594000000E+02  0.51100000000E-03 0.  1.
         11   -1    0    0    0    0 -0.00000000000E+00 -0.00000000000E+00 -0.45593999997E+02  0.45594000000E+02  0.51100000000E-03 0. -1.
    9900012    2    1    2    0    0  0.23864218261E+02 -0.10947322551E+01 -0.21119145691E+02  0.59301989484E+02  0.50000082901E+02 0.  0.
        -12    1    1    2    0    0 -0.23864218261E+02  0.10947322551E+01  0.21119145691E+02  0.31886010516E+02  0.00000000000E+00 0.  1.
         11    1    3    3    0    0  0.10143603712E+02  0.45781845547E+01 -0.15736785541E+02  0.19274306459E+02  0.51100000000E-03 0. -1.
        -11    1    3    3    0    0  0.23333392469E+02 -0.12933219998E+02  0.36482124703E+00  0.26680488722E+02  0.51100000000E-03 0.  1.
        -12    1    3    3    0    0 -0.96127779197E+01  0.72603031886E+01 -0.57471813970E+01  0.13347194302E+02  0.00000000000E+00 0.  1.
</event>
<event>
 7    1  0.1221195E-011  0.5930194E+02  0.7816164E-02  0.1266605E+00
        -11   -1    0    0    0    0  0.00000000000E+00  0.00000000000E+00  0.45593999997E+02  0.45594000000E+02  0.51100000000E-03 0.  1.
         11   -1    0    0    0    0 -0.00000000000E+00 -0.00000000000E+00 -0.45593999997E+02  0.45594000000E+02  0.51100000000E-03 0. -1.
    9900012    2    1    2    0    0  0.14535492075E+01 -0.71035797651E+01 -0.31050714590E+02  0.59301944626E+02  0.50000001092E+02 0.  0.
        -12    1    1    2    0    0 -0.14535492075E+01  0.71035797651E+01  0.31050714590E+02  0.31886055374E+02  0.00000000000E+00 0.  1.
         11    1    3    3    0    0  0.31787257714E+01  0.66555968612E+01 -0.30990697606E+02  0.31856311862E+02  0.51100000000E-03 0. -1.
        -11    1    3    3    0    0 -0.93000994797E+01 -0.79299808590E+00 -0.62179957417E+01  0.11215354101E+02  0.51100000000E-03 0.  1.
        -12    1    3    3    0    0  0.75749229158E+01 -0.12966178540E+02  0.61579787577E+01  0.16230278664E+02  0.00000000000E+00 0.  1.
</event>
<event>
 7    1  0.1221195E-011  0.5930204E+02  0.7816164E-02  0.1266604E+00
        -11   -1    0    0    0    0  0.00000000000E+00  0.00000000000E+00  0.45593999997E+02  0.45594000000E+02  0.51100000000E-03 0.  1.
         11   -1    0    0    0    0 -0.00000000000E+00 -0.00000000000E+00 -0.45593999997E+02  0.45594000000E+02  0.51100000000E-03 0. -1.
    9900012    2    1    2    0    0  0.12854338164E+02 -0.62713435358E+01 -0.28498254905E+02  0.59302042401E+02  0.50000179409E+02 0.  0.
        -12    1    1    2    0    0 -0.12854338164E+02  0.62713435358E+01  0.28498254905E+02  0.31885957599E+02  0.00000000000E+00 0.  1.
         11    1    3    3    0    0  0.34723330000E+01 -0.12659225994E+02 -0.21136411662E+02  0.24880936426E+02  0.51100000000E-03 0. -1.
        -11    1    3    3    0    0  0.64390275076E+01 -0.12666956106E+02 -0.46468714558E+01  0.14950125980E+02  0.51100000000E-03 0.  1.
        -12    1    3    3    0    0  0.29429776560E+01  0.19054838564E+02 -0.27149717869E+01  0.19470979995E+02  0.00000000000E+00 0.  1.
</event>
<event>
 7    1  0.1221195E-011  0.5930194E+02  0.7816164E-02  0.1266605E+00
        -11   -1    0    0    0    0  0.00000000000E+00  0.00000000000E+00  0.45593999997E+02  0.45594000000E+02  0.51100000000E-03 0.  1.
         11   -1    0    0    0    0 -0.00000000000E+00 -0.00000000000E+00 -0.45593999997E+02  0.45594000000E+02  0.51100000000E-03 0. -1.
    9900012    2    1    2    0    0 -0.13384590783E+01 -0.23193453575E+02 -0.21840165408E+02  0.59301943698E+02  0.49999999399E+02 0.  0.
        -12    1    1    2    0    0  0.13384590783E+01  0.23193453575E+02  0.21840165408E+02  0.31886056302E+02  0.00000000000E+00 0.  1.
         11    1    3    3    0    0 -0.10470336566E+02 -0.44415403076E+01 -0.17264905821E+02  0.20674433520E+02  0.51100000000E-03 0. -1.
        -11    1    3    3    0    0 -0.39105099303E+01 -0.23957538419E+02 -0.20675357916E+01  0.24362480160E+02  0.51100000000E-03 0.  1.
        -12    1    3    3    0    0  0.13042387418E+02  0.52056251520E+01 -0.25077237953E+01  0.14265030018E+02  0.00000000000E+00 0.  1.
</event>
<event>
 7    1  0.1221195E-011  0.5930219E+02  0.7816164E-02  0.1266604E+00
        -11   -1    0    0    0    0  0.00000000000E+00  0.00000000000E+00  0.45593999997E+02  0.45594000000E+02  0.51100000000E-03 0. -1.
         11   -1    0    0    0    0 -0.00000000000E+00 -0.00000000000E+00 -0.45593999997E+02  0.45594000000E+02  0.51100000000E-03 0.  1.
    9900012    2    1    2    0    0  0.25446175003E+01 -0.27492836863E+02  0.15949090496E+02  0.59302193681E+02  0.50000455305E+02 0.  0.
        -12    1    1    2    0    0 -0.25446175003E+01  0.27492836863E+02 -0.15949090496E+02  0.31885806319E+02  0.00000000000E+00 0.  1.
         11    1    3    3    0    0  0.14190006401E+01 -0.12168511182E+02  0.10458866565E+02  0.16108200312E+02  0.51100000000E-03 0. -1.
        -11    1    3    3    0    0  0.18703934336E+02  0.56481672487E+00  0.54815181452E+01  0.19498800450E+02  0.51100000000E-03 0.  1.
         12    1    3    3    0    0 -0.17578317475E+02 -0.15889142405E+02  0.87057858139E-02  0.23695192918E+02  0.00000000000E+00 0. -1.
</event>
<event>
 7    1  0.1221195E-011  0.5930196E+02  0.7816164E-02  0.1266605E+00
        -11   -1    0    0    0    0  0.00000000000E+00  0.00000000000E+00  0.45593999997E+02  0.45594000000E+02  0.51100000000E-03 0.  1.
         11   -1    0    0    0    0 -0.00000000000E+00 -0.00000000000E+00 -0.45593999997E+02  0.45594000000E+02  0.51100000000E-03 0. -1.
    9900012    2    1    2    0    0 -0.10222276684E+02  0.21739487385E+01 -0.30124714001E+02  0.59301962501E+02  0.50000033691E+02 0.  0.
        -12    1    1    2    0    0  0.10222276684E+02 -0.21739487385E+01  0.30124714001E+02  0.31886037499E+02  0.00000000000E+00 0.  1.
         11    1    3    3    0    0 -0.24087892851E+01  0.15434752662E+02  0.14772678696E+01  0.15691277073E+02  0.51100000000E-03 0. -1.
        -11    1    3    3    0    0 -0.14918075716E+01 -0.25910591857E-01  0.44477944682E+01  0.46913790171E+01  0.51100000000E-03 0.  1.
         12    1    3    3    0    0 -0.63216798277E+01 -0.13234893332E+02 -0.36049776339E+02  0.38919306410E+02  0.00000000000E+00 0. -1.
</event>
<event>
 7    1  0.1221195E-011  0.5930197E+02  0.7816164E-02  0.1266605E+00
        -11   -1    0    0    0    0  0.00000000000E+00  0.00000000000E+00  0.45593999997E+02  0.45594000000E+02  0.51100000000E-03 0. -1.
         11   -1    0    0    0    0 -0.00000000000E+00 -0.00000000000E+00 -0.45593999997E+02  0.45594000000E+02  0.51100000000E-03 0.  1.
    9900012    2    1    2    0    0  0.58228003182E+01 -0.29485566745E+02  0.10649647462E+02  0.59301974206E+02  0.50000055039E+02 0.  0.
        -12    1    1    2    0    0 -0.58228003182E+01  0.29485566745E+02 -0.10649647462E+02  0.31886025794E+02  0.00000000000E+00 0.  1.
         11    1    3    3    0    0 -0.78708712082E+00  0.15318126749E+01  0.12356850168E+02  0.12476285607E+02  0.51100000000E-03 0. -1.
        -11    1    3    3    0    0 -0.14040033184E+02 -0.15765967394E+02 -0.24832029422E+00  0.21112790505E+02  0.51100000000E-03 0.  1.
         12    1    3    3    0    0  0.20649920623E+02 -0.15251412026E+02 -0.14588824116E+01  0.25712898095E+02  0.00000000000E+00 0. -1.
</event>
<event>
 7    1  0.1221195E-011  0.5930202E+02  0.7816164E-02  0.1266604E+00
        -11   -1    0    0    0    0  0.00000000000E+00  0.00000000000E+00  0.45593999997E+02  0.45594000000E+02  0.51100000000E-03 0. -1.
         11   -1    0    0    0    0 -0.00000000000E+00 -0.00000000000E+00 -0.45593999997E+02  0.45594000000E+02  0.51100000000E-03 0.  1.
    9900012    2    1    2    0    0  0.20683407298E+02  0.23663723788E+02 -0.53796276848E+01  0.59302022596E+02  0.50000143289E+02 0.  0.
        -12    1    1    2    0    0 -0.20683407298E+02 -0.23663723788E+02  0.53796276848E+01  0.31885977404E+02  0.00000000000E+00 0.  1.
         11    1    3    3    0    0  0.58154871292E+01  0.77790965923E+01 -0.93073236207E+01  0.13452156243E+02  0.51100000000E-03 0. -1.
        -11    1    3    3    0    0  0.30114752419E+00 -0.10877071026E+02  0.10003380916E+02  0.14780696667E+02  0.51100000000E-03 0.  1.
         12    1    3    3    0    0  0.14566772645E+02  0.26761698222E+02 -0.60756849803E+01  0.31069169686E+02  0.00000000000E+00 0. -1.
</event>
<event>
 7    1  0.1221195E-011  0.5930190E+02  0.7816164E-02  0.1266605E+00
        -11   -1    0    0    0    0  0.00000000000E+00  0.00000000000E+00  0.45593999997E+02  0.45594000000E+02  0.51100000000E-03 0.  1.
         11   -1    0    0    0    0 -0.00000000000E+00 -0.00000000000E+00 -0.45593999997E+02  0.45594000000E+02  0.51100000000E-03 0. -1.
    9900012    2    1    2    0    0  0.75024453140E+01  0.29693403747E+02  0.88734753816E+01  0.59301898370E+02  0.49999916732E+02 0.  0.
        -12    1    1    2    0    0 -0.75024453140E+01 -0.29693403747E+02 -0.88734753816E+01  0.31886101630E+02  0.00000000000E+00 0.  1.
         11    1    3    3    0    0  0.86651380363E+01  0.41934672459E+00  0.13861681453E+01  0.87853247664E+01  0.51100000000E-03 0. -1.
        -11    1    3    3    0    0 -0.15186644932E+02 -0.23412690504E+01  0.26780382959E+01  0.15597679778E+02  0.51100000000E-03 0.  1.
         12    1    3    3    0    0  0.14023952210E+02  0.31615326073E+02  0.48092689404E+01  0.34918893826E+02  0.00000000000E+00 0. -1.
</event>
<event>
 7    1  0.1221195E-011  0.5930193E+02  0.7816164E-02  0.1266605E+00
        -11   -1    0    0    0    0  0.00000000000E+00  0.00000000000E+00  0.45593999997E+02  0.45594000000E+02  0.51100000000E-03 0.  1.
         11   -1    0    0    0    0 -0.00000000000E+00 -0.00000000000E+00 -0.45593999997E+02  0.45594000000E+02  0.51100000000E-03 0. -1.
    9900012    2    1    2    0    0  0.20570776236E+02  0.24341464090E+02 -0.10284882647E+01  0.59301929419E+02  0.49999973357E+02 0.  0.
        -12    1    1    2    0    0 -0.20570776236E+02 -0.24341464090E+02  0.10284882647E+01  0.31886070581E+02  0.00000000000E+00 0.  1.
         11    1    3    3    0    0  0.13641157214E+02  0.86605334645E+01 -0.62932361995E+01  0.17340439215E+02  0.51100000000E-03 0. -1.
        -11    1    3    3    0    0  0.68251201907E+01  0.36057772441E+01 -0.15854455366E+02  0.17633707789E+02  0.51100000000E-03 0.  1.
        -12    1    3    3    0    0  0.10449883084E+00  0.12075153381E+02  0.21119203301E+02  0.24327782416E+02  0.00000000000E+00 0.  1.
</event>
<event>
 7    1  0.1221195E-011  0.5930196E+02  0.7816164E-02  0.1266605E+00
        -11   -1    0    0    0    0  0.00000000000E+00  0.00000000000E+00  0.45593999997E+02  0.45594000000E+02  0.51100000000E-03 0.  1.
         11   -1    0    0    0    0 -0.00000000000E+00 -0.00000000000E+00 -0.45593999997E+02  0.45594000000E+02  0.51100000000E-03 0. -1.
    9900012    2    1    2    0    0 -0.14255539185E+02  0.19480310772E+02 -0.20833065421E+02  0.59301960421E+02  0.50000029897E+02 0.  0.
        -12    1    1    2    0    0  0.14255539185E+02 -0.19480310772E+02  0.20833065421E+02  0.31886039579E+02  0.00000000000E+00 0.  1.
         11    1    3    3    0    0 -0.19090646565E+01 -0.13515489526E+01 -0.15886263229E+02  0.16057539415E+02  0.51100000000E-03 0. -1.
        -11    1    3    3    0    0  0.75504929222E+01 -0.33066388658E+01  0.58984724228E+01  0.10135866078E+02  0.51100000000E-03 0.  1.
         12    1    3    3    0    0 -0.19896967450E+02  0.24138498591E+02 -0.10845274614E+02  0.33108554928E+02  0.00000000000E+00 0. -1.
</event>
<event>
 7    1  0.1221195E-011  0.5930189E+02  0.7816164E-02  0.1266605E+00
        -11   -1    0    0    0    0  0.00000000000E+00  0.00000000000E+00  0.45593999997E+02  0.45594000000E+02  0.51100000000E-03 0. -1.
         11   -1    0    0    0    0 -0.00000000000E+00 -0.00000000000E+00 -0.45593999997E+02  0.45594000000E+02  0.51100000000E-03 0.  1.
    9900012    2    1    2    0    0  0.22829928811E+02  0.22240563917E+02 -0.93584776908E+00  0.59301887915E+02  0.49999897664E+02 0.  0.
        -12    1    1    2    0    0 -0.22829928811E+02 -0.22240563917E+02  0.93584776908E+00  0.31886112085E+02  0.00000000000E+00 0.  1.
         11    1    3    3    0    0  0.27400948843E+01 -0.23605546398E+01  0.32051933757E+01  0.48325565717E+01  0.51100000000E-03 0. -1.
        -11    1    3    3    0    0  0.24591055637E+02  0.17809565029E+02  0.14853307962E+02  0.33801203847E+02  0.51100000000E-03 0.  1.
        -12    1    3    3    0    0 -0.45012217100E+01  0.67915535271E+01 -0.18994349107E+02  0.20668127496E+02  0.00000000000E+00 0.  1.
</event>
<event>
 7    1  0.1221195E-011  0.5930194E+02  0.7816164E-02  0.1266605E+00
        -11   -1    0    0    0    0  0.00000000000E+00  0.00000000000E+00  0.45593999997E+02  0.45594000000E+02  0.51100000000E-03 0. -1.
         11   -1    0    0    0    0 -0.00000000000E+00 -0.00000000000E+00 -0.45593999997E+02  0.45594000000E+02  0.51100000000E-03 0.  1.
    9900012    2    1    2    0    0 -0.18680048006E+02 -0.54561403003E+01  0.25258805909E+02  0.59301938210E+02  0.49999989390E+02 0.  0.
        -12    1    1    2    0    0  0.18680048006E+02  0.54561403003E+01 -0.25258805909E+02  0.31886061790E+02  0.00000000000E+00 0.  1.
         11    1    3    3    0    0 -0.68344651783E+01  0.13741782624E+02 -0.27471182901E+01  0.15591445191E+02  0.51100000000E-03 0. -1.
        -11    1    3    3    0    0 -0.11591688604E+02 -0.43841814249E+01  0.42300690266E+00  0.12400291390E+02  0.51100000000E-03 0.  1.
        -12    1    3    3    0    0 -0.25389422410E+00 -0.14813741500E+02  0.27582917297E+02  0.31310201630E+02  0.00000000000E+00 0.  1.
</event>
<event>
 7    1  0.1221195E-011  0.5930194E+02  0.7816164E-02  0.1266605E+00
        -11   -1    0    0    0    0  0.00000000000E+00  0.00000000000E+00  0.45593999997E+02  0.45594000000E+02  0.51100000000E-03 0.  1.
         11   -1    0    0    0    0 -0.00000000000E+00 -0.00000000000E+00 -0.45593999997E+02  0.45594000000E+02  0.51100000000E-03 0. -1.
    9900012    2    1    2    0    0 -0.22461577761E+02  0.17390287459E+02  0.14483649016E+02  0.59301942510E+02  0.49999997233E+02 0.  0.
        -12    1    1    2    0    0  0.22461577761E+02 -0.17390287459E+02 -0.14483649016E+02  0.31886057490E+02  0.00000000000E+00 0.  1.
         11    1    3    3    0    0 -0.61352080604E+01  0.16355103467E+02  0.11158210134E+02  0.20727658840E+02  0.51100000000E-03 0. -1.
        -11    1    3    3    0    0 -0.37830660925E-01  0.14672690247E+02 -0.53634276009E+01  0.15622279799E+02  0.51100000000E-03 0.  1.
        -12    1    3    3    0    0 -0.16288539040E+02 -0.13637506255E+02  0.86888664836E+01  0.22952003871E+02  0.00000000000E+00 0.  1.
</event>
<event>
 7    1  0.1221195E-011  0.5930198E+02  0.7816164E-02  0.1266605E+00
        -11   -1    0    0    0    0  0.00000000000E+00  0.00000000000E+00  0.45593999997E+02  0.45594000000E+02  0.51100000000E-03 0. -1.
         11   -1    0    0    0    0 -0.00000000000E+00 -0.00000000000E+00 -0.45593999997E+02  0.45594000000E+02  0.51100000000E-03 0.  1.
    9900012    2    1    2    0    0  0.26630337988E+02  0.63459375937E+01  0.16348468692E+02  0.59301980275E+02  0.50000066106E+02 0.  0.
        -12    1    1    2    0    0 -0.26630337988E+02 -0.63459375937E+01 -0.16348468692E+02  0.31886019725E+02  0.00000000000E+00 0.  1.
         11    1    3    3    0    0  0.26070791362E+02  0.96997389461E+01  0.23328767592E+02  0.36304304091E+02  0.51100000000E-03 0. -1.
        -11    1    3    3    0    0 -0.17712961315E+00  0.92259619379E+01 -0.19623359550E+01  0.94340082277E+01  0.51100000000E-03 0.  1.
        -12    1    3    3    0    0  0.73667623913E+00 -0.12579763290E+02 -0.50179629449E+01  0.13563667957E+02  0.00000000000E+00 0.  1.
</event>
<event>
 7    1  0.1221195E-011  0.5930194E+02  0.7816164E-02  0.1266605E+00
        -11   -1    0    0    0    0  0.00000000000E+00  0.00000000000E+00  0.45593999997E+02  0.45594000000E+02  0.51100000000E-03 0.  1.
         11   -1    0    0    0    0 -0.00000000000E+00 -0.00000000000E+00 -0.45593999997E+02  0.45594000000E+02  0.51100000000E-03 0. -1.
    9900012    2    1    2    0    0  0.12517485969E+02  0.28103500734E+02 -0.83801279104E+01  0.59301941098E+02  0.49999994657E+02 0.  0.
        -12    1    1    2    0    0 -0.12517485969E+02 -0.28103500734E+02  0.83801279104E+01  0.31886058902E+02  0.00000000000E+00 0.  1.
         11    1    3    3    0    0  0.56192325812E+00  0.11189094567E+02  0.84534089052E+01  0.14034661284E+02  0.51100000000E-03 0. -1.
        -11    1    3    3    0    0  0.17661325696E+02  0.15553297975E+02  0.37801783988E+01  0.23835210345E+02  0.51100000000E-03 0.  1.
        -12    1    3    3    0    0 -0.57057629845E+01  0.13611081920E+01 -0.20613715214E+02  0.21432069468E+02  0.00000000000E+00 0.  1.
</event>
<event>
 7    1  0.1221195E-011  0.5930195E+02  0.7816164E-02  0.1266605E+00
        -11   -1    0    0    0    0  0.00000000000E+00  0.00000000000E+00  0.45593999997E+02  0.45594000000E+02  0.51100000000E-03 0.  1.
         11   -1    0    0    0    0 -0.00000000000E+00 -0.00000000000E+00 -0.45593999997E+02  0.45594000000E+02  0.51100000000E-03 0. -1.
    9900012    2    1    2    0    0 -0.29700440327E+02  0.88312132942E+01 -0.75242144982E+01  0.59301948384E+02  0.50000007945E+02 0.  0.
        -12    1    1    2    0    0  0.29700440327E+02 -0.88312132942E+01  0.75242144982E+01  0.31886051616E+02  0.00000000000E+00 0.  1.
         11    1    3    3    0    0 -0.39711111397E+00 -0.27698284100E+01 -0.13783964386E+01  0.31192344671E+01  0.51100000000E-03 0. -1.
        -11    1    3    3    0    0 -0.24306232908E+02 -0.81549510890E+00  0.16842029490E+02  0.29582291122E+02  0.51100000000E-03 0.  1.
         12    1    3    3    0    0 -0.49970963046E+01  0.12416536813E+02 -0.22987847549E+02  0.26600422795E+02  0.00000000000E+00 0. -1.
</event>
<event>
 7    1  0.1221195E-011  0.5930194E+02  0.7816164E-02  0.1266605E+00
        -11   -1    0    0    0    0  0.00000000000E+00  0.00000000000E+00  0.45593999997E+02  0.45594000000E+02  0.51100000000E-03 0.  1.
         11   -1    0    0    0    0 -0.00000000000E+00 -0.00000000000E+00 -0.45593999997E+02  0.45594000000E+02  0.51100000000E-03 0. -1.
    9900012    2    1    2    0    0 -0.68604149515E+01 -0.31107331657E+02  0.14103736673E+01  0.59301944584E+02  0.50000001015E+02 0.  0.
        -12    1    1    2    0    0  0.68604149515E+01  0.31107331657E+02 -0.14103736673E+01  0.31886055416E+02  0.00000000000E+00 0.  1.
         11    1    3    3    0    0  0.52104400245E+01 -0.29478860735E+02 -0.62623179836E+01  0.30583795419E+02  0.51100000000E-03 0. -1.
        -11    1    3    3    0    0  0.40748298353E+01  0.52181592766E+01 -0.39213199420E+01  0.76948147977E+01  0.51100000000E-03 0.  1.
        -12    1    3    3    0    0 -0.16145684811E+02 -0.68466301985E+01  0.11594011593E+02  0.21023334367E+02  0.00000000000E+00 0.  1.
</event>
<event>
 7    1  0.1221195E-011  0.5930195E+02  0.7816164E-02  0.1266605E+00
        -11   -1    0    0    0    0  0.00000000000E+00  0.00000000000E+00  0.45593999997E+02  0.45594000000E+02  0.51100000000E-03 0. -1.
         11   -1    0    0    0    0 -0.00000000000E+00 -0.00000000000E+00 -0.45593999997E+02  0.45594000000E+02  0.51100000000E-03 0.  1.
    9900012    2    1    2    0    0 -0.26745647700E+02  0.96999652358E+00  0.17333483763E+02  0.59301949390E+02  0.50000009779E+02 0.  0.
        -12    1    1    2    0    0  0.26745647700E+02 -0.96999652358E+00 -0.17333483763E+02  0.31886050610E+02  0.00000000000E+00 0.  1.
         11    1    3    3    0    0 -0.16991113740E+01  0.45129336689E+00 -0.65785894064E+01  0.68094407996E+01  0.51100000000E-03 0. -1.
        -11    1    3    3    0    0  0.94338619322E+01 -0.13845369435E+01 -0.14530378940E+01  0.96449993721E+01  0.51100000000E-03 0.  1.
         12    1    3    3    0    0 -0.34480398258E+02  0.19032401002E+01  0.25365111064E+02  0.42847509218E+02  0.00000000000E+00 0. -1.
</event>
<event>
 7    1  0.1221195E-011  0.5930192E+02  0.7816164E-02  0.1266605E+00
        -11   -1    0    0    0    0  0.00000000000E+00  0.00000000000E+00  0.45593999997E+02  0.45594000000E+02  0.51100000000E-03 0.  1.
         11   -1    0    0    0    0 -0.00000000000E+00 -0.00000000000E+00 -0.45593999997E+02  0.45594000000E+02  0.51100000000E-03 0. -1.
    9900012    2    1    2    0    0  0.24884954070E+02 -0.18981140499E+02 -0.60973126107E+01  0.59301923810E+02  0.49999963128E+02 0.  0.
        -12    1    1    2    0    0 -0.24884954070E+02  0.18981140499E+02  0.60973126107E+01  0.31886076190E+02  0.00000000000E+00 0.  1.
         11    1    3    3    0    0  0.23445231339E+02 -0.21480793127E+02 -0.90678928155E+01  0.33065541373E+02  0.51100000000E-03 0. -1.
        -11    1    3    3    0    0  0.61670991787E+01  0.85282966818E+01 -0.77426462000E+01  0.13065738671E+02  0.51100000000E-03 0.  1.
        -12    1    3    3    0    0 -0.47273764479E+01 -0.60286440538E+01  0.10713226405E+02  0.13170643766E+02  0.00000000000E+00 0.  1.
</event>
<event>
 7    1  0.1221195E-011  0.5930202E+02  0.7816164E-02  0.1266604E+00
        -11   -1    0    0    0    0  0.00000000000E+00  0.00000000000E+00  0.45593999997E+02  0.45594000000E+02  0.51100000000E-03 0.  1.
         11   -1    0    0    0    0 -0.00000000000E+00 -0.00000000000E+00 -0.45593999997E+02  0.45594000000E+02  0.51100000000E-03 0. -1.
    9900012    2    1    2    0    0 -0.23794027681E+02  0.11396112269E+02  0.17907778041E+02  0.59302021224E+02  0.50000140787E+02 0.  0.
        -12    1    1    2    0    0  0.23794027681E+02 -0.11396112269E+02 -0.17907778041E+02  0.31885978776E+02  0.00000000000E+00 0.  1.
         11    1    3    3    0    0 -0.16822368259E+02  0.28349392619E+01 -0.22761067243E+01  0.17210741313E+02  0.51100000000E-03 0. -1.
        -11    1    3    3    0    0 -0.13089326194E+02  0.14886073017E+02 -0.27076260904E+00  0.19824200936E+02  0.51100000000E-03 0.  1.
        -12    1    3    3    0    0  0.61176667718E+01 -0.63249000104E+01  0.20454647374E+02  0.22267078975E+02  0.00000000000E+00 0.  1.
</event>
<event>
 7    1  0.1221195E-011  0.5930193E+02  0.7816164E-02  0.1266605E+00
        -11   -1    0    0    0    0  0.00000000000E+00  0.00000000000E+00  0.45593999997E+02  0.45594000000E+02  0.51100000000E-03 0. -1.
         11   -1    0    0    0    0 -0.00000000000E+00 -0.00000000000E+00 -0.45593999997E+02  0.45594000000E+02  0.51100000000E-03 0.  1.
    9900012    2    1    2    0    0 -0.11200155045E+02 -0.29113222464E+02 -0.66104640333E+01  0.59301930471E+02  0.49999975276E+02 0.  0.
        -12    1    1    2    0    0  0.11200155045E+02  0.29113222464E+02  0.66104640333E+01  0.31886069529E+02  0.00000000000E+00 0.  1.
         11    1    3    3    0    0  0.41796808889E+01 -0.12369060386E+02  0.13435917826E+02  0.18734654394E+02  0.51100000000E-03 0. -1.
        -11    1    3    3    0    0 -0.56080556476E+01  0.25231637278E+01  0.46835752389E+01  0.77299754608E+01  0.51100000000E-03 0.  1.
         12    1    3    3    0    0 -0.97717802864E+01 -0.19267325806E+02 -0.24729957098E+02  0.32837300616E+02  0.00000000000E+00 0. -1.
</event>
<event>
 7    1  0.1221195E-011  0.5930194E+02  0.7816164E-02  0.1266605E+00
        -11   -1    0    0    0    0  0.00000000000E+00  0.00000000000E+00  0.45593999997E+02  0.45594000000E+02  0.51100000000E-03 0.  1.
         11   -1    0    0    0    0 -0.00000000000E+00 -0.00000000000E+00 -0.45593999997E+02  0.45594000000E+02  0.51100000000E-03 0. -1.
    9900012    2    1    2    0    0 -0.40920205795E-01 -0.13275319475E+02 -0.28991123050E+02  0.59301937256E+02  0.49999987649E+02 0.  0.
        -12    1    1    2    0    0  0.40920205795E-01  0.13275319475E+02  0.28991123050E+02  0.31886062744E+02  0.00000000000E+00 0.  1.
         11    1    3    3    0    0 -0.59234912519E+00  0.13252783491E+02 -0.62808881320E+01  0.14677762218E+02  0.51100000000E-03 0. -1.
        -11    1    3    3    0    0  0.11162126786E+02 -0.93482701316E+01 -0.44516350340E+00  0.14566447736E+02  0.51100000000E-03 0.  1.
         12    1    3    3    0    0 -0.10610697866E+02 -0.17179832835E+02 -0.22265071415E+02  0.30057727302E+02  0.00000000000E+00 0. -1.
</event>
<event>
 7    1  0.1221195E-011  0.5930195E+02  0.7816164E-02  0.1266605E+00
        -11   -1    0    0    0    0  0.00000000000E+00  0.00000000000E+00  0.45593999997E+02  0.45594000000E+02  0.51100000000E-03 0. -1.
         11   -1    0    0    0    0 -0.00000000000E+00 -0.00000000000E+00 -0.45593999997E+02  0.45594000000E+02  0.51100000000E-03 0.  1.
    9900012    2    1    2    0    0  0.31527031362E+02 -0.24707109248E+01  0.40819228823E+01  0.59301949549E+02  0.50000010070E+02 0.  0.
        -12    1    1    2    0    0 -0.31527031362E+02  0.24707109248E+01 -0.40819228823E+01  0.31886050451E+02  0.00000000000E+00 0.  1.
         11    1    3    3    0    0 -0.26607993072E+01 -0.42894266736E+00 -0.75824106035E+00  0.27997811578E+01  0.51100000000E-03 0.  1.
        -11    1    3    3    0    0  0.74168216738E+01 -0.91866471471E+01  0.21242478257E+02  0.24303222262E+02  0.51100000000E-03 0. -1.
         12    1    3    3    0    0  0.26771008995E+02  0.71448788897E+01 -0.16402314315E+02  0.32198946129E+02  0.00000000000E+00 0. -1.
</event>
<event>
 7    1  0.1221195E-011  0.5930195E+02  0.7816164E-02  0.1266605E+00
        -11   -1    0    0    0    0  0.00000000000E+00  0.00000000000E+00  0.45593999997E+02  0.45594000000E+02  0.51100000000E-03 0.  1.
         11   -1    0    0    0    0 -0.00000000000E+00 -0.00000000000E+00 -0.45593999997E+02  0.45594000000E+02  0.51100000000E-03 0. -1.
    9900012    2    1    2    0    0  0.25412562724E+02  0.16200079543E+02 -0.10415341537E+02  0.59301948806E+02  0.50000008715E+02 0.  0.
        -12    1    1    2    0    0 -0.25412562724E+02 -0.16200079543E+02  0.10415341537E+02  0.31886051194E+02  0.00000000000E+00 0.  1.
         11    1    3    3    0    0 -0.86153786245E+01  0.60977000578E+01 -0.14354725372E+02  0.17817542918E+02  0.51100000000E-03 0. -1.
        -11    1    3    3    0    0  0.15601188678E+02  0.15574742578E+02  0.28934421423E+01  0.22233796397E+02  0.51100000000E-03 0.  1.
        -12    1    3    3    0    0  0.18426752670E+02 -0.54723630923E+01  0.10459416935E+01  0.19250609492E+02  0.00000000000E+00 0.  1.
</event>
<event>
 7    1  0.1221195E-011  0.5930196E+02  0.7816164E-02  0.1266605E+00
        -11   -1    0    0    0    0  0.00000000000E+00  0.00000000000E+00  0.45593999997E+02  0.45594000000E+02  0.51100000000E-03 0.  1.
         11   -1    0    0    0    0 -0.00000000000E+00 -0.00000000000E+00 -0.45593999997E+02  0.45594000000E+02  0.51100000000E-03 0. -1.
    9900012    2    1    2    0    0 -0.10688428906E+02  0.20617565936E+02 -0.21849330443E+02  0.59301956370E+02  0.50000022509E+02 0.  0.
        -12    1    1    2    0    0  0.10688428906E+02 -0.20617565936E+02  0.21849330443E+02  0.31886043630E+02  0.00000000000E+00 0.  1.
         11    1    3    3    0    0  0.24176002510E+01  0.28347160717E+02 -0.51474933818E+01  0.28911987135E+02  0.51100000000E-03 0. -1.
        -11    1    3    3    0    0  0.21583700131E+00 -0.21660166648E+01  0.43495225759E+01  0.48638010550E+01  0.51100000000E-03 0.  1.
        -12    1    3    3    0    0 -0.13321866158E+02 -0.55635781171E+01 -0.21051359637E+02  0.25526168180E+02  0.00000000000E+00 0.  1.
</event>
<event>
 7    1  0.1221195E-011  0.5930195E+02  0.7816164E-02  0.1266605E+00
        -11   -1    0    0    0    0  0.00000000000E+00  0.00000000000E+00  0.45593999997E+02  0.45594000000E+02  0.51100000000E-03 0. -1.
         11   -1    0    0    0    0 -0.00000000000E+00 -0.00000000000E+00 -0.45593999997E+02  0.45594000000E+02  0.51100000000E-03 0.  1.
    9900012    2    1    2    0    0 -0.18077208292E+02  0.24628976584E+01 -0.26150882110E+02  0.59301953527E+02  0.50000017325E+02 0.  0.
        -12    1    1    2    0    0  0.18077208292E+02 -0.24628976584E+01  0.26150882110E+02  0.31886046473E+02  0.00000000000E+00 0.  1.
         11    1    3    3    0    0 -0.28164929214E+01 -0.54560107380E+01 -0.30026926939E+01  0.68349725109E+01  0.51100000000E-03 0. -1.
        -11    1    3    3    0    0  0.89291538464E+01  0.18569082062E+02 -0.11336532553E+02  0.23517176013E+02  0.51100000000E-03 0.  1.
         12    1    3    3    0    0 -0.24189869217E+02 -0.10650173666E+02 -0.11811656863E+02  0.28949805003E+02  0.00000000000E+00 0. -1.
</event>
<event>
 7    1  0.1221195E-011  0.5930196E+02  0.7816164E-02  0.1266605E+00
        -11   -1    0    0    0    0  0.00000000000E+00  0.00000000000E+00  0.45593999997E+02  0.45594000000E+02  0.51100000000E-03 0.  1.
         11   -1    0    0    0    0 -0.00000000000E+00 -0.00000000000E+00 -0.45593999997E+02  0.45594000000E+02  0.51100000000E-03 0. -1.
    9900012    2    1    2    0    0 -0.20729707418E+02 -0.17883812363E+02 -0.16345270947E+02  0.59301962357E+02  0.50000033428E+02 0.  0.
        -12    1    1    2    0    0  0.20729707418E+02  0.17883812363E+02  0.16345270947E+02  0.31886037643E+02  0.00000000000E+00 0.  1.
         11    1    3    3    0    0 -0.13624211970E+02 -0.25021019260E+02 -0.18181086710E+02  0.33796781960E+02  0.51100000000E-03 0. -1.
        -11    1    3    3    0    0 -0.10611401425E+02 -0.52337077760E+01  0.39512677773E+01  0.12474215590E+02  0.51100000000E-03 0.  1.
        -12    1    3    3    0    0  0.35059059770E+01  0.12370914673E+02 -0.21154520136E+01  0.13030964807E+02  0.00000000000E+00 0.  1.
</event>
<event>
 7    1  0.1221195E-011  0.5930193E+02  0.7816164E-02  0.1266605E+00
        -11   -1    0    0    0    0  0.00000000000E+00  0.00000000000E+00  0.45593999997E+02  0.45594000000E+02  0.51100000000E-03 0.  1.
         11   -1    0    0    0    0 -0.00000000000E+00 -0.00000000000E+00 -0.45593999997E+02  0.45594000000E+02  0.51100000000E-03 0. -1.
    9900012    2    1    2    0    0 -0.74787308442E+01 -0.24700615548E+02 -0.18726176199E+02  0.59301929397E+02  0.49999973317E+02 0.  0.
        -12    1    1    2    0    0  0.74787308442E+01  0.24700615548E+02  0.18726176199E+02  0.31886070603E+02  0.00000000000E+00 0.  1.
         11    1    3    3    0    0  0.49872844830E+01 -0.55631246977E+01  0.55046446592E+00  0.74916202724E+01  0.51100000000E-03 0. -1.
        -11    1    3    3    0    0 -0.61316038873E+01  0.81604816083E+01  0.77974135648E+01  0.12844831057E+02  0.51100000000E-03 0.  1.
         12    1    3    3    0    0 -0.63344114399E+01 -0.27297972458E+02 -0.27074054230E+02  0.38965478068E+02  0.00000000000E+00 0. -1.
</event>
<event>
 7    1  0.1221195E-011  0.5930192E+02  0.7816164E-02  0.1266605E+00
        -11   -1    0    0    0    0  0.00000000000E+00  0.00000000000E+00  0.45593999997E+02  0.45594000000E+02  0.51100000000E-03 0. -1.
         11   -1    0    0    0    0 -0.00000000000E+00 -0.00000000000E+00 -0.45593999997E+02  0.45594000000E+02  0.51100000000E-03 0.  1.
    9900012    2    1    2    0    0  0.25562092945E+02  0.14640592535E+02  0.12204702166E+02  0.59301916822E+02  0.49999950382E+02 0.  0.
        -12    1    1    2    0    0 -0.25562092945E+02 -0.14640592535E+02 -0.12204702166E+02  0.31886083178E+02  0.00000000000E+00 0.  1.
         11    1    3    3    0    0  0.10385540689E+02  0.26656531973E+02  0.36886125945E+01  0.28845034501E+02  0.51100000000E-03 0. -1.
        -11    1    3    3    0    0  0.48180763496E+01 -0.68606858453E+01  0.15007167112E+02  0.17190053373E+02  0.51100000000E-03 0.  1.
        -12    1    3    3    0    0  0.10358475906E+02 -0.51552535921E+01 -0.64910775402E+01  0.13266828948E+02  0.00000000000E+00 0.  1.
</event>
<event>
 7    1  0.1221195E-011  0.5930194E+02  0.7816164E-02  0.1266605E+00
        -11   -1    0    0    0    0  0.00000000000E+00  0.00000000000E+00  0.45593999997E+02  0.45594000000E+02  0.51100000000E-03 0.  1.
         11   -1    0    0    0    0 -0.00000000000E+00 -0.00000000000E+00 -0.45593999997E+02  0.45594000000E+02  0.51100000000E-03 0. -1.
    9900012    2    1    2    0    0  0.18318229477E+02  0.20016060217E+02 -0.16748756127E+02  0.59301936750E+02  0.49999986727E+02 0.  0.
        -12    1    1    2    0    0 -0.18318229477E+02 -0.20016060217E+02  0.16748756127E+02  0.31886063250E+02  0.00000000000E+00 0.  1.
         11    1    3    3    0    0 -0.64435140975E+01 -0.28344045684E+01 -0.13864330673E+01  0.71746024345E+01  0.51100000000E-03 0. -1.
        -11    1    3    3    0    0 -0.64655906468E+01  0.40934495366E+01 -0.13663028518E+02  0.15660093871E+02  0.51100000000E-03 0.  1.
        -12    1    3    3    0    0  0.31227334222E+02  0.18757015249E+02 -0.16992945420E+01  0.36467240444E+02  0.00000000000E+00 0.  1.
</event>
<event>
 7    1  0.1221195E-011  0.5930191E+02  0.7816164E-02  0.1266605E+00
        -11   -1    0    0    0    0  0.00000000000E+00  0.00000000000E+00  0.45593999997E+02  0.45594000000E+02  0.51100000000E-03 0.  1.
         11   -1    0    0    0    0 -0.00000000000E+00 -0.00000000000E+00 -0.45593999997E+02  0.45594000000E+02  0.51100000000E-03 0. -1.
    9900012    2    1    2    0    0 -0.29144169118E+02 -0.10812809560E+02 -0.71009519885E+01  0.59301906427E+02  0.49999931426E+02 0.  0.
        -12    1    1    2    0    0  0.29144169118E+02  0.10812809560E+02  0.71009519885E+01  0.31886093573E+02  0.00000000000E+00 0.  1.
         11    1    3    3    0    0 -0.30401117666E+01 -0.14575242532E+01 -0.37959511133E+01  0.50769973033E+01  0.51100000000E-03 0. -1.
        -11    1    3    3    0    0 -0.26733668663E+02  0.13845283930E+02 -0.64915406073E+01  0.30798068560E+02  0.51100000000E-03 0.  1.
        -12    1    3    3    0    0  0.62961131172E+00 -0.23200569237E+02  0.31865397320E+01  0.23426840564E+02  0.00000000000E+00 0.  1.
</event>
<event>
 7    1  0.1221195E-011  0.5930193E+02  0.7816164E-02  0.1266605E+00
        -11   -1    0    0    0    0  0.00000000000E+00  0.00000000000E+00  0.45593999997E+02  0.45594000000E+02  0.51100000000E-03 0. -1.
         11   -1    0    0    0    0 -0.00000000000E+00 -0.00000000000E+00 -0.45593999997E+02  0.45594000000E+02  0.51100000000E-03 0.  1.
    9900012    2    1    2    0    0 -0.31118958754E+02  0.40570028586E+01  0.56455643003E+01  0.59301933099E+02  0.49999980069E+02 0.  0.
        -12    1    1    2    0    0  0.31118958754E+02 -0.40570028586E+01 -0.56455643003E+01  0.31886066901E+02  0.00000000000E+00 0.  1.
         11    1    3    3    0    0  0.19669490621E+01 -0.48483370006E+01  0.78031270915E+01  0.93948950474E+01  0.51100000000E-03 0. -1.
        -11    1    3    3    0    0 -0.27080958054E+02  0.29313889120E+01  0.14764616180E+02  0.30983305526E+02  0.51100000000E-03 0.  1.
         12    1    3    3    0    0 -0.60049497618E+01  0.59739509472E+01 -0.16922178972E+02  0.18923732526E+02  0.00000000000E+00 0. -1.
</event>
<event>
 7    1  0.1221195E-011  0.5930195E+02  0.7816164E-02  0.1266605E+00
        -11   -1    0    0    0    0  0.00000000000E+00  0.00000000000E+00  0.45593999997E+02  0.45594000000E+02  0.51100000000E-03 0. -1.
         11   -1    0    0    0    0 -0.00000000000E+00 -0.00000000000E+00 -0.45593999997E+02  0.45594000000E+02  0.51100000000E-03 0.  1.
    9900012    2    1    2    0    0 -0.12870404416E+02  0.25042588436E+02  0.14964676957E+02  0.59301951298E+02  0.50000013259E+02 0.  0.
        -12    1    1    2    0    0  0.12870404416E+02 -0.25042588436E+02 -0.14964676957E+02  0.31886048702E+02  0.00000000000E+00 0.  1.
         11    1    3    3    0    0 -0.68146095842E+01  0.17900241945E+00  0.64927000404E+01  0.94141436003E+01  0.51100000000E-03 0. -1.
        -11    1    3    3    0    0 -0.18779383063E+02  0.66388275160E+01  0.16894943068E+02  0.26118544380E+02  0.51100000000E-03 0.  1.
         12    1    3    3    0    0  0.12723588231E+02  0.18224758500E+02 -0.84229661508E+01  0.23769263317E+02  0.00000000000E+00 0. -1.
</event>
<event>
 7    1  0.1221195E-011  0.5930192E+02  0.7816164E-02  0.1266605E+00
        -11   -1    0    0    0    0  0.00000000000E+00  0.00000000000E+00  0.45593999997E+02  0.45594000000E+02  0.51100000000E-03 0. -1.
         11   -1    0    0    0    0 -0.00000000000E+00 -0.00000000000E+00 -0.45593999997E+02  0.45594000000E+02  0.51100000000E-03 0.  1.
    9900012    2    1    2    0    0  0.55551541460E+01 -0.31024131303E+02  0.48337762119E+01  0.59301923836E+02  0.49999963175E+02 0.  0.
        -12    1    1    2    0    0 -0.55551541460E+01  0.31024131303E+02 -0.48337762119E+01  0.31886076164E+02  0.00000000000E+00 0.  1.
         11    1    3    3    0    0  0.11852215389E+01  0.89790456788E+01  0.35991819284E+01  0.97458771906E+01  0.51100000000E-03 0. -1.
        -11    1    3    3    0    0  0.12565415670E+02 -0.88833888757E+01  0.69269377042E+01  0.16875625473E+02  0.51100000000E-03 0.  1.
         12    1    3    3    0    0 -0.81954830632E+01 -0.31119788106E+02 -0.56923434207E+01  0.32680421172E+02  0.00000000000E+00 0. -1.
</event>
<event>
 7    1  0.1221195E-011  0.5930196E+02  0.7816164E-02  0.1266605E+00
        -11   -1    0    0    0    0  0.00000000000E+00  0.00000000000E+00  0.45593999997E+02  0.45594000000E+02  0.51100000000E-03 0. -1.
         11   -1    0    0    0    0 -0.00000000000E+00 -0.00000000000E+00 -0.45593999997E+02  0.45594000000E+02  0.51100000000E-03 0.  1.
    9900012    2    1    2    0    0 -0.12338044435E+02  0.29341869075E+02  0.18833740858E+01  0.59301957297E+02  0.50000024201E+02 0.  0.
        -12    1    1    2    0    0  0.12338044435E+02 -0.29341869075E+02 -0.18833740858E+01  0.31886042703E+02  0.00000000000E+00 0.  1.
         11    1    3    3    0    0 -0.11339306579E+02 -0.85114184670E+01 -0.19044949095E+01  0.14305635922E+02  0.51100000000E-03 0. -1.
        -11    1    3    3    0    0 -0.12015968039E+02  0.14630796640E+02  0.37107476893E+01  0.19292831490E+02  0.51100000000E-03 0.  1.
        -12    1    3    3    0    0  0.11017230183E+02  0.23222490902E+02  0.77121306021E-01  0.25703489886E+02  0.00000000000E+00 0.  1.
</event>
<event>
 7    1  0.1221195E-011  0.5930197E+02  0.7816164E-02  0.1266605E+00
        -11   -1    0    0    0    0  0.00000000000E+00  0.00000000000E+00  0.45593999997E+02  0.45594000000E+02  0.51100000000E-03 0.  1.
         11   -1    0    0    0    0 -0.00000000000E+00 -0.00000000000E+00 -0.45593999997E+02  0.45594000000E+02  0.51100000000E-03 0. -1.
    9900012    2    1    2    0    0 -0.40477050833E+01  0.20052269778E+02 -0.24458977215E+02  0.59301968480E+02  0.50000044595E+02 0.  0.
        -12    1    1    2    0    0  0.40477050833E+01 -0.20052269778E+02  0.24458977215E+02  0.31886031520E+02  0.00000000000E+00 0.  1.
         11    1    3    3    0    0 -0.84080329051E+01  0.93841997423E+01 -0.13015458920E+02  0.18115197854E+02  0.51100000000E-03 0. -1.
        -11    1    3    3    0    0  0.94280320979E+00  0.18666065566E+02  0.76583062461E+01  0.20198032984E+02  0.51100000000E-03 0.  1.
         12    1    3    3    0    0  0.34175246119E+01 -0.79979955302E+01 -0.19101824542E+02  0.20988737642E+02  0.00000000000E+00 0. -1.
</event>
<event>
 7    1  0.1221195E-011  0.5930193E+02  0.7816164E-02  0.1266605E+00
        -11   -1    0    0    0    0  0.00000000000E+00  0.00000000000E+00  0.45593999997E+02  0.45594000000E+02  0.51100000000E-03 0.  1.
         11   -1    0    0    0    0 -0.00000000000E+00 -0.00000000000E+00 -0.45593999997E+02  0.45594000000E+02  0.51100000000E-03 0. -1.
    9900012    2    1    2    0    0  0.30502008209E+02  0.81409328847E+01 -0.44804025995E+01  0.59301932502E+02  0.49999978980E+02 0.  0.
        -12    1    1    2    0    0 -0.30502008209E+02 -0.81409328847E+01  0.44804025995E+01  0.31886067498E+02  0.00000000000E+00 0.  1.
         11    1    3    3    0    0 -0.17837589341E+01 -0.59933320531E+01 -0.99578511916E+01  0.11758427856E+02  0.51100000000E-03 0. -1.
        -11    1    3    3    0    0  0.13275251384E+01  0.13399842648E+02 -0.56984636631E+01  0.14621579749E+02  0.51100000000E-03 0.  1.
         12    1    3    3    0    0  0.30958242005E+02  0.73442228992E+00  0.11175912255E+02  0.32921924896E+02  0.00000000000E+00 0. -1.
</event>
<event>
 7    1  0.1221195E-011  0.5930198E+02  0.7816164E-02  0.1266605E+00
        -11   -1    0    0    0    0  0.00000000000E+00  0.00000000000E+00  0.45593999997E+02  0.45594000000E+02  0.51100000000E-03 0. -1.
         11   -1    0    0    0    0 -0.00000000000E+00 -0.00000000000E+00 -0.45593999997E+02  0.45594000000E+02  0.51100000000E-03 0.  1.
    9900012    2    1    2    0    0  0.30991493580E+02  0.65372797180E+01 -0.36755173448E+01  0.59301982247E+02  0.50000069703E+02 0.  0.
        -12    1    1    2    0    0 -0.30991493580E+02 -0.65372797180E+01  0.36755173448E+01  0.31886017753E+02  0.00000000000E+00 0.  1.
         11    1    3    3    0    0  0.23084555565E+01 -0.78081689089E+01  0.60600502990E+01  0.10149910278E+02  0.51100000000E-03 0. -1.
        -11    1    3    3    0    0 -0.50004132102E+01  0.61051085591E+01  0.70901580372E+01  0.10608808795E+02  0.51100000000E-03 0.  1.
         12    1    3    3    0    0  0.33683451233E+02  0.82403400679E+01 -0.16825725681E+02  0.38543263174E+02  0.00000000000E+00 0. -1.
</event>
<event>
 7    1  0.1221195E-011  0.5930195E+02  0.7816164E-02  0.1266605E+00
        -11   -1    0    0    0    0  0.00000000000E+00  0.00000000000E+00  0.45593999997E+02  0.45594000000E+02  0.51100000000E-03 0. -1.
         11   -1    0    0    0    0 -0.00000000000E+00 -0.00000000000E+00 -0.45593999997E+02  0.45594000000E+02  0.51100000000E-03 0.  1.
    9900012    2    1    2    0    0  0.91025188547E+01  0.29802262009E+02  0.67593851188E+01  0.59301953560E+02  0.50000017385E+02 0.  0.
        -12    1    1    2    0    0 -0.91025188547E+01 -0.29802262009E+02 -0.67593851188E+01  0.31886046440E+02  0.00000000000E+00 0.  1.
         11    1    3    3    0    0  0.20448516649E+02  0.19253388664E+02  0.43062515247E+01  0.28414408505E+02  0.51100000000E-03 0. -1.
        -11    1    3    3    0    0  0.70687985407E+01 -0.22431304380E+01 -0.26800961305E+01  0.78855857424E+01  0.51100000000E-03 0.  1.
        -12    1    3    3    0    0 -0.18414796335E+02  0.12792003783E+02  0.51332297246E+01  0.23001959313E+02  0.00000000000E+00 0.  1.
</event>
<event>
 7    1  0.1221195E-011  0.5930194E+02  0.7816164E-02  0.1266605E+00
        -11   -1    0    0    0    0  0.00000000000E+00  0.00000000000E+00  0.45593999997E+02  0.45594000000E+02  0.51100000000E-03 0.  1.
         11   -1    0    0    0    0 -0.00000000000E+00 -0.00000000000E+00 -0.45593999997E+02  0.45594000000E+02  0.51100000000E-03 0. -1.
    9900012    2    1    2    0    0  0.26667971279E+02  0.96627794352E+00 -0.17452970861E+02  0.59301943846E+02  0.49999999668E+02 0.  0.
        -12    1    1    2    0    0 -0.26667971279E+02 -0.96627794352E+00  0.17452970861E+02  0.31886056154E+02  0.00000000000E+00 0.  1.
         11    1    3    3    0    0  0.44842944194E+01 -0.97844127850E+01  0.41466748380E+01  0.11534233501E+02  0.51100000000E-03 0. -1.
        -11    1    3    3    0    0 -0.82241626466E+01  0.75088646998E+01 -0.16559996125E+01  0.11258873625E+02  0.51100000000E-03 0.  1.
         12    1    3    3    0    0  0.30407839506E+02  0.32418260287E+01 -0.19943646086E+02  0.36508836720E+02  0.00000000000E+00 0. -1.
</event>
<event>
 7    1  0.1221195E-011  0.5930194E+02  0.7816164E-02  0.1266605E+00
        -11   -1    0    0    0    0  0.00000000000E+00  0.00000000000E+00  0.45593999997E+02  0.45594000000E+02  0.51100000000E-03 0. -1.
         11   -1    0    0    0    0 -0.00000000000E+00 -0.00000000000E+00 -0.45593999997E+02  0.45594000000E+02  0.51100000000E-03 0.  1.
    9900012    2    1    2    0    0  0.29958504014E+02  0.93904780689E+01  0.55702753531E+01  0.59301937078E+02  0.49999987326E+02 0.  0.
        -12    1    1    2    0    0 -0.29958504014E+02 -0.93904780689E+01 -0.55702753531E+01  0.31886062922E+02  0.00000000000E+00 0.  1.
         11    1    3    3    0    0 -0.21473111828E+01 -0.69373509235E+00  0.86065064854E+01  0.88974247869E+01  0.51100000000E-03 0. -1.
        -11    1    3    3    0    0 -0.13178167988E+01  0.15616319548E+02 -0.50526712730E+01  0.16466194600E+02  0.51100000000E-03 0.  1.
        -12    1    3    3    0    0  0.33423631996E+02 -0.55321063870E+01  0.20164401406E+01  0.33938317691E+02  0.00000000000E+00 0.  1.
</event>
<event>
 7    1  0.1221195E-011  0.5930194E+02  0.7816164E-02  0.1266605E+00
        -11   -1    0    0    0    0  0.00000000000E+00  0.00000000000E+00  0.45593999997E+02  0.45594000000E+02  0.51100000000E-03 0. -1.
         11   -1    0    0    0    0 -0.00000000000E+00 -0.00000000000E+00 -0.45593999997E+02  0.45594000000E+02  0.51100000000E-03 0.  1.
    9900012    2    1    2    0    0  0.18496235710E+02  0.48961475630E+01  0.25507603557E+02  0.59301939792E+02  0.49999992274E+02 0.  0.
        -12    1    1    2    0    0 -0.18496235710E+02 -0.48961475630E+01 -0.25507603557E+02  0.31886060208E+02  0.00000000000E+00 0.  1.
         11    1    3    3    0    0  0.20955181578E+01  0.11056989703E+02  0.16183617960E+02  0.19711867192E+02  0.51100000000E-03 0.  1.
        -11    1    3    3    0    0  0.21616418877E+02  0.58170418737E+01  0.13169103159E+02  0.25971769665E+02  0.51100000000E-03 0. -1.
        -12    1    3    3    0    0 -0.52157013249E+01 -0.11977884014E+02 -0.38451175624E+01  0.13618302935E+02  0.00000000000E+00 0.  1.
</event>
<event>
 7    1  0.1221195E-011  0.5930193E+02  0.7816164E-02  0.1266605E+00
        -11   -1    0    0    0    0  0.00000000000E+00  0.00000000000E+00  0.45593999997E+02  0.45594000000E+02  0.51100000000E-03 0. -1.
         11   -1    0    0    0    0 -0.00000000000E+00 -0.00000000000E+00 -0.45593999997E+02  0.45594000000E+02  0.51100000000E-03 0.  1.
    9900012    2    1    2    0    0  0.52307628092E+01 -0.30102799632E+02  0.91204158421E+01  0.59301930778E+02  0.49999975836E+02 0.  0.
        -12    1    1    2    0    0 -0.52307628092E+01  0.30102799632E+02 -0.91204158421E+01  0.31886069222E+02  0.00000000000E+00 0.  1.
         11    1    3    3    0    0  0.82789620435E+01 -0.70006658759E+01  0.13217557103E+02  0.17095448261E+02  0.51100000000E-03 0. -1.
        -11    1    3    3    0    0  0.16917563524E+00 -0.31111040563E+02  0.26885120370E+01  0.31227448864E+02  0.51100000000E-03 0.  1.
        -12    1    3    3    0    0 -0.32173748696E+01  0.80089068065E+01 -0.67856532975E+01  0.10979033653E+02  0.00000000000E+00 0.  1.
</event>
<event>
 7    1  0.1221195E-011  0.5930200E+02  0.7816164E-02  0.1266605E+00
        -11   -1    0    0    0    0  0.00000000000E+00  0.00000000000E+00  0.45593999997E+02  0.45594000000E+02  0.51100000000E-03 0.  1.
         11   -1    0    0    0    0 -0.00000000000E+00 -0.00000000000E+00 -0.45593999997E+02  0.45594000000E+02  0.51100000000E-03 0. -1.
    9900012    2    1    2    0    0  0.16610952623E+00 -0.12415751305E+01 -0.31861388790E+02  0.59301996851E+02  0.50000096337E+02 0.  0.
        -12    1    1    2    0    0 -0.16610952623E+00  0.12415751305E+01  0.31861388790E+02  0.31886003149E+02  0.00000000000E+00 0.  1.
         11    1    3    3    0    0 -0.47972603165E+01 -0.10155757864E+02 -0.14222081573E+02  0.18122381987E+02  0.51100000000E-03 0. -1.
        -11    1    3    3    0    0  0.14920329270E+01  0.41735297767E+01  0.11044257948E+02  0.11900426334E+02  0.51100000000E-03 0.  1.
         12    1    3    3    0    0  0.34713369157E+01  0.47406529570E+01 -0.28683565165E+02  0.29279188531E+02  0.00000000000E+00 0. -1.
</event>
<event>
 7    1  0.1221195E-011  0.5930193E+02  0.7816164E-02  0.1266605E+00
        -11   -1    0    0    0    0  0.00000000000E+00  0.00000000000E+00  0.45593999997E+02  0.45594000000E+02  0.51100000000E-03 0.  1.
         11   -1    0    0    0    0 -0.00000000000E+00 -0.00000000000E+00 -0.45593999997E+02  0.45594000000E+02  0.51100000000E-03 0. -1.
    9900012    2    1    2    0    0 -0.20644013672E+02 -0.14967635416E+01  0.24255020095E+02  0.59301927784E+02  0.49999970375E+02 0.  0.
        -12    1    1    2    0    0  0.20644013672E+02  0.14967635416E+01 -0.24255020095E+02  0.31886072216E+02  0.00000000000E+00 0.  1.
         11    1    3    3    0    0  0.11323690159E+02 -0.97724043336E+01  0.15365692881E+00  0.14958257118E+02  0.51100000000E-03 0. -1.
        -11    1    3    3    0    0 -0.16408748364E+02 -0.26024044291E+01  0.17780646242E+02  0.24334562102E+02  0.51100000000E-03 0.  1.
        -12    1    3    3    0    0 -0.15558955468E+02  0.10878045221E+02  0.63207169238E+01  0.20009108564E+02  0.00000000000E+00 0.  1.
</event>
<event>
 7    1  0.1221195E-011  0.5930196E+02  0.7816164E-02  0.1266605E+00
        -11   -1    0    0    0    0  0.00000000000E+00  0.00000000000E+00  0.45593999997E+02  0.45594000000E+02  0.51100000000E-03 0. -1.
         11   -1    0    0    0    0 -0.00000000000E+00 -0.00000000000E+00 -0.45593999997E+02  0.45594000000E+02  0.51100000000E-03 0.  1.
    9900012    2    1    2    0    0 -0.19659640197E+02 -0.24185485160E+02  0.67290709646E+01  0.59301960090E+02  0.50000029294E+02 0.  0.
        -12    1    1    2    0    0  0.19659640197E+02  0.24185485160E+02 -0.67290709646E+01  0.31886039910E+02  0.00000000000E+00 0.  1.
         11    1    3    3    0    0  0.63698684037E+01 -0.81283613737E+01  0.13120617081E+02  0.16697187636E+02  0.51100000000E-03 0. -1.
        -11    1    3    3    0    0  0.83108645096E+00 -0.64255411391E+01  0.82840976935E+01  0.10516870184E+02  0.51100000000E-03 0.  1.
        -12    1    3    3    0    0 -0.26860595052E+02 -0.96315826468E+01 -0.14675643810E+02  0.32087902270E+02  0.00000000000E+00 0.  1.
</event>
<event>
 7    1  0.1221195E-011  0.5930195E+02  0.7816164E-02  0.1266605E+00
        -11   -1    0    0    0    0  0.00000000000E+00  0.00000000000E+00  0.45593999997E+02  0.45594000000E+02  0.51100000000E-03 0.  1.
         11   -1    0    0    0    0 -0.00000000000E+00 -0.00000000000E+00 -0.45593999997E+02  0.45594000000E+02  0.51100000000E-03 0. -1.
    9900012    2    1    2    0    0  0.80483438825E+00 -0.17075881308E+02 -0.26916287070E+02  0.59301953044E+02  0.50000016443E+02 0.  0.
        -12    1    1    2    0    0 -0.80483438825E+00  0.17075881308E+02  0.26916287070E+02  0.31886046956E+02  0.00000000000E+00 0.  1.
         11    1    3    3    0    0 -0.27449209353E+01 -0.15270237336E+02 -0.21540804173E+02  0.26546581398E+02  0.51100000000E-03 0. -1.
        -11    1    3    3    0    0  0.19568129889E+00  0.56152608068E+01 -0.17370773120E+02  0.18256867315E+02  0.51100000000E-03 0.  1.
        -12    1    3    3    0    0  0.33540740247E+01 -0.74209047796E+01  0.11995290223E+02  0.14498504331E+02  0.00000000000E+00 0.  1.
</event>
<event>
 7    1  0.1221195E-011  0.5930194E+02  0.7816164E-02  0.1266605E+00
        -11   -1    0    0    0    0  0.00000000000E+00  0.00000000000E+00  0.45593999997E+02  0.45594000000E+02  0.51100000000E-03 0.  1.
         11   -1    0    0    0    0 -0.00000000000E+00 -0.00000000000E+00 -0.45593999997E+02  0.45594000000E+02  0.51100000000E-03 0. -1.
    9900012    2    1    2    0    0 -0.18217334634E+02  0.28279981088E+01 -0.26016373752E+02  0.59301944150E+02  0.50000000223E+02 0.  0.
        -12    1    1    2    0    0  0.18217334634E+02 -0.28279981088E+01  0.26016373752E+02  0.31886055850E+02  0.00000000000E+00 0.  1.
         11    1    3    3    0    0 -0.93967924597E+01  0.26852750511E+01  0.60263722043E+01  0.11481618912E+02  0.51100000000E-03 0. -1.
        -11    1    3    3    0    0 -0.18302628913E+02 -0.43404459977E+01 -0.59986746444E+01  0.19743601352E+02  0.51100000000E-03 0.  1.
         12    1    3    3    0    0  0.94820867385E+01  0.44831690553E+01 -0.26044071312E+02  0.28076723887E+02  0.00000000000E+00 0. -1.
</event>
<event>
 7    1  0.1221195E-011  0.5930194E+02  0.7816164E-02  0.1266605E+00
        -11   -1    0    0    0    0  0.00000000000E+00  0.00000000000E+00  0.45593999997E+02  0.45594000000E+02  0.51100000000E-03 0.  1.
         11   -1    0    0    0    0 -0.00000000000E+00 -0.00000000000E+00 -0.45593999997E+02  0.45594000000E+02  0.51100000000E-03 0. -1.
    9900012    2    1    2    0    0  0.24579047463E+02 -0.14444664008E+02 -0.14280867897E+02  0.59301935954E+02  0.49999985275E+02 0.  0.
        -12    1    1    2    0    0 -0.24579047463E+02  0.14444664008E+02  0.14280867897E+02  0.31886064046E+02  0.00000000000E+00 0.  1.
         11    1    3    3    0    0 -0.25100146003E+01  0.14217571710E+02  0.28810026437E+00  0.14440308883E+02  0.51100000000E-03 0.  1.
        -11    1    3    3    0    0  0.13695253613E+02 -0.63625745179E+01 -0.10826225820E+02  0.18580890501E+02  0.51100000000E-03 0. -1.
        -12    1    3    3    0    0  0.13393808450E+02 -0.22299661200E+02 -0.37427423406E+01  0.26280736570E+02  0.00000000000E+00 0.  1.
</event>
<event>
 7    1  0.1221195E-011  0.5930199E+02  0.7816164E-02  0.1266605E+00
        -11   -1    0    0    0    0  0.00000000000E+00  0.00000000000E+00  0.45593999997E+02  0.45594000000E+02  0.51100000000E-03 0. -1.
         11   -1    0    0    0    0 -0.00000000000E+00 -0.00000000000E+00 -0.45593999997E+02  0.45594000000E+02  0.51100000000E-03 0.  1.
    9900012    2    1    2    0    0  0.55420832230E+01 -0.27120578598E+02  0.15826467575E+02  0.59301991378E+02  0.50000086356E+02 0.  0.
        -12    1    1    2    0    0 -0.55420832230E+01  0.27120578598E+02 -0.15826467575E+02  0.31886008622E+02  0.00000000000E+00 0.  1.
         11    1    3    3    0    0  0.12101303271E+01 -0.96658635262E+01  0.34201530779E+01  0.10324281111E+02  0.51100000000E-03 0. -1.
        -11    1    3    3    0    0 -0.45035035440E+01 -0.69644935536E+01 -0.15670557951E+02  0.17729977479E+02  0.51100000000E-03 0.  1.
         12    1    3    3    0    0  0.88354564399E+01 -0.10490221518E+02  0.28076872448E+02  0.31247732789E+02  0.00000000000E+00 0. -1.
</event>
<event>
 7    1  0.1221195E-011  0.5930194E+02  0.7816164E-02  0.1266605E+00
        -11   -1    0    0    0    0  0.00000000000E+00  0.00000000000E+00  0.45593999997E+02  0.45594000000E+02  0.51100000000E-03 0. -1.
         11   -1    0    0    0    0 -0.00000000000E+00 -0.00000000000E+00 -0.45593999997E+02  0.45594000000E+02  0.51100000000E-03 0.  1.
    9900012    2    1    2    0    0  0.18024058536E+02 -0.26106880471E+02  0.32070199532E+01  0.59301939236E+02  0.49999991262E+02 0.  0.
        -12    1    1    2    0    0 -0.18024058536E+02  0.26106880471E+02 -0.32070199532E+01  0.31886060764E+02  0.00000000000E+00 0.  1.
         11    1    3    3    0    0 -0.19774676807E+01 -0.12565544564E+02  0.13494640540E+02  0.18544773177E+02  0.51100000000E-03 0. -1.
        -11    1    3    3    0    0  0.94302471639E+01 -0.18936513916E+02 -0.16984924916E+02  0.27129482036E+02  0.51100000000E-03 0.  1.
         12    1    3    3    0    0  0.10571279053E+02  0.53951780093E+01  0.66973043298E+01  0.13627684024E+02  0.00000000000E+00 0. -1.
</event>
<event>
 7    1  0.1221195E-011  0.5930194E+02  0.7816164E-02  0.1266605E+00
        -11   -1    0    0    0    0  0.00000000000E+00  0.00000000000E+00  0.45593999997E+02  0.45594000000E+02  0.51100000000E-03 0.  1.
         11   -1    0    0    0    0 -0.00000000000E+00 -0.00000000000E+00 -0.45593999997E+02  0.45594000000E+02  0.51100000000E-03 0. -1.
    9900012    2    1    2    0    0 -0.43637800556E+01 -0.13795359843E+02 -0.28414197097E+02  0.59301935234E+02  0.49999983963E+02 0.  0.
        -12    1    1    2    0    0  0.43637800556E+01  0.13795359843E+02  0.28414197097E+02  0.31886064766E+02  0.00000000000E+00 0.  1.
         11    1    3    3    0    0  0.43036635590E+01 -0.11783921757E+02  0.41955655992E+01  0.13228193489E+02  0.51100000000E-03 0. -1.
        -11    1    3    3    0    0  0.54552540842E+01  0.11308298912E+02 -0.86987334614E+01  0.15274337482E+02  0.51100000000E-03 0.  1.
        -12    1    3    3    0    0 -0.14122697699E+02 -0.13319736997E+02 -0.23911029235E+02  0.30799404264E+02  0.00000000000E+00 0.  1.
</event>
<event>
 7    1  0.1221195E-011  0.5930195E+02  0.7816164E-02  0.1266605E+00
        -11   -1    0    0    0    0  0.00000000000E+00  0.00000000000E+00  0.45593999997E+02  0.45594000000E+02  0.51100000000E-03 0. -1.
         11   -1    0    0    0    0 -0.00000000000E+00 -0.00000000000E+00 -0.45593999997E+02  0.45594000000E+02  0.51100000000E-03 0.  1.
    9900012    2    1    2    0    0 -0.27880127247E+01 -0.27132354319E+02  0.16516136453E+02  0.59301946164E+02  0.50000003897E+02 0.  0.
        -12    1    1    2    0    0  0.27880127247E+01  0.27132354319E+02 -0.16516136453E+02  0.31886053836E+02  0.00000000000E+00 0.  1.
         11    1    3    3    0    0  0.68458679136E+01 -0.45500561339E+01 -0.42694242636E+01  0.92626617187E+01  0.51100000000E-03 0. -1.
        -11    1    3    3    0    0 -0.10704551817E+02  0.39601802970E+00 -0.78706112449E+01  0.13292508474E+02  0.51100000000E-03 0.  1.
         12    1    3    3    0    0  0.10706711790E+01 -0.22978316215E+02  0.28656171962E+02  0.36746775972E+02  0.00000000000E+00 0. -1.
</event>
<event>
 7    1  0.1221195E-011  0.5930196E+02  0.7816164E-02  0.1266605E+00
        -11   -1    0    0    0    0  0.00000000000E+00  0.00000000000E+00  0.45593999997E+02  0.45594000000E+02  0.51100000000E-03 0.  1.
         11   -1    0    0    0    0 -0.00000000000E+00 -0.00000000000E+00 -0.45593999997E+02  0.45594000000E+02  0.51100000000E-03 0. -1.
    9900012    2    1    2    0    0  0.13061482657E+02  0.28142447319E+02 -0.73566383239E+01  0.59301956066E+02  0.50000021955E+02 0.  0.
        -12    1    1    2    0    0 -0.13061482657E+02 -0.28142447319E+02  0.73566383239E+01  0.31886043934E+02  0.00000000000E+00 0.  1.
         11    1    3    3    0    0 -0.33275566142E+01  0.85303471081E+00  0.85473826186E+01  0.92118429822E+01  0.51100000000E-03 0. -1.
        -11    1    3    3    0    0  0.14804536367E+02  0.30348800919E+02  0.51091646442E-01  0.33767241890E+02  0.51100000000E-03 0.  1.
         12    1    3    3    0    0  0.15845029042E+01 -0.30593883101E+01 -0.15955112589E+02  0.16322871194E+02  0.00000000000E+00 0. -1.
</event>
<event>
 7    1  0.1221195E-011  0.5930195E+02  0.7816164E-02  0.1266605E+00
        -11   -1    0    0    0    0  0.00000000000E+00  0.00000000000E+00  0.45593999997E+02  0.45594000000E+02  0.51100000000E-03 0. -1.
         11   -1    0    0    0    0 -0.00000000000E+00 -0.00000000000E+00 -0.45593999997E+02  0.45594000000E+02  0.51100000000E-03 0.  1.
    9900012    2    1    2    0    0  0.23667999065E+02 -0.59973614010E+01  0.20507993693E+02  0.59301947738E+02  0.50000006767E+02 0.  0.
        -12    1    1    2    0    0 -0.23667999065E+02  0.59973614010E+01 -0.20507993693E+02  0.31886052262E+02  0.00000000000E+00 0.  1.
         11    1    3    3    0    0  0.16213609029E+02  0.26899483176E+01  0.14133935037E+02  0.21676832324E+02  0.51100000000E-03 0. -1.
        -11    1    3    3    0    0  0.19376935178E+02 -0.13972703398E+02  0.24973392439E+01  0.24019549553E+02  0.51100000000E-03 0.  1.
        -12    1    3    3    0    0 -0.11922545143E+02  0.52853936790E+01  0.38767194123E+01  0.13605565862E+02  0.00000000000E+00 0.  1.
</event>
<event>
 7    1  0.1221195E-011  0.5930196E+02  0.7816164E-02  0.1266605E+00
        -11   -1    0    0    0    0  0.00000000000E+00  0.00000000000E+00  0.45593999997E+02  0.45594000000E+02  0.51100000000E-03 0. -1.
         11   -1    0    0    0    0 -0.00000000000E+00 -0.00000000000E+00 -0.45593999997E+02  0.45594000000E+02  0.51100000000E-03 0.  1.
    9900012    2    1    2    0    0  0.20014970979E+01 -0.30504172389E+01  0.31676627137E+02  0.59301956929E+02  0.50000023528E+02 0.  0.
        -12    1    1    2    0    0 -0.20014970979E+01  0.30504172389E+01 -0.31676627137E+02  0.31886043071E+02  0.00000000000E+00 0.  1.
         11    1    3    3    0    0 -0.66252892157E+01  0.91000009786E+01  0.20729602239E+02  0.23588575291E+02  0.51100000000E-03 0. -1.
        -11    1    3    3    0    0 -0.79273207810E+01  0.42808014599E+01 -0.17190521019E+01  0.91718491208E+01  0.51100000000E-03 0.  1.
         12    1    3    3    0    0  0.16554107095E+02 -0.16431219677E+02  0.12666077000E+02  0.26541532517E+02  0.00000000000E+00 0. -1.
</event>
<event>
 7    1  0.1221195E-011  0.5930195E+02  0.7816164E-02  0.1266605E+00
        -11   -1    0    0    0    0  0.00000000000E+00  0.00000000000E+00  0.45593999997E+02  0.45594000000E+02  0.51100000000E-03 0.  1.
         11   -1    0    0    0    0 -0.00000000000E+00 -0.00000000000E+00 -0.45593999997E+02  0.45594000000E+02  0.51100000000E-03 0. -1.
    9900012    2    1    2    0    0  0.19290136433E+02  0.25050893565E+02  0.41308415273E+01  0.59301945309E+02  0.50000002337E+02 0.  0.
        -12    1    1    2    0    0 -0.19290136433E+02 -0.25050893565E+02 -0.41308415273E+01  0.31886054691E+02  0.00000000000E+00 0.  1.
         11    1    3    3    0    0  0.74294401215E+01 -0.99099550586E+01  0.10262378230E+02  0.16084781534E+02  0.51100000000E-03 0. -1.
        -11    1    3    3    0    0 -0.42957786474E+01  0.32249022962E+01  0.33932670125E+01  0.63535793287E+01  0.51100000000E-03 0.  1.
         12    1    3    3    0    0  0.16156474959E+02  0.31735946328E+02 -0.95248037154E+01  0.36863584447E+02  0.00000000000E+00 0. -1.
</event>
<event>
 7    1  0.1221195E-011  0.5930199E+02  0.7816164E-02  0.1266605E+00
        -11   -1    0    0    0    0  0.00000000000E+00  0.00000000000E+00  0.45593999997E+02  0.45594000000E+02  0.51100000000E-03 0.  1.
         11   -1    0    0    0    0 -0.00000000000E+00 -0.00000000000E+00 -0.45593999997E+02  0.45594000000E+02  0.51100000000E-03 0. -1.
    9900012    2    1    2    0    0 -0.18893856130E+02 -0.38881380195E+00 -0.25682453908E+02  0.59301993440E+02  0.50000090116E+02 0.  0.
        -12    1    1    2    0    0  0.18893856130E+02  0.38881380195E+00  0.25682453908E+02  0.31886006560E+02  0.00000000000E+00 0.  1.
         11    1    3    3    0    0 -0.17491247508E+01 -0.43425763983E+00 -0.17152702102E+02  0.17247121695E+02  0.51100000000E-03 0. -1.
        -11    1    3    3    0    0 -0.18177806124E+02 -0.10042249369E+02 -0.18515769450E+02  0.27822888536E+02  0.51100000000E-03 0.  1.
        -12    1    3    3    0    0  0.10330747451E+01  0.10087693207E+02  0.99860176449E+01  0.14231983209E+02  0.00000000000E+00 0.  1.
</event>
<event>
 7    1  0.1221195E-011  0.5930209E+02  0.7816164E-02  0.1266604E+00
        -11   -1    0    0    0    0  0.00000000000E+00  0.00000000000E+00  0.45593999997E+02  0.45594000000E+02  0.51100000000E-03 0.  1.
         11   -1    0    0    0    0 -0.00000000000E+00 -0.00000000000E+00 -0.45593999997E+02  0.45594000000E+02  0.51100000000E-03 0. -1.
    9900012    2    1    2    0    0  0.23899052482E+02 -0.63760373710E+01 -0.20121949900E+02  0.59302087282E+02  0.50000261261E+02 0.  0.
        -12    1    1    2    0    0 -0.23899052482E+02  0.63760373710E+01  0.20121949900E+02  0.31885912718E+02  0.00000000000E+00 0.  1.
         11    1    3    3    0    0  0.30175154480E+00 -0.45178332684E+01 -0.11112932505E+02  0.11999964190E+02  0.51100000000E-03 0. -1.
        -11    1    3    3    0    0  0.21953099251E+01  0.98982059864E+01 -0.18506473603E+02  0.21101740044E+02  0.51100000000E-03 0.  1.
        -12    1    3    3    0    0  0.21401991012E+02 -0.11756410089E+02  0.94974562083E+01  0.26200383048E+02  0.00000000000E+00 0.  1.
</event>
<event>
 7    1  0.1221195E-011  0.5930194E+02  0.7816164E-02  0.1266605E+00
        -11   -1    0    0    0    0  0.00000000000E+00  0.00000000000E+00  0.45593999997E+02  0.45594000000E+02  0.51100000000E-03 0. -1.
         11   -1    0    0    0    0 -0.00000000000E+00 -0.00000000000E+00 -0.45593999997E+02  0.45594000000E+02  0.51100000000E-03 0.  1.
    9900012    2    1    2    0    0  0.86496782496E+01 -0.12098582173E+02  0.28205107880E+02  0.59301941370E+02  0.49999995153E+02 0.  0.
        -12    1    1    2    0    0 -0.86496782496E+01  0.12098582173E+02 -0.28205107880E+02  0.31886058630E+02  0.00000000000E+00 0.  1.
         11    1    3    3    0    0  0.84076064581E+01  0.11379151525E+02 -0.29715724787E+01  0.14456942244E+02  0.51100000000E-03 0. -1.
        -11    1    3    3    0    0  0.14515997945E+01  0.25909952793E+01  0.12256638579E+02  0.12611327765E+02  0.51100000000E-03 0.  1.
         12    1    3    3    0    0 -0.12095280030E+01 -0.26068728977E+02  0.18920041780E+02  0.32233671361E+02  0.00000000000E+00 0. -1.
</event>
<event>
 7    1  0.1221195E-011  0.5930194E+02  0.7816164E-02  0.1266605E+00
        -11   -1    0    0    0    0  0.00000000000E+00  0.00000000000E+00  0.45593999997E+02  0.45594000000E+02  0.51100000000E-03 0. -1.
         11   -1    0    0    0    0 -0.00000000000E+00 -0.00000000000E+00 -0.45593999997E+02  0.45594000000E+02  0.51100000000E-03 0.  1.
    9900012    2    1    2    0    0 -0.40126968227E+01  0.27502498191E+02  0.15627909671E+02  0.59301941867E+02  0.49999996060E+02 0.  0.
        -12    1    1    2    0    0  0.40126968227E+01 -0.27502498191E+02 -0.15627909671E+02  0.31886058133E+02  0.00000000000E+00 0.  1.
         11    1    3    3    0    0  0.53156530358E+01  0.23884422254E+01 -0.47447615216E+01  0.75148909253E+01  0.51100000000E-03 0. -1.
        -11    1    3    3    0    0  0.45918990193E+01  0.29603961831E+02  0.46564073232E+01  0.30317688271E+02  0.51100000000E-03 0.  1.
         12    1    3    3    0    0 -0.13920248878E+02 -0.44899058646E+01  0.15716263869E+02  0.21469362671E+02  0.00000000000E+00 0. -1.
</event>
<event>
 7    1  0.1221195E-011  0.5930187E+02  0.7816164E-02  0.1266605E+00
        -11   -1    0    0    0    0  0.00000000000E+00  0.00000000000E+00  0.45593999997E+02  0.45594000000E+02  0.51100000000E-03 0.  1.
         11   -1    0    0    0    0 -0.00000000000E+00 -0.00000000000E+00 -0.45593999997E+02  0.45594000000E+02  0.51100000000E-03 0. -1.
    9900012    2    1    2    0    0  0.29336588186E+02  0.11902681617E+02  0.37968342022E+01  0.59301871573E+02  0.49999867860E+02 0.  0.
        -12    1    1    2    0    0 -0.29336588186E+02 -0.11902681617E+02 -0.37968342022E+01  0.31886128427E+02  0.00000000000E+00 0.  1.
         11    1    3    3    0    0 -0.62158160923E+01  0.48164739868E+01 -0.14293545950E+01  0.79923617397E+01  0.51100000000E-03 0. -1.
        -11    1    3    3    0    0  0.10770835434E+02  0.18274768989E+02 -0.57644620381E+01  0.21981972168E+02  0.51100000000E-03 0.  1.
         12    1    3    3    0    0  0.24781568845E+02 -0.11188561359E+02  0.10990650835E+02  0.29327537665E+02  0.00000000000E+00 0. -1.
</event>
<event>
 7    1  0.1221195E-011  0.5930194E+02  0.7816164E-02  0.1266605E+00
        -11   -1    0    0    0    0  0.00000000000E+00  0.00000000000E+00  0.45593999997E+02  0.45594000000E+02  0.51100000000E-03 0.  1.
         11   -1    0    0    0    0 -0.00000000000E+00 -0.00000000000E+00 -0.45593999997E+02  0.45594000000E+02  0.51100000000E-03 0. -1.
    9900012    2    1    2    0    0 -0.84697123650E+01 -0.29983212834E+02 -0.67817199108E+01  0.59301940282E+02  0.49999993169E+02 0.  0.
        -12    1    1    2    0    0  0.84697123650E+01  0.29983212834E+02  0.67817199108E+01  0.31886059718E+02  0.00000000000E+00 0.  1.
         11    1    3    3    0    0  0.14554678989E+02  0.12646370007E+00 -0.13107130587E+02  0.19587024941E+02  0.51100000000E-03 0. -1.
        -11    1    3    3    0    0 -0.34125403159E+01 -0.40941498375E+01 -0.26065340308E+01  0.59330863987E+01  0.51100000000E-03 0.  1.
        -12    1    3    3    0    0 -0.19611851038E+02 -0.26015526697E+02  0.89319447072E+01  0.33781828942E+02  0.00000000000E+00 0.  1.
</event>
<event>
 7    1  0.1221195E-011  0.5930194E+02  0.7816164E-02  0.1266605E+00
        -11   -1    0    0    0    0  0.00000000000E+00  0.00000000000E+00  0.45593999997E+02  0.45594000000E+02  0.51100000000E-03 0.  1.
         11   -1    0    0    0    0 -0.00000000000E+00 -0.00000000000E+00 -0.45593999997E+02  0.45594000000E+02  0.51100000000E-03 0. -1.
    9900012    2    1    2    0    0 -0.20639864917E+02 -0.21903150389E+02 -0.10534166230E+02  0.59301942249E+02  0.49999996755E+02 0.  0.
        -12    1    1    2    0    0  0.20639864917E+02  0.21903150389E+02  0.10534166230E+02  0.31886057751E+02  0.00000000000E+00 0.  1.
         11    1    3    3    0    0 -0.86782242719E+01 -0.10105931133E+02 -0.10064787125E+02  0.16695549129E+02  0.51100000000E-03 0. -1.
        -11    1    3    3    0    0 -0.19705891741E+02 -0.15790813898E+02  0.11544046820E+02  0.27765752107E+02  0.51100000000E-03 0.  1.
        -12    1    3    3    0    0  0.77442510960E+01  0.39935946422E+01 -0.12013425925E+02  0.14840641012E+02  0.00000000000E+00 0.  1.
</event>
<event>
 7    1  0.1221195E-011  0.5930168E+02  0.7816164E-02  0.1266606E+00
        -11   -1    0    0    0    0  0.00000000000E+00  0.00000000000E+00  0.45593999997E+02  0.45594000000E+02  0.51100000000E-03 0.  1.
         11   -1    0    0    0    0 -0.00000000000E+00 -0.00000000000E+00 -0.45593999997E+02  0.45594000000E+02  0.51100000000E-03 0. -1.
    9900012    2    1    2    0    0  0.23719004302E+02  0.20669453646E+02  0.51884303284E+01  0.59301681800E+02  0.49999521757E+02 0.  0.
        -12    1    1    2    0    0 -0.23719004302E+02 -0.20669453646E+02 -0.51884303284E+01  0.31886318200E+02  0.00000000000E+00 0.  1.
         11    1    3    3    0    0  0.32184312477E+02  0.19414510187E+02 -0.26105506978E+01  0.37677156881E+02  0.51100000000E-03 0. -1.
        -11    1    3    3    0    0 -0.98106680794E+00  0.85612861942E+01  0.70583629168E+01  0.11139057442E+02  0.51100000000E-03 0.  1.
        -12    1    3    3    0    0 -0.74842413672E+01 -0.73063427352E+01  0.74061810943E+00  0.10485467476E+02  0.00000000000E+00 0.  1.
</event>
<event>
 7    1  0.1221195E-011  0.5930195E+02  0.7816164E-02  0.1266605E+00
        -11   -1    0    0    0    0  0.00000000000E+00  0.00000000000E+00  0.45593999997E+02  0.45594000000E+02  0.51100000000E-03 0.  1.
         11   -1    0    0    0    0 -0.00000000000E+00 -0.00000000000E+00 -0.45593999997E+02  0.45594000000E+02  0.51100000000E-03 0. -1.
    9900012    2    1    2    0    0  0.17067016512E+02 -0.49732873785E+01 -0.26470802675E+02  0.59301952358E+02  0.50000015193E+02 0.  0.
        -12    1    1    2    0    0 -0.17067016512E+02  0.49732873785E+01  0.26470802675E+02  0.31886047642E+02  0.00000000000E+00 0.  1.
         11    1    3    3    0    0  0.55442345528E+01  0.21311645613E+01  0.66549357789E+01  0.89201216161E+01  0.51100000000E-03 0. -1.
        -11    1    3    3    0    0  0.11948117304E+02  0.12139148376E+02 -0.82413165815E+01  0.18921832090E+02  0.51100000000E-03 0.  1.
         12    1    3    3    0    0 -0.42533534516E+00 -0.19243600315E+02 -0.24884421872E+02  0.31459998652E+02  0.00000000000E+00 0. -1.
</event>
<event>
 7    1  0.1221195E-011  0.5930195E+02  0.7816164E-02  0.1266605E+00
        -11   -1    0    0    0    0  0.00000000000E+00  0.00000000000E+00  0.45593999997E+02  0.45594000000E+02  0.51100000000E-03 0.  1.
         11   -1    0    0    0    0 -0.00000000000E+00 -0.00000000000E+00 -0.45593999997E+02  0.45594000000E+02  0.51100000000E-03 0. -1.
    9900012    2    1    2    0    0 -0.14971017682E+02 -0.27237729267E+02 -0.71200164137E+01  0.59301954466E+02  0.50000019037E+02 0.  0.
        -12    1    1    2    0    0  0.14971017682E+02  0.27237729267E+02  0.71200164137E+01  0.31886045534E+02  0.00000000000E+00 0.  1.
         11    1    3    3    0    0 -0.25750358674E+02 -0.15936535187E+02  0.75009990260E+01  0.31198062637E+02  0.51100000000E-03 0.  1.
        -11    1    3    3    0    0 -0.15593961875E+01 -0.11021193309E+02 -0.98779931129E+01  0.14881974554E+02  0.51100000000E-03 0. -1.
        -12    1    3    3    0    0  0.12338737180E+02 -0.28000077094E+00 -0.47430223268E+01  0.13221917275E+02  0.00000000000E+00 0.  1.
</event>
<event>
 7    1  0.1221195E-011  0.5930196E+02  0.7816164E-02  0.1266605E+00
        -11   -1    0    0    0    0  0.00000000000E+00  0.00000000000E+00  0.45593999997E+02  0.45594000000E+02  0.51100000000E-03 0. -1.
         11   -1    0    0    0    0 -0.00000000000E+00 -0.00000000000E+00 -0.45593999997E+02  0.45594000000E+02  0.51100000000E-03 0.  1.
    9900012    2    1    2    0    0 -0.14847882989E+02 -0.42599525893E+01  0.27894668426E+02  0.59301963058E+02  0.50000034706E+02 0.  0.
        -12    1    1    2    0    0  0.14847882989E+02  0.42599525893E+01 -0.27894668426E+02  0.31886036942E+02  0.00000000000E+00 0.  1.
         11    1    3    3    0    0 -0.11186003104E+02  0.19799531077E+00  0.13479099645E+02  0.17517191416E+02  0.51100000000E-03 0. -1.
        -11    1    3    3    0    0  0.82950140878E+01  0.13865702640E+02  0.11515413432E+01  0.16198488082E+02  0.51100000000E-03 0.  1.
         12    1    3    3    0    0 -0.11956893972E+02 -0.18323650540E+02  0.13264027438E+02  0.25586283560E+02  0.00000000000E+00 0. -1.
</event>
<event>
 7    1  0.1221195E-011  0.5930194E+02  0.7816164E-02  0.1266605E+00
        -11   -1    0    0    0    0  0.00000000000E+00  0.00000000000E+00  0.45593999997E+02  0.45594000000E+02  0.51100000000E-03 0. -1.
         11   -1    0    0    0    0 -0.00000000000E+00 -0.00000000000E+00 -0.45593999997E+02  0.45594000000E+02  0.51100000000E-03 0.  1.
    9900012    2    1    2    0    0  0.28787842197E+02 -0.13105651080E+02  0.40277519229E+01  0.59301941382E+02  0.49999995175E+02 0.  0.
        -12    1    1    2    0    0 -0.28787842197E+02  0.13105651080E+02 -0.40277519229E+01  0.31886058618E+02  0.00000000000E+00 0.  1.
         11    1    3    3    0    0  0.14632476476E+02 -0.18026866522E+02  0.39262588409E+00  0.23221357406E+02  0.51100000000E-03 0. -1.
        -11    1    3    3    0    0  0.19383407753E+02  0.48564130736E+01 -0.93652013107E+01  0.22068263183E+02  0.51100000000E-03 0.  1.
        -12    1    3    3    0    0 -0.52280420312E+01  0.64802368719E-01  0.13000327350E+02  0.14012320794E+02  0.00000000000E+00 0.  1.
</event>
<event>
 7    1  0.1221195E-011  0.5930191E+02  0.7816164E-02  0.1266605E+00
        -11   -1    0    0    0    0  0.00000000000E+00  0.00000000000E+00  0.45593999997E+02  0.45594000000E+02  0.51100000000E-03 0.  1.
         11   -1    0    0    0    0 -0.00000000000E+00 -0.00000000000E+00 -0.45593999997E+02  0.45594000000E+02  0.51100000000E-03 0. -1.
    9900012    2    1    2    0    0  0.10791384556E+02 -0.26455766849E+02  0.14154906193E+02  0.59301906643E+02  0.49999931820E+02 0.  0.
        -12    1    1    2    0    0 -0.10791384556E+02  0.26455766849E+02 -0.14154906193E+02  0.31886093357E+02  0.00000000000E+00 0.  1.
         11    1    3    3    0    0 -0.59175917669E+01 -0.86375327020E+01 -0.15844706227E+02  0.18991566001E+02  0.51100000000E-03 0. -1.
        -11    1    3    3    0    0  0.61825045815E+01 -0.45535377943E+01  0.26123512616E+01  0.81106379971E+01  0.51100000000E-03 0.  1.
        -12    1    3    3    0    0  0.10526471741E+02 -0.13264696353E+02  0.27387261159E+02  0.32199702645E+02  0.00000000000E+00 0.  1.
</event>
<event>
 7    1  0.1221195E-011  0.5930190E+02  0.7816164E-02  0.1266605E+00
        -11   -1    0    0    0    0  0.00000000000E+00  0.00000000000E+00  0.45593999997E+02  0.45594000000E+02  0.51100000000E-03 0. -1.
         11   -1    0    0    0    0 -0.00000000000E+00 -0.00000000000E+00 -0.45593999997E+02  0.45594000000E+02  0.51100000000E-03 0.  1.
    9900012    2    1    2    0    0 -0.20081946491E+02  0.22193726082E+02  0.10994415875E+02  0.59301902203E+02  0.49999923722E+02 0.  0.
        -12    1    1    2    0    0  0.20081946491E+02 -0.22193726082E+02 -0.10994415875E+02  0.31886097797E+02  0.00000000000E+00 0.  1.
         11    1    3    3    0    0 -0.74376032439E+01 -0.52074524813E+01  0.11920131695E+02  0.14984159745E+02  0.51100000000E-03 0. -1.
        -11    1    3    3    0    0  0.60298251666E+01  0.14414367029E+01  0.89153712627E+01  0.10859114896E+02  0.51100000000E-03 0.  1.
        -12    1    3    3    0    0 -0.18674168414E+02  0.25959741860E+02 -0.98410870830E+01  0.33458627563E+02  0.00000000000E+00 0.  1.
</event>
<event>
 7    1  0.1221195E-011  0.5930195E+02  0.7816164E-02  0.1266605E+00
        -11   -1    0    0    0    0  0.00000000000E+00  0.00000000000E+00  0.45593999997E+02  0.45594000000E+02  0.51100000000E-03 0. -1.
         11   -1    0    0    0    0 -0.00000000000E+00 -0.00000000000E+00 -0.45593999997E+02  0.45594000000E+02  0.51100000000E-03 0.  1.
    9900012    2    1    2    0    0 -0.77664078650E+01 -0.17897192407E+02  0.25220900419E+02  0.59301946542E+02  0.50000004585E+02 0.  0.
        -12    1    1    2    0    0  0.77664078650E+01  0.17897192407E+02 -0.25220900419E+02  0.31886053458E+02  0.00000000000E+00 0.  1.
         11    1    3    3    0    0  0.13812691076E+01 -0.27677674140E+01  0.74652977502E+01  0.80807865685E+01  0.51100000000E-03 0. -1.
        -11    1    3    3    0    0  0.70853740050E+01 -0.25470596077E+01  0.27482938124E+02  0.28495647486E+02  0.51100000000E-03 0.  1.
        -12    1    3    3    0    0 -0.16233050978E+02 -0.12582365386E+02 -0.97273354557E+01  0.22725512487E+02  0.00000000000E+00 0.  1.
</event>
<event>
 7    1  0.1221195E-011  0.5930193E+02  0.7816164E-02  0.1266605E+00
        -11   -1    0    0    0    0  0.00000000000E+00  0.00000000000E+00  0.45593999997E+02  0.45594000000E+02  0.51100000000E-03 0.  1.
         11   -1    0    0    0    0 -0.00000000000E+00 -0.00000000000E+00 -0.45593999997E+02  0.45594000000E+02  0.51100000000E-03 0. -1.
    9900012    2    1    2    0    0  0.16418779831E+02  0.27260963380E+02  0.19963169311E+01  0.59301925659E+02  0.49999966500E+02 0.  0.
        -12    1    1    2    0    0 -0.16418779831E+02 -0.27260963380E+02 -0.19963169311E+01  0.31886074341E+02  0.00000000000E+00 0.  1.
         11    1    3    3    0    0 -0.57668424709E+01  0.22546386588E+01  0.22948454586E+01  0.66034978236E+01  0.51100000000E-03 0. -1.
        -11    1    3    3    0    0  0.14077741045E+02  0.28271730700E+01  0.17855073760E+02  0.22912428063E+02  0.51100000000E-03 0.  1.
         12    1    3    3    0    0  0.81078812573E+01  0.22179151651E+02 -0.18153602287E+02  0.29785999773E+02  0.00000000000E+00 0. -1.
</event>
<event>
 7    1  0.1221195E-011  0.5930184E+02  0.7816164E-02  0.1266605E+00
        -11   -1    0    0    0    0  0.00000000000E+00  0.00000000000E+00  0.45593999997E+02  0.45594000000E+02  0.51100000000E-03 0. -1.
         11   -1    0    0    0    0 -0.00000000000E+00 -0.00000000000E+00 -0.45593999997E+02  0.45594000000E+02  0.51100000000E-03 0.  1.
    9900012    2    1    2    0    0 -0.12365754084E+02  0.14202981695E+02  0.25731116643E+02  0.59301844277E+02  0.49999818079E+02 0.  0.
        -12    1    1    2    0    0  0.12365754084E+02 -0.14202981695E+02 -0.25731116643E+02  0.31886155723E+02  0.00000000000E+00 0.  1.
         11    1    3    3    0    0 -0.15050262827E+02  0.23425157878E+02  0.28025399392E+02  0.39505334376E+02  0.51100000000E-03 0. -1.
        -11    1    3    3    0    0  0.37871225604E+01  0.43100987206E+01 -0.23992702732E+01  0.62189827443E+01  0.51100000000E-03 0.  1.
        -12    1    3    3    0    0 -0.11026138172E+01 -0.13532274905E+02  0.10498752439E+00  0.13577527157E+02  0.00000000000E+00 0.  1.
</event>
<event>
 7    1  0.1221195E-011  0.5930195E+02  0.7816164E-02  0.1266605E+00
        -11   -1    0    0    0    0  0.00000000000E+00  0.00000000000E+00  0.45593999997E+02  0.45594000000E+02  0.51100000000E-03 0.  1.
         11   -1    0    0    0    0 -0.00000000000E+00 -0.00000000000E+00 -0.45593999997E+02  0.45594000000E+02  0.51100000000E-03 0. -1.
    9900012    2    1    2    0    0  0.91584384016E+01  0.22499836252E+02  0.20654314559E+02  0.59301947639E+02  0.50000006585E+02 0.  0.
        -12    1    1    2    0    0 -0.91584384016E+01 -0.22499836252E+02 -0.20654314559E+02  0.31886052361E+02  0.00000000000E+00 0.  1.
         11    1    3    3    0    0  0.10568656226E+02  0.24542310262E+01 -0.29317719974E+01  0.11238996026E+02  0.51100000000E-03 0. -1.
        -11    1    3    3    0    0  0.62004155515E+01 -0.80925897112E+01  0.14118773860E+02  0.17414790748E+02  0.51100000000E-03 0.  1.
         12    1    3    3    0    0 -0.76106333763E+01  0.28138194937E+02  0.94673126963E+01  0.30648160865E+02  0.00000000000E+00 0. -1.
</event>
<event>
 7    1  0.1221195E-011  0.5930194E+02  0.7816164E-02  0.1266605E+00
        -11   -1    0    0    0    0  0.00000000000E+00  0.00000000000E+00  0.45593999997E+02  0.45594000000E+02  0.51100000000E-03 0. -1.
         11   -1    0    0    0    0 -0.00000000000E+00 -0.00000000000E+00 -0.45593999997E+02  0.45594000000E+02  0.51100000000E-03 0.  1.
    9900012    2    1    2    0    0  0.20564361856E+02  0.12883840946E+02  0.20684163424E+02  0.59301937957E+02  0.49999988928E+02 0.  0.
        -12    1    1    2    0    0 -0.20564361856E+02 -0.12883840946E+02 -0.20684163424E+02  0.31886062043E+02  0.00000000000E+00 0.  1.
         11    1    3    3    0    0 -0.35064387173E+00  0.16668744112E+02  0.21439186238E+02  0.27158952266E+02  0.51100000000E-03 0. -1.
        -11    1    3    3    0    0 -0.38819749846E+01 -0.53585252053E+00  0.51255446063E+01  0.64519822905E+01  0.51100000000E-03 0.  1.
         12    1    3    3    0    0  0.24796980712E+02 -0.32490506448E+01 -0.58805674202E+01  0.25691003401E+02  0.00000000000E+00 0. -1.
</event>
<event>
 7    1  0.1221195E-011  0.5930194E+02  0.7816164E-02  0.1266605E+00
        -11   -1    0    0    0    0  0.00000000000E+00  0.00000000000E+00  0.45593999997E+02  0.45594000000E+02  0.51100000000E-03 0. -1.
         11   -1    0    0    0    0 -0.00000000000E+00 -0.00000000000E+00 -0.45593999997E+02  0.45594000000E+02  0.51100000000E-03 0.  1.
    9900012    2    1    2    0    0 -0.92007066499E+01  0.21809455534E+02  0.21363882501E+02  0.59301939894E+02  0.49999992462E+02 0.  0.
        -12    1    1    2    0    0  0.92007066499E+01 -0.21809455534E+02 -0.21363882501E+02  0.31886060106E+02  0.00000000000E+00 0.  1.
         11    1    3    3    0    0 -0.45394467577E+01 -0.38269906436E+01 -0.86205112765E-01  0.59380018386E+01  0.51100000000E-03 0. -1.
        -11    1    3    3    0    0 -0.21873474463E+02  0.10996719141E+02  0.39835437927E+01  0.24804139541E+02  0.51100000000E-03 0.  1.
         12    1    3    3    0    0  0.17212214571E+02  0.14639727037E+02  0.17466543821E+02  0.28559798515E+02  0.00000000000E+00 0. -1.
</event>
<event>
 7    1  0.1221195E-011  0.5930194E+02  0.7816164E-02  0.1266605E+00
        -11   -1    0    0    0    0  0.00000000000E+00  0.00000000000E+00  0.45593999997E+02  0.45594000000E+02  0.51100000000E-03 0.  1.
         11   -1    0    0    0    0 -0.00000000000E+00 -0.00000000000E+00 -0.45593999997E+02  0.45594000000E+02  0.51100000000E-03 0. -1.
    9900012    2    1    2    0    0  0.27920154349E+02 -0.11917434437E+02  0.97550132272E+01  0.59301944341E+02  0.50000000572E+02 0.  0.
        -12    1    1    2    0    0 -0.27920154349E+02  0.11917434437E+02 -0.97550132272E+01  0.31886055659E+02  0.00000000000E+00 0.  1.
         11    1    3    3    0    0  0.36281643869E+01  0.43314214536E+01 -0.33451730655E+00  0.56600963522E+01  0.51100000000E-03 0. -1.
        -11    1    3    3    0    0  0.11877111641E+02 -0.10202626832E+01  0.25841940429E+02  0.28458963478E+02  0.51100000000E-03 0.  1.
         12    1    3    3    0    0  0.12414878321E+02 -0.15228593207E+02 -0.15752409895E+02  0.25182884511E+02  0.00000000000E+00 0. -1.
</event>
<event>
 7    1  0.1221195E-011  0.5930201E+02  0.7816164E-02  0.1266605E+00
        -11   -1    0    0    0    0  0.00000000000E+00  0.00000000000E+00  0.45593999997E+02  0.45594000000E+02  0.51100000000E-03 0.  1.
         11   -1    0    0    0    0 -0.00000000000E+00 -0.00000000000E+00 -0.45593999997E+02  0.45594000000E+02  0.51100000000E-03 0. -1.
    9900012    2    1    2    0    0 -0.84202899360E+01  0.65815914361E+01 -0.30041595693E+02  0.59302014047E+02  0.50000127698E+02 0.  0.
        -12    1    1    2    0    0  0.84202899360E+01 -0.65815914361E+01  0.30041595693E+02  0.31885985953E+02  0.00000000000E+00 0.  1.
         11    1    3    3    0    0 -0.17335346835E+02  0.30589910796E+01 -0.12527349222E+01  0.17647691673E+02  0.51100000000E-03 0. -1.
        -11    1    3    3    0    0 -0.16131165546E+01 -0.11034816878E+02 -0.60915812434E+01  0.12707347908E+02  0.51100000000E-03 0.  1.
        -12    1    3    3    0    0  0.10528173454E+02  0.14557417234E+02 -0.22697279527E+02  0.28946974466E+02  0.00000000000E+00 0.  1.
</event>
<event>
 7    1  0.1221195E-011  0.5930198E+02  0.7816164E-02  0.1266605E+00
        -11   -1    0    0    0    0  0.00000000000E+00  0.00000000000E+00  0.45593999997E+02  0.45594000000E+02  0.51100000000E-03 0. -1.
         11   -1    0    0    0    0 -0.00000000000E+00 -0.00000000000E+00 -0.45593999997E+02  0.45594000000E+02  0.51100000000E-03 0.  1.
    9900012    2    1    2    0    0 -0.13832181776E+02  0.18011240412E+02  0.22382673871E+02  0.59301982320E+02  0.50000069836E+02 0.  0.
        -12    1    1    2    0    0  0.13832181776E+02 -0.18011240412E+02 -0.22382673871E+02  0.31886017680E+02  0.00000000000E+00 0.  1.
         11    1    3    3    0    0  0.73884205542E+01  0.11005796709E+02  0.12067317968E+02  0.17925860724E+02  0.51100000000E-03 0. -1.
        -11    1    3    3    0    0 -0.70473289436E+01 -0.43187869272E+01  0.19399697246E+02  0.21087081810E+02  0.51100000000E-03 0.  1.
        -12    1    3    3    0    0 -0.14173273387E+02  0.11324230630E+02 -0.90843413423E+01  0.20289039787E+02  0.00000000000E+00 0.  1.
</event>
<event>
 7    1  0.1221195E-011  0.5930195E+02  0.7816164E-02  0.1266605E+00
        -11   -1    0    0    0    0  0.00000000000E+00  0.00000000000E+00  0.45593999997E+02  0.45594000000E+02  0.51100000000E-03 0. -1.
         11   -1    0    0    0    0 -0.00000000000E+00 -0.00000000000E+00 -0.45593999997E+02  0.45594000000E+02  0.51100000000E-03 0.  1.
    9900012    2    1    2    0    0  0.89697056290E+01  0.30196154195E+02  0.49453551466E+01  0.59301954702E+02  0.50000019467E+02 0.  0.
        -12    1    1    2    0    0 -0.89697056290E+01 -0.30196154195E+02 -0.49453551466E+01  0.31886045298E+02  0.00000000000E+00 0.  1.
         11    1    3    3    0    0  0.83624566486E+01  0.42075836144E+01  0.15918100708E+02  0.18466736893E+02  0.51100000000E-03 0. -1.
        -11    1    3    3    0    0  0.11175424612E+02  0.11350652365E+02  0.50357145750E+01  0.16705862621E+02  0.51100000000E-03 0.  1.
        -12    1    3    3    0    0 -0.10568175631E+02  0.14637918215E+02 -0.16008460136E+02  0.24129355188E+02  0.00000000000E+00 0.  1.
</event>
<event>
 7    1  0.1221195E-011  0.5930190E+02  0.7816164E-02  0.1266605E+00
        -11   -1    0    0    0    0  0.00000000000E+00  0.00000000000E+00  0.45593999997E+02  0.45594000000E+02  0.51100000000E-03 0. -1.
         11   -1    0    0    0    0 -0.00000000000E+00 -0.00000000000E+00 -0.45593999997E+02  0.45594000000E+02  0.51100000000E-03 0.  1.
    9900012    2    1    2    0    0 -0.15985156546E+02 -0.23080159447E+02  0.15116358271E+02  0.59301901504E+02  0.49999922448E+02 0.  0.
        -12    1    1    2    0    0  0.15985156546E+02  0.23080159447E+02 -0.15116358271E+02  0.31886098496E+02  0.00000000000E+00 0.  1.
         11    1    3    3    0    0 -0.63709709742E+01 -0.24584570037E+02  0.26164757784E+02  0.36463473576E+02  0.51100000000E-03 0. -1.
        -11    1    3    3    0    0  0.46297833686E+01 -0.78051688655E+00 -0.45662699048E-01  0.46953366219E+01  0.51100000000E-03 0.  1.
        -12    1    3    3    0    0 -0.14243968941E+02  0.22849274767E+01 -0.11002736814E+02  0.18143091307E+02  0.00000000000E+00 0.  1.
</event>
<event>
 7    1  0.1221195E-011  0.5930191E+02  0.7816164E-02  0.1266605E+00
        -11   -1    0    0    0    0  0.00000000000E+00  0.00000000000E+00  0.45593999997E+02  0.45594000000E+02  0.51100000000E-03 0.  1.
         11   -1    0    0    0    0 -0.00000000000E+00 -0.00000000000E+00 -0.45593999997E+02  0.45594000000E+02  0.51100000000E-03 0. -1.
    9900012    2    1    2    0    0 -0.24460748253E+02 -0.54455378198E+01 -0.19716514854E+02  0.59301905143E+02  0.49999929083E+02 0.  0.
        -12    1    1    2    0    0  0.24460748253E+02  0.54455378198E+01  0.19716514854E+02  0.31886094857E+02  0.00000000000E+00 0.  1.
         11    1    3    3    0    0 -0.12963956207E+02  0.15353263375E+01 -0.20492282286E+02  0.24297222497E+02  0.51100000000E-03 0. -1.
        -11    1    3    3    0    0 -0.16990525484E+02 -0.16660049618E+02 -0.50932474613E+00  0.23801147482E+02  0.51100000000E-03 0.  1.
        -12    1    3    3    0    0  0.54937334376E+01  0.96791854607E+01  0.12850921778E+01  0.11203535164E+02  0.00000000000E+00 0.  1.
</event>
<event>
 7    1  0.1221195E-011  0.5930194E+02  0.7816164E-02  0.1266605E+00
        -11   -1    0    0    0    0  0.00000000000E+00  0.00000000000E+00  0.45593999997E+02  0.45594000000E+02  0.51100000000E-03 0.  1.
         11   -1    0    0    0    0 -0.00000000000E+00 -0.00000000000E+00 -0.45593999997E+02  0.45594000000E+02  0.51100000000E-03 0. -1.
    9900012    2    1    2    0    0 -0.24607480821E+02  0.16944005501E+02 -0.11139729566E+02  0.59301937064E+02  0.49999987299E+02 0.  0.
        -12    1    1    2    0    0  0.24607480821E+02 -0.16944005501E+02  0.11139729566E+02  0.31886062936E+02  0.00000000000E+00 0.  1.
         11    1    3    3    0    0 -0.14452458994E+02 -0.18185021955E+01  0.12487989977E+02  0.19186724971E+02  0.51100000000E-03 0. -1.
        -11    1    3    3    0    0  0.43986066294E+00 -0.40779282891E+01 -0.11418947426E+02  0.12133232756E+02  0.51100000000E-03 0.  1.
         12    1    3    3    0    0 -0.10594882490E+02  0.22840435985E+02 -0.12208772116E+02  0.27981979336E+02  0.00000000000E+00 0. -1.
</event>
<event>
 7    1  0.1221195E-011  0.5930195E+02  0.7816164E-02  0.1266605E+00
        -11   -1    0    0    0    0  0.00000000000E+00  0.00000000000E+00  0.45593999997E+02  0.45594000000E+02  0.51100000000E-03 0. -1.
         11   -1    0    0    0    0 -0.00000000000E+00 -0.00000000000E+00 -0.45593999997E+02  0.45594000000E+02  0.51100000000E-03 0.  1.
    9900012    2    1    2    0    0 -0.31110421252E+02 -0.49108031878E+01 -0.49745422657E+01  0.59301947105E+02  0.50000005613E+02 0.  0.
        -12    1    1    2    0    0  0.31110421252E+02  0.49108031878E+01  0.49745422657E+01  0.31886052895E+02  0.00000000000E+00 0.  1.
         11    1    3    3    0    0 -0.15527230126E+02 -0.55248742721E+01  0.12753018828E+02  0.20838872344E+02  0.51100000000E-03 0. -1.
        -11    1    3    3    0    0  0.53420922931E+01  0.63378252025E+01  0.26471999116E+01  0.87013588593E+01  0.51100000000E-03 0.  1.
         12    1    3    3    0    0 -0.20925283420E+02 -0.57237541182E+01 -0.20374761005E+02  0.29761715901E+02  0.00000000000E+00 0. -1.
</event>
<event>
 7    1  0.1221195E-011  0.5930178E+02  0.7816164E-02  0.1266605E+00
        -11   -1    0    0    0    0  0.00000000000E+00  0.00000000000E+00  0.45593999997E+02  0.45594000000E+02  0.51100000000E-03 0. -1.
         11   -1    0    0    0    0 -0.00000000000E+00 -0.00000000000E+00 -0.45593999997E+02  0.45594000000E+02  0.51100000000E-03 0.  1.
    9900012    2    1    2    0    0  0.10662018261E+02  0.29799957084E+02  0.38748821157E+01  0.59301783746E+02  0.49999707684E+02 0.  0.
        -12    1    1    2    0    0 -0.10662018261E+02 -0.29799957084E+02 -0.38748821157E+01  0.31886216254E+02  0.00000000000E+00 0.  1.
         11    1    3    3    0    0  0.55687978653E+01  0.66870461507E+01 -0.90955463023E+01  0.12587972779E+02  0.51100000000E-03 0. -1.
        -11    1    3    3    0    0  0.43021600574E+01 -0.62489418919E+01 -0.76902697848E+01  0.10802689737E+02  0.51100000000E-03 0.  1.
         12    1    3    3    0    0  0.79106033820E+00  0.29361852825E+02  0.20660698203E+02  0.35911121230E+02  0.00000000000E+00 0. -1.
</event>
<event>
 7    1  0.1221195E-011  0.5930195E+02  0.7816164E-02  0.1266605E+00
        -11   -1    0    0    0    0  0.00000000000E+00  0.00000000000E+00  0.45593999997E+02  0.45594000000E+02  0.51100000000E-03 0.  1.
         11   -1    0    0    0    0 -0.00000000000E+00 -0.00000000000E+00 -0.45593999997E+02  0.45594000000E+02  0.51100000000E-03 0. -1.
    9900012    2    1    2    0    0 -0.21387128908E+02  0.22089119150E+02  0.84487742400E+01  0.59301948913E+02  0.50000008910E+02 0.  0.
        -12    1    1    2    0    0  0.21387128908E+02 -0.22089119150E+02 -0.84487742400E+01  0.31886051087E+02  0.00000000000E+00 0.  1.
         11    1    3    3    0    0 -0.67994939354E+01  0.12287060703E+02 -0.19667688015E+02  0.24166566380E+02  0.51100000000E-03 0. -1.
        -11    1    3    3    0    0 -0.65250538524E+01 -0.11196623937E+00  0.35133784066E+01  0.74116592140E+01  0.51100000000E-03 0.  1.
        -12    1    3    3    0    0 -0.80625811206E+01  0.99140246863E+01  0.24603083848E+02  0.27723723319E+02  0.00000000000E+00 0.  1.
</event>
<event>
 7    1  0.1221195E-011  0.5930195E+02  0.7816164E-02  0.1266605E+00
        -11   -1    0    0    0    0  0.00000000000E+00  0.00000000000E+00  0.45593999997E+02  0.45594000000E+02  0.51100000000E-03 0.  1.
         11   -1    0    0    0    0 -0.00000000000E+00 -0.00000000000E+00 -0.45593999997E+02  0.45594000000E+02  0.51100000000E-03 0. -1.
    9900012    2    1    2    0    0 -0.12755305800E+02 -0.13282817745E+02 -0.26030544067E+02  0.59301948226E+02  0.50000007657E+02 0.  0.
        -12    1    1    2    0    0  0.12755305800E+02  0.13282817745E+02  0.26030544067E+02  0.31886051774E+02  0.00000000000E+00 0.  1.
         11    1    3    3    0    0 -0.46855077809E+01  0.16159011067E+02 -0.41819001922E+01  0.17336548425E+02  0.51100000000E-03 0. -1.
        -11    1    3    3    0    0 -0.14225363422E+00 -0.27778438383E+01 -0.12213897071E+02  0.12526609055E+02  0.51100000000E-03 0.  1.
        -12    1    3    3    0    0 -0.79275443849E+01 -0.26663984973E+02 -0.96347468034E+01  0.29438790746E+02  0.00000000000E+00 0.  1.
</event>
<event>
 7    1  0.1221195E-011  0.5930193E+02  0.7816164E-02  0.1266605E+00
        -11   -1    0    0    0    0  0.00000000000E+00  0.00000000000E+00  0.45593999997E+02  0.45594000000E+02  0.51100000000E-03 0.  1.
         11   -1    0    0    0    0 -0.00000000000E+00 -0.00000000000E+00 -0.45593999997E+02  0.45594000000E+02  0.51100000000E-03 0. -1.
    9900012    2    1    2    0    0  0.27219279782E+02  0.14885337510E+02  0.73660531126E+01  0.59301934029E+02  0.49999981765E+02 0.  0.
        -12    1    1    2    0    0 -0.27219279782E+02 -0.14885337510E+02 -0.73660531126E+01  0.31886065971E+02  0.00000000000E+00 0.  1.
         11    1    3    3    0    0  0.29818211329E+01 -0.61243948608E+01  0.28550888771E+01  0.73858650432E+01  0.51100000000E-03 0. -1.
        -11    1    3    3    0    0 -0.10782900224E+02  0.48939494682E+01 -0.38836646765E+01  0.12462123825E+02  0.51100000000E-03 0.  1.
         12    1    3    3    0    0  0.35020358874E+02  0.16115782902E+02  0.83946289120E+01  0.39453945161E+02  0.00000000000E+00 0. -1.
</event>
<event>
 7    1  0.1221195E-011  0.5930195E+02  0.7816164E-02  0.1266605E+00
        -11   -1    0    0    0    0  0.00000000000E+00  0.00000000000E+00  0.45593999997E+02  0.45594000000E+02  0.51100000000E-03 0.  1.
         11   -1    0    0    0    0 -0.00000000000E+00 -0.00000000000E+00 -0.45593999997E+02  0.45594000000E+02  0.51100000000E-03 0. -1.
    9900012    2    1    2    0    0  0.26723861281E+02  0.12171554396E+02  0.12426135269E+02  0.59301947627E+02  0.50000006565E+02 0.  0.
        -12    1    1    2    0    0 -0.26723861281E+02 -0.12171554396E+02 -0.12426135269E+02  0.31886052373E+02  0.00000000000E+00 0.  1.
         11    1    3    3    0    0  0.23941490759E+02  0.35795688668E+01 -0.11761823215E+02  0.26913728442E+02  0.51100000000E-03 0. -1.
        -11    1    3    3    0    0 -0.40802154154E+01 -0.48975263375E+01  0.79623692622E+01  0.10199668945E+02  0.51100000000E-03 0.  1.
        -12    1    3    3    0    0  0.68625859369E+01  0.13489511866E+02  0.16225589223E+02  0.22188550240E+02  0.00000000000E+00 0.  1.
</event>
<event>
 7    1  0.1221195E-011  0.5930197E+02  0.7816164E-02  0.1266605E+00
        -11   -1    0    0    0    0  0.00000000000E+00  0.00000000000E+00  0.45593999997E+02  0.45594000000E+02  0.51100000000E-03 0.  1.
         11   -1    0    0    0    0 -0.00000000000E+00 -0.00000000000E+00 -0.45593999997E+02  0.45594000000E+02  0.51100000000E-03 0. -1.
    9900012    2    1    2    0    0 -0.29613449244E+02 -0.91316659489E+01 -0.75083367340E+01  0.59301971404E+02  0.50000049927E+02 0.  0.
        -12    1    1    2    0    0  0.29613449244E+02  0.91316659489E+01  0.75083367340E+01  0.31886028596E+02  0.00000000000E+00 0.  1.
         11    1    3    3    0    0 -0.31951823212E+02 -0.13160056321E+01 -0.24117863545E+01  0.32069730137E+02  0.51100000000E-03 0. -1.
        -11    1    3    3    0    0  0.28684593742E+01  0.59171024294E+01 -0.10562529436E+02  0.12442153700E+02  0.51100000000E-03 0.  1.
        -12    1    3    3    0    0 -0.53008540636E+00 -0.13732762746E+02  0.54659790565E+01  0.14790087567E+02  0.00000000000E+00 0.  1.
</event>
<event>
 7    1  0.1221195E-011  0.5930182E+02  0.7816164E-02  0.1266605E+00
        -11   -1    0    0    0    0  0.00000000000E+00  0.00000000000E+00  0.45593999997E+02  0.45594000000E+02  0.51100000000E-03 0.  1.
         11   -1    0    0    0    0 -0.00000000000E+00 -0.00000000000E+00 -0.45593999997E+02  0.45594000000E+02  0.51100000000E-03 0. -1.
    9900012    2    1    2    0    0 -0.11578414335E+02 -0.61788098408E+01 -0.29060131500E+02  0.59301817846E+02  0.49999769875E+02 0.  0.
        -12    1    1    2    0    0  0.11578414335E+02  0.61788098408E+01  0.29060131500E+02  0.31886182154E+02  0.00000000000E+00 0.  1.
         11    1    3    3    0    0 -0.14621232270E+02 -0.54155040236E+01 -0.10377018812E+02  0.18729405667E+02  0.51100000000E-03 0. -1.
        -11    1    3    3    0    0 -0.33628903958E+01 -0.89321474001E+01  0.76726783561E+01  0.12245908803E+02  0.51100000000E-03 0.  1.
         12    1    3    3    0    0  0.64057083317E+01  0.81688415828E+01 -0.26355791044E+02  0.28326503377E+02  0.00000000000E+00 0. -1.
</event>
<event>
 7    1  0.1221195E-011  0.5930196E+02  0.7816164E-02  0.1266605E+00
        -11   -1    0    0    0    0  0.00000000000E+00  0.00000000000E+00  0.45593999997E+02  0.45594000000E+02  0.51100000000E-03 0.  1.
         11   -1    0    0    0    0 -0.00000000000E+00 -0.00000000000E+00 -0.45593999997E+02  0.45594000000E+02  0.51100000000E-03 0. -1.
    9900012    2    1    2    0    0  0.10576054206E+02  0.29206772724E+02 -0.71993799426E+01  0.59301959683E+02  0.50000028551E+02 0.  0.
        -12    1    1    2    0    0 -0.10576054206E+02 -0.29206772724E+02  0.71993799426E+01  0.31886040317E+02  0.00000000000E+00 0.  1.
         11    1    3    3    0    0  0.20905179966E+01 -0.64539255911E+01  0.10419338981E+02  0.12433263694E+02  0.51100000000E-03 0. -1.
        -11    1    3    3    0    0  0.62371341881E+01  0.25932865798E+02 -0.63021817693E-01  0.26672445396E+02  0.51100000000E-03 0.  1.
         12    1    3    3    0    0  0.22484020215E+01  0.97278325178E+01 -0.17555697106E+02  0.20196250593E+02  0.00000000000E+00 0. -1.
</event>
<event>
 7    1  0.1221195E-011  0.5930193E+02  0.7816164E-02  0.1266605E+00
        -11   -1    0    0    0    0  0.00000000000E+00  0.00000000000E+00  0.45593999997E+02  0.45594000000E+02  0.51100000000E-03 0. -1.
         11   -1    0    0    0    0 -0.00000000000E+00 -0.00000000000E+00 -0.45593999997E+02  0.45594000000E+02  0.51100000000E-03 0.  1.
    9900012    2    1    2    0    0  0.13017990868E+02  0.27074898557E+02  0.10686589414E+02  0.59301930763E+02  0.49999975807E+02 0.  0.
        -12    1    1    2    0    0 -0.13017990868E+02 -0.27074898557E+02 -0.10686589414E+02  0.31886069237E+02  0.00000000000E+00 0.  1.
         11    1    3    3    0    0  0.12342401297E+02 -0.79726362386E+00 -0.54225376958E+01  0.13504607154E+02  0.51100000000E-03 0. -1.
        -11    1    3    3    0    0  0.13636033966E+02  0.26248324826E+02  0.89558610879E+01  0.30905071212E+02  0.51100000000E-03 0.  1.
        -12    1    3    3    0    0 -0.12960444395E+02  0.16238373545E+01  0.71532660219E+01  0.14892252397E+02  0.00000000000E+00 0.  1.
</event>
<event>
 7    1  0.1221195E-011  0.5930193E+02  0.7816164E-02  0.1266605E+00
        -11   -1    0    0    0    0  0.00000000000E+00  0.00000000000E+00  0.45593999997E+02  0.45594000000E+02  0.51100000000E-03 0. -1.
         11   -1    0    0    0    0 -0.00000000000E+00 -0.00000000000E+00 -0.45593999997E+02  0.45594000000E+02  0.51100000000E-03 0.  1.
    9900012    2    1    2    0    0 -0.17218062338E+02 -0.23425209041E+02  0.13096537644E+02  0.59301931137E+02  0.49999976490E+02 0.  0.
        -12    1    1    2    0    0  0.17218062338E+02  0.23425209041E+02 -0.13096537644E+02  0.31886068863E+02  0.00000000000E+00 0.  1.
         11    1    3    3    0    0  0.54910081935E+00  0.41024098011E+01  0.50862255193E+01  0.65575123469E+01  0.51100000000E-03 0. -1.
        -11    1    3    3    0    0 -0.15803035067E+02  0.62718483458E+01 -0.27414545656E+01  0.17221718044E+02  0.51100000000E-03 0.  1.
         12    1    3    3    0    0 -0.19641280906E+01 -0.33799467187E+02  0.10751766691E+02  0.35522700746E+02  0.00000000000E+00 0. -1.
</event>
<event>
 7    1  0.1221195E-011  0.5930194E+02  0.7816164E-02  0.1266605E+00
        -11   -1    0    0    0    0  0.00000000000E+00  0.00000000000E+00  0.45593999997E+02  0.45594000000E+02  0.51100000000E-03 0. -1.
         11   -1    0    0    0    0 -0.00000000000E+00 -0.00000000000E+00 -0.45593999997E+02  0.45594000000E+02  0.51100000000E-03 0.  1.
    9900012    2    1    2    0    0  0.19423143482E+02  0.15814686746E+02  0.19732158821E+02  0.59301938605E+02  0.49999990110E+02 0.  0.
        -12    1    1    2    0    0 -0.19423143482E+02 -0.15814686746E+02 -0.19732158821E+02  0.31886061395E+02  0.00000000000E+00 0.  1.
         11    1    3    3    0    0  0.77046799066E+01  0.17075536132E+01  0.87743469695E+00  0.79402596754E+01  0.51100000000E-03 0. -1.
        -11    1    3    3    0    0  0.21455745233E+02 -0.45860093130E+01  0.20751348741E+02  0.30199320518E+02  0.51100000000E-03 0.  1.
        -12    1    3    3    0    0 -0.97372816578E+01  0.18693142445E+02 -0.18966246179E+01  0.21162358411E+02  0.00000000000E+00 0.  1.
</event>
<event>
 7    1  0.1221195E-011  0.5930194E+02  0.7816164E-02  0.1266605E+00
        -11   -1    0    0    0    0  0.00000000000E+00  0.00000000000E+00  0.45593999997E+02  0.45594000000E+02  0.51100000000E-03 0.  1.
         11   -1    0    0    0    0 -0.00000000000E+00 -0.00000000000E+00 -0.45593999997E+02  0.45594000000E+02  0.51100000000E-03 0. -1.
    9900012    2    1    2    0    0 -0.17548210140E+02  0.26489219712E+02 -0.26650849531E+01  0.59301935366E+02  0.49999984203E+02 0.  0.
        -12    1    1    2    0    0  0.17548210140E+02 -0.26489219712E+02  0.26650849531E+01  0.31886064634E+02  0.00000000000E+00 0.  1.
         11    1    3    3    0    0  0.16116801584E+02  0.44228279939E+01 -0.60117056996E+01  0.17761005220E+02  0.51100000000E-03 0. -1.
        -11    1    3    3    0    0 -0.50001229215E+01  0.16168162278E-01 -0.10521865478E+01  0.51096562929E+01  0.51100000000E-03 0.  1.
        -12    1    3    3    0    0 -0.28664888802E+02  0.22050223556E+02  0.43988072943E+01  0.36431273853E+02  0.00000000000E+00 0.  1.
</event>
<event>
 7    1  0.1221195E-011  0.5930196E+02  0.7816164E-02  0.1266605E+00
        -11   -1    0    0    0    0  0.00000000000E+00  0.00000000000E+00  0.45593999997E+02  0.45594000000E+02  0.51100000000E-03 0. -1.
         11   -1    0    0    0    0 -0.00000000000E+00 -0.00000000000E+00 -0.45593999997E+02  0.45594000000E+02  0.51100000000E-03 0.  1.
    9900012    2    1    2    0    0  0.11271976140E+02 -0.14738294050E+02  0.25931541796E+02  0.59301958893E+02  0.50000027110E+02 0.  0.
        -12    1    1    2    0    0 -0.11271976140E+02  0.14738294050E+02 -0.25931541796E+02  0.31886041107E+02  0.00000000000E+00 0.  1.
         11    1    3    3    0    0 -0.71890890637E+01  0.83104489390E+01 -0.33233463984E+00  0.10993498520E+02  0.51100000000E-03 0.  1.
        -11    1    3    3    0    0 -0.28204247802E+01 -0.33514315904E+01  0.17463492267E+02  0.18004456450E+02  0.51100000000E-03 0. -1.
        -12    1    3    3    0    0  0.21281489983E+02 -0.19697311398E+02  0.88003841691E+01  0.30304003923E+02  0.00000000000E+00 0.  1.
</event>
<event>
 7    1  0.1221195E-011  0.5930193E+02  0.7816164E-02  0.1266605E+00
        -11   -1    0    0    0    0  0.00000000000E+00  0.00000000000E+00  0.45593999997E+02  0.45594000000E+02  0.51100000000E-03 0.  1.
         11   -1    0    0    0    0 -0.00000000000E+00 -0.00000000000E+00 -0.45593999997E+02  0.45594000000E+02  0.51100000000E-03 0. -1.
    9900012    2    1    2    0    0  0.23069536080E+02 -0.19610666342E+02 -0.99969793360E+01  0.59301932115E+02  0.49999978274E+02 0.  0.
        -12    1    1    2    0    0 -0.23069536080E+02  0.19610666342E+02  0.99969793360E+01  0.31886067885E+02  0.00000000000E+00 0.  1.
         11    1    3    3    0    0  0.27220694678E+01  0.95733106771E+00 -0.50261161678E+01  0.57955145547E+01  0.51100000000E-03 0. -1.
        -11    1    3    3    0    0 -0.12314611985E+02 -0.16077047537E+02 -0.72124625253E+00  0.20264286868E+02  0.51100000000E-03 0.  1.
         12    1    3    3    0    0  0.32662078597E+02 -0.44909498725E+01 -0.42496169156E+01  0.33242130692E+02  0.00000000000E+00 0. -1.
</event>
<event>
 7    1  0.1221195E-011  0.5930197E+02  0.7816164E-02  0.1266605E+00
        -11   -1    0    0    0    0  0.00000000000E+00  0.00000000000E+00  0.45593999997E+02  0.45594000000E+02  0.51100000000E-03 0.  1.
         11   -1    0    0    0    0 -0.00000000000E+00 -0.00000000000E+00 -0.45593999997E+02  0.45594000000E+02  0.51100000000E-03 0. -1.
    9900012    2    1    2    0    0  0.31425574100E+02 -0.41733266452E+01 -0.34257063818E+01  0.59301971288E+02  0.50000049715E+02 0.  0.
        -12    1    1    2    0    0 -0.31425574100E+02  0.41733266452E+01  0.34257063818E+01  0.31886028712E+02  0.00000000000E+00 0.  1.
         11    1    3    3    0    0 -0.46413967052E+00 -0.92389447702E+00 -0.17165428666E+02  0.17196538843E+02  0.51100000000E-03 0. -1.
        -11    1    3    3    0    0  0.89729583075E+01 -0.11941984530E+02  0.79488279352E+01  0.16920663140E+02  0.51100000000E-03 0.  1.
         12    1    3    3    0    0  0.22916755463E+02  0.86925523620E+01  0.57908943488E+01  0.25184769304E+02  0.00000000000E+00 0. -1.
</event>
<event>
 7    1  0.1221195E-011  0.5930195E+02  0.7816164E-02  0.1266605E+00
        -11   -1    0    0    0    0  0.00000000000E+00  0.00000000000E+00  0.45593999997E+02  0.45594000000E+02  0.51100000000E-03 0.  1.
         11   -1    0    0    0    0 -0.00000000000E+00 -0.00000000000E+00 -0.45593999997E+02  0.45594000000E+02  0.51100000000E-03 0. -1.
    9900012    2    1    2    0    0  0.28789527394E+02  0.12417666933E+02 -0.58038816032E+01  0.59301946915E+02  0.50000005266E+02 0.  0.
        -12    1    1    2    0    0 -0.28789527394E+02 -0.12417666933E+02  0.58038816032E+01  0.31886053085E+02  0.00000000000E+00 0.  1.
         11    1    3    3    0    0  0.28688842071E+01  0.99461269215E+01  0.66357161083E+01  0.12295880036E+02  0.51100000000E-03 0. -1.
        -11    1    3    3    0    0  0.61069195402E+01 -0.12091973450E+02  0.73768152371E+01  0.15424904910E+02  0.51100000000E-03 0.  1.
        -12    1    3    3    0    0  0.19813723647E+02  0.14563513462E+02 -0.19816412949E+02  0.31581161969E+02  0.00000000000E+00 0.  1.
</event>
<event>
 7    1  0.1221195E-011  0.5930187E+02  0.7816164E-02  0.1266605E+00
        -11   -1    0    0    0    0  0.00000000000E+00  0.00000000000E+00  0.45593999997E+02  0.45594000000E+02  0.51100000000E-03 0.  1.
         11   -1    0    0    0    0 -0.00000000000E+00 -0.00000000000E+00 -0.45593999997E+02  0.45594000000E+02  0.51100000000E-03 0. -1.
    9900012    2    1    2    0    0  0.11189466940E+02  0.17550232982E+02 -0.24155966494E+02  0.59301865625E+02  0.49999857012E+02 0.  0.
        -12    1    1    2    0    0 -0.11189466940E+02 -0.17550232982E+02  0.24155966494E+02  0.31886134375E+02  0.00000000000E+00 0.  1.
         11    1    3    3    0    0 -0.40530623417E+01  0.29960900613E+01  0.48823795466E+01  0.70172288191E+01  0.51100000000E-03 0. -1.
        -11    1    3    3    0    0  0.18986038401E+02 -0.83904124952E+00  0.22781279310E+00  0.19005934423E+02  0.51100000000E-03 0.  1.
         12    1    3    3    0    0 -0.37435091188E+01  0.15393184170E+02 -0.29266158834E+02  0.33278702383E+02  0.00000000000E+00 0. -1.
</event>
<event>
 7    1  0.1221195E-011  0.5930195E+02  0.7816164E-02  0.1266605E+00
        -11   -1    0    0    0    0  0.00000000000E+00  0.00000000000E+00  0.45593999997E+02  0.45594000000E+02  0.51100000000E-03 0.  1.
         11   -1    0    0    0    0 -0.00000000000E+00 -0.00000000000E+00 -0.45593999997E+02  0.45594000000E+02  0.51100000000E-03 0. -1.
    9900012    2    1    2    0    0 -0.25155430866E+02 -0.13292435340E+02 -0.14395689943E+02  0.59301946179E+02  0.50000003923E+02 0.  0.
        -12    1    1    2    0    0  0.25155430866E+02  0.13292435340E+02  0.14395689943E+02  0.31886053821E+02  0.00000000000E+00 0.  1.
         11    1    3    3    0    0 -0.10963863019E+02 -0.11600845395E+02  0.38744910077E+01  0.16425516339E+02  0.51100000000E-03 0. -1.
        -11    1    3    3    0    0 -0.51771043185E+01 -0.25203491949E+01  0.10903532379E+02  0.12330514498E+02  0.51100000000E-03 0.  1.
        -12    1    3    3    0    0 -0.90144635286E+01  0.82875924984E+00 -0.29173713330E+02  0.30545915341E+02  0.00000000000E+00 0.  1.
</event>
<event>
 7    1  0.1221195E-011  0.5930195E+02  0.7816164E-02  0.1266605E+00
        -11   -1    0    0    0    0  0.00000000000E+00  0.00000000000E+00  0.45593999997E+02  0.45594000000E+02  0.51100000000E-03 0.  1.
         11   -1    0    0    0    0 -0.00000000000E+00 -0.00000000000E+00 -0.45593999997E+02  0.45594000000E+02  0.51100000000E-03 0. -1.
    9900012    2    1    2    0    0 -0.31155495527E+02  0.53107723355E+01 -0.42250726574E+01  0.59301945943E+02  0.50000003493E+02 0.  0.
        -12    1    1    2    0    0  0.31155495527E+02 -0.53107723355E+01  0.42250726574E+01  0.31886054057E+02  0.00000000000E+00 0.  1.
         11    1    3    3    0    0 -0.13170343077E+02  0.11895742822E+02 -0.32878288934E+01  0.18049278466E+02  0.51100000000E-03 0. -1.
        -11    1    3    3    0    0  0.74127490917E+01  0.79145084877E+01 -0.45994845122E+01  0.11778945273E+02  0.51100000000E-03 0.  1.
         12    1    3    3    0    0 -0.25397901542E+02 -0.14499478975E+02  0.36622407482E+01  0.29473722204E+02  0.00000000000E+00 0. -1.
</event>
<event>
 7    1  0.1221195E-011  0.5930197E+02  0.7816164E-02  0.1266605E+00
        -11   -1    0    0    0    0  0.00000000000E+00  0.00000000000E+00  0.45593999997E+02  0.45594000000E+02  0.51100000000E-03 0.  1.
         11   -1    0    0    0    0 -0.00000000000E+00 -0.00000000000E+00 -0.45593999997E+02  0.45594000000E+02  0.51100000000E-03 0. -1.
    9900012    2    1    2    0    0  0.31786942386E+02 -0.21679160379E+01 -0.12686129226E+01  0.59301969439E+02  0.50000046344E+02 0.  0.
        -12    1    1    2    0    0 -0.31786942386E+02  0.21679160379E+01  0.12686129226E+01  0.31886030561E+02  0.00000000000E+00 0.  1.
         11    1    3    3    0    0  0.22075665475E+02  0.11315092939E+02  0.53081853383E+01  0.25368152598E+02  0.51100000000E-03 0. -1.
        -11    1    3    3    0    0 -0.27241406353E+01  0.63088486292E+01 -0.79633600536E+01  0.10518441749E+02  0.51100000000E-03 0.  1.
         12    1    3    3    0    0  0.12435417546E+02 -0.19791857606E+02  0.13865617928E+01  0.23415375091E+02  0.00000000000E+00 0. -1.
</event>
<event>
 7    1  0.1221195E-011  0.5930171E+02  0.7816164E-02  0.1266606E+00
        -11   -1    0    0    0    0  0.00000000000E+00  0.00000000000E+00  0.45593999997E+02  0.45594000000E+02  0.51100000000E-03 0.  1.
         11   -1    0    0    0    0 -0.00000000000E+00 -0.00000000000E+00 -0.45593999997E+02  0.45594000000E+02  0.51100000000E-03 0. -1.
    9900012    2    1    2    0    0  0.18757293451E+02  0.98731471778E+01 -0.23820585100E+02  0.59301711923E+02  0.49999576696E+02 0.  0.
        -12    1    1    2    0    0 -0.18757293451E+02 -0.98731471778E+01  0.23820585100E+02  0.31886288077E+02  0.00000000000E+00 0.  1.
         11    1    3    3    0    0 -0.11076001629E+02 -0.11749666056E-01 -0.32222953996E+01  0.11535212960E+02  0.51100000000E-03 0. -1.
        -11    1    3    3    0    0  0.10227314640E+01  0.66088398598E+01  0.55736350900E+01  0.87056391103E+01  0.51100000000E-03 0.  1.
         12    1    3    3    0    0  0.28810563616E+02  0.32760569840E+01 -0.26171924790E+02  0.39060859853E+02  0.00000000000E+00 0. -1.
</event>
<event>
 7    1  0.1221195E-011  0.5930192E+02  0.7816164E-02  0.1266605E+00
        -11   -1    0    0    0    0  0.00000000000E+00  0.00000000000E+00  0.45593999997E+02  0.45594000000E+02  0.51100000000E-03 0. -1.
         11   -1    0    0    0    0 -0.00000000000E+00 -0.00000000000E+00 -0.45593999997E+02  0.45594000000E+02  0.51100000000E-03 0.  1.
    9900012    2    1    2    0    0  0.13631643153E+02 -0.27104496349E+02  0.98105310091E+01  0.59301922535E+02  0.49999960803E+02 0.  0.
        -12    1    1    2    0    0 -0.13631643153E+02  0.27104496349E+02 -0.98105310091E+01  0.31886077465E+02  0.00000000000E+00 0.  1.
         11    1    3    3    0    0  0.22547242888E+02 -0.40421803504E+01  0.62647674427E+01  0.23747940863E+02  0.51100000000E-03 0. -1.
        -11    1    3    3    0    0  0.22612479037E+00  0.15095844213E+01 -0.70966262969E+01  0.72589312303E+01  0.51100000000E-03 0.  1.
         12    1    3    3    0    0 -0.91417245250E+01 -0.24571900420E+02  0.10642389863E+02  0.28295050443E+02  0.00000000000E+00 0. -1.
</event>
<event>
 7    1  0.1221195E-011  0.5930195E+02  0.7816164E-02  0.1266605E+00
        -11   -1    0    0    0    0  0.00000000000E+00  0.00000000000E+00  0.45593999997E+02  0.45594000000E+02  0.51100000000E-03 0.  1.
         11   -1    0    0    0    0 -0.00000000000E+00 -0.00000000000E+00 -0.45593999997E+02  0.45594000000E+02  0.51100000000E-03 0. -1.
    9900012    2    1    2    0    0 -0.23689775405E+02  0.88762886459E+01 -0.19409440036E+02  0.59301947855E+02  0.50000006980E+02 0.  0.
        -12    1    1    2    0    0  0.23689775405E+02 -0.88762886459E+01  0.19409440036E+02  0.31886052145E+02  0.00000000000E+00 0.  1.
         11    1    3    3    0    0 -0.16430344061E+02 -0.48150417794E+00 -0.18323214559E+02  0.24615609769E+02  0.51100000000E-03 0. -1.
        -11    1    3    3    0    0 -0.17766845112E+01 -0.37806215234E+01  0.13603178937E+02  0.14230115404E+02  0.51100000000E-03 0.  1.
         12    1    3    3    0    0 -0.54827468330E+01  0.13138414347E+02 -0.14689404414E+02  0.20456222682E+02  0.00000000000E+00 0. -1.
</event>
<event>
 7    1  0.1221195E-011  0.5930196E+02  0.7816164E-02  0.1266605E+00
        -11   -1    0    0    0    0  0.00000000000E+00  0.00000000000E+00  0.45593999997E+02  0.45594000000E+02  0.51100000000E-03 0.  1.
         11   -1    0    0    0    0 -0.00000000000E+00 -0.00000000000E+00 -0.45593999997E+02  0.45594000000E+02  0.51100000000E-03 0. -1.
    9900012    2    1    2    0    0  0.64874372382E+00 -0.20550784435E+02 -0.24371371786E+02  0.59301962742E+02  0.50000034131E+02 0.  0.
        -12    1    1    2    0    0 -0.64874372382E+00  0.20550784435E+02  0.24371371786E+02  0.31886037258E+02  0.00000000000E+00 0.  1.
         11    1    3    3    0    0  0.70318902176E+01 -0.30523686092E+01 -0.26237477365E+02  0.27334404199E+02  0.51100000000E-03 0. -1.
        -11    1    3    3    0    0 -0.67842336760E+01  0.52066943131E+01  0.34094742330E+01  0.92065198119E+01  0.51100000000E-03 0.  1.
        -12    1    3    3    0    0  0.40108718220E+00 -0.22705110138E+02 -0.15433686535E+01  0.22761038731E+02  0.00000000000E+00 0.  1.
</event>
<event>
 7    1  0.1221195E-011  0.5930193E+02  0.7816164E-02  0.1266605E+00
        -11   -1    0    0    0    0  0.00000000000E+00  0.00000000000E+00  0.45593999997E+02  0.45594000000E+02  0.51100000000E-03 0.  1.
         11   -1    0    0    0    0 -0.00000000000E+00 -0.00000000000E+00 -0.45593999997E+02  0.45594000000E+02  0.51100000000E-03 0. -1.
    9900012    2    1    2    0    0 -0.25754918923E+02  0.63683656305E+01 -0.17687547850E+02  0.59301932847E+02  0.49999979610E+02 0.  0.
        -12    1    1    2    0    0  0.25754918923E+02 -0.63683656305E+01  0.17687547850E+02  0.31886067153E+02  0.00000000000E+00 0.  1.
         11    1    3    3    0    0  0.33542561320E+01 -0.52384217608E+01 -0.20282535538E+02  0.21214932120E+02  0.51100000000E-03 0. -1.
        -11    1    3    3    0    0 -0.51320947784E+01  0.97261481970E+01 -0.60235081441E+01  0.12538700339E+02  0.51100000000E-03 0.  1.
         12    1    3    3    0    0 -0.23977080276E+02  0.18806391943E+01  0.86184958318E+01  0.25548300389E+02  0.00000000000E+00 0. -1.
</event>
<event>
 7    1  0.1221195E-011  0.5930194E+02  0.7816164E-02  0.1266605E+00
        -11   -1    0    0    0    0  0.00000000000E+00  0.00000000000E+00  0.45593999997E+02  0.45594000000E+02  0.51100000000E-03 0. -1.
         11   -1    0    0    0    0 -0.00000000000E+00 -0.00000000000E+00 -0.45593999997E+02  0.45594000000E+02  0.51100000000E-03 0.  1.
    9900012    2    1    2    0    0 -0.29858523120E+02  0.74663063541E+00  0.11163877225E+02  0.59301936980E+02  0.49999987147E+02 0.  0.
        -12    1    1    2    0    0  0.29858523120E+02 -0.74663063541E+00 -0.11163877225E+02  0.31886063020E+02  0.00000000000E+00 0.  1.
         11    1    3    3    0    0 -0.94122407130E+01  0.19700531161E+02  0.64839694474E+01  0.22775931667E+02  0.51100000000E-03 0. -1.
        -11    1    3    3    0    0 -0.68106627153E+01  0.41794983130E+01 -0.30962781054E+01  0.85697299337E+01  0.51100000000E-03 0.  1.
        -12    1    3    3    0    0 -0.13635619692E+02 -0.23133398838E+02  0.77761858825E+01  0.27956275379E+02  0.00000000000E+00 0.  1.
</event>
<event>
 7    1  0.1221195E-011  0.5930200E+02  0.7816164E-02  0.1266605E+00
        -11   -1    0    0    0    0  0.00000000000E+00  0.00000000000E+00  0.45593999997E+02  0.45594000000E+02  0.51100000000E-03 0.  1.
         11   -1    0    0    0    0 -0.00000000000E+00 -0.00000000000E+00 -0.45593999997E+02  0.45594000000E+02  0.51100000000E-03 0. -1.
    9900012    2    1    2    0    0  0.30268341601E+02  0.97306413735E+01 -0.24206169571E+01  0.59301995683E+02  0.50000094207E+02 0.  0.
        -12    1    1    2    0    0 -0.30268341601E+02 -0.97306413735E+01  0.24206169571E+01  0.31886004317E+02  0.00000000000E+00 0.  1.
         11    1    3    3    0    0  0.16324121077E+02  0.48075336468E+01 -0.98510338439E+01  0.19662964598E+02  0.51100000000E-03 0. -1.
        -11    1    3    3    0    0  0.25506337077E+02 -0.16771250266E+01  0.59399014888E+01  0.26242492438E+02  0.51100000000E-03 0.  1.
        -12    1    3    3    0    0 -0.11562116553E+02  0.66002327533E+01  0.14905153980E+01  0.13396538647E+02  0.00000000000E+00 0.  1.
</event>
<event>
 7    1  0.1221195E-011  0.5930198E+02  0.7816164E-02  0.1266605E+00
        -11   -1    0    0    0    0  0.00000000000E+00  0.00000000000E+00  0.45593999997E+02  0.45594000000E+02  0.51100000000E-03 0. -1.
         11   -1    0    0    0    0 -0.00000000000E+00 -0.00000000000E+00 -0.45593999997E+02  0.45594000000E+02  0.51100000000E-03 0.  1.
    9900012    2    1    2    0    0  0.28641397441E+02 -0.32139824739E+00  0.14010182829E+02  0.59301981636E+02  0.50000068588E+02 0.  0.
        -12    1    1    2    0    0 -0.28641397441E+02  0.32139824739E+00 -0.14010182829E+02  0.31886018364E+02  0.00000000000E+00 0.  1.
         11    1    3    3    0    0  0.10921505482E+02 -0.58919538358E+01  0.65158704336E+01  0.14016096809E+02  0.51100000000E-03 0. -1.
        -11    1    3    3    0    0  0.11445463684E+02 -0.16015346449E+02 -0.39252021076E+01  0.20072298639E+02  0.51100000000E-03 0.  1.
        -12    1    3    3    0    0  0.62744282757E+01  0.21585902037E+02  0.11419514503E+02  0.25213586188E+02  0.00000000000E+00 0.  1.
</event>
<event>
 7    1  0.1221195E-011  0.5930194E+02  0.7816164E-02  0.1266605E+00
        -11   -1    0    0    0    0  0.00000000000E+00  0.00000000000E+00  0.45593999997E+02  0.45594000000E+02  0.51100000000E-03 0.  1.
         11   -1    0    0    0    0 -0.00000000000E+00 -0.00000000000E+00 -0.45593999997E+02  0.45594000000E+02  0.51100000000E-03 0. -1.
    9900012    2    1    2    0    0  0.29058121346E+02  0.13004190604E+02  0.17992627337E+01  0.59301941357E+02  0.49999995129E+02 0.  0.
        -12    1    1    2    0    0 -0.29058121346E+02 -0.13004190604E+02 -0.17992627337E+01  0.31886058643E+02  0.00000000000E+00 0.  1.
         11    1    3    3    0    0  0.17338047503E+01  0.16994956895E+02 -0.11312658379E+02  0.20489286924E+02  0.51100000000E-03 0. -1.
        -11    1    3    3    0    0  0.21847446710E+02  0.65325371835E+01  0.25795040158E+01  0.22948612399E+02  0.51100000000E-03 0.  1.
        -12    1    3    3    0    0  0.54768698853E+01 -0.10523303474E+02  0.10532417097E+02  0.15864042034E+02  0.00000000000E+00 0.  1.
</event>
<event>
 7    1  0.1221195E-011  0.5930193E+02  0.7816164E-02  0.1266605E+00
        -11   -1    0    0    0    0  0.00000000000E+00  0.00000000000E+00  0.45593999997E+02  0.45594000000E+02  0.51100000000E-03 0.  1.
         11   -1    0    0    0    0 -0.00000000000E+00 -0.00000000000E+00 -0.45593999997E+02  0.45594000000E+02  0.51100000000E-03 0. -1.
    9900012    2    1    2    0    0 -0.11134972303E+02  0.16171769044E+02 -0.25123852064E+02  0.59301926790E+02  0.49999968563E+02 0.  0.
        -12    1    1    2    0    0  0.11134972303E+02 -0.16171769044E+02  0.25123852064E+02  0.31886073210E+02  0.00000000000E+00 0.  1.
         11    1    3    3    0    0 -0.14049587094E+02  0.62511309358E+01 -0.74778236116E+01  0.17099280152E+02  0.51100000000E-03 0. -1.
        -11    1    3    3    0    0 -0.16137476923E+02  0.82969928408E+01 -0.36561911080E+01  0.18510158976E+02  0.51100000000E-03 0.  1.
         12    1    3    3    0    0  0.19052091715E+02  0.16236452673E+01 -0.13989837345E+02  0.23692487662E+02  0.00000000000E+00 0. -1.
</event>
<event>
 7    1  0.1221195E-011  0.5930193E+02  0.7816164E-02  0.1266605E+00
        -11   -1    0    0    0    0  0.00000000000E+00  0.00000000000E+00  0.45593999997E+02  0.45594000000E+02  0.51100000000E-03 0.  1.
         11   -1    0    0    0    0 -0.00000000000E+00 -0.00000000000E+00 -0.45593999997E+02  0.45594000000E+02  0.51100000000E-03 0. -1.
    9900012    2    1    2    0    0 -0.95590707838E+01 -0.18110384840E+02 -0.24440935652E+02  0.59301933939E+02  0.49999981601E+02 0.  0.
        -12    1    1    2    0    0  0.95590707838E+01  0.18110384840E+02  0.24440935652E+02  0.31886066061E+02  0.00000000000E+00 0.  1.
         11    1    3    3    0    0  0.48710179847E+01 -0.10957133445E+02 -0.51092898114E+01  0.13034202399E+02  0.51100000000E-03 0. -1.
        -11    1    3    3    0    0 -0.10503458147E+02  0.28641494632E+00 -0.30515161918E+02  0.32273515051E+02  0.51100000000E-03 0.  1.
        -12    1    3    3    0    0 -0.39266306212E+01 -0.74396663408E+01  0.11183516078E+02  0.13994216489E+02  0.00000000000E+00 0.  1.
</event>
<event>
 7    1  0.1221195E-011  0.5930197E+02  0.7816164E-02  0.1266605E+00
        -11   -1    0    0    0    0  0.00000000000E+00  0.00000000000E+00  0.45593999997E+02  0.45594000000E+02  0.51100000000E-03 0.  1.
         11   -1    0    0    0    0 -0.00000000000E+00 -0.00000000000E+00 -0.45593999997E+02  0.45594000000E+02  0.51100000000E-03 0. -1.
    9900012    2    1    2    0    0 -0.27814660707E+02  0.14723364206E+02  0.51270227004E+01  0.59301965979E+02  0.50000040034E+02 0.  0.
        -12    1    1    2    0    0  0.27814660707E+02 -0.14723364206E+02 -0.51270227004E+01  0.31886034021E+02  0.00000000000E+00 0.  1.
         11    1    3    3    0    0  0.55034977499E+01 -0.38128164161E+01 -0.78390000730E+01  0.10309024149E+02  0.51100000000E-03 0. -1.
        -11    1    3    3    0    0 -0.37321882458E+01  0.14297113313E+02 -0.30445764485E+01  0.15086620702E+02  0.51100000000E-03 0.  1.
        -12    1    3    3    0    0 -0.29585970211E+02  0.42390673091E+01  0.16010599222E+02  0.33906321128E+02  0.00000000000E+00 0.  1.
</event>
<event>
 7    1  0.1221195E-011  0.5930194E+02  0.7816164E-02  0.1266605E+00
        -11   -1    0    0    0    0  0.00000000000E+00  0.00000000000E+00  0.45593999997E+02  0.45594000000E+02  0.51100000000E-03 0. -1.
         11   -1    0    0    0    0 -0.00000000000E+00 -0.00000000000E+00 -0.45593999997E+02  0.45594000000E+02  0.51100000000E-03 0.  1.
    9900012    2    1    2    0    0  0.93936760692E+01 -0.21225322672E+02  0.21862415330E+02  0.59301942283E+02  0.49999996819E+02 0.  0.
        -12    1    1    2    0    0 -0.93936760692E+01  0.21225322672E+02 -0.21862415330E+02  0.31886057717E+02  0.00000000000E+00 0.  1.
         11    1    3    3    0    0 -0.63405352193E+01 -0.90243179435E+01  0.13632937056E+02  0.17535611601E+02  0.51100000000E-03 0. -1.
        -11    1    3    3    0    0  0.36366707393E+00 -0.17696526691E+02 -0.73832943064E+01  0.19178434393E+02  0.51100000000E-03 0.  1.
         12    1    3    3    0    0  0.15370544215E+02  0.54955219629E+01  0.15612772581E+02  0.22587896289E+02  0.00000000000E+00 0. -1.
</event>
<event>
 7    1  0.1221195E-011  0.5930195E+02  0.7816164E-02  0.1266605E+00
        -11   -1    0    0    0    0  0.00000000000E+00  0.00000000000E+00  0.45593999997E+02  0.45594000000E+02  0.51100000000E-03 0.  1.
         11   -1    0    0    0    0 -0.00000000000E+00 -0.00000000000E+00 -0.45593999997E+02  0.45594000000E+02  0.51100000000E-03 0. -1.
    9900012    2    1    2    0    0 -0.16570075595E+02  0.13049307112E+02 -0.23913767408E+02  0.59301951437E+02  0.50000013512E+02 0.  0.
        -12    1    1    2    0    0  0.16570075595E+02 -0.13049307112E+02  0.23913767408E+02  0.31886048563E+02  0.00000000000E+00 0.  1.
         11    1    3    3    0    0 -0.21610566032E+02  0.74213171897E+01 -0.58236944329E+01  0.23579820401E+02  0.51100000000E-03 0. -1.
        -11    1    3    3    0    0 -0.93140366178E+01  0.10260631007E+02 -0.14817412659E+02  0.20287620485E+02  0.51100000000E-03 0.  1.
        -12    1    3    3    0    0  0.14354527054E+02 -0.46326410850E+01 -0.32726603168E+01  0.15434510550E+02  0.00000000000E+00 0.  1.
</event>
<event>
 7    1  0.1221195E-011  0.5930192E+02  0.7816164E-02  0.1266605E+00
        -11   -1    0    0    0    0  0.00000000000E+00  0.00000000000E+00  0.45593999997E+02  0.45594000000E+02  0.51100000000E-03 0. -1.
         11   -1    0    0    0    0 -0.00000000000E+00 -0.00000000000E+00 -0.45593999997E+02  0.45594000000E+02  0.51100000000E-03 0.  1.
    9900012    2    1    2    0    0  0.24978389118E+02 -0.16884442265E+02  0.10378713989E+02  0.59301921257E+02  0.49999958472E+02 0.  0.
        -12    1    1    2    0    0 -0.24978389118E+02  0.16884442265E+02 -0.10378713989E+02  0.31886078743E+02  0.00000000000E+00 0.  1.
         11    1    3    3    0    0  0.46021807077E+01 -0.80487742261E+01  0.14713530165E+02  0.17391112788E+02  0.51100000000E-03 0. -1.
        -11    1    3    3    0    0  0.68147784420E+01  0.13100975559E+02 -0.62804017909E+01  0.16047436329E+02  0.51100000000E-03 0.  1.
         12    1    3    3    0    0  0.13561429968E+02 -0.21936643598E+02  0.19455856148E+01  0.25863372141E+02  0.00000000000E+00 0. -1.
</event>
<event>
 7    1  0.1221195E-011  0.5930192E+02  0.7816164E-02  0.1266605E+00
        -11   -1    0    0    0    0  0.00000000000E+00  0.00000000000E+00  0.45593999997E+02  0.45594000000E+02  0.51100000000E-03 0. -1.
         11   -1    0    0    0    0 -0.00000000000E+00 -0.00000000000E+00 -0.45593999997E+02  0.45594000000E+02  0.51100000000E-03 0.  1.
    9900012    2    1    2    0    0  0.28274031481E+02  0.20987311519E+01 -0.14590972697E+02  0.59301921331E+02  0.49999958606E+02 0.  0.
        -12    1    1    2    0    0 -0.28274031481E+02 -0.20987311519E+01  0.14590972697E+02  0.31886078669E+02  0.00000000000E+00 0.  1.
         11    1    3    3    0    0  0.79493699129E+01 -0.63376340616E+01  0.56788402709E+01  0.11645055371E+02  0.51100000000E-03 0. -1.
        -11    1    3    3    0    0 -0.36981237565E-01 -0.11611390780E+02  0.15357656586E+01  0.11712571873E+02  0.51100000000E-03 0.  1.
        -12    1    3    3    0    0  0.20361642806E+02  0.20047755994E+02 -0.21805578627E+02  0.35944294087E+02  0.00000000000E+00 0.  1.
</event>
<event>
 7    1  0.1221195E-011  0.5930194E+02  0.7816164E-02  0.1266605E+00
        -11   -1    0    0    0    0  0.00000000000E+00  0.00000000000E+00  0.45593999997E+02  0.45594000000E+02  0.51100000000E-03 0.  1.
         11   -1    0    0    0    0 -0.00000000000E+00 -0.00000000000E+00 -0.45593999997E+02  0.45594000000E+02  0.51100000000E-03 0. -1.
    9900012    2    1    2    0    0 -0.27940105355E+02  0.61728008371E+01 -0.14070104290E+02  0.59301940472E+02  0.49999993516E+02 0.  0.
        -12    1    1    2    0    0  0.27940105355E+02 -0.61728008371E+01  0.14070104290E+02  0.31886059528E+02  0.00000000000E+00 0.  1.
         11    1    3    3    0    0 -0.29022935977E+01  0.77197559241E+01  0.90319212679E+01  0.12230843867E+02  0.51100000000E-03 0.  1.
        -11    1    3    3    0    0 -0.11493935474E+02 -0.79096308103E+01  0.53346265825E+01  0.14937571867E+02  0.51100000000E-03 0. -1.
         12    1    3    3    0    0 -0.13543876284E+02  0.63626757233E+01 -0.28436652141E+02  0.32133524739E+02  0.00000000000E+00 0. -1.
</event>
<event>
 7    1  0.1221195E-011  0.5930194E+02  0.7816164E-02  0.1266605E+00
        -11   -1    0    0    0    0  0.00000000000E+00  0.00000000000E+00  0.45593999997E+02  0.45594000000E+02  0.51100000000E-03 0.  1.
         11   -1    0    0    0    0 -0.00000000000E+00 -0.00000000000E+00 -0.45593999997E+02  0.45594000000E+02  0.51100000000E-03 0. -1.
    9900012    2    1    2    0    0 -0.13861683256E+01  0.66537117186E+01 -0.31153288471E+02  0.59301941529E+02  0.49999995443E+02 0.  0.
        -12    1    1    2    0    0  0.13861683256E+01 -0.66537117186E+01  0.31153288471E+02  0.31886058471E+02  0.00000000000E+00 0.  1.
         11    1    3    3    0    0 -0.14678969215E+02 -0.31036406335E+01 -0.13200935384E+02  0.19984229224E+02  0.51100000000E-03 0. -1.
        -11    1    3    3    0    0  0.47203152940E+00  0.16902165229E+02 -0.10631391977E+01  0.16942144741E+02  0.51100000000E-03 0.  1.
         12    1    3    3    0    0  0.12820769360E+02 -0.71448128772E+01 -0.16889213889E+02  0.22375567564E+02  0.00000000000E+00 0. -1.
</event>
<event>
 7    1  0.1221195E-011  0.5930197E+02  0.7816164E-02  0.1266605E+00
        -11   -1    0    0    0    0  0.00000000000E+00  0.00000000000E+00  0.45593999997E+02  0.45594000000E+02  0.51100000000E-03 0.  1.
         11   -1    0    0    0    0 -0.00000000000E+00 -0.00000000000E+00 -0.45593999997E+02  0.45594000000E+02  0.51100000000E-03 0. -1.
    9900012    2    1    2    0    0  0.13645024279E+02 -0.13130716456E+02 -0.25653786158E+02  0.59301966279E+02  0.50000040582E+02 0.  0.
        -12    1    1    2    0    0 -0.13645024279E+02  0.13130716456E+02  0.25653786158E+02  0.31886033721E+02  0.00000000000E+00 0.  1.
         11    1    3    3    0    0 -0.39955118673E+01  0.29954742323E+01 -0.13177456776E+02  0.14091924932E+02  0.51100000000E-03 0. -1.
        -11    1    3    3    0    0 -0.67718833703E+01  0.52258852994E+01  0.32692322667E+01  0.91573009898E+01  0.51100000000E-03 0.  1.
         12    1    3    3    0    0  0.24412419516E+02 -0.21352075988E+02 -0.15745561648E+02  0.36052740357E+02  0.00000000000E+00 0. -1.
</event>
<event>
 7    1  0.1221195E-011  0.5930195E+02  0.7816164E-02  0.1266605E+00
        -11   -1    0    0    0    0  0.00000000000E+00  0.00000000000E+00  0.45593999997E+02  0.45594000000E+02  0.51100000000E-03 0. -1.
         11   -1    0    0    0    0 -0.00000000000E+00 -0.00000000000E+00 -0.45593999997E+02  0.45594000000E+02  0.51100000000E-03 0.  1.
    9900012    2    1    2    0    0 -0.14722128871E+02  0.25519952573E+02  0.12194730121E+02  0.59301945045E+02  0.50000001856E+02 0.  0.
        -12    1    1    2    0    0  0.14722128871E+02 -0.25519952573E+02 -0.12194730121E+02  0.31886054955E+02  0.00000000000E+00 0.  1.
         11    1    3    3    0    0 -0.45235229487E+01  0.20067180074E+02 -0.46690426797E+01  0.21093931256E+02  0.51100000000E-03 0. -1.
        -11    1    3    3    0    0 -0.10825536865E+02  0.57491587757E+01 -0.71458931349E+01  0.14188335491E+02  0.51100000000E-03 0.  1.
        -12    1    3    3    0    0  0.62693094290E+00 -0.29638627672E+00  0.24009665936E+02  0.24019678299E+02  0.00000000000E+00 0.  1.
</event>
<event>
 7    1  0.1221195E-011  0.5930194E+02  0.7816164E-02  0.1266605E+00
        -11   -1    0    0    0    0  0.00000000000E+00  0.00000000000E+00  0.45593999997E+02  0.45594000000E+02  0.51100000000E-03 0.  1.
         11   -1    0    0    0    0 -0.00000000000E+00 -0.00000000000E+00 -0.45593999997E+02  0.45594000000E+02  0.51100000000E-03 0. -1.
    9900012    2    1    2    0    0 -0.18143388655E+02 -0.24866810660E+02  0.83174597341E+01  0.59301937830E+02  0.49999988697E+02 0.  0.
        -12    1    1    2    0    0  0.18143388655E+02  0.24866810660E+02 -0.83174597341E+01  0.31886062170E+02  0.00000000000E+00 0.  1.
         11    1    3    3    0    0 -0.60260178042E+01  0.41356976275E+01  0.29031004306E+01  0.78641514364E+01  0.51100000000E-03 0. -1.
        -11    1    3    3    0    0  0.48665554628E+01  0.85636894078E+01 -0.50986875219E-01  0.98500120948E+01  0.51100000000E-03 0.  1.
         12    1    3    3    0    0 -0.16983926314E+02 -0.37566197695E+02  0.54653461787E+01  0.41587774299E+02  0.00000000000E+00 0. -1.
</event>
<event>
 7    1  0.1221195E-011  0.5930195E+02  0.7816164E-02  0.1266605E+00
        -11   -1    0    0    0    0  0.00000000000E+00  0.00000000000E+00  0.45593999997E+02  0.45594000000E+02  0.51100000000E-03 0. -1.
         11   -1    0    0    0    0 -0.00000000000E+00 -0.00000000000E+00 -0.45593999997E+02  0.45594000000E+02  0.51100000000E-03 0.  1.
    9900012    2    1    2    0    0  0.76680104218E+01  0.28618476789E+02  0.11785782872E+02  0.59301948576E+02  0.50000008294E+02 0.  0.
        -12    1    1    2    0    0 -0.76680104218E+01 -0.28618476789E+02 -0.11785782872E+02  0.31886051424E+02  0.00000000000E+00 0.  1.
         11    1    3    3    0    0 -0.18208843688E+02  0.22300170429E+02  0.40878648962E+01  0.29078690295E+02  0.51100000000E-03 0.  1.
        -11    1    3    3    0    0  0.18139294246E+00 -0.13596380567E+01  0.25789361909E+01  0.29210325542E+01  0.51100000000E-03 0. -1.
        -12    1    3    3    0    0  0.25695461168E+02  0.76779444166E+01  0.51189817849E+01  0.27302225726E+02  0.00000000000E+00 0.  1.
</event>
<event>
 7    1  0.1221195E-011  0.5930194E+02  0.7816164E-02  0.1266605E+00
        -11   -1    0    0    0    0  0.00000000000E+00  0.00000000000E+00  0.45593999997E+02  0.45594000000E+02  0.51100000000E-03 0. -1.
         11   -1    0    0    0    0 -0.00000000000E+00 -0.00000000000E+00 -0.45593999997E+02  0.45594000000E+02  0.51100000000E-03 0.  1.
    9900012    2    1    2    0    0 -0.31598308831E+02 -0.38109793615E+01  0.19350563952E+01  0.59301935208E+02  0.49999983915E+02 0.  0.
        -12    1    1    2    0    0  0.31598308831E+02  0.38109793615E+01 -0.19350563952E+01  0.31886064792E+02  0.00000000000E+00 0.  1.
         11    1    3    3    0    0 -0.36970379498E+02  0.53252464137E+01 -0.97294843605E+01  0.38598317007E+02  0.51100000000E-03 0. -1.
        -11    1    3    3    0    0  0.19435608414E+01  0.33355222923E+01  0.11312045086E+01  0.40227803330E+01  0.51100000000E-03 0.  1.
        -12    1    3    3    0    0  0.34285098257E+01 -0.12471748067E+02  0.10533336247E+02  0.16680837868E+02  0.00000000000E+00 0.  1.
</event>
<event>
 7    1  0.1221195E-011  0.5930195E+02  0.7816164E-02  0.1266605E+00
        -11   -1    0    0    0    0  0.00000000000E+00  0.00000000000E+00  0.45593999997E+02  0.45594000000E+02  0.51100000000E-03 0.  1.
         11   -1    0    0    0    0 -0.00000000000E+00 -0.00000000000E+00 -0.45593999997E+02  0.45594000000E+02  0.51100000000E-03 0. -1.
    9900012    2    1    2    0    0 -0.32255126133E+01  0.18855671063E+02 -0.25510386606E+02  0.59301951521E+02  0.50000013665E+02 0.  0.
        -12    1    1    2    0    0  0.32255126133E+01 -0.18855671063E+02  0.25510386606E+02  0.31886048479E+02  0.00000000000E+00 0.  1.
         11    1    3    3    0    0  0.14729280795E+02 -0.84613199128E+01 -0.92534737689E+01  0.19343537020E+02  0.51100000000E-03 0. -1.
        -11    1    3    3    0    0 -0.51371883849E+01  0.38673555033E+00 -0.70752763078E+01  0.87521313965E+01  0.51100000000E-03 0.  1.
        -12    1    3    3    0    0 -0.12817605023E+02  0.26930255425E+02 -0.91816365292E+01  0.31206283104E+02  0.00000000000E+00 0.  1.
</event>
<event>
 7    1  0.1221195E-011  0.5930177E+02  0.7816164E-02  0.1266605E+00
        -11   -1    0    0    0    0  0.00000000000E+00  0.00000000000E+00  0.45593999997E+02  0.45594000000E+02  0.51100000000E-03 0. -1.
         11   -1    0    0    0    0 -0.00000000000E+00 -0.00000000000E+00 -0.45593999997E+02  0.45594000000E+02  0.51100000000E-03 0.  1.
    9900012    2    1    2    0    0 -0.31473064641E+02  0.23865633299E+00  0.51108389428E+01  0.59301773672E+02  0.49999689312E+02 0.  0.
        -12    1    1    2    0    0  0.31473064641E+02 -0.23865633299E+00 -0.51108389428E+01  0.31886226328E+02  0.00000000000E+00 0.  1.
         11    1    3    3    0    0 -0.57199296293E+01  0.46629118995E+01  0.13466647121E+02  0.15356136471E+02  0.51100000000E-03 0. -1.
        -11    1    3    3    0    0 -0.32207461100E+02  0.40279350056E+01 -0.72086070875E+01  0.33249192883E+02  0.51100000000E-03 0.  1.
        -12    1    3    3    0    0  0.64543260892E+01 -0.84521905721E+01 -0.11472010911E+01  0.10696444319E+02  0.00000000000E+00 0.  1.
</event>
<event>
 7    1  0.1221195E-011  0.5930196E+02  0.7816164E-02  0.1266605E+00
        -11   -1    0    0    0    0  0.00000000000E+00  0.00000000000E+00  0.45593999997E+02  0.45594000000E+02  0.51100000000E-03 0.  1.
         11   -1    0    0    0    0 -0.00000000000E+00 -0.00000000000E+00 -0.45593999997E+02  0.45594000000E+02  0.51100000000E-03 0. -1.
    9900012    2    1    2    0    0 -0.19105340937E+02 -0.11526355728E+02 -0.22778245608E+02  0.59301962277E+02  0.50000033282E+02 0.  0.
        -12    1    1    2    0    0  0.19105340937E+02  0.11526355728E+02  0.22778245608E+02  0.31886037723E+02  0.00000000000E+00 0.  1.
         11    1    3    3    0    0 -0.10392748208E+02  0.62263466777E+01  0.39159659490E+01  0.12732297430E+02  0.51100000000E-03 0. -1.
        -11    1    3    3    0    0 -0.10268222552E+02 -0.72363257437E+01  0.47092691589E+01  0.13415588728E+02  0.51100000000E-03 0.  1.
         12    1    3    3    0    0  0.15556298229E+01 -0.10516376662E+02 -0.31403480716E+02  0.33154076119E+02  0.00000000000E+00 0. -1.
</event>
<event>
 7    1  0.1221195E-011  0.5930192E+02  0.7816164E-02  0.1266605E+00
        -11   -1    0    0    0    0  0.00000000000E+00  0.00000000000E+00  0.45593999997E+02  0.45594000000E+02  0.51100000000E-03 0. -1.
         11   -1    0    0    0    0 -0.00000000000E+00 -0.00000000000E+00 -0.45593999997E+02  0.45594000000E+02  0.51100000000E-03 0.  1.
    9900012    2    1    2    0    0  0.24200983928E+02 -0.10914151604E+02  0.17661145342E+02  0.59301915526E+02  0.49999948020E+02 0.  0.
        -12    1    1    2    0    0 -0.24200983928E+02  0.10914151604E+02 -0.17661145342E+02  0.31886084474E+02  0.00000000000E+00 0.  1.
         11    1    3    3    0    0  0.18152272083E+02 -0.19376587494E+02  0.24573322399E+02  0.36177414207E+02  0.51100000000E-03 0.  1.
        -11    1    3    3    0    0  0.50391236929E+01 -0.55352585845E+01 -0.11077658702E-01  0.74854510996E+01  0.51100000000E-03 0. -1.
        -12    1    3    3    0    0  0.10095881517E+01  0.13997694475E+02 -0.69010993989E+01  0.15639050219E+02  0.00000000000E+00 0.  1.
</event>
<event>
 7    1  0.1221195E-011  0.5930196E+02  0.7816164E-02  0.1266605E+00
        -11   -1    0    0    0    0  0.00000000000E+00  0.00000000000E+00  0.45593999997E+02  0.45594000000E+02  0.51100000000E-03 0.  1.
         11   -1    0    0    0    0 -0.00000000000E+00 -0.00000000000E+00 -0.45593999997E+02  0.45594000000E+02  0.51100000000E-03 0. -1.
    9900012    2    1    2    0    0  0.16511800041E+02  0.22661616402E+02 -0.15183250212E+02  0.59301960962E+02  0.50000030884E+02 0.  0.
        -12    1    1    2    0    0 -0.16511800041E+02 -0.22661616402E+02  0.15183250212E+02  0.31886039038E+02  0.00000000000E+00 0.  1.
         11    1    3    3    0    0 -0.23745782279E+01 -0.40392357174E+01 -0.22948349758E+02  0.23421801890E+02  0.51100000000E-03 0. -1.
        -11    1    3    3    0    0  0.33484279509E+01  0.15149786920E+01 -0.26245786321E+01  0.45161425394E+01  0.51100000000E-03 0.  1.
         12    1    3    3    0    0  0.15537950318E+02  0.25185873427E+02  0.10389678178E+02  0.31364016532E+02  0.00000000000E+00 0. -1.
</event>
<event>
 7    1  0.1221195E-011  0.5930192E+02  0.7816164E-02  0.1266605E+00
        -11   -1    0    0    0    0  0.00000000000E+00  0.00000000000E+00  0.45593999997E+02  0.45594000000E+02  0.51100000000E-03 0. -1.
         11   -1    0    0    0    0 -0.00000000000E+00 -0.00000000000E+00 -0.45593999997E+02  0.45594000000E+02  0.51100000000E-03 0.  1.
    9900012    2    1    2    0    0  0.16405101405E+02  0.11460803629E+02  0.24824277942E+02  0.59301919224E+02  0.49999954763E+02 0.  0.
        -12    1    1    2    0    0 -0.16405101405E+02 -0.11460803629E+02 -0.24824277942E+02  0.31886080776E+02  0.00000000000E+00 0.  1.
         11    1    3    3    0    0 -0.14615911566E+01  0.13453316127E+00  0.13472783492E+02  0.13552499517E+02  0.51100000000E-03 0. -1.
        -11    1    3    3    0    0  0.55071772906E+00  0.23270220226E+02  0.63486202390E+01  0.24126985278E+02  0.51100000000E-03 0.  1.
         12    1    3    3    0    0  0.17315974833E+02 -0.11943949758E+02  0.50028742109E+01  0.21622434429E+02  0.00000000000E+00 0. -1.
</event>
<event>
 7    1  0.1221195E-011  0.5930219E+02  0.7816164E-02  0.1266604E+00
        -11   -1    0    0    0    0  0.00000000000E+00  0.00000000000E+00  0.45593999997E+02  0.45594000000E+02  0.51100000000E-03 0.  1.
         11   -1    0    0    0    0 -0.00000000000E+00 -0.00000000000E+00 -0.45593999997E+02  0.45594000000E+02  0.51100000000E-03 0. -1.
    9900012    2    1    2    0    0 -0.10152595836E+02 -0.54937412986E+01 -0.29722865949E+02  0.59302185664E+02  0.50000440684E+02 0.  0.
        -12    1    1    2    0    0  0.10152595836E+02  0.54937412986E+01  0.29722865949E+02  0.31885814336E+02  0.00000000000E+00 0.  1.
         11    1    3    3    0    0  0.88060226005E+01 -0.35262915060E+01 -0.69178652921E+01  0.11740427006E+02  0.51100000000E-03 0. -1.
        -11    1    3    3    0    0  0.11142307316E+01 -0.85615722018E+01  0.69395442429E+01  0.11076971754E+02  0.51100000000E-03 0.  1.
        -12    1    3    3    0    0 -0.20072849168E+02  0.65941224092E+01 -0.29744544900E+02  0.36484786903E+02  0.00000000000E+00 0.  1.
</event>
<event>
 7    1  0.1221195E-011  0.5930195E+02  0.7816164E-02  0.1266605E+00
        -11   -1    0    0    0    0  0.00000000000E+00  0.00000000000E+00  0.45593999997E+02  0.45594000000E+02  0.51100000000E-03 0.  1.
         11   -1    0    0    0    0 -0.00000000000E+00 -0.00000000000E+00 -0.45593999997E+02  0.45594000000E+02  0.51100000000E-03 0. -1.
    9900012    2    1    2    0    0 -0.14691394350E+02 -0.24651262221E+02 -0.13899576045E+02  0.59301952718E+02  0.50000015848E+02 0.  0.
        -12    1    1    2    0    0  0.14691394350E+02  0.24651262221E+02  0.13899576045E+02  0.31886047282E+02  0.00000000000E+00 0.  1.
         11    1    3    3    0    0 -0.44125341885E+01 -0.64283386801E+01 -0.10288065072E+02  0.12908845004E+02  0.51100000000E-03 0. -1.
        -11    1    3    3    0    0  0.10910357611E+02  0.66339619839E+01 -0.49704487184E+01  0.13702215716E+02  0.51100000000E-03 0.  1.
        -12    1    3    3    0    0 -0.21189217773E+02 -0.24856885525E+02  0.13589377447E+01  0.32690891998E+02  0.00000000000E+00 0.  1.
</event>
<event>
 7    1  0.1221195E-011  0.5930195E+02  0.7816164E-02  0.1266605E+00
        -11   -1    0    0    0    0  0.00000000000E+00  0.00000000000E+00  0.45593999997E+02  0.45594000000E+02  0.51100000000E-03 0.  1.
         11   -1    0    0    0    0 -0.00000000000E+00 -0.00000000000E+00 -0.45593999997E+02  0.45594000000E+02  0.51100000000E-03 0. -1.
    9900012    2    1    2    0    0  0.26323525411E+02  0.16083566222E+02 -0.80691582378E+01  0.59301946510E+02  0.50000004527E+02 0.  0.
        -12    1    1    2    0    0 -0.26323525411E+02 -0.16083566222E+02  0.80691582378E+01  0.31886053490E+02  0.00000000000E+00 0.  1.
         11    1    3    3    0    0  0.17548586002E+01  0.14308287307E+02 -0.15378113874E+02  0.21078258964E+02  0.51100000000E-03 0. -1.
        -11    1    3    3    0    0  0.12303980763E+02  0.13859393002E+02  0.95703372975E+01  0.20858141654E+02  0.51100000000E-03 0.  1.
        -12    1    3    3    0    0  0.12264686048E+02 -0.12084114087E+02 -0.22613816609E+01  0.17365545892E+02  0.00000000000E+00 0.  1.
</event>
<event>
 7    1  0.1221195E-011  0.5930195E+02  0.7816164E-02  0.1266605E+00
        -11   -1    0    0    0    0  0.00000000000E+00  0.00000000000E+00  0.45593999997E+02  0.45594000000E+02  0.51100000000E-03 0.  1.
         11   -1    0    0    0    0 -0.00000000000E+00 -0.00000000000E+00 -0.45593999997E+02  0.45594000000E+02  0.51100000000E-03 0. -1.
    9900012    2    1    2    0    0 -0.22335036661E+02  0.27728441165E+01 -0.22587110123E+02  0.59301951784E+02  0.50000014145E+02 0.  0.
        -12    1    1    2    0    0  0.22335036661E+02 -0.27728441165E+01  0.22587110123E+02  0.31886048216E+02  0.00000000000E+00 0.  1.
         11    1    3    3    0    0 -0.31408381277E+01  0.11861141417E+02 -0.98381926999E+01  0.15727096863E+02  0.51100000000E-03 0. -1.
        -11    1    3    3    0    0 -0.31878013483E+00 -0.18566495489E+02  0.61711886419E+00  0.18579483617E+02  0.51100000000E-03 0.  1.
         12    1    3    3    0    0 -0.18875418399E+02  0.94781981878E+01 -0.13366036287E+02  0.24995371304E+02  0.00000000000E+00 0. -1.
</event>
<event>
 7    1  0.1221195E-011  0.5930193E+02  0.7816164E-02  0.1266605E+00
        -11   -1    0    0    0    0  0.00000000000E+00  0.00000000000E+00  0.45593999997E+02  0.45594000000E+02  0.51100000000E-03 0. -1.
         11   -1    0    0    0    0 -0.00000000000E+00 -0.00000000000E+00 -0.45593999997E+02  0.45594000000E+02  0.51100000000E-03 0.  1.
    9900012    2    1    2    0    0  0.17294345502E+01 -0.86177428333E+01  0.30650692239E+02  0.59301931410E+02  0.49999976989E+02 0.  0.
        -12    1    1    2    0    0 -0.17294345502E+01  0.86177428333E+01 -0.30650692239E+02  0.31886068590E+02  0.00000000000E+00 0.  1.
         11    1    3    3    0    0  0.13244847739E+02 -0.32883823642E+01  0.13057365124E+02  0.18887409416E+02  0.51100000000E-03 0. -1.
        -11    1    3    3    0    0  0.91237295967E+01  0.75916658348E+01  0.75982730983E+01  0.14092891337E+02  0.51100000000E-03 0.  1.
        -12    1    3    3    0    0 -0.20639142785E+02 -0.12921026304E+02  0.99950540158E+01  0.26321630657E+02  0.00000000000E+00 0.  1.
</event>
<event>
 7    1  0.1221195E-011  0.5930195E+02  0.7816164E-02  0.1266605E+00
        -11   -1    0    0    0    0  0.00000000000E+00  0.00000000000E+00  0.45593999997E+02  0.45594000000E+02  0.51100000000E-03 0. -1.
         11   -1    0    0    0    0 -0.00000000000E+00 -0.00000000000E+00 -0.45593999997E+02  0.45594000000E+02  0.51100000000E-03 0.  1.
    9900012    2    1    2    0    0  0.11069412634E+02  0.89460157668E+01  0.28533439086E+02  0.59301949127E+02  0.50000009300E+02 0.  0.
        -12    1    1    2    0    0 -0.11069412634E+02 -0.89460157668E+01 -0.28533439086E+02  0.31886050873E+02  0.00000000000E+00 0.  1.
         11    1    3    3    0    0 -0.93629511776E+01 -0.67207054325E+01  0.43428344656E+01  0.12316369096E+02  0.51100000000E-03 0. -1.
        -11    1    3    3    0    0 -0.26913471021E+01 -0.17183226919E+01 -0.49710489274E+01  0.59082408378E+01  0.51100000000E-03 0.  1.
         12    1    3    3    0    0  0.23123710914E+02  0.17385043891E+02  0.29161653548E+02  0.41077339193E+02  0.00000000000E+00 0. -1.
</event>
<event>
 7    1  0.1221195E-011  0.5930193E+02  0.7816164E-02  0.1266605E+00
        -11   -1    0    0    0    0  0.00000000000E+00  0.00000000000E+00  0.45593999997E+02  0.45594000000E+02  0.51100000000E-03 0. -1.
         11   -1    0    0    0    0 -0.00000000000E+00 -0.00000000000E+00 -0.45593999997E+02  0.45594000000E+02  0.51100000000E-03 0.  1.
    9900012    2    1    2    0    0 -0.82360909730E+01 -0.20120021440E+02  0.23325376765E+02  0.59301926888E+02  0.49999968741E+02 0.  0.
        -12    1    1    2    0    0  0.82360909730E+01  0.20120021440E+02 -0.23325376765E+02  0.31886073112E+02  0.00000000000E+00 0.  1.
         11    1    3    3    0    0  0.93416917885E+01 -0.13521668831E+02 -0.23130877927E+01  0.16596780074E+02  0.51100000000E-03 0. -1.
        -11    1    3    3    0    0 -0.19045465305E+02 -0.25679414904E+01  0.27444479023E+01  0.19412781015E+02  0.51100000000E-03 0.  1.
         12    1    3    3    0    0  0.14676825438E+01 -0.40304111192E+01  0.22894016656E+02  0.23292365798E+02  0.00000000000E+00 0. -1.
</event>
<event>
 7    1  0.1221195E-011  0.5930197E+02  0.7816164E-02  0.1266605E+00
        -11   -1    0    0    0    0  0.00000000000E+00  0.00000000000E+00  0.45593999997E+02  0.45594000000E+02  0.51100000000E-03 0.  1.
         11   -1    0    0    0    0 -0.00000000000E+00 -0.00000000000E+00 -0.45593999997E+02  0.45594000000E+02  0.51100000000E-03 0. -1.
    9900012    2    1    2    0    0 -0.20949124132E+02  0.23848783153E+02 -0.30147140564E+01  0.59301972329E+02  0.50000051615E+02 0.  0.
        -12    1    1    2    0    0  0.20949124132E+02 -0.23848783153E+02  0.30147140564E+01  0.31886027671E+02  0.00000000000E+00 0.  1.
         11    1    3    3    0    0 -0.25061214677E+01  0.13109578408E+00  0.44831376903E+01  0.51377382891E+01  0.51100000000E-03 0. -1.
        -11    1    3    3    0    0 -0.42211987827E+01  0.24704372452E+02  0.13742798820E+02  0.28583020433E+02  0.51100000000E-03 0.  1.
         12    1    3    3    0    0 -0.14221803881E+02 -0.98668508305E+00 -0.21240650567E+02  0.25581213607E+02  0.00000000000E+00 0. -1.
</event>
<event>
 7    1  0.1221195E-011  0.5930186E+02  0.7816164E-02  0.1266605E+00
        -11   -1    0    0    0    0  0.00000000000E+00  0.00000000000E+00  0.45593999997E+02  0.45594000000E+02  0.51100000000E-03 0.  1.
         11   -1    0    0    0    0 -0.00000000000E+00 -0.00000000000E+00 -0.45593999997E+02  0.45594000000E+02  0.51100000000E-03 0. -1.
    9900012    2    1    2    0    0  0.74118517396E+00 -0.30792154203E+02  0.82474036190E+01  0.59301862222E+02  0.49999850806E+02 0.  0.
        -12    1    1    2    0    0 -0.74118517396E+00  0.30792154203E+02 -0.82474036190E+01  0.31886137778E+02  0.00000000000E+00 0.  1.
         11    1    3    3    0    0  0.17135400826E+01 -0.14148070259E+02 -0.16868913400E+00  0.14252458312E+02  0.51100000000E-03 0. -1.
        -11    1    3    3    0    0 -0.19467203604E+02 -0.13707087395E+02  0.10851557207E+02  0.26165101855E+02  0.51100000000E-03 0.  1.
         12    1    3    3    0    0  0.18494848695E+02 -0.29369965496E+01 -0.24354644537E+01  0.18884302055E+02  0.00000000000E+00 0. -1.
</event>
<event>
 7    1  0.1221195E-011  0.5930194E+02  0.7816164E-02  0.1266605E+00
        -11   -1    0    0    0    0  0.00000000000E+00  0.00000000000E+00  0.45593999997E+02  0.45594000000E+02  0.51100000000E-03 0.  1.
         11   -1    0    0    0    0 -0.00000000000E+00 -0.00000000000E+00 -0.45593999997E+02  0.45594000000E+02  0.51100000000E-03 0. -1.
    9900012    2    1    2    0    0 -0.20092149483E+02 -0.15443929075E+02 -0.19352294697E+02  0.59301941508E+02  0.49999995404E+02 0.  0.
        -12    1    1    2    0    0  0.20092149483E+02  0.15443929075E+02  0.19352294697E+02  0.31886058492E+02  0.00000000000E+00 0.  1.
         11    1    3    3    0    0 -0.73254470298E+01 -0.52182391981E-01 -0.16858691585E+02  0.18381522772E+02  0.51100000000E-03 0. -1.
        -11    1    3    3    0    0  0.35383957653E+01 -0.22039033063E+02  0.28904302989E+01  0.22507638937E+02  0.51100000000E-03 0.  1.
         12    1    3    3    0    0 -0.16305098219E+02  0.66472863798E+01 -0.53840334109E+01  0.18412779799E+02  0.00000000000E+00 0. -1.
</event>
<event>
 7    1  0.1221195E-011  0.5930193E+02  0.7816164E-02  0.1266605E+00
        -11   -1    0    0    0    0  0.00000000000E+00  0.00000000000E+00  0.45593999997E+02  0.45594000000E+02  0.51100000000E-03 0. -1.
         11   -1    0    0    0    0 -0.00000000000E+00 -0.00000000000E+00 -0.45593999997E+02  0.45594000000E+02  0.51100000000E-03 0.  1.
    9900012    2    1    2    0    0  0.35463404919E+01  0.10550697611E+02  0.29880221470E+02  0.59301931160E+02  0.49999976533E+02 0.  0.
        -12    1    1    2    0    0 -0.35463404919E+01 -0.10550697611E+02 -0.29880221470E+02  0.31886068840E+02  0.00000000000E+00 0.  1.
         11    1    3    3    0    0  0.74983189863E+01 -0.97568404663E+00 -0.62354636065E+01  0.98009057554E+01  0.51100000000E-03 0. -1.
        -11    1    3    3    0    0  0.20329122276E+01  0.18536883673E+02  0.87007555003E+01  0.20577947783E+02  0.51100000000E-03 0.  1.
         12    1    3    3    0    0 -0.59848907220E+01 -0.70105020147E+01  0.27414929576E+02  0.28923077622E+02  0.00000000000E+00 0. -1.
</event>
<event>
 7    1  0.1221195E-011  0.5930195E+02  0.7816164E-02  0.1266605E+00
        -11   -1    0    0    0    0  0.00000000000E+00  0.00000000000E+00  0.45593999997E+02  0.45594000000E+02  0.51100000000E-03 0.  1.
         11   -1    0    0    0    0 -0.00000000000E+00 -0.00000000000E+00 -0.45593999997E+02  0.45594000000E+02  0.51100000000E-03 0. -1.
    9900012    2    1    2    0    0  0.51315808394E+01  0.17115342550E+02 -0.26409314267E+02  0.59301953639E+02  0.50000017528E+02 0.  0.
        -12    1    1    2    0    0 -0.51315808394E+01 -0.17115342550E+02  0.26409314267E+02  0.31886046361E+02  0.00000000000E+00 0.  1.
         11    1    3    3    0    0  0.14267677533E+02  0.28660673371E+01 -0.11319199796E+02  0.18436519423E+02  0.51100000000E-03 0. -1.
        -11    1    3    3    0    0  0.74552789304E+01  0.69461231262E+01 -0.19683778785E+02  0.22164858627E+02  0.51100000000E-03 0.  1.
        -12    1    3    3    0    0 -0.16591375624E+02  0.73031520869E+01  0.45936643150E+01  0.18700575588E+02  0.00000000000E+00 0.  1.
</event>
<event>
 7    1  0.1221195E-011  0.5930198E+02  0.7816164E-02  0.1266605E+00
        -11   -1    0    0    0    0  0.00000000000E+00  0.00000000000E+00  0.45593999997E+02  0.45594000000E+02  0.51100000000E-03 0.  1.
         11   -1    0    0    0    0 -0.00000000000E+00 -0.00000000000E+00 -0.45593999997E+02  0.45594000000E+02  0.51100000000E-03 0. -1.
    9900012    2    1    2    0    0 -0.54724014447E+01  0.30670389367E+02  0.67895877909E+01  0.59301976982E+02  0.50000060101E+02 0.  0.
        -12    1    1    2    0    0  0.54724014447E+01 -0.30670389367E+02 -0.67895877909E+01  0.31886023018E+02  0.00000000000E+00 0.  1.
         11    1    3    3    0    0 -0.17094852224E+01 -0.70749614136E+01  0.36317652768E+01  0.81343185343E+01  0.51100000000E-03 0.  1.
        -11    1    3    3    0    0 -0.17000126101E+02  0.32760520877E+02  0.16971886636E+01  0.36947753181E+02  0.51100000000E-03 0. -1.
         12    1    3    3    0    0  0.13237209878E+02  0.49848299045E+01  0.14606338505E+01  0.14219905266E+02  0.00000000000E+00 0. -1.
</event>
<event>
 7    1  0.1221195E-011  0.5930192E+02  0.7816164E-02  0.1266605E+00
        -11   -1    0    0    0    0  0.00000000000E+00  0.00000000000E+00  0.45593999997E+02  0.45594000000E+02  0.51100000000E-03 0.  1.
         11   -1    0    0    0    0 -0.00000000000E+00 -0.00000000000E+00 -0.45593999997E+02  0.45594000000E+02  0.51100000000E-03 0. -1.
    9900012    2    1    2    0    0  0.13268809926E+01  0.28271749516E+02  0.14685694296E+02  0.59301920736E+02  0.49999957522E+02 0.  0.
        -12    1    1    2    0    0 -0.13268809926E+01 -0.28271749516E+02 -0.14685694296E+02  0.31886079264E+02  0.00000000000E+00 0.  1.
         11    1    3    3    0    0  0.24551279489E+01  0.52498062184E+01 -0.82205386503E+01  0.10058099947E+02  0.51100000000E-03 0. -1.
        -11    1    3    3    0    0  0.13899243607E+02  0.24829756995E+02  0.14812046779E+02  0.32079628042E+02  0.51100000000E-03 0.  1.
         12    1    3    3    0    0 -0.15027490563E+02 -0.18078136966E+01  0.80941861667E+01  0.17164192748E+02  0.00000000000E+00 0. -1.
</event>
<event>
 7    1  0.1221195E-011  0.5930198E+02  0.7816164E-02  0.1266605E+00
        -11   -1    0    0    0    0  0.00000000000E+00  0.00000000000E+00  0.45593999997E+02  0.45594000000E+02  0.51100000000E-03 0.  1.
         11   -1    0    0    0    0 -0.00000000000E+00 -0.00000000000E+00 -0.45593999997E+02  0.45594000000E+02  0.51100000000E-03 0. -1.
    9900012    2    1    2    0    0 -0.10961102160E+02 -0.29358320582E+02 -0.58873822869E+01  0.59301983972E+02  0.50000072848E+02 0.  0.
        -12    1    1    2    0    0  0.10961102160E+02  0.29358320582E+02  0.58873822869E+01  0.31886016028E+02  0.00000000000E+00 0.  1.
         11    1    3    3    0    0  0.48006955965E+01 -0.14400815092E+02 -0.81523369178E+01  0.17230518014E+02  0.51100000000E-03 0. -1.
        -11    1    3    3    0    0 -0.19660189444E+02 -0.23487224459E+02 -0.38574955603E+01  0.30871557039E+02  0.51100000000E-03 0.  1.
         12    1    3    3    0    0  0.38983916873E+01  0.85297189694E+01  0.61224501911E+01  0.11199908919E+02  0.00000000000E+00 0. -1.
</event>
<event>
 7    1  0.1221195E-011  0.5930192E+02  0.7816164E-02  0.1266605E+00
        -11   -1    0    0    0    0  0.00000000000E+00  0.00000000000E+00  0.45593999997E+02  0.45594000000E+02  0.51100000000E-03 0.  1.
         11   -1    0    0    0    0 -0.00000000000E+00 -0.00000000000E+00 -0.45593999997E+02  0.45594000000E+02  0.51100000000E-03 0. -1.
    9900012    2    1    2    0    0 -0.23538739003E+02  0.12425637282E+02 -0.17557143770E+02  0.59301921642E+02  0.49999959174E+02 0.  0.
        -12    1    1    2    0    0  0.23538739003E+02 -0.12425637282E+02  0.17557143770E+02  0.31886078358E+02  0.00000000000E+00 0.  1.
         11    1    3    3    0    0 -0.21692984820E+02  0.16530295926E+02 -0.11116066588E+02  0.29451709806E+02  0.51100000000E-03 0. -1.
        -11    1    3    3    0    0  0.52736650914E+00  0.98184653179E+01  0.55778968430E+01  0.11304570318E+02  0.51100000000E-03 0.  1.
        -12    1    3    3    0    0 -0.23731206912E+01 -0.13923123963E+02 -0.12018974025E+02  0.18545641518E+02  0.00000000000E+00 0.  1.
</event>
<event>
 7    1  0.1221195E-011  0.5930195E+02  0.7816164E-02  0.1266605E+00
        -11   -1    0    0    0    0  0.00000000000E+00  0.00000000000E+00  0.45593999997E+02  0.45594000000E+02  0.51100000000E-03 0.  1.
         11   -1    0    0    0    0 -0.00000000000E+00 -0.00000000000E+00 -0.45593999997E+02  0.45594000000E+02  0.51100000000E-03 0. -1.
    9900012    2    1    2    0    0 -0.13764660410E+02 -0.85396821396E+01 -0.27465038952E+02  0.59301946436E+02  0.50000004393E+02 0.  0.
        -12    1    1    2    0    0  0.13764660410E+02  0.85396821396E+01  0.27465038952E+02  0.31886053564E+02  0.00000000000E+00 0.  1.
         11    1    3    3    0    0  0.84843419002E+01 -0.63874043300E+01 -0.19019722532E+02  0.21783774627E+02  0.51100000000E-03 0. -1.
        -11    1    3    3    0    0  0.36426422718E+01  0.45938969712E+01  0.48794952837E+01  0.76277261741E+01  0.51100000000E-03 0.  1.
        -12    1    3    3    0    0 -0.25891644582E+02 -0.67461747809E+01 -0.13324811703E+02  0.29890445635E+02  0.00000000000E+00 0.  1.
</event>
<event>
 7    1  0.1221195E-011  0.5930196E+02  0.7816164E-02  0.1266605E+00
        -11   -1    0    0    0    0  0.00000000000E+00  0.00000000000E+00  0.45593999997E+02  0.45594000000E+02  0.51100000000E-03 0.  1.
         11   -1    0    0    0    0 -0.00000000000E+00 -0.00000000000E+00 -0.45593999997E+02  0.45594000000E+02  0.51100000000E-03 0. -1.
    9900012    2    1    2    0    0 -0.19019719377E+02 -0.25586385076E+02 -0.55363357996E+00  0.59301963298E+02  0.50000035144E+02 0.  0.
        -12    1    1    2    0    0  0.19019719377E+02  0.25586385076E+02  0.55363357996E+00  0.31886036702E+02  0.00000000000E+00 0.  1.
         11    1    3    3    0    0 -0.21640824574E+02 -0.14464278973E+02 -0.11841875403E+02  0.28596689805E+02  0.51100000000E-03 0. -1.
        -11    1    3    3    0    0 -0.71548343023E+01  0.50498297166E+01  0.12727854143E+00  0.87583465420E+01  0.51100000000E-03 0.  1.
        -12    1    3    3    0    0  0.97759394993E+01 -0.16171935819E+02  0.11160963281E+02  0.21946926951E+02  0.00000000000E+00 0.  1.
</event>
<event>
 7    1  0.1221195E-011  0.5930194E+02  0.7816164E-02  0.1266605E+00
        -11   -1    0    0    0    0  0.00000000000E+00  0.00000000000E+00  0.45593999997E+02  0.45594000000E+02  0.51100000000E-03 0. -1.
         11   -1    0    0    0    0 -0.00000000000E+00 -0.00000000000E+00 -0.45593999997E+02  0.45594000000E+02  0.51100000000E-03 0.  1.
    9900012    2    1    2    0    0 -0.30204248751E+01  0.29608649997E+02 -0.11442284051E+02  0.59301937443E+02  0.49999987992E+02 0.  0.
        -12    1    1    2    0    0  0.30204248751E+01 -0.29608649997E+02  0.11442284051E+02  0.31886062557E+02  0.00000000000E+00 0.  1.
         11    1    3    3    0    0 -0.54140300851E+01  0.20960426655E+02 -0.38816384073E+01  0.21993597348E+02  0.51100000000E-03 0.  1.
        -11    1    3    3    0    0 -0.13264928487E+02  0.76731548749E+01 -0.13608101770E+02  0.20494293537E+02  0.51100000000E-03 0. -1.
        -12    1    3    3    0    0  0.15658533698E+02  0.97506846716E+00  0.60474561271E+01  0.16814046559E+02  0.00000000000E+00 0.  1.
</event>
<event>
 7    1  0.1221195E-011  0.5930195E+02  0.7816164E-02  0.1266605E+00
        -11   -1    0    0    0    0  0.00000000000E+00  0.00000000000E+00  0.45593999997E+02  0.45594000000E+02  0.51100000000E-03 0. -1.
         11   -1    0    0    0    0 -0.00000000000E+00 -0.00000000000E+00 -0.45593999997E+02  0.45594000000E+02  0.51100000000E-03 0.  1.
    9900012    2    1    2    0    0 -0.15483410105E+02 -0.10988410976E+02  0.25617160623E+02  0.59301951599E+02  0.50000013808E+02 0.  0.
        -12    1    1    2    0    0  0.15483410105E+02  0.10988410976E+02 -0.25617160623E+02  0.31886048401E+02  0.00000000000E+00 0.  1.
         11    1    3    3    0    0  0.15145568294E+02  0.29287037130E+01  0.18386453192E+02  0.24000566777E+02  0.51100000000E-03 0. -1.
        -11    1    3    3    0    0 -0.10341679124E+02 -0.16834659575E+01  0.46751577886E+01  0.11473512337E+02  0.51100000000E-03 0.  1.
        -12    1    3    3    0    0 -0.20287299275E+02 -0.12233648731E+02  0.25555496423E+01  0.23827872485E+02  0.00000000000E+00 0.  1.
</event>
<event>
 7    1  0.1221195E-011  0.5930200E+02  0.7816164E-02  0.1266605E+00
        -11   -1    0    0    0    0  0.00000000000E+00  0.00000000000E+00  0.45593999997E+02  0.45594000000E+02  0.51100000000E-03 0.  1.
         11   -1    0    0    0    0 -0.00000000000E+00 -0.00000000000E+00 -0.45593999997E+02  0.45594000000E+02  0.51100000000E-03 0. -1.
    9900012    2    1    2    0    0 -0.51024960871E+01 -0.92912111429E+01 -0.30072497717E+02  0.59301996962E+02  0.50000096540E+02 0.  0.
        -12    1    1    2    0    0  0.51024960871E+01  0.92912111429E+01  0.30072497717E+02  0.31886003038E+02  0.00000000000E+00 0.  1.
         11    1    3    3    0    0 -0.13754879666E+01 -0.17366856506E+01 -0.27756404840E+02  0.27844677303E+02  0.51100000000E-03 0. -1.
        -11    1    3    3    0    0  0.10111096635E+02 -0.12704702805E+02 -0.36157251194E+01  0.16634819413E+02  0.51100000000E-03 0.  1.
         12    1    3    3    0    0 -0.13838104755E+02  0.51501773124E+01  0.12996322432E+01  0.14822500246E+02  0.00000000000E+00 0. -1.
</event>
<event>
 7    1  0.1221195E-011  0.5930197E+02  0.7816164E-02  0.1266605E+00
        -11   -1    0    0    0    0  0.00000000000E+00  0.00000000000E+00  0.45593999997E+02  0.45594000000E+02  0.51100000000E-03 0.  1.
         11   -1    0    0    0    0 -0.00000000000E+00 -0.00000000000E+00 -0.45593999997E+02  0.45594000000E+02  0.51100000000E-03 0. -1.
    9900012    2    1    2    0    0 -0.21799275278E+02 -0.58259411225E+00 -0.23263079051E+02  0.59301973821E+02  0.50000054336E+02 0.  0.
        -12    1    1    2    0    0  0.21799275278E+02  0.58259411225E+00  0.23263079051E+02  0.31886026179E+02  0.00000000000E+00 0.  1.
         11    1    3    3    0    0 -0.15202449332E+02  0.38816070449E+00  0.73368404047E+01  0.16884737540E+02  0.51100000000E-03 0. -1.
        -11    1    3    3    0    0 -0.13517130090E+01 -0.47832201170E+01  0.45111454482E+01  0.67124329614E+01  0.51100000000E-03 0.  1.
         12    1    3    3    0    0 -0.52451129371E+01  0.38124653002E+01 -0.35111064904E+02  0.35704803319E+02  0.00000000000E+00 0. -1.
</event>
<event>
 7    1  0.1221195E-011  0.5930164E+02  0.7816164E-02  0.1266606E+00
        -11   -1    0    0    0    0  0.00000000000E+00  0.00000000000E+00  0.45593999997E+02  0.45594000000E+02  0.51100000000E-03 0.  1.
         11   -1    0    0    0    0 -0.00000000000E+00 -0.00000000000E+00 -0.45593999997E+02  0.45594000000E+02  0.51100000000E-03 0. -1.
    9900012    2    1    2    0    0 -0.75227656650E+01 -0.30623091322E+02  0.47301299079E+01  0.59301641564E+02  0.49999448375E+02 0.  0.
        -12    1    1    2    0    0  0.75227656650E+01  0.30623091322E+02 -0.47301299079E+01  0.31886358436E+02  0.00000000000E+00 0.  1.
         11    1    3    3    0    0 -0.33256823713E+00  0.38758705307E+01 -0.12258813706E+01  0.40786957964E+01  0.51100000000E-03 0. -1.
        -11    1    3    3    0    0 -0.80711255804E+01 -0.95144515615E+01 -0.17131317465E+02  0.21193156796E+02  0.51100000000E-03 0.  1.
        -12    1    3    3    0    0  0.88092815246E+00 -0.24984510292E+02  0.23087328743E+02  0.34029788971E+02  0.00000000000E+00 0.  1.
</event>
<event>
 7    1  0.1221195E-011  0.5930191E+02  0.7816164E-02  0.1266605E+00
        -11   -1    0    0    0    0  0.00000000000E+00  0.00000000000E+00  0.45593999997E+02  0.45594000000E+02  0.51100000000E-03 0.  1.
         11   -1    0    0    0    0 -0.00000000000E+00 -0.00000000000E+00 -0.45593999997E+02  0.45594000000E+02  0.51100000000E-03 0. -1.
    9900012    2    1    2    0    0 -0.18699864604E+02  0.19506810418E+02 -0.16926970535E+02  0.59301907101E+02  0.49999932654E+02 0.  0.
        -12    1    1    2    0    0  0.18699864604E+02 -0.19506810418E+02  0.16926970535E+02  0.31886092899E+02  0.00000000000E+00 0.  1.
         11    1    3    3    0    0 -0.15323049310E+00  0.57207399288E+01 -0.22604900434E+02  0.23318058856E+02  0.51100000000E-03 0. -1.
        -11    1    3    3    0    0  0.54805946833E+01  0.55152187271E+01 -0.40593995996E+01  0.87711618991E+01  0.51100000000E-03 0.  1.
        -12    1    3    3    0    0 -0.24027228794E+02  0.82708517620E+01  0.97373294983E+01  0.27212686346E+02  0.00000000000E+00 0.  1.
</event>
<event>
 7    1  0.1221195E-011  0.5930197E+02  0.7816164E-02  0.1266605E+00
        -11   -1    0    0    0    0  0.00000000000E+00  0.00000000000E+00  0.45593999997E+02  0.45594000000E+02  0.51100000000E-03 0. -1.
         11   -1    0    0    0    0 -0.00000000000E+00 -0.00000000000E+00 -0.45593999997E+02  0.45594000000E+02  0.51100000000E-03 0.  1.
    9900012    2    1    2    0    0 -0.23883427408E+02  0.85929254758E+01  0.19299283803E+02  0.59301971268E+02  0.50000049680E+02 0.  0.
        -12    1    1    2    0    0  0.23883427408E+02 -0.85929254758E+01 -0.19299283803E+02  0.31886028732E+02  0.00000000000E+00 0.  1.
         11    1    3    3    0    0 -0.65875037012E+01 -0.19949791512E+01  0.19030512654E+01  0.71412009639E+01  0.51100000000E-03 0. -1.
        -11    1    3    3    0    0 -0.10866889784E+02 -0.78053480717E+01 -0.11274081641E+02  0.17496218712E+02  0.51100000000E-03 0.  1.
        -12    1    3    3    0    0 -0.64290339230E+01  0.18393252699E+02  0.28670314178E+02  0.34664551592E+02  0.00000000000E+00 0.  1.
</event>
<event>
 7    1  0.1221195E-011  0.5930196E+02  0.7816164E-02  0.1266605E+00
        -11   -1    0    0    0    0  0.00000000000E+00  0.00000000000E+00  0.45593999997E+02  0.45594000000E+02  0.51100000000E-03 0.  1.
         11   -1    0    0    0    0 -0.00000000000E+00 -0.00000000000E+00 -0.45593999997E+02  0.45594000000E+02  0.51100000000E-03 0. -1.
    9900012    2    1    2    0    0  0.28418341106E+01 -0.13995401687E+02 -0.28509159996E+02  0.59301960842E+02  0.50000030665E+02 0.  0.
        -12    1    1    2    0    0 -0.28418341106E+01  0.13995401687E+02  0.28509159996E+02  0.31886039158E+02  0.00000000000E+00 0.  1.
         11    1    3    3    0    0  0.73592525757E+01 -0.90590859487E+01 -0.51169272378E+01  0.12743962544E+02  0.51100000000E-03 0. -1.
        -11    1    3    3    0    0  0.84430923567E+01  0.80780660438E+01  0.50266771323E+01  0.12720394758E+02  0.51100000000E-03 0.  1.
         12    1    3    3    0    0 -0.12960510822E+02 -0.13014381782E+02 -0.28418909891E+02  0.33837603540E+02  0.00000000000E+00 0. -1.
</event>
<event>
 7    1  0.1221195E-011  0.5930165E+02  0.7816164E-02  0.1266606E+00
        -11   -1    0    0    0    0  0.00000000000E+00  0.00000000000E+00  0.45593999997E+02  0.45594000000E+02  0.51100000000E-03 0.  1.
         11   -1    0    0    0    0 -0.00000000000E+00 -0.00000000000E+00 -0.45593999997E+02  0.45594000000E+02  0.51100000000E-03 0. -1.
    9900012    2    1    2    0    0  0.46907758164E+01  0.18472425969E+02 -0.25563749424E+02  0.59301652082E+02  0.49999467558E+02 0.  0.
        -12    1    1    2    0    0 -0.46907758164E+01 -0.18472425969E+02  0.25563749424E+02  0.31886347918E+02  0.00000000000E+00 0.  1.
         11    1    3    3    0    0 -0.17878571294E+01  0.51691863271E+01  0.71981671207E+01  0.90404939333E+01  0.51100000000E-03 0. -1.
        -11    1    3    3    0    0  0.94088711529E+01  0.62980580782E+00  0.47494544311E+01  0.10558448247E+02  0.51100000000E-03 0.  1.
         12    1    3    3    0    0 -0.29302382070E+01  0.12673433834E+02 -0.37511370976E+02  0.39702709902E+02  0.00000000000E+00 0. -1.
</event>
<event>
 7    1  0.1221195E-011  0.5930196E+02  0.7816164E-02  0.1266605E+00
        -11   -1    0    0    0    0  0.00000000000E+00  0.00000000000E+00  0.45593999997E+02  0.45594000000E+02  0.51100000000E-03 0.  1.
         11   -1    0    0    0    0 -0.00000000000E+00 -0.00000000000E+00 -0.45593999997E+02  0.45594000000E+02  0.51100000000E-03 0. -1.
    9900012    2    1    2    0    0 -0.84885753847E+01  0.11050375925E+02 -0.28680182483E+02  0.59301959365E+02  0.50000027971E+02 0.  0.
        -12    1    1    2    0    0  0.84885753847E+01 -0.11050375925E+02  0.28680182483E+02  0.31886040635E+02  0.00000000000E+00 0.  1.
         11    1    3    3    0    0 -0.13382806060E+02 -0.77188613761E+01 -0.10658613536E+02  0.18769293054E+02  0.51100000000E-03 0. -1.
        -11    1    3    3    0    0  0.98757486714E+00  0.10504503130E+01  0.83768192605E+01  0.84999912449E+01  0.51100000000E-03 0.  1.
         12    1    3    3    0    0  0.39066558079E+01  0.17718786988E+02 -0.26398388207E+02  0.32032675066E+02  0.00000000000E+00 0. -1.
</event>
<event>
 7    1  0.1221195E-011  0.5930193E+02  0.7816164E-02  0.1266605E+00
        -11   -1    0    0    0    0  0.00000000000E+00  0.00000000000E+00  0.45593999997E+02  0.45594000000E+02  0.51100000000E-03 0. -1.
         11   -1    0    0    0    0 -0.00000000000E+00 -0.00000000000E+00 -0.45593999997E+02  0.45594000000E+02  0.51100000000E-03 0.  1.
    9900012    2    1    2    0    0 -0.48758613507E+01 -0.21513834131E+02  0.23023953608E+02  0.59301929018E+02  0.49999972626E+02 0.  0.
        -12    1    1    2    0    0  0.48758613507E+01  0.21513834131E+02 -0.23023953608E+02  0.31886070982E+02  0.00000000000E+00 0.  1.
         11    1    3    3    0    0 -0.39260078760E+01 -0.45620632096E+01 -0.33194833257E+01  0.68734946265E+01  0.51100000000E-03 0.  1.
        -11    1    3    3    0    0 -0.19821258841E+02 -0.12495464055E+02  0.22845257710E+02  0.32724986235E+02  0.51100000000E-03 0. -1.
         12    1    3    3    0    0  0.18871405366E+02 -0.44563068660E+01  0.34981792239E+01  0.19703448157E+02  0.00000000000E+00 0. -1.
</event>
<event>
 7    1  0.1221195E-011  0.5930195E+02  0.7816164E-02  0.1266605E+00
        -11   -1    0    0    0    0  0.00000000000E+00  0.00000000000E+00  0.45593999997E+02  0.45594000000E+02  0.51100000000E-03 0.  1.
         11   -1    0    0    0    0 -0.00000000000E+00 -0.00000000000E+00 -0.45593999997E+02  0.45594000000E+02  0.51100000000E-03 0. -1.
    9900012    2    1    2    0    0 -0.30968952433E+02  0.34319244993E+01 -0.67724640013E+01  0.59301946792E+02  0.50000005041E+02 0.  0.
        -12    1    1    2    0    0  0.30968952433E+02 -0.34319244993E+01  0.67724640013E+01  0.31886053208E+02  0.00000000000E+00 0.  1.
         11    1    3    3    0    0 -0.33847867471E+02  0.13577326035E+02 -0.43390627826E+01  0.36726684858E+02  0.51100000000E-03 0. -1.
        -11    1    3    3    0    0 -0.44131065298E+01 -0.58848379876E+00 -0.81326155146E+01  0.92715294205E+01  0.51100000000E-03 0.  1.
        -12    1    3    3    0    0  0.72920215679E+01 -0.95569177368E+01  0.56992142959E+01  0.13303732513E+02  0.00000000000E+00 0.  1.
</event>
<event>
 7    1  0.1221195E-011  0.5930193E+02  0.7816164E-02  0.1266605E+00
        -11   -1    0    0    0    0  0.00000000000E+00  0.00000000000E+00  0.45593999997E+02  0.45594000000E+02  0.51100000000E-03 0.  1.
         11   -1    0    0    0    0 -0.00000000000E+00 -0.00000000000E+00 -0.45593999997E+02  0.45594000000E+02  0.51100000000E-03 0. -1.
    9900012    2    1    2    0    0 -0.19700399813E+01 -0.31358263320E+02  0.54313774912E+01  0.59301927845E+02  0.49999970487E+02 0.  0.
        -12    1    1    2    0    0  0.19700399813E+01  0.31358263320E+02 -0.54313774912E+01  0.31886072155E+02  0.00000000000E+00 0.  1.
         11    1    3    3    0    0 -0.13355930146E+02 -0.31375150629E+02  0.56472670425E+01  0.34564035823E+02  0.51100000000E-03 0. -1.
        -11    1    3    3    0    0 -0.68854826140E+00 -0.37774813790E+01  0.85293997604E+01  0.93538294195E+01  0.51100000000E-03 0.  1.
        -12    1    3    3    0    0  0.12074438426E+02  0.37943686876E+01 -0.87452893117E+01  0.15384062603E+02  0.00000000000E+00 0.  1.
</event>
<event>
 7    1  0.1221195E-011  0.5930195E+02  0.7816164E-02  0.1266605E+00
        -11   -1    0    0    0    0  0.00000000000E+00  0.00000000000E+00  0.45593999997E+02  0.45594000000E+02  0.51100000000E-03 0.  1.
         11   -1    0    0    0    0 -0.00000000000E+00 -0.00000000000E+00 -0.45593999997E+02  0.45594000000E+02  0.51100000000E-03 0. -1.
    9900012    2    1    2    0    0  0.29255746894E+02 -0.12333097248E+02 -0.29522628534E+01  0.59301954934E+02  0.50000019890E+02 0.  0.
        -12    1    1    2    0    0 -0.29255746894E+02  0.12333097248E+02  0.29522628534E+01  0.31886045066E+02  0.00000000000E+00 0.  1.
         11    1    3    3    0    0  0.51210280162E+01 -0.23858905627E+01  0.16536452090E+02  0.17474886257E+02  0.51100000000E-03 0.  1.
        -11    1    3    3    0    0 -0.52384547508E+01 -0.40649626805E+01 -0.61189497925E+01  0.90225759401E+01  0.51100000000E-03 0. -1.
         12    1    3    3    0    0  0.29373173628E+02 -0.58822440045E+01 -0.13369765151E+02  0.32804492736E+02  0.00000000000E+00 0. -1.
</event>
<event>
 7    1  0.1221195E-011  0.5930193E+02  0.7816164E-02  0.1266605E+00
        -11   -1    0    0    0    0  0.00000000000E+00  0.00000000000E+00  0.45593999997E+02  0.45594000000E+02  0.51100000000E-03 0.  1.
         11   -1    0    0    0    0 -0.00000000000E+00 -0.00000000000E+00 -0.45593999997E+02  0.45594000000E+02  0.51100000000E-03 0. -1.
    9900012    2    1    2    0    0 -0.23066600082E+02 -0.20633829483E+01 -0.21917939472E+02  0.59301926876E+02  0.49999968720E+02 0.  0.
        -12    1    1    2    0    0  0.23066600082E+02  0.20633829483E+01  0.21917939472E+02  0.31886073124E+02  0.00000000000E+00 0.  1.
         11    1    3    3    0    0 -0.94913300054E+01  0.19220709387E+02 -0.70764104763E+01  0.22574246391E+02  0.51100000000E-03 0. -1.
        -11    1    3    3    0    0 -0.67843286453E+01  0.20672541739E+01 -0.94552270625E+01  0.11819558962E+02  0.51100000000E-03 0.  1.
        -12    1    3    3    0    0 -0.67909414318E+01 -0.23351346509E+02 -0.53863019332E+01  0.24908121524E+02  0.00000000000E+00 0.  1.
</event>
<event>
 7    1  0.1221195E-011  0.5930194E+02  0.7816164E-02  0.1266605E+00
        -11   -1    0    0    0    0  0.00000000000E+00  0.00000000000E+00  0.45593999997E+02  0.45594000000E+02  0.51100000000E-03 0.  1.
         11   -1    0    0    0    0 -0.00000000000E+00 -0.00000000000E+00 -0.45593999997E+02  0.45594000000E+02  0.51100000000E-03 0. -1.
    9900012    2    1    2    0    0  0.11578603028E+02  0.29709447122E+02  0.76346157608E-01  0.59301935252E+02  0.49999983996E+02 0.  0.
        -12    1    1    2    0    0 -0.11578603028E+02 -0.29709447122E+02 -0.76346157608E-01  0.31886064748E+02  0.00000000000E+00 0.  1.
         11    1    3    3    0    0 -0.12253097139E+01 -0.24208607665E+01  0.60053934545E+00  0.27789563711E+01  0.51100000000E-03 0. -1.
        -11    1    3    3    0    0  0.21886488018E+02  0.12509702011E+02  0.15516152372E+02  0.29601722701E+02  0.51100000000E-03 0.  1.
         12    1    3    3    0    0 -0.90825752763E+01  0.19620605878E+02 -0.16040345560E+02  0.26921256180E+02  0.00000000000E+00 0. -1.
</event>
<event>
 7    1  0.1221195E-011  0.5930196E+02  0.7816164E-02  0.1266605E+00
        -11   -1    0    0    0    0  0.00000000000E+00  0.00000000000E+00  0.45593999997E+02  0.45594000000E+02  0.51100000000E-03 0. -1.
         11   -1    0    0    0    0 -0.00000000000E+00 -0.00000000000E+00 -0.45593999997E+02  0.45594000000E+02  0.51100000000E-03 0.  1.
    9900012    2    1    2    0    0 -0.14672531114E+01  0.16029349873E+02  0.27525022142E+02  0.59301957082E+02  0.50000023809E+02 0.  0.
        -12    1    1    2    0    0  0.14672531114E+01 -0.16029349873E+02 -0.27525022142E+02  0.31886042918E+02  0.00000000000E+00 0.  1.
         11    1    3    3    0    0 -0.72939728590E+01  0.70755726240E+01  0.85900332436E+01  0.13306180497E+02  0.51100000000E-03 0. -1.
        -11    1    3    3    0    0  0.14770750889E+01  0.18692330161E+02  0.26825136556E+02  0.32728777997E+02  0.51100000000E-03 0.  1.
        -12    1    3    3    0    0  0.43496446586E+01 -0.97385529120E+01 -0.78901476582E+01  0.13266998588E+02  0.00000000000E+00 0.  1.
</event>
<event>
 7    1  0.1221195E-011  0.5930194E+02  0.7816164E-02  0.1266605E+00
        -11   -1    0    0    0    0  0.00000000000E+00  0.00000000000E+00  0.45593999997E+02  0.45594000000E+02  0.51100000000E-03 0. -1.
         11   -1    0    0    0    0 -0.00000000000E+00 -0.00000000000E+00 -0.45593999997E+02  0.45594000000E+02  0.51100000000E-03 0.  1.
    9900012    2    1    2    0    0 -0.68203451843E+01  0.19514820487E+02  0.24277052461E+02  0.59301943435E+02  0.49999998919E+02 0.  0.
        -12    1    1    2    0    0  0.68203451843E+01 -0.19514820487E+02 -0.24277052461E+02  0.31886056565E+02  0.00000000000E+00 0.  1.
         11    1    3    3    0    0  0.19739363049E+01  0.86781633930E+01  0.32568356031E+02  0.33762475609E+02  0.51100000000E-03 0. -1.
        -11    1    3    3    0    0  0.52696351645E+01 -0.13461427662E+01 -0.29186411347E+01  0.61724890804E+01  0.51100000000E-03 0.  1.
        -12    1    3    3    0    0 -0.14063916654E+02  0.12182799861E+02 -0.53726624353E+01  0.19366978746E+02  0.00000000000E+00 0.  1.
</event>
<event>
 7    1  0.1221195E-011  0.5930196E+02  0.7816164E-02  0.1266605E+00
        -11   -1    0    0    0    0  0.00000000000E+00  0.00000000000E+00  0.45593999997E+02  0.45594000000E+02  0.51100000000E-03 0.  1.
         11   -1    0    0    0    0 -0.00000000000E+00 -0.00000000000E+00 -0.45593999997E+02  0.45594000000E+02  0.51100000000E-03 0. -1.
    9900012    2    1    2    0    0 -0.46376774219E+01 -0.31167013545E+02  0.48814927857E+01  0.59301956705E+02  0.50000023121E+02 0.  0.
        -12    1    1    2    0    0  0.46376774219E+01  0.31167013545E+02 -0.48814927857E+01  0.31886043295E+02  0.00000000000E+00 0.  1.
         11    1    3    3    0    0  0.12889869101E+02 -0.24791733198E+01  0.71701495708E+01  0.14956806842E+02  0.51100000000E-03 0. -1.
        -11    1    3    3    0    0 -0.13439405182E+02 -0.91433065464E+01  0.11645933488E+02  0.19996135460E+02  0.51100000000E-03 0.  1.
         12    1    3    3    0    0 -0.40881413404E+01 -0.19544533679E+02 -0.13934590273E+02  0.24349014403E+02  0.00000000000E+00 0. -1.
</event>
<event>
 7    1  0.1221195E-011  0.5930194E+02  0.7816164E-02  0.1266605E+00
        -11   -1    0    0    0    0  0.00000000000E+00  0.00000000000E+00  0.45593999997E+02  0.45594000000E+02  0.51100000000E-03 0.  1.
         11   -1    0    0    0    0 -0.00000000000E+00 -0.00000000000E+00 -0.45593999997E+02  0.45594000000E+02  0.51100000000E-03 0. -1.
    9900012    2    1    2    0    0  0.25251988647E+02  0.12039508166E+02 -0.15300597371E+02  0.59301937725E+02  0.49999988505E+02 0.  0.
        -12    1    1    2    0    0 -0.25251988647E+02 -0.12039508166E+02  0.15300597371E+02  0.31886062275E+02  0.00000000000E+00 0.  1.
         11    1    3    3    0    0  0.15706073196E+02  0.24268310106E+02 -0.10817839995E+02  0.30865146574E+02  0.51100000000E-03 0. -1.
        -11    1    3    3    0    0 -0.55695122399E+01  0.10470832193E+01  0.36462042696E+01  0.67387428869E+01  0.51100000000E-03 0.  1.
         12    1    3    3    0    0  0.15115427691E+02 -0.13275885159E+02 -0.81289616460E+01  0.21698048264E+02  0.00000000000E+00 0. -1.
</event>
<event>
 7    1  0.1221195E-011  0.5930195E+02  0.7816164E-02  0.1266605E+00
        -11   -1    0    0    0    0  0.00000000000E+00  0.00000000000E+00  0.45593999997E+02  0.45594000000E+02  0.51100000000E-03 0.  1.
         11   -1    0    0    0    0 -0.00000000000E+00 -0.00000000000E+00 -0.45593999997E+02  0.45594000000E+02  0.51100000000E-03 0. -1.
    9900012    2    1    2    0    0 -0.18275032165E+02 -0.18110154264E+01 -0.26066525253E+02  0.59301947935E+02  0.50000007126E+02 0.  0.
        -12    1    1    2    0    0  0.18275032165E+02  0.18110154264E+01  0.26066525253E+02  0.31886052065E+02  0.00000000000E+00 0.  1.
         11    1    3    3    0    0  0.70365366241E+00  0.10668067896E+00 -0.16846866171E+02  0.16861892222E+02  0.51100000000E-03 0. -1.
        -11    1    3    3    0    0 -0.28555234052E+02  0.51508174919E+01 -0.95071572780E+01  0.30533888589E+02  0.51100000000E-03 0.  1.
         12    1    3    3    0    0  0.95765482249E+01 -0.70685135973E+01  0.28749819586E+00  0.11906167124E+02  0.00000000000E+00 0. -1.
</event>
<event>
 7    1  0.1221195E-011  0.5930193E+02  0.7816164E-02  0.1266605E+00
        -11   -1    0    0    0    0  0.00000000000E+00  0.00000000000E+00  0.45593999997E+02  0.45594000000E+02  0.51100000000E-03 0. -1.
         11   -1    0    0    0    0 -0.00000000000E+00 -0.00000000000E+00 -0.45593999997E+02  0.45594000000E+02  0.51100000000E-03 0.  1.
    9900012    2    1    2    0    0  0.29847254721E+02 -0.92470577430E+01  0.63525228069E+01  0.59301933493E+02  0.49999980787E+02 0.  0.
        -12    1    1    2    0    0 -0.29847254721E+02  0.92470577430E+01 -0.63525228069E+01  0.31886066507E+02  0.00000000000E+00 0.  1.
         11    1    3    3    0    0 -0.56931246646E+01 -0.38447773597E+01  0.42862025519E+01  0.80972534831E+01  0.51100000000E-03 0. -1.
        -11    1    3    3    0    0 -0.71563440779E+01 -0.17322243610E+01  0.38590961460E+01  0.83130310431E+01  0.51100000000E-03 0.  1.
         12    1    3    3    0    0  0.42696723463E+02 -0.36700560224E+01 -0.17927758910E+01  0.42891648967E+02  0.00000000000E+00 0. -1.
</event>
<event>
 7    1  0.1221195E-011  0.5930188E+02  0.7816164E-02  0.1266605E+00
        -11   -1    0    0    0    0  0.00000000000E+00  0.00000000000E+00  0.45593999997E+02  0.45594000000E+02  0.51100000000E-03 0. -1.
         11   -1    0    0    0    0 -0.00000000000E+00 -0.00000000000E+00 -0.45593999997E+02  0.45594000000E+02  0.51100000000E-03 0.  1.
    9900012    2    1    2    0    0  0.21649844111E+02  0.90091915999E+01  0.21606562731E+02  0.59301877056E+02  0.49999877860E+02 0.  0.
        -12    1    1    2    0    0 -0.21649844111E+02 -0.90091915999E+01 -0.21606562731E+02  0.31886122944E+02  0.00000000000E+00 0.  1.
         11    1    3    3    0    0  0.77573747547E+01 -0.77266297895E+01 -0.17430310280E+01  0.11086741109E+02  0.51100000000E-03 0.  1.
        -11    1    3    3    0    0  0.80592781282E+01 -0.57913745107E+01  0.22880642318E+02  0.24940244101E+02  0.51100000000E-03 0. -1.
        -12    1    3    3    0    0  0.58331912285E+01  0.22527195900E+02  0.46895144150E+00  0.23274891847E+02  0.00000000000E+00 0.  1.
</event>
<event>
 7    1  0.1221195E-011  0.5930194E+02  0.7816164E-02  0.1266605E+00
        -11   -1    0    0    0    0  0.00000000000E+00  0.00000000000E+00  0.45593999997E+02  0.45594000000E+02  0.51100000000E-03 0.  1.
         11   -1    0    0    0    0 -0.00000000000E+00 -0.00000000000E+00 -0.45593999997E+02  0.45594000000E+02  0.51100000000E-03 0. -1.
    9900012    2    1    2    0    0  0.96471999095E+01  0.48614181178E+01 -0.30000314809E+02  0.59301941277E+02  0.49999994984E+02 0.  0.
        -12    1    1    2    0    0 -0.96471999095E+01 -0.48614181178E+01  0.30000314809E+02  0.31886058723E+02  0.00000000000E+00 0.  1.
         11    1    3    3    0    0  0.18125786273E+02  0.38347008053E+00 -0.22769435890E+02  0.29105641864E+02  0.51100000000E-03 0. -1.
        -11    1    3    3    0    0 -0.12932913480E+02  0.28603833651E+01 -0.15669745219E+02  0.20517869275E+02  0.51100000000E-03 0.  1.
         12    1    3    3    0    0  0.44543271166E+01  0.16175646721E+01  0.84388662995E+01  0.96784301388E+01  0.00000000000E+00 0. -1.
</event>
<event>
 7    1  0.1221195E-011  0.5930204E+02  0.7816164E-02  0.1266604E+00
        -11   -1    0    0    0    0  0.00000000000E+00  0.00000000000E+00  0.45593999997E+02  0.45594000000E+02  0.51100000000E-03 0.  1.
         11   -1    0    0    0    0 -0.00000000000E+00 -0.00000000000E+00 -0.45593999997E+02  0.45594000000E+02  0.51100000000E-03 0. -1.
    9900012    2    1    2    0    0 -0.16303137520E+01  0.81106282878E+01 -0.30794059635E+02  0.59302041916E+02  0.50000178524E+02 0.  0.
        -12    1    1    2    0    0  0.16303137520E+01 -0.81106282878E+01  0.30794059635E+02  0.31885958084E+02  0.00000000000E+00 0.  1.
         11    1    3    3    0    0 -0.63917832127E+01 -0.12079616212E+02 -0.64036287357E+01  0.15092331884E+02  0.51100000000E-03 0. -1.
        -11    1    3    3    0    0 -0.86939576142E+00  0.12964133749E+02  0.46176976049E+01  0.13789406959E+02  0.51100000000E-03 0.  1.
         12    1    3    3    0    0  0.56308652221E+01  0.72261107506E+01 -0.29008128504E+02  0.30420303073E+02  0.00000000000E+00 0. -1.
</event>
<event>
 7    1  0.1221195E-011  0.5930200E+02  0.7816164E-02  0.1266605E+00
        -11   -1    0    0    0    0  0.00000000000E+00  0.00000000000E+00  0.45593999997E+02  0.45594000000E+02  0.51100000000E-03 0. -1.
         11   -1    0    0    0    0 -0.00000000000E+00 -0.00000000000E+00 -0.45593999997E+02  0.45594000000E+02  0.51100000000E-03 0.  1.
    9900012    2    1    2    0    0  0.26387611672E+02 -0.68996031568E+01  0.16516849814E+02  0.59302001486E+02  0.50000104790E+02 0.  0.
        -12    1    1    2    0    0 -0.26387611672E+02  0.68996031568E+01 -0.16516849814E+02  0.31885998514E+02  0.00000000000E+00 0.  1.
         11    1    3    3    0    0  0.15230942755E+02 -0.44154057040E+01  0.19359278948E+02  0.25025169457E+02  0.51100000000E-03 0. -1.
        -11    1    3    3    0    0 -0.44589283701E+01  0.27881232459E+01  0.11361250879E+02  0.12519332860E+02  0.51100000000E-03 0.  1.
        -12    1    3    3    0    0  0.15615597287E+02 -0.52723206987E+01 -0.14203680013E+02  0.21757499169E+02  0.00000000000E+00 0.  1.
</event>
<event>
 7    1  0.1221195E-011  0.5930195E+02  0.7816164E-02  0.1266605E+00
        -11   -1    0    0    0    0  0.00000000000E+00  0.00000000000E+00  0.45593999997E+02  0.45594000000E+02  0.51100000000E-03 0.  1.
         11   -1    0    0    0    0 -0.00000000000E+00 -0.00000000000E+00 -0.45593999997E+02  0.45594000000E+02  0.51100000000E-03 0. -1.
    9900012    2    1    2    0    0 -0.66025830195E+01  0.10367583175E+02 -0.29421748917E+02  0.59301949872E+02  0.50000010659E+02 0.  0.
        -12    1    1    2    0    0  0.66025830195E+01 -0.10367583175E+02  0.29421748917E+02  0.31886050128E+02  0.00000000000E+00 0.  1.
         11    1    3    3    0    0 -0.10581311754E+02  0.21352069482E+02 -0.53608613438E+01  0.24425680425E+02  0.51100000000E-03 0. -1.
        -11    1    3    3    0    0  0.17522064443E+01  0.42596750814E+01  0.16587681684E+01  0.48955664964E+01  0.51100000000E-03 0.  1.
        -12    1    3    3    0    0  0.22265222906E+01 -0.15244161389E+02 -0.25719655742E+02  0.29980702951E+02  0.00000000000E+00 0.  1.
</event>
<event>
 7    1  0.1221195E-011  0.5930201E+02  0.7816164E-02  0.1266605E+00
        -11   -1    0    0    0    0  0.00000000000E+00  0.00000000000E+00  0.45593999997E+02  0.45594000000E+02  0.51100000000E-03 0.  1.
         11   -1    0    0    0    0 -0.00000000000E+00 -0.00000000000E+00 -0.45593999997E+02  0.45594000000E+02  0.51100000000E-03 0. -1.
    9900012    2    1    2    0    0 -0.26280371320E+02 -0.64945104546E+01 -0.16848734808E+02  0.59302008603E+02  0.50000117770E+02 0.  0.
        -12    1    1    2    0    0  0.26280371320E+02  0.64945104546E+01  0.16848734808E+02  0.31885991397E+02  0.00000000000E+00 0.  1.
         11    1    3    3    0    0  0.35766791937E+01 -0.15450019194E+02 -0.14840572213E+01  0.15927904860E+02  0.51100000000E-03 0. -1.
        -11    1    3    3    0    0 -0.12461641755E+02  0.46012466995E+01  0.67517745086E+01  0.14901357177E+02  0.51100000000E-03 0.  1.
         12    1    3    3    0    0 -0.17395408758E+02  0.43542620395E+01 -0.22116452095E+02  0.28472746566E+02  0.00000000000E+00 0. -1.
</event>
<event>
 7    1  0.1225443E-011  0.5930206E+02  0.7816164E-02  0.1266604E+00
        -11   -1    0    0    0    0  0.00000000000E+00  0.00000000000E+00  0.45593999997E+02  0.45594000000E+02  0.51100000000E-03 0. -1.
         11   -1    0    0    0    0 -0.00000000000E+00 -0.00000000000E+00 -0.45593999997E+02  0.45594000000E+02  0.51100000000E-03 0.  1.
    9900012    2    1    2    0    0 -0.27727352860E+02 -0.27702431912E+01  0.15499454610E+02  0.59302055806E+02  0.50000203855E+02 0.  0.
        -12    1    1    2    0    0  0.27727352860E+02  0.27702431912E+01 -0.15499454610E+02  0.31885944194E+02  0.00000000000E+00 0.  1.
         11    1    3    3    0    0 -0.88342421196E+01  0.37910316555E+01  0.53735008235E+01  0.11013186015E+02  0.51100000000E-03 0. -1.
        -11    1    3    3    0    0 -0.21162460018E+02 -0.75487974385E+01 -0.12375812359E+02  0.25651409096E+02  0.51100000000E-03 0.  1.
         12    1    3    3    0    0  0.22693492779E+01  0.98752259184E+00  0.22501766146E+02  0.22637460694E+02  0.00000000000E+00 0. -1.
</event>
<event>
 7    1  0.1221195E-011  0.5930194E+02  0.7816164E-02  0.1266605E+00
        -11   -1    0    0    0    0  0.00000000000E+00  0.00000000000E+00  0.45593999997E+02  0.45594000000E+02  0.51100000000E-03 0.  1.
         11   -1    0    0    0    0 -0.00000000000E+00 -0.00000000000E+00 -0.45593999997E+02  0.45594000000E+02  0.51100000000E-03 0. -1.
    9900012    2    1    2    0    0 -0.10600034899E+02  0.28942408944E+02 -0.81668372455E+01  0.59301937121E+02  0.49999987403E+02 0.  0.
        -12    1    1    2    0    0  0.10600034899E+02 -0.28942408944E+02  0.81668372455E+01  0.31886062879E+02  0.00000000000E+00 0.  1.
         11    1    3    3    0    0 -0.17773434586E+02  0.12371734722E+02 -0.13487211039E+02  0.25511951295E+02  0.51100000000E-03 0. -1.
        -11    1    3    3    0    0 -0.25552623730E+01  0.12290179921E+02 -0.93652741928E+01  0.15661617070E+02  0.51100000000E-03 0.  1.
        -12    1    3    3    0    0  0.97286620596E+01  0.42804943010E+01  0.14685647987E+02  0.18128368755E+02  0.00000000000E+00 0.  1.
</event>
<event>
 7    1  0.1221195E-011  0.5930188E+02  0.7816164E-02  0.1266605E+00
        -11   -1    0    0    0    0  0.00000000000E+00  0.00000000000E+00  0.45593999997E+02  0.45594000000E+02  0.51100000000E-03 0.  1.
         11   -1    0    0    0    0 -0.00000000000E+00 -0.00000000000E+00 -0.45593999997E+02  0.45594000000E+02  0.51100000000E-03 0. -1.
    9900012    2    1    2    0    0 -0.18513171189E+01 -0.16763039262E+02 -0.27060997428E+02  0.59301883238E+02  0.49999889133E+02 0.  0.
        -12    1    1    2    0    0  0.18513171189E+01  0.16763039262E+02  0.27060997428E+02  0.31886116762E+02  0.00000000000E+00 0.  1.
         11    1    3    3    0    0  0.45097426197E+01  0.10828163358E+01 -0.38045084144E+00  0.46534946886E+01  0.51100000000E-03 0. -1.
        -11    1    3    3    0    0  0.95357999788E+01 -0.26848097896E+02 -0.10891505380E+02  0.30502077496E+02  0.51100000000E-03 0.  1.
        -12    1    3    3    0    0 -0.15896859717E+02  0.90022422976E+01 -0.15789041207E+02  0.24146311053E+02  0.00000000000E+00 0.  1.
</event>
<event>
 7    1  0.1221195E-011  0.5930191E+02  0.7816164E-02  0.1266605E+00
        -11   -1    0    0    0    0  0.00000000000E+00  0.00000000000E+00  0.45593999997E+02  0.45594000000E+02  0.51100000000E-03 0. -1.
         11   -1    0    0    0    0 -0.00000000000E+00 -0.00000000000E+00 -0.45593999997E+02  0.45594000000E+02  0.51100000000E-03 0.  1.
    9900012    2    1    2    0    0 -0.23289016781E+02  0.62641852995E+01  0.20859162409E+02  0.59301906221E+02  0.49999931049E+02 0.  0.
        -12    1    1    2    0    0  0.23289016781E+02 -0.62641852995E+01 -0.20859162409E+02  0.31886093779E+02  0.00000000000E+00 0.  1.
         11    1    3    3    0    0  0.66520107229E+00 -0.36994524522E+01  0.22119461757E+02  0.22436555653E+02  0.51100000000E-03 0. -1.
        -11    1    3    3    0    0 -0.67013475482E+01 -0.65554280616E+01  0.68822952448E+01  0.11629603782E+02  0.51100000000E-03 0.  1.
        -12    1    3    3    0    0 -0.17252870305E+02  0.16519065813E+02 -0.81425945926E+01  0.25235746785E+02  0.00000000000E+00 0.  1.
</event>
<event>
 7    1  0.1221195E-011  0.5930197E+02  0.7816164E-02  0.1266605E+00
        -11   -1    0    0    0    0  0.00000000000E+00  0.00000000000E+00  0.45593999997E+02  0.45594000000E+02  0.51100000000E-03 0. -1.
         11   -1    0    0    0    0 -0.00000000000E+00 -0.00000000000E+00 -0.45593999997E+02  0.45594000000E+02  0.51100000000E-03 0.  1.
    9900012    2    1    2    0    0  0.72403646132E+01 -0.30936445915E+02 -0.26893596958E+01  0.59301965108E+02  0.50000038445E+02 0.  0.
        -12    1    1    2    0    0 -0.72403646132E+01  0.30936445915E+02  0.26893596958E+01  0.31886034892E+02  0.00000000000E+00 0.  1.
         11    1    3    3    0    0  0.67227639236E+01 -0.83426727799E+01 -0.12765437530E+02  0.16665897500E+02  0.51100000000E-03 0. -1.
        -11    1    3    3    0    0  0.11112725993E+02 -0.23876954133E+00 -0.64821575859E+01  0.12867325173E+02  0.51100000000E-03 0.  1.
         12    1    3    3    0    0 -0.10595125303E+02 -0.22355003594E+02  0.16558235421E+02  0.29768742434E+02  0.00000000000E+00 0. -1.
</event>
<event>
 7    1  0.1221195E-011  0.5930194E+02  0.7816164E-02  0.1266605E+00
        -11   -1    0    0    0    0  0.00000000000E+00  0.00000000000E+00  0.45593999997E+02  0.45594000000E+02  0.51100000000E-03 0.  1.
         11   -1    0    0    0    0 -0.00000000000E+00 -0.00000000000E+00 -0.45593999997E+02  0.45594000000E+02  0.51100000000E-03 0. -1.
    9900012    2    1    2    0    0  0.19317958372E+01 -0.31155608460E+01 -0.31674634123E+02  0.59301937192E+02  0.49999987534E+02 0.  0.
        -12    1    1    2    0    0 -0.19317958372E+01  0.31155608460E+01  0.31674634123E+02  0.31886062808E+02  0.00000000000E+00 0.  1.
         11    1    3    3    0    0 -0.65592963229E+01  0.15678010323E+02 -0.22342219050E+02  0.28071322169E+02  0.51100000000E-03 0. -1.
        -11    1    3    3    0    0 -0.24629881195E+01 -0.59496497528E+01 -0.12494582793E+02  0.14056288347E+02  0.51100000000E-03 0.  1.
        -12    1    3    3    0    0  0.10954080280E+02 -0.12843921416E+02  0.31621677202E+01  0.17174326677E+02  0.00000000000E+00 0.  1.
</event>
<event>
 7    1  0.1221195E-011  0.5930195E+02  0.7816164E-02  0.1266605E+00
        -11   -1    0    0    0    0  0.00000000000E+00  0.00000000000E+00  0.45593999997E+02  0.45594000000E+02  0.51100000000E-03 0.  1.
         11   -1    0    0    0    0 -0.00000000000E+00 -0.00000000000E+00 -0.45593999997E+02  0.45594000000E+02  0.51100000000E-03 0. -1.
    9900012    2    1    2    0    0 -0.14909930230E+02  0.27714449438E+02  0.51306325155E+01  0.59301951058E+02  0.50000012822E+02 0.  0.
        -12    1    1    2    0    0  0.14909930230E+02 -0.27714449438E+02 -0.51306325155E+01  0.31886048942E+02  0.00000000000E+00 0.  1.
         11    1    3    3    0    0 -0.14684345779E+02  0.22897991012E+02 -0.15619907135E+02  0.31367650573E+02  0.51100000000E-03 0. -1.
        -11    1    3    3    0    0 -0.56730579433E+01  0.89265083084E+01  0.72987566503E+01  0.12850602550E+02  0.51100000000E-03 0.  1.
         12    1    3    3    0    0  0.54474734921E+01 -0.41100498820E+01  0.13451783000E+02  0.15083697934E+02  0.00000000000E+00 0. -1.
</event>
<event>
 7    1  0.1221195E-011  0.5930217E+02  0.7816164E-02  0.1266604E+00
        -11   -1    0    0    0    0  0.00000000000E+00  0.00000000000E+00  0.45593999997E+02  0.45594000000E+02  0.51100000000E-03 0. -1.
         11   -1    0    0    0    0 -0.00000000000E+00 -0.00000000000E+00 -0.45593999997E+02  0.45594000000E+02  0.51100000000E-03 0.  1.
    9900012    2    1    2    0    0 -0.26524710931E+02 -0.43138268457E+01  0.17162073020E+02  0.59302170195E+02  0.50000412474E+02 0.  0.
        -12    1    1    2    0    0  0.26524710931E+02  0.43138268457E+01 -0.17162073020E+02  0.31885829805E+02  0.00000000000E+00 0.  1.
         11    1    3    3    0    0  0.61160024088E+01  0.42030941222E+00  0.24438423599E+01  0.65995841693E+01  0.51100000000E-03 0. -1.
        -11    1    3    3    0    0 -0.14587185470E+02  0.78293889555E+01 -0.10215894892E+02  0.19453786780E+02  0.51100000000E-03 0.  1.
         12    1    3    3    0    0 -0.18053527869E+02 -0.12563525213E+02  0.24934125552E+02  0.33248799246E+02  0.00000000000E+00 0. -1.
</event>
<event>
 7    1  0.1221195E-011  0.5930196E+02  0.7816164E-02  0.1266605E+00
        -11   -1    0    0    0    0  0.00000000000E+00  0.00000000000E+00  0.45593999997E+02  0.45594000000E+02  0.51100000000E-03 0.  1.
         11   -1    0    0    0    0 -0.00000000000E+00 -0.00000000000E+00 -0.45593999997E+02  0.45594000000E+02  0.51100000000E-03 0. -1.
    9900012    2    1    2    0    0  0.18658755660E+02 -0.24509371418E+02 -0.82378030770E+01  0.59301955252E+02  0.50000020471E+02 0.  0.
        -12    1    1    2    0    0 -0.18658755660E+02  0.24509371418E+02  0.82378030770E+01  0.31886044748E+02  0.00000000000E+00 0.  1.
         11    1    3    3    0    0  0.19225933019E+02 -0.20164276829E+02  0.97239729076E+01  0.29509154679E+02  0.51100000000E-03 0. -1.
        -11    1    3    3    0    0  0.11055611034E+02 -0.39128187117E+01 -0.62586755604E+01  0.13293145062E+02  0.51100000000E-03 0.  1.
        -12    1    3    3    0    0 -0.11622788393E+02 -0.43227587782E+00 -0.11703100424E+02  0.16499655512E+02  0.00000000000E+00 0.  1.
</event>
<event>
 7    1  0.1221195E-011  0.5930197E+02  0.7816164E-02  0.1266605E+00
        -11   -1    0    0    0    0  0.00000000000E+00  0.00000000000E+00  0.45593999997E+02  0.45594000000E+02  0.51100000000E-03 0. -1.
         11   -1    0    0    0    0 -0.00000000000E+00 -0.00000000000E+00 -0.45593999997E+02  0.45594000000E+02  0.51100000000E-03 0.  1.
    9900012    2    1    2    0    0  0.12171087574E+02 -0.92611080157E+01  0.27978843083E+02  0.59301966150E+02  0.50000040346E+02 0.  0.
        -12    1    1    2    0    0 -0.12171087574E+02  0.92611080157E+01 -0.27978843083E+02  0.31886033850E+02  0.00000000000E+00 0.  1.
         11    1    3    3    0    0 -0.84683965475E+00 -0.65689654679E+01  0.10606104954E+02  0.12504315546E+02  0.51100000000E-03 0. -1.
        -11    1    3    3    0    0  0.17909349925E+02 -0.15306379718E+02 -0.14653217734E+01  0.23604602157E+02  0.51100000000E-03 0.  1.
         12    1    3    3    0    0 -0.48914226961E+01  0.12614237170E+02  0.18838059903E+02  0.23193048447E+02  0.00000000000E+00 0. -1.
</event>
<event>
 7    1  0.1221195E-011  0.5930193E+02  0.7816164E-02  0.1266605E+00
        -11   -1    0    0    0    0  0.00000000000E+00  0.00000000000E+00  0.45593999997E+02  0.45594000000E+02  0.51100000000E-03 0.  1.
         11   -1    0    0    0    0 -0.00000000000E+00 -0.00000000000E+00 -0.45593999997E+02  0.45594000000E+02  0.51100000000E-03 0. -1.
    9900012    2    1    2    0    0 -0.14514477468E+02 -0.67640919632E+01 -0.27573508452E+02  0.59301931497E+02  0.49999977147E+02 0.  0.
        -12    1    1    2    0    0  0.14514477468E+02  0.67640919632E+01  0.27573508452E+02  0.31886068503E+02  0.00000000000E+00 0.  1.
         11    1    3    3    0    0  0.31753382904E+01  0.79915363263E+01 -0.14248916807E+02  0.16642687780E+02  0.51100000000E-03 0. -1.
        -11    1    3    3    0    0  0.82758927996E+01 -0.23693416448E+01  0.35444646983E+01  0.93095333782E+01  0.51100000000E-03 0.  1.
         12    1    3    3    0    0 -0.25965708558E+02 -0.12386286645E+02 -0.16869056343E+02  0.33349710339E+02  0.00000000000E+00 0. -1.
</event>
<event>
 7    1  0.1221195E-011  0.5930186E+02  0.7816164E-02  0.1266605E+00
        -11   -1    0    0    0    0  0.00000000000E+00  0.00000000000E+00  0.45593999997E+02  0.45594000000E+02  0.51100000000E-03 0.  1.
         11   -1    0    0    0    0 -0.00000000000E+00 -0.00000000000E+00 -0.45593999997E+02  0.45594000000E+02  0.51100000000E-03 0. -1.
    9900012    2    1    2    0    0  0.27388037085E+02 -0.71433888331E+01 -0.14683102448E+02  0.59301857604E+02  0.49999842384E+02 0.  0.
        -12    1    1    2    0    0 -0.27388037085E+02  0.71433888331E+01  0.14683102448E+02  0.31886142396E+02  0.00000000000E+00 0.  1.
         11    1    3    3    0    0  0.19826136061E+02 -0.76023748696E+01 -0.65616291586E+01  0.22224462923E+02  0.51100000000E-03 0. -1.
        -11    1    3    3    0    0  0.97493545517E+01  0.14638050974E+02 -0.13057932457E+02  0.21905069067E+02  0.51100000000E-03 0.  1.
         12    1    3    3    0    0 -0.21874535278E+01 -0.14179064938E+02  0.49364591673E+01  0.15172325615E+02  0.00000000000E+00 0. -1.
</event>
<event>
 7    1  0.1221195E-011  0.5930159E+02  0.7816164E-02  0.1266606E+00
        -11   -1    0    0    0    0  0.00000000000E+00  0.00000000000E+00  0.45593999997E+02  0.45594000000E+02  0.51100000000E-03 0.  1.
         11   -1    0    0    0    0 -0.00000000000E+00 -0.00000000000E+00 -0.45593999997E+02  0.45594000000E+02  0.51100000000E-03 0. -1.
    9900012    2    1    2    0    0  0.29110994632E+02  0.58787182521E+01 -0.11607487981E+02  0.59301590450E+02  0.49999355155E+02 0.  0.
        -12    1    1    2    0    0 -0.29110994632E+02 -0.58787182521E+01  0.11607487981E+02  0.31886409550E+02  0.00000000000E+00 0.  1.
         11    1    3    3    0    0  0.17065061924E+02  0.21340296789E+02 -0.19626533845E+01  0.27394828236E+02  0.51100000000E-03 0. -1.
        -11    1    3    3    0    0  0.22906810627E+01 -0.11454625351E+01  0.72618926539E+01  0.77002850160E+01  0.51100000000E-03 0.  1.
        -12    1    3    3    0    0  0.97552516454E+01 -0.14316116002E+02 -0.16906727251E+02  0.24206477198E+02  0.00000000000E+00 0.  1.
</event>
<event>
 7    1  0.1221195E-011  0.5930195E+02  0.7816164E-02  0.1266605E+00
        -11   -1    0    0    0    0  0.00000000000E+00  0.00000000000E+00  0.45593999997E+02  0.45594000000E+02  0.51100000000E-03 0.  1.
         11   -1    0    0    0    0 -0.00000000000E+00 -0.00000000000E+00 -0.45593999997E+02  0.45594000000E+02  0.51100000000E-03 0. -1.
    9900012    2    1    2    0    0  0.78401598516E+01  0.23767913695E+02  0.19756980405E+02  0.59301951285E+02  0.50000013236E+02 0.  0.
        -12    1    1    2    0    0 -0.78401598516E+01 -0.23767913695E+02 -0.19756980405E+02  0.31886048715E+02  0.00000000000E+00 0.  1.
         11    1    3    3    0    0  0.11295924274E+01  0.15510127967E+01 -0.49574996120E+01  0.53158651612E+01  0.51100000000E-03 0. -1.
        -11    1    3    3    0    0  0.17647255749E+02 -0.52603722411E+01  0.89945307311E+01  0.20493870667E+02  0.51100000000E-03 0.  1.
         12    1    3    3    0    0 -0.10936688325E+02  0.27477273139E+02  0.15719949286E+02  0.33492215457E+02  0.00000000000E+00 0. -1.
</event>
<event>
 7    1  0.1221195E-011  0.5930195E+02  0.7816164E-02  0.1266605E+00
        -11   -1    0    0    0    0  0.00000000000E+00  0.00000000000E+00  0.45593999997E+02  0.45594000000E+02  0.51100000000E-03 0.  1.
         11   -1    0    0    0    0 -0.00000000000E+00 -0.00000000000E+00 -0.45593999997E+02  0.45594000000E+02  0.51100000000E-03 0. -1.
    9900012    2    1    2    0    0  0.90809062193E+01  0.22080394776E+02 -0.21135598762E+02  0.59301949347E+02  0.50000009701E+02 0.  0.
        -12    1    1    2    0    0 -0.90809062193E+01 -0.22080394776E+02  0.21135598762E+02  0.31886050653E+02  0.00000000000E+00 0.  1.
         11    1    3    3    0    0  0.14596973109E+01  0.36809651170E+01  0.53563206023E+01  0.66611103495E+01  0.51100000000E-03 0. -1.
        -11    1    3    3    0    0  0.20736598787E+02  0.15844620457E+02 -0.38910803803E+01  0.26385583819E+02  0.51100000000E-03 0.  1.
         12    1    3    3    0    0 -0.13115389878E+02  0.25548092025E+01 -0.22600838984E+02  0.26255255179E+02  0.00000000000E+00 0. -1.
</event>
<event>
 7    1  0.1221195E-011  0.5930195E+02  0.7816164E-02  0.1266605E+00
        -11   -1    0    0    0    0  0.00000000000E+00  0.00000000000E+00  0.45593999997E+02  0.45594000000E+02  0.51100000000E-03 0.  1.
         11   -1    0    0    0    0 -0.00000000000E+00 -0.00000000000E+00 -0.45593999997E+02  0.45594000000E+02  0.51100000000E-03 0. -1.
    9900012    2    1    2    0    0 -0.77622103735E+01  0.30894302468E+02 -0.14178626627E+01  0.59301950238E+02  0.50000011326E+02 0.  0.
        -12    1    1    2    0    0  0.77622103735E+01 -0.30894302468E+02  0.14178626627E+01  0.31886049762E+02  0.00000000000E+00 0.  1.
         11    1    3    3    0    0 -0.55893195390E+01  0.36583187394E+01  0.18048793027E+01  0.69196371629E+01  0.51100000000E-03 0. -1.
        -11    1    3    3    0    0 -0.74850362080E+01  0.38753892860E+02 -0.85535801480E+00  0.39479382169E+02  0.51100000000E-03 0.  1.
         12    1    3    3    0    0  0.53121453734E+01 -0.11517909131E+02 -0.23673839506E+01  0.12902930907E+02  0.00000000000E+00 0. -1.
</event>
<event>
 7    1  0.1221195E-011  0.5930197E+02  0.7816164E-02  0.1266605E+00
        -11   -1    0    0    0    0  0.00000000000E+00  0.00000000000E+00  0.45593999997E+02  0.45594000000E+02  0.51100000000E-03 0.  1.
         11   -1    0    0    0    0 -0.00000000000E+00 -0.00000000000E+00 -0.45593999997E+02  0.45594000000E+02  0.51100000000E-03 0. -1.
    9900012    2    1    2    0    0 -0.54255038678E+01 -0.13772532903E+02 -0.28241820990E+02  0.59301965320E+02  0.50000038832E+02 0.  0.
        -12    1    1    2    0    0  0.54255038678E+01  0.13772532903E+02  0.28241820990E+02  0.31886034680E+02  0.00000000000E+00 0.  1.
         11    1    3    3    0    0 -0.10419132526E+00  0.12502171291E+02 -0.12750872012E+02  0.17857768062E+02  0.51100000000E-03 0. -1.
        -11    1    3    3    0    0  0.23281211706E+01 -0.14686666852E+02  0.58536516739E+01  0.15980724939E+02  0.51100000000E-03 0.  1.
         12    1    3    3    0    0 -0.76494337131E+01 -0.11588037342E+02 -0.21344600652E+02  0.25463472319E+02  0.00000000000E+00 0. -1.
</event>
<event>
 7    1  0.1221195E-011  0.5930188E+02  0.7816164E-02  0.1266605E+00
        -11   -1    0    0    0    0  0.00000000000E+00  0.00000000000E+00  0.45593999997E+02  0.45594000000E+02  0.51100000000E-03 0.  1.
         11   -1    0    0    0    0 -0.00000000000E+00 -0.00000000000E+00 -0.45593999997E+02  0.45594000000E+02  0.51100000000E-03 0. -1.
    9900012    2    1    2    0    0  0.29000905783E+02  0.28665267328E+00 -0.13251043509E+02  0.59301876685E+02  0.49999877182E+02 0.  0.
        -12    1    1    2    0    0 -0.29000905783E+02 -0.28665267328E+00  0.13251043509E+02  0.31886123315E+02  0.00000000000E+00 0.  1.
         11    1    3    3    0    0  0.25498370763E+01  0.22374023239E+01  0.84314939924E+01  0.90883293008E+01  0.51100000000E-03 0. -1.
        -11    1    3    3    0    0 -0.83063361335E+01 -0.48119874151E+01 -0.88380941558E+01  0.13048461649E+02  0.51100000000E-03 0.  1.
         12    1    3    3    0    0  0.34757404841E+02  0.28612377645E+01 -0.12844443345E+02  0.37165085734E+02  0.00000000000E+00 0. -1.
</event>
<event>
 7    1  0.1221195E-011  0.5930196E+02  0.7816164E-02  0.1266605E+00
        -11   -1    0    0    0    0  0.00000000000E+00  0.00000000000E+00  0.45593999997E+02  0.45594000000E+02  0.51100000000E-03 0.  1.
         11   -1    0    0    0    0 -0.00000000000E+00 -0.00000000000E+00 -0.45593999997E+02  0.45594000000E+02  0.51100000000E-03 0. -1.
    9900012    2    1    2    0    0  0.88393576969E+01 -0.29984219920E+02 -0.62874307479E+01  0.59301961141E+02  0.50000031211E+02 0.  0.
        -12    1    1    2    0    0 -0.88393576969E+01  0.29984219920E+02  0.62874307479E+01  0.31886038859E+02  0.00000000000E+00 0.  1.
         11    1    3    3    0    0  0.85684008646E+01 -0.35732211309E+01 -0.18384140435E+02  0.20595194158E+02  0.51100000000E-03 0. -1.
        -11    1    3    3    0    0 -0.62807912804E+01 -0.12771674286E+02 -0.57136783181E+01  0.15336561653E+02  0.51100000000E-03 0.  1.
        -12    1    3    3    0    0  0.65517481127E+01 -0.13639324503E+02  0.17810388005E+02  0.23370205329E+02  0.00000000000E+00 0.  1.
</event>
<event>
 7    1  0.1221195E-011  0.5930193E+02  0.7816164E-02  0.1266605E+00
        -11   -1    0    0    0    0  0.00000000000E+00  0.00000000000E+00  0.45593999997E+02  0.45594000000E+02  0.51100000000E-03 0.  1.
         11   -1    0    0    0    0 -0.00000000000E+00 -0.00000000000E+00 -0.45593999997E+02  0.45594000000E+02  0.51100000000E-03 0. -1.
    9900012    2    1    2    0    0 -0.22009338188E+02 -0.23071784267E+02  0.55160225846E-01  0.59301933460E+02  0.49999980726E+02 0.  0.
        -12    1    1    2    0    0  0.22009338188E+02  0.23071784267E+02 -0.55160225846E-01  0.31886066540E+02  0.00000000000E+00 0.  1.
         11    1    3    3    0    0 -0.55694918869E+01 -0.20086126541E+01 -0.42466419133E+01  0.72861328888E+01  0.51100000000E-03 0. -1.
        -11    1    3    3    0    0 -0.24374616370E+02  0.47312851943E+01  0.13262507677E+01  0.24864953733E+02  0.51100000000E-03 0.  1.
         12    1    3    3    0    0  0.79347700689E+01 -0.25794456808E+02  0.29755513714E+01  0.27150846838E+02  0.00000000000E+00 0. -1.
</event>
<event>
 7    1  0.1221195E-011  0.5930200E+02  0.7816164E-02  0.1266605E+00
        -11   -1    0    0    0    0  0.00000000000E+00  0.00000000000E+00  0.45593999997E+02  0.45594000000E+02  0.51100000000E-03 0.  1.
         11   -1    0    0    0    0 -0.00000000000E+00 -0.00000000000E+00 -0.45593999997E+02  0.45594000000E+02  0.51100000000E-03 0. -1.
    9900012    2    1    2    0    0  0.14771772532E+02  0.19392778273E-01 -0.28257944666E+02  0.59301998737E+02  0.50000099776E+02 0.  0.
        -12    1    1    2    0    0 -0.14771772532E+02 -0.19392778273E-01  0.28257944666E+02  0.31886001263E+02  0.00000000000E+00 0.  1.
         11    1    3    3    0    0 -0.43697336158E+01  0.16759992993E+00 -0.21946549115E+02  0.22377973097E+02  0.51100000000E-03 0. -1.
        -11    1    3    3    0    0  0.13819214114E+02  0.12198843286E+02 -0.12346869402E+02  0.22186203833E+02  0.51100000000E-03 0.  1.
        -12    1    3    3    0    0  0.53222920336E+01 -0.12347050437E+02  0.60354738512E+01  0.14737821807E+02  0.00000000000E+00 0.  1.
</event>
<event>
 7    1  0.1221195E-011  0.5930195E+02  0.7816164E-02  0.1266605E+00
        -11   -1    0    0    0    0  0.00000000000E+00  0.00000000000E+00  0.45593999997E+02  0.45594000000E+02  0.51100000000E-03 0. -1.
         11   -1    0    0    0    0 -0.00000000000E+00 -0.00000000000E+00 -0.45593999997E+02  0.45594000000E+02  0.51100000000E-03 0.  1.
    9900012    2    1    2    0    0 -0.18889855533E+02 -0.68739424027E+01  0.24751611640E+02  0.59301952816E+02  0.50000016028E+02 0.  0.
        -12    1    1    2    0    0  0.18889855533E+02  0.68739424027E+01 -0.24751611640E+02  0.31886047184E+02  0.00000000000E+00 0.  1.
         11    1    3    3    0    0 -0.75079632466E+01  0.74766203749E+00  0.16635222682E+02  0.18266339113E+02  0.51100000000E-03 0. -1.
        -11    1    3    3    0    0 -0.14992353086E+01  0.14106348021E+02  0.95852879824E+01  0.17120587226E+02  0.51100000000E-03 0.  1.
        -12    1    3    3    0    0 -0.98826569783E+01 -0.21727952461E+02 -0.14688990246E+01  0.23915026478E+02  0.00000000000E+00 0.  1.
</event>
<event>
 7    1  0.1221195E-011  0.5930195E+02  0.7816164E-02  0.1266605E+00
        -11   -1    0    0    0    0  0.00000000000E+00  0.00000000000E+00  0.45593999997E+02  0.45594000000E+02  0.51100000000E-03 0.  1.
         11   -1    0    0    0    0 -0.00000000000E+00 -0.00000000000E+00 -0.45593999997E+02  0.45594000000E+02  0.51100000000E-03 0. -1.
    9900012    2    1    2    0    0  0.30057476202E+02 -0.10247814022E+02 -0.28724131904E+01  0.59301947793E+02  0.50000006866E+02 0.  0.
        -12    1    1    2    0    0 -0.30057476202E+02  0.10247814022E+02  0.28724131904E+01  0.31886052207E+02  0.00000000000E+00 0.  1.
         11    1    3    3    0    0 -0.63937601707E+01 -0.17123036950E+01 -0.11058103928E+01  0.67108099325E+01  0.51100000000E-03 0. -1.
        -11    1    3    3    0    0 -0.26514405522E+01  0.83181584354E+01 -0.46905440695E+01  0.99107568171E+01  0.51100000000E-03 0.  1.
         12    1    3    3    0    0  0.39102676925E+02 -0.16853668762E+02  0.29239412719E+01  0.42680381043E+02  0.00000000000E+00 0. -1.
</event>
<event>
 7    1  0.1221195E-011  0.5930194E+02  0.7816164E-02  0.1266605E+00
        -11   -1    0    0    0    0  0.00000000000E+00  0.00000000000E+00  0.45593999997E+02  0.45594000000E+02  0.51100000000E-03 0. -1.
         11   -1    0    0    0    0 -0.00000000000E+00 -0.00000000000E+00 -0.45593999997E+02  0.45594000000E+02  0.51100000000E-03 0.  1.
    9900012    2    1    2    0    0 -0.30125832283E+01  0.31721705057E+02  0.11741596239E+01  0.59301939091E+02  0.49999990997E+02 0.  0.
        -12    1    1    2    0    0  0.30125832283E+01 -0.31721705057E+02 -0.11741596239E+01  0.31886060909E+02  0.00000000000E+00 0.  1.
         11    1    3    3    0    0 -0.16377474650E+02  0.11262400896E+02 -0.33686192592E+00  0.19879054959E+02  0.51100000000E-03 0. -1.
        -11    1    3    3    0    0 -0.80082961646E+01 -0.17948870693E+01  0.24124965811E+01  0.85542134102E+01  0.51100000000E-03 0.  1.
         12    1    3    3    0    0  0.21373187586E+02  0.22254191231E+02 -0.90147503128E+00  0.30868670722E+02  0.00000000000E+00 0. -1.
</event>
<event>
 7    1  0.1221195E-011  0.5930191E+02  0.7816164E-02  0.1266605E+00
        -11   -1    0    0    0    0  0.00000000000E+00  0.00000000000E+00  0.45593999997E+02  0.45594000000E+02  0.51100000000E-03 0. -1.
         11   -1    0    0    0    0 -0.00000000000E+00 -0.00000000000E+00 -0.45593999997E+02  0.45594000000E+02  0.51100000000E-03 0.  1.
    9900012    2    1    2    0    0  0.27132225058E+02 -0.99933839939E+01 -0.13442362698E+02  0.59301914082E+02  0.49999945386E+02 0.  0.
        -12    1    1    2    0    0 -0.27132225058E+02  0.99933839939E+01  0.13442362698E+02  0.31886085918E+02  0.00000000000E+00 0.  1.
         11    1    3    3    0    0 -0.11427002805E+01 -0.82345215578E+01  0.34365350444E+01  0.89957146792E+01  0.51100000000E-03 0. -1.
        -11    1    3    3    0    0 -0.88498818403E+01 -0.31652323282E+01 -0.74058945142E+01  0.11966051065E+02  0.51100000000E-03 0.  1.
         12    1    3    3    0    0  0.37124807179E+02  0.14063698921E+01 -0.94730032285E+01  0.38340148337E+02  0.00000000000E+00 0. -1.
</event>
<event>
 7    1  0.1221195E-011  0.5930195E+02  0.7816164E-02  0.1266605E+00
        -11   -1    0    0    0    0  0.00000000000E+00  0.00000000000E+00  0.45593999997E+02  0.45594000000E+02  0.51100000000E-03 0.  1.
         11   -1    0    0    0    0 -0.00000000000E+00 -0.00000000000E+00 -0.45593999997E+02  0.45594000000E+02  0.51100000000E-03 0. -1.
    9900012    2    1    2    0    0 -0.30425235902E+02 -0.65013178478E+01 -0.69827127019E+01  0.59301946778E+02  0.50000005015E+02 0.  0.
        -12    1    1    2    0    0  0.30425235902E+02  0.65013178478E+01  0.69827127019E+01  0.31886053222E+02  0.00000000000E+00 0.  1.
         11    1    3    3    0    0 -0.57871630594E+01 -0.72620517541E+00  0.10004642185E+01  0.59177326018E+01  0.51100000000E-03 0. -1.
        -11    1    3    3    0    0  0.68246931834E+01 -0.69322097103E+01  0.12488214582E+02  0.15829954902E+02  0.51100000000E-03 0.  1.
         12    1    3    3    0    0 -0.31462766026E+02  0.11570970379E+01 -0.20471391502E+02  0.37554259273E+02  0.00000000000E+00 0. -1.
</event>
<event>
 7    1  0.1221195E-011  0.5930201E+02  0.7816164E-02  0.1266605E+00
        -11   -1    0    0    0    0  0.00000000000E+00  0.00000000000E+00  0.45593999997E+02  0.45594000000E+02  0.51100000000E-03 0.  1.
         11   -1    0    0    0    0 -0.00000000000E+00 -0.00000000000E+00 -0.45593999997E+02  0.45594000000E+02  0.51100000000E-03 0. -1.
    9900012    2    1    2    0    0 -0.10669096617E+02  0.25395898305E+02  0.16060347805E+02  0.59302014914E+02  0.50000129279E+02 0.  0.
        -12    1    1    2    0    0  0.10669096617E+02 -0.25395898305E+02 -0.16060347805E+02  0.31885985086E+02  0.00000000000E+00 0.  1.
         11    1    3    3    0    0  0.13942656936E+02  0.69370917127E+01  0.38384350457E+01  0.16039155455E+02  0.51100000000E-03 0. -1.
        -11    1    3    3    0    0  0.25885723444E+01  0.93578477523E+01  0.10832228489E+02  0.14546724568E+02  0.51100000000E-03 0.  1.
         12    1    3    3    0    0 -0.27200325897E+02  0.91009588397E+01  0.13896842696E+01  0.28716134891E+02  0.00000000000E+00 0. -1.
</event>
<event>
 7    1  0.1221195E-011  0.5930193E+02  0.7816164E-02  0.1266605E+00
        -11   -1    0    0    0    0  0.00000000000E+00  0.00000000000E+00  0.45593999997E+02  0.45594000000E+02  0.51100000000E-03 0. -1.
         11   -1    0    0    0    0 -0.00000000000E+00 -0.00000000000E+00 -0.45593999997E+02  0.45594000000E+02  0.51100000000E-03 0.  1.
    9900012    2    1    2    0    0  0.43658212455E+00  0.24745676575E+02  0.20104286808E+02  0.59301929983E+02  0.49999974385E+02 0.  0.
        -12    1    1    2    0    0 -0.43658212455E+00 -0.24745676575E+02 -0.20104286808E+02  0.31886070017E+02  0.00000000000E+00 0.  1.
         11    1    3    3    0    0 -0.42507368026E+01 -0.28620520902E+01  0.19784960970E+02  0.20437827339E+02  0.51100000000E-03 0. -1.
        -11    1    3    3    0    0  0.90000265786E+01 -0.16328710865E+01  0.15700475406E+01  0.92807217360E+01  0.51100000000E-03 0.  1.
        -12    1    3    3    0    0 -0.43127076514E+01  0.29240599752E+02 -0.12507217023E+01  0.29583380907E+02  0.00000000000E+00 0.  1.
</event>
<event>
 7    1  0.1221195E-011  0.5930190E+02  0.7816164E-02  0.1266605E+00
        -11   -1    0    0    0    0  0.00000000000E+00  0.00000000000E+00  0.45593999997E+02  0.45594000000E+02  0.51100000000E-03 0.  1.
         11   -1    0    0    0    0 -0.00000000000E+00 -0.00000000000E+00 -0.45593999997E+02  0.45594000000E+02  0.51100000000E-03 0. -1.
    9900012    2    1    2    0    0  0.26288949689E+02 -0.56096876179E+01  0.17150675589E+02  0.59301903593E+02  0.49999926257E+02 0.  0.
        -12    1    1    2    0    0 -0.26288949689E+02  0.56096876179E+01 -0.17150675589E+02  0.31886096407E+02  0.00000000000E+00 0.  1.
         11    1    3    3    0    0  0.13328508771E+02 -0.23823108078E+02  0.12738781142E+02  0.30124179156E+02  0.51100000000E-03 0.  1.
        -11    1    3    3    0    0  0.93701499083E+01  0.10796711007E+02  0.11469769410E+02  0.18328237461E+02  0.51100000000E-03 0. -1.
        -12    1    3    3    0    0  0.35902910100E+01  0.74167094533E+01 -0.70578749630E+01  0.10849486976E+02  0.00000000000E+00 0.  1.
</event>
<event>
 7    1  0.1221195E-011  0.5930196E+02  0.7816164E-02  0.1266605E+00
        -11   -1    0    0    0    0  0.00000000000E+00  0.00000000000E+00  0.45593999997E+02  0.45594000000E+02  0.51100000000E-03 0.  1.
         11   -1    0    0    0    0 -0.00000000000E+00 -0.00000000000E+00 -0.45593999997E+02  0.45594000000E+02  0.51100000000E-03 0. -1.
    9900012    2    1    2    0    0 -0.49946636695E+01  0.33901494575E+01 -0.31309420838E+02  0.59301958983E+02  0.50000027275E+02 0.  0.
        -12    1    1    2    0    0  0.49946636695E+01 -0.33901494575E+01  0.31309420838E+02  0.31886041017E+02  0.00000000000E+00 0.  1.
         11    1    3    3    0    0 -0.99607639021E+01 -0.13588847754E+02 -0.58008437261E+00  0.16858531933E+02  0.51100000000E-03 0. -1.
        -11    1    3    3    0    0 -0.86510720042E+01  0.54851677680E+01 -0.57114492675E+01  0.11728118573E+02  0.51100000000E-03 0.  1.
         12    1    3    3    0    0  0.13617172237E+02  0.11493829443E+02 -0.25017887198E+02  0.30715308477E+02  0.00000000000E+00 0. -1.
</event>
<event>
 7    1  0.1221195E-011  0.5930192E+02  0.7816164E-02  0.1266605E+00
        -11   -1    0    0    0    0  0.00000000000E+00  0.00000000000E+00  0.45593999997E+02  0.45594000000E+02  0.51100000000E-03 0.  1.
         11   -1    0    0    0    0 -0.00000000000E+00 -0.00000000000E+00 -0.45593999997E+02  0.45594000000E+02  0.51100000000E-03 0. -1.
    9900012    2    1    2    0    0 -0.14315306453E+02 -0.13371257695E+02 -0.25159566878E+02  0.59301916254E+02  0.49999949347E+02 0.  0.
        -12    1    1    2    0    0  0.14315306453E+02  0.13371257695E+02  0.25159566878E+02  0.31886083746E+02  0.00000000000E+00 0.  1.
         11    1    3    3    0    0 -0.44739605351E+01 -0.34779041561E+01 -0.10089046382E+01  0.57558690933E+01  0.51100000000E-03 0. -1.
        -11    1    3    3    0    0  0.16909080924E+02 -0.11918730166E+02 -0.13382012188E+02  0.24638413036E+02  0.51100000000E-03 0.  1.
         12    1    3    3    0    0 -0.26750426842E+02  0.20253766267E+01 -0.10768650051E+02  0.28907634124E+02  0.00000000000E+00 0. -1.
</event>
<event>
 7    1  0.1221195E-011  0.5930194E+02  0.7816164E-02  0.1266605E+00
        -11   -1    0    0    0    0  0.00000000000E+00  0.00000000000E+00  0.45593999997E+02  0.45594000000E+02  0.51100000000E-03 0.  1.
         11   -1    0    0    0    0 -0.00000000000E+00 -0.00000000000E+00 -0.45593999997E+02  0.45594000000E+02  0.51100000000E-03 0. -1.
    9900012    2    1    2    0    0 -0.16341978427E+02 -0.18435251367E+02 -0.20243569545E+02  0.59301939413E+02  0.49999991583E+02 0.  0.
        -12    1    1    2    0    0  0.16341978427E+02  0.18435251367E+02  0.20243569545E+02  0.31886060587E+02  0.00000000000E+00 0.  1.
         11    1    3    3    0    0  0.35505114216E+01  0.86740933723E+01  0.22534200479E+01  0.96397058752E+01  0.51100000000E-03 0. -1.
        -11    1    3    3    0    0  0.28304679835E+00 -0.11169643690E+01 -0.16101541666E+02  0.16142718767E+02  0.51100000000E-03 0.  1.
        -12    1    3    3    0    0 -0.20175536647E+02 -0.25992380370E+02 -0.63954479266E+01  0.33519514771E+02  0.00000000000E+00 0.  1.
</event>
<event>
 7    1  0.1221195E-011  0.5930196E+02  0.7816164E-02  0.1266605E+00
        -11   -1    0    0    0    0  0.00000000000E+00  0.00000000000E+00  0.45593999997E+02  0.45594000000E+02  0.51100000000E-03 0. -1.
         11   -1    0    0    0    0 -0.00000000000E+00 -0.00000000000E+00 -0.45593999997E+02  0.45594000000E+02  0.51100000000E-03 0.  1.
    9900012    2    1    2    0    0  0.19167350015E+02  0.56776275242E+01 -0.24841436966E+02  0.59301956792E+02  0.50000023279E+02 0.  0.
        -12    1    1    2    0    0 -0.19167350015E+02 -0.56776275242E+01  0.24841436966E+02  0.31886043208E+02  0.00000000000E+00 0.  1.
         11    1    3    3    0    0 -0.39519384053E+01  0.98231291722E+01 -0.12027447733E+02  0.16024081350E+02  0.51100000000E-03 0. -1.
        -11    1    3    3    0    0  0.19653438244E+02 -0.39851018254E+01 -0.24168733737E+02  0.31404877998E+02  0.51100000000E-03 0.  1.
         12    1    3    3    0    0  0.34658501765E+01 -0.16039982252E+00  0.11354744503E+02  0.11872997443E+02  0.00000000000E+00 0. -1.
</event>
<event>
 7    1  0.1221195E-011  0.5930196E+02  0.7816164E-02  0.1266605E+00
        -11   -1    0    0    0    0  0.00000000000E+00  0.00000000000E+00  0.45593999997E+02  0.45594000000E+02  0.51100000000E-03 0.  1.
         11   -1    0    0    0    0 -0.00000000000E+00 -0.00000000000E+00 -0.45593999997E+02  0.45594000000E+02  0.51100000000E-03 0. -1.
    9900012    2    1    2    0    0 -0.22553752914E+02 -0.22527447408E+02  0.74964024787E+00  0.59301958889E+02  0.50000027104E+02 0.  0.
        -12    1    1    2    0    0  0.22553752914E+02  0.22527447408E+02 -0.74964024787E+00  0.31886041111E+02  0.00000000000E+00 0.  1.
         11    1    3    3    0    0 -0.57507544966E+01  0.48174770364E+01  0.56705272496E+01  0.94039428872E+01  0.51100000000E-03 0. -1.
        -11    1    3    3    0    0 -0.20977434448E+02 -0.73290739320E+00  0.42999002750E+01  0.21426130120E+02  0.51100000000E-03 0.  1.
        -12    1    3    3    0    0  0.41744360310E+01 -0.26612017051E+02 -0.92207872768E+01  0.28471885883E+02  0.00000000000E+00 0.  1.
</event>
<event>
 7    1  0.1221195E-011  0.5930190E+02  0.7816164E-02  0.1266605E+00
        -11   -1    0    0    0    0  0.00000000000E+00  0.00000000000E+00  0.45593999997E+02  0.45594000000E+02  0.51100000000E-03 0.  1.
         11   -1    0    0    0    0 -0.00000000000E+00 -0.00000000000E+00 -0.45593999997E+02  0.45594000000E+02  0.51100000000E-03 0. -1.
    9900012    2    1    2    0    0 -0.97083751748E+01 -0.14946795195E+02 -0.26439819400E+02  0.59301901383E+02  0.49999922226E+02 0.  0.
        -12    1    1    2    0    0  0.97083751748E+01  0.14946795195E+02  0.26439819400E+02  0.31886098617E+02  0.00000000000E+00 0.  1.
         11    1    3    3    0    0 -0.20582160939E+01 -0.11453101750E+02 -0.87954308168E+01  0.14586617041E+02  0.51100000000E-03 0. -1.
        -11    1    3    3    0    0 -0.18002067761E+02 -0.15366255368E+02 -0.42680906017E+01  0.24050215079E+02  0.51100000000E-03 0.  1.
         12    1    3    3    0    0  0.10351908680E+02  0.11872561924E+02 -0.13376297981E+02  0.20665069263E+02  0.00000000000E+00 0. -1.
</event>
<event>
 7    1  0.1221195E-011  0.5930196E+02  0.7816164E-02  0.1266605E+00
        -11   -1    0    0    0    0  0.00000000000E+00  0.00000000000E+00  0.45593999997E+02  0.45594000000E+02  0.51100000000E-03 0.  1.
         11   -1    0    0    0    0 -0.00000000000E+00 -0.00000000000E+00 -0.45593999997E+02  0.45594000000E+02  0.51100000000E-03 0. -1.
    9900012    2    1    2    0    0  0.28794146736E+02  0.12335685059E+02 -0.59537682292E+01  0.59301962801E+02  0.50000034238E+02 0.  0.
        -12    1    1    2    0    0 -0.28794146736E+02 -0.12335685059E+02  0.59537682292E+01  0.31886037199E+02  0.00000000000E+00 0.  1.
         11    1    3    3    0    0 -0.56595468130E+00 -0.97268958001E+01  0.59139115138E+01  0.11397682057E+02  0.51100000000E-03 0. -1.
        -11    1    3    3    0    0  0.33043789101E+01  0.11957789860E+02 -0.15355686828E+02  0.19740941632E+02  0.51100000000E-03 0.  1.
         12    1    3    3    0    0  0.26055722507E+02  0.10104790999E+02  0.34880070849E+01  0.28163339112E+02  0.00000000000E+00 0. -1.
</event>
<event>
 7    1  0.1221195E-011  0.5930198E+02  0.7816164E-02  0.1266605E+00
        -11   -1    0    0    0    0  0.00000000000E+00  0.00000000000E+00  0.45593999997E+02  0.45594000000E+02  0.51100000000E-03 0. -1.
         11   -1    0    0    0    0 -0.00000000000E+00 -0.00000000000E+00 -0.45593999997E+02  0.45594000000E+02  0.51100000000E-03 0.  1.
    9900012    2    1    2    0    0  0.19828466244E+02  0.19026500058E+02  0.16172271157E+02  0.59301982180E+02  0.50000069581E+02 0.  0.
        -12    1    1    2    0    0 -0.19828466244E+02 -0.19026500058E+02 -0.16172271157E+02  0.31886017820E+02  0.00000000000E+00 0.  1.
         11    1    3    3    0    0  0.22349601824E+02  0.22055504855E+02  0.15118990241E+02  0.34850163016E+02  0.51100000000E-03 0. -1.
        -11    1    3    3    0    0  0.34911120127E+01  0.15793364291E+01  0.11172501729E+02  0.11811306523E+02  0.51100000000E-03 0.  1.
        -12    1    3    3    0    0 -0.60122475928E+01 -0.46083412255E+01 -0.10119220813E+02  0.12640512641E+02  0.00000000000E+00 0.  1.
</event>
<event>
 7    1  0.1221195E-011  0.5930187E+02  0.7816164E-02  0.1266605E+00
        -11   -1    0    0    0    0  0.00000000000E+00  0.00000000000E+00  0.45593999997E+02  0.45594000000E+02  0.51100000000E-03 0.  1.
         11   -1    0    0    0    0 -0.00000000000E+00 -0.00000000000E+00 -0.45593999997E+02  0.45594000000E+02  0.51100000000E-03 0. -1.
    9900012    2    1    2    0    0 -0.90639077833E+01  0.26071376994E+02 -0.15964158118E+02  0.59301867166E+02  0.49999859823E+02 0.  0.
        -12    1    1    2    0    0  0.90639077833E+01 -0.26071376994E+02  0.15964158118E+02  0.31886132834E+02  0.00000000000E+00 0.  1.
         11    1    3    3    0    0  0.16824049991E+01  0.14402221994E+02 -0.20040105067E+02  0.24735809999E+02  0.51100000000E-03 0. -1.
        -11    1    3    3    0    0 -0.13569340187E+02 -0.35430089919E+01  0.10795387857E+02  0.17698031108E+02  0.51100000000E-03 0.  1.
         12    1    3    3    0    0  0.28230274048E+01  0.15212163992E+02 -0.67194409077E+01  0.16868026060E+02  0.00000000000E+00 0. -1.
</event>
<event>
 7    1  0.1221195E-011  0.5930195E+02  0.7816164E-02  0.1266605E+00
        -11   -1    0    0    0    0  0.00000000000E+00  0.00000000000E+00  0.45593999997E+02  0.45594000000E+02  0.51100000000E-03 0.  1.
         11   -1    0    0    0    0 -0.00000000000E+00 -0.00000000000E+00 -0.45593999997E+02  0.45594000000E+02  0.51100000000E-03 0. -1.
    9900012    2    1    2    0    0  0.27793516144E+02 -0.10730801107E+01 -0.15591317173E+02  0.59301949574E+02  0.50000010116E+02 0.  0.
        -12    1    1    2    0    0 -0.27793516144E+02  0.10730801107E+01  0.15591317173E+02  0.31886050426E+02  0.00000000000E+00 0.  1.
         11    1    3    3    0    0  0.70243998573E+01  0.12147547874E+02 -0.31100667278E+01  0.14372808634E+02  0.51100000000E-03 0. -1.
        -11    1    3    3    0    0 -0.20468825039E+01  0.93430462863E+01 -0.81176081937E+01  0.12545031086E+02  0.51100000000E-03 0.  1.
         12    1    3    3    0    0  0.22815998790E+02 -0.22563674271E+02 -0.43636422518E+01  0.32384109855E+02  0.00000000000E+00 0. -1.
</event>
<event>
 7    1  0.1221195E-011  0.5930192E+02  0.7816164E-02  0.1266605E+00
        -11   -1    0    0    0    0  0.00000000000E+00  0.00000000000E+00  0.45593999997E+02  0.45594000000E+02  0.51100000000E-03 0.  1.
         11   -1    0    0    0    0 -0.00000000000E+00 -0.00000000000E+00 -0.45593999997E+02  0.45594000000E+02  0.51100000000E-03 0. -1.
    9900012    2    1    2    0    0  0.26908864041E+02  0.14465830404E+02 -0.91309941058E+01  0.59301917353E+02  0.49999951351E+02 0.  0.
        -12    1    1    2    0    0 -0.26908864041E+02 -0.14465830404E+02  0.91309941058E+01  0.31886082647E+02  0.00000000000E+00 0.  1.
         11    1    3    3    0    0 -0.38480719399E+01  0.58691504795E+01  0.42532251808E+01  0.82063700687E+01  0.51100000000E-03 0. -1.
        -11    1    3    3    0    0 -0.32077964819E+00 -0.52672101272E+01  0.89509137738E+01  0.10390633270E+02  0.51100000000E-03 0.  1.
         12    1    3    3    0    0  0.31077715629E+02  0.13863890052E+02 -0.22335133060E+02  0.40704914014E+02  0.00000000000E+00 0. -1.
</event>
<event>
 7    1  0.1221195E-011  0.5930194E+02  0.7816164E-02  0.1266605E+00
        -11   -1    0    0    0    0  0.00000000000E+00  0.00000000000E+00  0.45593999997E+02  0.45594000000E+02  0.51100000000E-03 0.  1.
         11   -1    0    0    0    0 -0.00000000000E+00 -0.00000000000E+00 -0.45593999997E+02  0.45594000000E+02  0.51100000000E-03 0. -1.
    9900012    2    1    2    0    0  0.21103423220E+02 -0.15397650130E+02 -0.18283284745E+02  0.59301943452E+02  0.49999998949E+02 0.  0.
        -12    1    1    2    0    0 -0.21103423220E+02  0.15397650130E+02  0.18283284745E+02  0.31886056548E+02  0.00000000000E+00 0.  1.
         11    1    3    3    0    0 -0.43342223737E+01  0.38122593652E+01 -0.42365750004E+01  0.71601238151E+01  0.51100000000E-03 0. -1.
        -11    1    3    3    0    0 -0.52119384059E+01 -0.12822568510E+02  0.58710846284E+01  0.15035032428E+02  0.51100000000E-03 0.  1.
         12    1    3    3    0    0  0.30649584000E+02 -0.63873409850E+01 -0.19917794373E+02  0.37106787208E+02  0.00000000000E+00 0. -1.
</event>
<event>
 7    1  0.1221195E-011  0.5930193E+02  0.7816164E-02  0.1266605E+00
        -11   -1    0    0    0    0  0.00000000000E+00  0.00000000000E+00  0.45593999997E+02  0.45594000000E+02  0.51100000000E-03 0.  1.
         11   -1    0    0    0    0 -0.00000000000E+00 -0.00000000000E+00 -0.45593999997E+02  0.45594000000E+02  0.51100000000E-03 0. -1.
    9900012    2    1    2    0    0 -0.26847880659E+02 -0.16218807877E+02  0.57326216336E+01  0.59301931324E+02  0.49999976831E+02 0.  0.
        -12    1    1    2    0    0  0.26847880659E+02  0.16218807877E+02 -0.57326216336E+01  0.31886068676E+02  0.00000000000E+00 0.  1.
         11    1    3    3    0    0 -0.43407445423E+01  0.43101146220E+01 -0.47863660769E+01  0.77671392236E+01  0.51100000000E-03 0.  1.
        -11    1    3    3    0    0 -0.33342058335E+02 -0.11057281845E+02  0.28897715534E+01  0.35246377342E+02  0.51100000000E-03 0. -1.
         12    1    3    3    0    0  0.10834922219E+02 -0.94716406538E+01  0.76292161571E+01  0.16288414758E+02  0.00000000000E+00 0. -1.
</event>
<event>
 7    1  0.1221195E-011  0.5930200E+02  0.7816164E-02  0.1266605E+00
        -11   -1    0    0    0    0  0.00000000000E+00  0.00000000000E+00  0.45593999997E+02  0.45594000000E+02  0.51100000000E-03 0.  1.
         11   -1    0    0    0    0 -0.00000000000E+00 -0.00000000000E+00 -0.45593999997E+02  0.45594000000E+02  0.51100000000E-03 0. -1.
    9900012    2    1    2    0    0 -0.24551307434E+02 -0.19457852089E+02 -0.59449130517E+01  0.59302004707E+02  0.50000110665E+02 0.  0.
        -12    1    1    2    0    0  0.24551307434E+02  0.19457852089E+02  0.59449130517E+01  0.31885995293E+02  0.00000000000E+00 0.  1.
         11    1    3    3    0    0 -0.18503275471E+02 -0.16741891817E+01  0.13322190582E+02  0.22861646370E+02  0.51100000000E-03 0. -1.
        -11    1    3    3    0    0 -0.10399363079E+02 -0.90992867166E+01  0.11138197172E+01  0.13863057593E+02  0.51100000000E-03 0.  1.
         12    1    3    3    0    0  0.43513311158E+01 -0.86843761902E+01 -0.20380923351E+02  0.22577300745E+02  0.00000000000E+00 0. -1.
</event>
<event>
 7    1  0.1221195E-011  0.5930194E+02  0.7816164E-02  0.1266605E+00
        -11   -1    0    0    0    0  0.00000000000E+00  0.00000000000E+00  0.45593999997E+02  0.45594000000E+02  0.51100000000E-03 0.  1.
         11   -1    0    0    0    0 -0.00000000000E+00 -0.00000000000E+00 -0.45593999997E+02  0.45594000000E+02  0.51100000000E-03 0. -1.
    9900012    2    1    2    0    0 -0.23422855884E+02 -0.20321568174E+02 -0.74245688719E+01  0.59301944525E+02  0.50000000908E+02 0.  0.
        -12    1    1    2    0    0  0.23422855884E+02  0.20321568174E+02  0.74245688719E+01  0.31886055475E+02  0.00000000000E+00 0.  1.
         11    1    3    3    0    0 -0.96694831293E+01 -0.25064964986E+02  0.46700183761E+01  0.27268304781E+02  0.51100000000E-03 0. -1.
        -11    1    3    3    0    0  0.36166098382E+01 -0.48493713699E+01 -0.10511232695E+02  0.12127748449E+02  0.51100000000E-03 0.  1.
        -12    1    3    3    0    0 -0.17369982592E+02  0.95927681816E+01 -0.15833545532E+01  0.19905891296E+02  0.00000000000E+00 0.  1.
</event>
<event>
 7    1  0.1221195E-011  0.5930196E+02  0.7816164E-02  0.1266605E+00
        -11   -1    0    0    0    0  0.00000000000E+00  0.00000000000E+00  0.45593999997E+02  0.45594000000E+02  0.51100000000E-03 0.  1.
         11   -1    0    0    0    0 -0.00000000000E+00 -0.00000000000E+00 -0.45593999997E+02  0.45594000000E+02  0.51100000000E-03 0. -1.
    9900012    2    1    2    0    0 -0.18115004854E+02 -0.19120377278E+02 -0.17971572693E+02  0.59301958333E+02  0.50000026090E+02 0.  0.
        -12    1    1    2    0    0  0.18115004854E+02  0.19120377278E+02  0.17971572693E+02  0.31886041667E+02  0.00000000000E+00 0.  1.
         11    1    3    3    0    0 -0.11202030726E+02  0.80967970184E+01  0.53710713621E+01  0.14828756596E+02  0.51100000000E-03 0. -1.
        -11    1    3    3    0    0  0.38598306342E+01  0.28498678991E+00  0.29992838112E+01  0.48964490844E+01  0.51100000000E-03 0.  1.
         12    1    3    3    0    0 -0.10772804762E+02 -0.27502161086E+02 -0.26341927866E+02  0.39576752653E+02  0.00000000000E+00 0. -1.
</event>
<event>
 7    1  0.1435991E-011  0.5930200E+02  0.7816164E-02  0.1266605E+00
        -11   -1    0    0    0    0  0.00000000000E+00  0.00000000000E+00  0.45593999997E+02  0.45594000000E+02  0.51100000000E-03 0. -1.
         11   -1    0    0    0    0 -0.00000000000E+00 -0.00000000000E+00 -0.45593999997E+02  0.45594000000E+02  0.51100000000E-03 0.  1.
    9900012    2    1    2    0    0  0.46815120201E+01 -0.23108102145E+02  0.21466627928E+02  0.59301999088E+02  0.50000100416E+02 0.  0.
        -12    1    1    2    0    0 -0.46815120201E+01  0.23108102145E+02 -0.21466627928E+02  0.31886000912E+02  0.00000000000E+00 0.  1.
         11    1    3    3    0    0 -0.95351029566E+01 -0.71120629124E+01 -0.39380952592E+01  0.12530292167E+02  0.51100000000E-03 0. -1.
        -11    1    3    3    0    0  0.55414338381E+01 -0.60063536961E+01 -0.76334690066E+01  0.11182737726E+02  0.51100000000E-03 0.  1.
         12    1    3    3    0    0  0.86751811386E+01 -0.99896855369E+01  0.33038192194E+02  0.35588969195E+02  0.00000000000E+00 0. -1.
</event>
<event>
 7    1  0.1221195E-011  0.5930192E+02  0.7816164E-02  0.1266605E+00
        -11   -1    0    0    0    0  0.00000000000E+00  0.00000000000E+00  0.45593999997E+02  0.45594000000E+02  0.51100000000E-03 0. -1.
         11   -1    0    0    0    0 -0.00000000000E+00 -0.00000000000E+00 -0.45593999997E+02  0.45594000000E+02  0.51100000000E-03 0.  1.
    9900012    2    1    2    0    0 -0.15999545516E+02 -0.25299403803E+02  0.10985291365E+02  0.59301922852E+02  0.49999961381E+02 0.  0.
        -12    1    1    2    0    0  0.15999545516E+02  0.25299403803E+02 -0.10985291365E+02  0.31886077148E+02  0.00000000000E+00 0.  1.
         11    1    3    3    0    0 -0.20096443466E+02  0.20127541609E+01  0.30216605804E+01  0.20421769077E+02  0.51100000000E-03 0. -1.
        -11    1    3    3    0    0 -0.70902933973E+01 -0.12295598049E+01 -0.38239461806E+01  0.81490270847E+01  0.51100000000E-03 0.  1.
        -12    1    3    3    0    0  0.11187191348E+02 -0.26082598159E+02  0.11787576965E+02  0.30731126691E+02  0.00000000000E+00 0.  1.
</event>
<event>
 7    1  0.1221195E-011  0.5930197E+02  0.7816164E-02  0.1266605E+00
        -11   -1    0    0    0    0  0.00000000000E+00  0.00000000000E+00  0.45593999997E+02  0.45594000000E+02  0.51100000000E-03 0.  1.
         11   -1    0    0    0    0 -0.00000000000E+00 -0.00000000000E+00 -0.45593999997E+02  0.45594000000E+02  0.51100000000E-03 0. -1.
    9900012    2    1    2    0    0 -0.86207692925E+01  0.16589893572E+02 -0.25829767645E+02  0.59301966560E+02  0.50000041094E+02 0.  0.
        -12    1    1    2    0    0  0.86207692925E+01 -0.16589893572E+02  0.25829767645E+02  0.31886033440E+02  0.00000000000E+00 0.  1.
         11    1    3    3    0    0  0.41467421490E+01  0.90123142460E+01 -0.10580366087E+02  0.14503841743E+02  0.51100000000E-03 0. -1.
        -11    1    3    3    0    0 -0.21243601625E+02  0.15035065777E+02 -0.25291132042E+00  0.26027058560E+02  0.51100000000E-03 0.  1.
         12    1    3    3    0    0  0.84760901831E+01 -0.74574864511E+01 -0.14996490238E+02  0.18771066257E+02  0.00000000000E+00 0. -1.
</event>
<event>
 7    1  0.1221195E-011  0.5930194E+02  0.7816164E-02  0.1266605E+00
        -11   -1    0    0    0    0  0.00000000000E+00  0.00000000000E+00  0.45593999997E+02  0.45594000000E+02  0.51100000000E-03 0.  1.
         11   -1    0    0    0    0 -0.00000000000E+00 -0.00000000000E+00 -0.45593999997E+02  0.45594000000E+02  0.51100000000E-03 0. -1.
    9900012    2    1    2    0    0 -0.13101788645E+02 -0.28602991687E+02 -0.51896992887E+01  0.59301937561E+02  0.49999988206E+02 0.  0.
        -12    1    1    2    0    0  0.13101788645E+02  0.28602991687E+02  0.51896992887E+01  0.31886062439E+02  0.00000000000E+00 0.  1.
         11    1    3    3    0    0  0.75623169471E+01  0.35887231549E+01  0.46286225180E+01  0.95651303267E+01  0.51100000000E-03 0. -1.
        -11    1    3    3    0    0 -0.24875219646E+01  0.51994613753E+01 -0.54505963417E+01  0.79329165418E+01  0.51100000000E-03 0.  1.
         12    1    3    3    0    0 -0.18176583627E+02 -0.37391176218E+02 -0.43677254650E+01  0.41803890693E+02  0.00000000000E+00 0. -1.
</event>
<event>
 7    1  0.1221195E-011  0.5930200E+02  0.7816164E-02  0.1266605E+00
        -11   -1    0    0    0    0  0.00000000000E+00  0.00000000000E+00  0.45593999997E+02  0.45594000000E+02  0.51100000000E-03 0. -1.
         11   -1    0    0    0    0 -0.00000000000E+00 -0.00000000000E+00 -0.45593999997E+02  0.45594000000E+02  0.51100000000E-03 0.  1.
    9900012    2    1    2    0    0 -0.16585406117E+02 -0.27232296818E+02 -0.20753507184E+00  0.59302003750E+02  0.50000108919E+02 0.  0.
        -12    1    1    2    0    0  0.16585406117E+02  0.27232296818E+02  0.20753507184E+00  0.31885996250E+02  0.00000000000E+00 0.  1.
         11    1    3    3    0    0 -0.37143822145E+01  0.38841995639E+00  0.14544657043E+02  0.15016476087E+02  0.51100000000E-03 0. -1.
        -11    1    3    3    0    0 -0.16551165578E+02 -0.47956982670E+01 -0.73335091201E+00  0.17247539178E+02  0.51100000000E-03 0.  1.
        -12    1    3    3    0    0  0.36801416761E+01 -0.22825018508E+02 -0.14018841203E+02  0.27037988485E+02  0.00000000000E+00 0.  1.
</event>
<event>
 7    1  0.1221195E-011  0.5930196E+02  0.7816164E-02  0.1266605E+00
        -11   -1    0    0    0    0  0.00000000000E+00  0.00000000000E+00  0.45593999997E+02  0.45594000000E+02  0.51100000000E-03 0.  1.
         11   -1    0    0    0    0 -0.00000000000E+00 -0.00000000000E+00 -0.45593999997E+02  0.45594000000E+02  0.51100000000E-03 0. -1.
    9900012    2    1    2    0    0 -0.27248433075E+02  0.83226052358E+01 -0.14317002048E+02  0.59301962137E+02  0.50000033027E+02 0.  0.
        -12    1    1    2    0    0  0.27248433075E+02 -0.83226052358E+01  0.14317002048E+02  0.31886037863E+02  0.00000000000E+00 0.  1.
         11    1    3    3    0    0 -0.20394352718E+01  0.10979708735E+02 -0.24271167176E+02  0.26717089222E+02  0.51100000000E-03 0. -1.
        -11    1    3    3    0    0 -0.47919383711E+01  0.69526144000E+01  0.22235629052E+01  0.87318813897E+01  0.51100000000E-03 0.  1.
         12    1    3    3    0    0 -0.20417059432E+02 -0.96097178994E+01  0.77306022234E+01  0.23852991525E+02  0.00000000000E+00 0. -1.
</event>
<event>
 7    1  0.1221195E-011  0.5930196E+02  0.7816164E-02  0.1266605E+00
        -11   -1    0    0    0    0  0.00000000000E+00  0.00000000000E+00  0.45593999997E+02  0.45594000000E+02  0.51100000000E-03 0.  1.
         11   -1    0    0    0    0 -0.00000000000E+00 -0.00000000000E+00 -0.45593999997E+02  0.45594000000E+02  0.51100000000E-03 0. -1.
    9900012    2    1    2    0    0 -0.27947404278E+02  0.15188788647E+02 -0.22277512122E+01  0.59301959451E+02  0.50000028128E+02 0.  0.
        -12    1    1    2    0    0  0.27947404278E+02 -0.15188788647E+02  0.22277512122E+01  0.31886040549E+02  0.00000000000E+00 0.  1.
         11    1    3    3    0    0 -0.16574403779E+02  0.21132146198E+01 -0.89101988757E+01  0.18935896623E+02  0.51100000000E-03 0. -1.
        -11    1    3    3    0    0 -0.18814955794E+02 -0.39741242038E+01  0.96701403833E+01  0.21524586872E+02  0.51100000000E-03 0.  1.
         12    1    3    3    0    0  0.74419552950E+01  0.17049698231E+02 -0.29876927198E+01  0.18841475955E+02  0.00000000000E+00 0. -1.
</event>
<event>
 7    1  0.1221195E-011  0.5930192E+02  0.7816164E-02  0.1266605E+00
        -11   -1    0    0    0    0  0.00000000000E+00  0.00000000000E+00  0.45593999997E+02  0.45594000000E+02  0.51100000000E-03 0.  1.
         11   -1    0    0    0    0 -0.00000000000E+00 -0.00000000000E+00 -0.45593999997E+02  0.45594000000E+02  0.51100000000E-03 0. -1.
    9900012    2    1    2    0    0  0.19854564687E+02 -0.17334826188E+02 -0.17944976013E+02  0.59301919934E+02  0.49999956058E+02 0.  0.
        -12    1    1    2    0    0 -0.19854564687E+02  0.17334826188E+02  0.17944976013E+02  0.31886080066E+02  0.00000000000E+00 0.  1.
         11    1    3    3    0    0  0.10192892247E+01  0.89931577362E+01 -0.40939220212E+01  0.99335811452E+01  0.51100000000E-03 0. -1.
        -11    1    3    3    0    0 -0.94226907378E+01 -0.11637778666E+01 -0.37201795088E+01  0.10197118000E+02  0.51100000000E-03 0.  1.
         12    1    3    3    0    0  0.28257966200E+02 -0.25164206058E+02 -0.10130874483E+02  0.39171220789E+02  0.00000000000E+00 0. -1.
</event>
<event>
 7    1  0.1221195E-011  0.5930195E+02  0.7816164E-02  0.1266605E+00
        -11   -1    0    0    0    0  0.00000000000E+00  0.00000000000E+00  0.45593999997E+02  0.45594000000E+02  0.51100000000E-03 0.  1.
         11   -1    0    0    0    0 -0.00000000000E+00 -0.00000000000E+00 -0.45593999997E+02  0.45594000000E+02  0.51100000000E-03 0. -1.
    9900012    2    1    2    0    0  0.21654707818E+02 -0.33215847411E+00 -0.23402641994E+02  0.59301947371E+02  0.50000006098E+02 0.  0.
        -12    1    1    2    0    0 -0.21654707818E+02  0.33215847411E+00  0.23402641994E+02  0.31886052629E+02  0.00000000000E+00 0.  1.
         11    1    3    3    0    0  0.23121562150E+02 -0.15995097321E+02 -0.52338142589E+01  0.28597947243E+02  0.51100000000E-03 0. -1.
        -11    1    3    3    0    0 -0.14203643095E+01 -0.39917129707E+01 -0.48435362476E+00  0.42644819037E+01  0.51100000000E-03 0.  1.
        -12    1    3    3    0    0 -0.46490022138E-01  0.19654651817E+02 -0.17684474111E+02  0.26439518225E+02  0.00000000000E+00 0.  1.
</event>
<event>
 7    1  0.1221195E-011  0.5930192E+02  0.7816164E-02  0.1266605E+00
        -11   -1    0    0    0    0  0.00000000000E+00  0.00000000000E+00  0.45593999997E+02  0.45594000000E+02  0.51100000000E-03 0.  1.
         11   -1    0    0    0    0 -0.00000000000E+00 -0.00000000000E+00 -0.45593999997E+02  0.45594000000E+02  0.51100000000E-03 0. -1.
    9900012    2    1    2    0    0  0.71645673425E+01 -0.18774142969E+02 -0.24757277049E+02  0.59301917827E+02  0.49999952217E+02 0.  0.
        -12    1    1    2    0    0 -0.71645673425E+01  0.18774142969E+02  0.24757277049E+02  0.31886082173E+02  0.00000000000E+00 0.  1.
         11    1    3    3    0    0 -0.97857112109E+01 -0.13990227632E+02 -0.16283613560E+02  0.23593276244E+02  0.51100000000E-03 0. -1.
        -11    1    3    3    0    0  0.13244184935E+02 -0.17087952163E+02 -0.72392368583E+01  0.22799409955E+02  0.51100000000E-03 0.  1.
        -12    1    3    3    0    0  0.37060936183E+01  0.12304036826E+02 -0.12344266312E+01  0.12909231629E+02  0.00000000000E+00 0.  1.
</event>
<event>
 7    1  0.1221195E-011  0.5930195E+02  0.7816164E-02  0.1266605E+00
        -11   -1    0    0    0    0  0.00000000000E+00  0.00000000000E+00  0.45593999997E+02  0.45594000000E+02  0.51100000000E-03 0.  1.
         11   -1    0    0    0    0 -0.00000000000E+00 -0.00000000000E+00 -0.45593999997E+02  0.45594000000E+02  0.51100000000E-03 0. -1.
    9900012    2    1    2    0    0 -0.31348409522E+02 -0.24598878611E+01 -0.52864293578E+01  0.59301950335E+02  0.50000011504E+02 0.  0.
        -12    1    1    2    0    0  0.31348409522E+02  0.24598878611E+01  0.52864293578E+01  0.31886049665E+02  0.00000000000E+00 0.  1.
         11    1    3    3    0    0 -0.63371376972E+01 -0.14739502468E+01 -0.16066991511E+02  0.17334360674E+02  0.51100000000E-03 0. -1.
        -11    1    3    3    0    0  0.33538949415E+01  0.50214605405E+01  0.11472892603E+02  0.12964989093E+02  0.51100000000E-03 0.  1.
        -12    1    3    3    0    0 -0.28365166766E+02 -0.60073981548E+01 -0.69233044960E+00  0.29002600568E+02  0.00000000000E+00 0.  1.
</event>
<event>
 7    1  0.1221195E-011  0.5930190E+02  0.7816164E-02  0.1266605E+00
        -11   -1    0    0    0    0  0.00000000000E+00  0.00000000000E+00  0.45593999997E+02  0.45594000000E+02  0.51100000000E-03 0. -1.
         11   -1    0    0    0    0 -0.00000000000E+00 -0.00000000000E+00 -0.45593999997E+02  0.45594000000E+02  0.51100000000E-03 0.  1.
    9900012    2    1    2    0    0 -0.19559761703E+01  0.30732416392E+02 -0.82713886924E+01  0.59301903798E+02  0.49999926631E+02 0.  0.
        -12    1    1    2    0    0  0.19559761703E+01 -0.30732416392E+02  0.82713886924E+01  0.31886096202E+02  0.00000000000E+00 0.  1.
         11    1    3    3    0    0  0.11138867254E+02  0.40230245129E+02 -0.38277906257E+01  0.41918957146E+02  0.51100000000E-03 0. -1.
        -11    1    3    3    0    0 -0.22295672452E+01 -0.35288696663E+01  0.11152150620E+00  0.41756830017E+01  0.51100000000E-03 0.  1.
        -12    1    3    3    0    0 -0.10865276179E+02 -0.59689590705E+01 -0.45551195729E+01  0.13207263651E+02  0.00000000000E+00 0.  1.
</event>
<event>
 7    1  0.1221195E-011  0.5930195E+02  0.7816164E-02  0.1266605E+00
        -11   -1    0    0    0    0  0.00000000000E+00  0.00000000000E+00  0.45593999997E+02  0.45594000000E+02  0.51100000000E-03 0.  1.
         11   -1    0    0    0    0 -0.00000000000E+00 -0.00000000000E+00 -0.45593999997E+02  0.45594000000E+02  0.51100000000E-03 0. -1.
    9900012    2    1    2    0    0  0.22564571724E+02  0.33474618992E+01 -0.22279027845E+02  0.59301945369E+02  0.50000002446E+02 0.  0.
        -12    1    1    2    0    0 -0.22564571724E+02 -0.33474618992E+01  0.22279027845E+02  0.31886054631E+02  0.00000000000E+00 0.  1.
         11    1    3    3    0    0  0.11927784726E+02 -0.19822942587E+01 -0.24263044096E+02  0.27108980949E+02  0.51100000000E-03 0. -1.
        -11    1    3    3    0    0  0.14962500181E+02  0.41378294675E+01 -0.10623322309E+02  0.18810981408E+02  0.51100000000E-03 0.  1.
        -12    1    3    3    0    0 -0.43257131839E+01  0.11919266905E+01  0.12607338560E+02  0.13381983013E+02  0.00000000000E+00 0.  1.
</event>
<event>
 7    1  0.1221195E-011  0.5930195E+02  0.7816164E-02  0.1266605E+00
        -11   -1    0    0    0    0  0.00000000000E+00  0.00000000000E+00  0.45593999997E+02  0.45594000000E+02  0.51100000000E-03 0.  1.
         11   -1    0    0    0    0 -0.00000000000E+00 -0.00000000000E+00 -0.45593999997E+02  0.45594000000E+02  0.51100000000E-03 0. -1.
    9900012    2    1    2    0    0 -0.89415404157E+01  0.29651835084E+02 -0.75853751118E+01  0.59301946866E+02  0.50000005176E+02 0.  0.
        -12    1    1    2    0    0  0.89415404157E+01 -0.29651835084E+02  0.75853751118E+01  0.31886053134E+02  0.00000000000E+00 0.  1.
         11    1    3    3    0    0 -0.12856720179E+02 -0.13792093065E+01 -0.28393953198E+01  0.13238566316E+02  0.51100000000E-03 0. -1.
        -11    1    3    3    0    0 -0.17640602256E+01 -0.38119788304E+01  0.75838248784E+01  0.86693420241E+01  0.51100000000E-03 0.  1.
         12    1    3    3    0    0  0.56792399886E+01  0.34843023221E+02 -0.12329804670E+02  0.37394038526E+02  0.00000000000E+00 0. -1.
</event>
<event>
 7    1  0.1221195E-011  0.5930197E+02  0.7816164E-02  0.1266605E+00
        -11   -1    0    0    0    0  0.00000000000E+00  0.00000000000E+00  0.45593999997E+02  0.45594000000E+02  0.51100000000E-03 0. -1.
         11   -1    0    0    0    0 -0.00000000000E+00 -0.00000000000E+00 -0.45593999997E+02  0.45594000000E+02  0.51100000000E-03 0.  1.
    9900012    2    1    2    0    0 -0.10528306035E+02  0.12082943556E+02  0.27565853337E+02  0.59301968213E+02  0.50000044108E+02 0.  0.
        -12    1    1    2    0    0  0.10528306035E+02 -0.12082943556E+02 -0.27565853337E+02  0.31886031787E+02  0.00000000000E+00 0.  1.
         11    1    3    3    0    0 -0.17928402045E+01  0.12118925780E+02  0.18869075042E+02  0.22497213856E+02  0.51100000000E-03 0. -1.
        -11    1    3    3    0    0 -0.11358114121E+02  0.31576702792E+01  0.20858863721E+02  0.23959754464E+02  0.51100000000E-03 0.  1.
        -12    1    3    3    0    0  0.26226482897E+01 -0.31936525033E+01 -0.12162085426E+02  0.12844999894E+02  0.00000000000E+00 0.  1.
</event>
<event>
 7    1  0.1221195E-011  0.5930195E+02  0.7816164E-02  0.1266605E+00
        -11   -1    0    0    0    0  0.00000000000E+00  0.00000000000E+00  0.45593999997E+02  0.45594000000E+02  0.51100000000E-03 0.  1.
         11   -1    0    0    0    0 -0.00000000000E+00 -0.00000000000E+00 -0.45593999997E+02  0.45594000000E+02  0.51100000000E-03 0. -1.
    9900012    2    1    2    0    0  0.92599388733E+00 -0.24523736284E+02 -0.20358023848E+02  0.59301949115E+02  0.50000009278E+02 0.  0.
        -12    1    1    2    0    0 -0.92599388733E+00  0.24523736284E+02  0.20358023848E+02  0.31886050885E+02  0.00000000000E+00 0.  1.
         11    1    3    3    0    0 -0.66643422708E+01 -0.16757231899E+02  0.54730670998E+00  0.18042112507E+02  0.51100000000E-03 0. -1.
        -11    1    3    3    0    0 -0.73273295077E+01 -0.10788758546E+02  0.25597293643E+01  0.13290571221E+02  0.51100000000E-03 0.  1.
         12    1    3    3    0    0  0.14917665666E+02  0.30222541616E+01 -0.23465059923E+02  0.27969265387E+02  0.00000000000E+00 0. -1.
</event>
<event>
 7    1  0.1221195E-011  0.5930193E+02  0.7816164E-02  0.1266605E+00
        -11   -1    0    0    0    0  0.00000000000E+00  0.00000000000E+00  0.45593999997E+02  0.45594000000E+02  0.51100000000E-03 0.  1.
         11   -1    0    0    0    0 -0.00000000000E+00 -0.00000000000E+00 -0.45593999997E+02  0.45594000000E+02  0.51100000000E-03 0. -1.
    9900012    2    1    2    0    0  0.24129245436E+02 -0.20768834873E+02  0.17766153167E+01  0.59301931737E+02  0.49999977585E+02 0.  0.
        -12    1    1    2    0    0 -0.24129245436E+02  0.20768834873E+02 -0.17766153167E+01  0.31886068263E+02  0.00000000000E+00 0.  1.
         11    1    3    3    0    0  0.34499501736E+01 -0.15201915383E+01  0.17852562693E+02  0.18246290951E+02  0.51100000000E-03 0. -1.
        -11    1    3    3    0    0 -0.55798188882E+01 -0.36731968983E+01 -0.57850051737E+01  0.88370266153E+01  0.51100000000E-03 0.  1.
         12    1    3    3    0    0  0.26259114150E+02 -0.15575446436E+02 -0.10290942203E+02  0.32218614170E+02  0.00000000000E+00 0. -1.
</event>
<event>
 7    1  0.1221195E-011  0.5930194E+02  0.7816164E-02  0.1266605E+00
        -11   -1    0    0    0    0  0.00000000000E+00  0.00000000000E+00  0.45593999997E+02  0.45594000000E+02  0.51100000000E-03 0.  1.
         11   -1    0    0    0    0 -0.00000000000E+00 -0.00000000000E+00 -0.45593999997E+02  0.45594000000E+02  0.51100000000E-03 0. -1.
    9900012    2    1    2    0    0 -0.23021918123E+02 -0.91216727150E+01 -0.20087484615E+02  0.59301942461E+02  0.49999997144E+02 0.  0.
        -12    1    1    2    0    0  0.23021918123E+02  0.91216727150E+01  0.20087484615E+02  0.31886057539E+02  0.00000000000E+00 0.  1.
         11    1    3    3    0    0 -0.51318980651E+01  0.12622642208E+02 -0.32605710342E+01  0.14010667286E+02  0.51100000000E-03 0. -1.
        -11    1    3    3    0    0 -0.77313639145E+01  0.40885892908E+01 -0.15136203641E+02  0.17481281741E+02  0.51100000000E-03 0.  1.
        -12    1    3    3    0    0 -0.10158656144E+02 -0.25832904214E+02 -0.16907099393E+01  0.27809993435E+02  0.00000000000E+00 0.  1.
</event>
<event>
 7    1  0.1221195E-011  0.5930197E+02  0.7816164E-02  0.1266605E+00
        -11   -1    0    0    0    0  0.00000000000E+00  0.00000000000E+00  0.45593999997E+02  0.45594000000E+02  0.51100000000E-03 0.  1.
         11   -1    0    0    0    0 -0.00000000000E+00 -0.00000000000E+00 -0.45593999997E+02  0.45594000000E+02  0.51100000000E-03 0. -1.
    9900012    2    1    2    0    0 -0.21493415755E+02  0.22524143815E+02 -0.68858600542E+01  0.59301967884E+02  0.50000043509E+02 0.  0.
        -12    1    1    2    0    0  0.21493415755E+02 -0.22524143815E+02  0.68858600542E+01  0.31886032116E+02  0.00000000000E+00 0.  1.
         11    1    3    3    0    0 -0.22264066602E+02  0.60048878911E+01  0.36307409515E+01  0.23343727645E+02  0.51100000000E-03 0. -1.
        -11    1    3    3    0    0 -0.31451273577E+01  0.23079641288E+02 -0.41998603406E+00  0.23296739184E+02  0.51100000000E-03 0.  1.
         12    1    3    3    0    0  0.39157782056E+01 -0.65603853642E+01 -0.10096614972E+02  0.12661501055E+02  0.00000000000E+00 0. -1.
</event>
<event>
 7    1  0.1221195E-011  0.5930193E+02  0.7816164E-02  0.1266605E+00
        -11   -1    0    0    0    0  0.00000000000E+00  0.00000000000E+00  0.45593999997E+02  0.45594000000E+02  0.51100000000E-03 0.  1.
         11   -1    0    0    0    0 -0.00000000000E+00 -0.00000000000E+00 -0.45593999997E+02  0.45594000000E+02  0.51100000000E-03 0. -1.
    9900012    2    1    2    0    0 -0.43395125580E+01 -0.25270075176E+02  0.18955556952E+02  0.59301933953E+02  0.49999981626E+02 0.  0.
        -12    1    1    2    0    0  0.43395125580E+01  0.25270075176E+02 -0.18955556952E+02  0.31886066047E+02  0.00000000000E+00 0.  1.
         11    1    3    3    0    0 -0.91035074509E+01 -0.13051117953E+02 -0.47346470906E+01  0.16601879745E+02  0.51100000000E-03 0. -1.
        -11    1    3    3    0    0  0.49336316757E+01  0.25396484238E+01 -0.68290126450E+01  0.87992016453E+01  0.51100000000E-03 0.  1.
        -12    1    3    3    0    0 -0.16963678282E+00 -0.14758605647E+02  0.30519216687E+02  0.33900852563E+02  0.00000000000E+00 0.  1.
</event>
<event>
 7    1  0.1221195E-011  0.5930195E+02  0.7816164E-02  0.1266605E+00
        -11   -1    0    0    0    0  0.00000000000E+00  0.00000000000E+00  0.45593999997E+02  0.45594000000E+02  0.51100000000E-03 0. -1.
         11   -1    0    0    0    0 -0.00000000000E+00 -0.00000000000E+00 -0.45593999997E+02  0.45594000000E+02  0.51100000000E-03 0.  1.
    9900012    2    1    2    0    0 -0.18256627228E+02  0.20158856740E+02  0.16644408747E+02  0.59301948420E+02  0.50000008011E+02 0.  0.
        -12    1    1    2    0    0  0.18256627228E+02 -0.20158856740E+02 -0.16644408747E+02  0.31886051580E+02  0.00000000000E+00 0.  1.
         11    1    3    3    0    0 -0.15757018481E+02  0.88306259689E+01 -0.52706221255E+01  0.18816031576E+02  0.51100000000E-03 0. -1.
        -11    1    3    3    0    0  0.81496832178E-01  0.21792568386E+02  0.19919611099E+02  0.29524796107E+02  0.51100000000E-03 0.  1.
        -12    1    3    3    0    0 -0.25811055791E+01 -0.10464337615E+02  0.19954197741E+01  0.10961120737E+02  0.00000000000E+00 0.  1.
</event>
<event>
 7    1  0.1221195E-011  0.5930202E+02  0.7816164E-02  0.1266605E+00
        -11   -1    0    0    0    0  0.00000000000E+00  0.00000000000E+00  0.45593999997E+02  0.45594000000E+02  0.51100000000E-03 0.  1.
         11   -1    0    0    0    0 -0.00000000000E+00 -0.00000000000E+00 -0.45593999997E+02  0.45594000000E+02  0.51100000000E-03 0. -1.
    9900012    2    1    2    0    0  0.55779179664E+01  0.11798871102E+02 -0.29092771198E+02  0.59302017749E+02  0.50000134449E+02 0.  0.
        -12    1    1    2    0    0 -0.55779179664E+01 -0.11798871102E+02  0.29092771198E+02  0.31885982251E+02  0.00000000000E+00 0.  1.
         11    1    3    3    0    0 -0.13632846320E+02 -0.18150737441E+01 -0.21485233431E+02  0.25510081289E+02  0.51100000000E-03 0. -1.
        -11    1    3    3    0    0 -0.29038475736E+01  0.46894698386E+01  0.44337796863E+01  0.70768538678E+01  0.51100000000E-03 0.  1.
         12    1    3    3    0    0  0.22114611860E+02  0.89244750078E+01 -0.12041317453E+02  0.26715082592E+02  0.00000000000E+00 0. -1.
</event>
<event>
 7    1  0.1221195E-011  0.5930193E+02  0.7816164E-02  0.1266605E+00
        -11   -1    0    0    0    0  0.00000000000E+00  0.00000000000E+00  0.45593999997E+02  0.45594000000E+02  0.51100000000E-03 0. -1.
         11   -1    0    0    0    0 -0.00000000000E+00 -0.00000000000E+00 -0.45593999997E+02  0.45594000000E+02  0.51100000000E-03 0.  1.
    9900012    2    1    2    0    0 -0.11230712606E+02  0.71388498610E+01  0.28976358214E+02  0.59301930655E+02  0.49999975611E+02 0.  0.
        -12    1    1    2    0    0  0.11230712606E+02 -0.71388498610E+01 -0.28976358214E+02  0.31886069345E+02  0.00000000000E+00 0.  1.
         11    1    3    3    0    0 -0.12142530272E+02  0.14549446486E+02  0.20403549880E+02  0.27846584753E+02  0.51100000000E-03 0. -1.
        -11    1    3    3    0    0 -0.29315367640E+01  0.11028246846E+02  0.37647392799E+01  0.12016213980E+02  0.51100000000E-03 0.  1.
         12    1    3    3    0    0  0.38433544308E+01 -0.18438843471E+02  0.48080690539E+01  0.19439131922E+02  0.00000000000E+00 0. -1.
</event>
<event>
 7    1  0.1221195E-011  0.5930203E+02  0.7816164E-02  0.1266604E+00
        -11   -1    0    0    0    0  0.00000000000E+00  0.00000000000E+00  0.45593999997E+02  0.45594000000E+02  0.51100000000E-03 0.  1.
         11   -1    0    0    0    0 -0.00000000000E+00 -0.00000000000E+00 -0.45593999997E+02  0.45594000000E+02  0.51100000000E-03 0. -1.
    9900012    2    1    2    0    0 -0.23620339181E+02 -0.13165462279E+01 -0.21378996032E+02  0.59302028346E+02  0.50000153776E+02 0.  0.
        -12    1    1    2    0    0  0.23620339181E+02  0.13165462279E+01  0.21378996032E+02  0.31885971654E+02  0.00000000000E+00 0.  1.
         11    1    3    3    0    0 -0.89004473880E+01  0.11118862634E+02  0.40881037401E+01  0.14817545762E+02  0.51100000000E-03 0.  1.
        -11    1    3    3    0    0 -0.74396502219E+01 -0.69004047985E+01  0.59502894548E+01  0.11763074711E+02  0.51100000000E-03 0. -1.
         12    1    3    3    0    0 -0.72802415706E+01 -0.55350040630E+01 -0.31417389227E+02  0.32721407872E+02  0.00000000000E+00 0. -1.
</event>
<event>
 7    1  0.1221195E-011  0.5930195E+02  0.7816164E-02  0.1266605E+00
        -11   -1    0    0    0    0  0.00000000000E+00  0.00000000000E+00  0.45593999997E+02  0.45594000000E+02  0.51100000000E-03 0. -1.
         11   -1    0    0    0    0 -0.00000000000E+00 -0.00000000000E+00 -0.45593999997E+02  0.45594000000E+02  0.51100000000E-03 0.  1.
    9900012    2    1    2    0    0  0.25523267335E+02 -0.11330409025E+02  0.15391719598E+02  0.59301946993E+02  0.50000005408E+02 0.  0.
        -12    1    1    2    0    0 -0.25523267335E+02  0.11330409025E+02 -0.15391719598E+02  0.31886053007E+02  0.00000000000E+00 0.  1.
         11    1    3    3    0    0  0.30891104652E+02 -0.12362734040E+02  0.18244073792E+02  0.37946590997E+02  0.51100000000E-03 0. -1.
        -11    1    3    3    0    0  0.33913413035E+01 -0.24221252166E+01 -0.91317680046E+01  0.10037782302E+02  0.51100000000E-03 0.  1.
        -12    1    3    3    0    0 -0.87591786198E+01  0.34544502314E+01  0.62794138109E+01  0.11317573693E+02  0.00000000000E+00 0.  1.
</event>
<event>
 7    1  0.1221195E-011  0.5930194E+02  0.7816164E-02  0.1266605E+00
        -11   -1    0    0    0    0  0.00000000000E+00  0.00000000000E+00  0.45593999997E+02  0.45594000000E+02  0.51100000000E-03 0. -1.
         11   -1    0    0    0    0 -0.00000000000E+00 -0.00000000000E+00 -0.45593999997E+02  0.45594000000E+02  0.51100000000E-03 0.  1.
    9900012    2    1    2    0    0  0.23130748433E+02 -0.15005653323E+01  0.21896064911E+02  0.59301939127E+02  0.49999991062E+02 0.  0.
        -12    1    1    2    0    0 -0.23130748433E+02  0.15005653323E+01 -0.21896064911E+02  0.31886060873E+02  0.00000000000E+00 0.  1.
         11    1    3    3    0    0  0.11858893188E+02  0.46070150036E+01 -0.23898312342E+01  0.12944853359E+02  0.51100000000E-03 0. -1.
        -11    1    3    3    0    0  0.23776206223E+02 -0.99970571352E+01  0.12181107100E+02  0.28524174031E+02  0.51100000000E-03 0.  1.
        -12    1    3    3    0    0 -0.12504350979E+02  0.38894767993E+01  0.12104789045E+02  0.17832911737E+02  0.00000000000E+00 0.  1.
</event>
<event>
 7    1  0.1221195E-011  0.5930193E+02  0.7816164E-02  0.1266605E+00
        -11   -1    0    0    0    0  0.00000000000E+00  0.00000000000E+00  0.45593999997E+02  0.45594000000E+02  0.51100000000E-03 0.  1.
         11   -1    0    0    0    0 -0.00000000000E+00 -0.00000000000E+00 -0.45593999997E+02  0.45594000000E+02  0.51100000000E-03 0. -1.
    9900012    2    1    2    0    0  0.28832164441E+02 -0.12169823485E+02 -0.61092721193E+01  0.59301929125E+02  0.49999972821E+02 0.  0.
        -12    1    1    2    0    0 -0.28832164441E+02  0.12169823485E+02  0.61092721193E+01  0.31886070875E+02  0.00000000000E+00 0.  1.
         11    1    3    3    0    0  0.35878801948E+01 -0.44199307229E+01  0.63686334730E+01  0.85421405082E+01  0.51100000000E-03 0. -1.
        -11    1    3    3    0    0  0.29039155337E+02 -0.93886629140E+01  0.66122340449E+01  0.31227250492E+02  0.51100000000E-03 0.  1.
         12    1    3    3    0    0 -0.37948710903E+01  0.16387701520E+01 -0.19090139637E+02  0.19532538124E+02  0.00000000000E+00 0. -1.
</event>
<event>
 7    1  0.1221195E-011  0.5930197E+02  0.7816164E-02  0.1266605E+00
        -11   -1    0    0    0    0  0.00000000000E+00  0.00000000000E+00  0.45593999997E+02  0.45594000000E+02  0.51100000000E-03 0. -1.
         11   -1    0    0    0    0 -0.00000000000E+00 -0.00000000000E+00 -0.45593999997E+02  0.45594000000E+02  0.51100000000E-03 0.  1.
    9900012    2    1    2    0    0  0.39275882178E+01  0.12028316633E+02  0.29267940877E+02  0.59301973070E+02  0.50000052965E+02 0.  0.
        -12    1    1    2    0    0 -0.39275882178E+01 -0.12028316633E+02 -0.29267940877E+02  0.31886026930E+02  0.00000000000E+00 0.  1.
         11    1    3    3    0    0 -0.36390300856E+01  0.12873381862E+02 -0.27682785226E+01  0.13661254217E+02  0.51100000000E-03 0. -1.
        -11    1    3    3    0    0  0.12758843176E+02  0.12586948609E+02  0.15329749103E+02  0.23584328744E+02  0.51100000000E-03 0.  1.
         12    1    3    3    0    0 -0.51922248731E+01 -0.13432013838E+02  0.16706470297E+02  0.22056390109E+02  0.00000000000E+00 0. -1.
</event>
<event>
 7    1  0.1221195E-011  0.5930196E+02  0.7816164E-02  0.1266605E+00
        -11   -1    0    0    0    0  0.00000000000E+00  0.00000000000E+00  0.45593999997E+02  0.45594000000E+02  0.51100000000E-03 0.  1.
         11   -1    0    0    0    0 -0.00000000000E+00 -0.00000000000E+00 -0.45593999997E+02  0.45594000000E+02  0.51100000000E-03 0. -1.
    9900012    2    1    2    0    0 -0.15670339493E+02 -0.18505611868E+02 -0.20705133714E+02  0.59301956461E+02  0.50000022676E+02 0.  0.
        -12    1    1    2    0    0  0.15670339493E+02  0.18505611868E+02  0.20705133714E+02  0.31886043539E+02  0.00000000000E+00 0.  1.
         11    1    3    3    0    0  0.31306382215E+00  0.19051291689E+01  0.62757045465E+01  0.65659724279E+01  0.51100000000E-03 0. -1.
        -11    1    3    3    0    0 -0.16123082573E+02 -0.54289717560E+01  0.47351538478E+01  0.17659252764E+02  0.51100000000E-03 0.  1.
         12    1    3    3    0    0  0.13967925752E+00 -0.14981769281E+02 -0.31715992108E+02  0.35076731269E+02  0.00000000000E+00 0. -1.
</event>
<event>
 7    1  0.1221195E-011  0.5930196E+02  0.7816164E-02  0.1266605E+00
        -11   -1    0    0    0    0  0.00000000000E+00  0.00000000000E+00  0.45593999997E+02  0.45594000000E+02  0.51100000000E-03 0.  1.
         11   -1    0    0    0    0 -0.00000000000E+00 -0.00000000000E+00 -0.45593999997E+02  0.45594000000E+02  0.51100000000E-03 0. -1.
    9900012    2    1    2    0    0 -0.27044283948E+01 -0.10076140587E+02 -0.30130999816E+02  0.59301957724E+02  0.50000024980E+02 0.  0.
        -12    1    1    2    0    0  0.27044283948E+01  0.10076140587E+02  0.30130999816E+02  0.31886042276E+02  0.00000000000E+00 0.  1.
         11    1    3    3    0    0 -0.21705748585E+01 -0.13178244798E+02 -0.12807987309E+02  0.18504649966E+02  0.51100000000E-03 0. -1.
        -11    1    3    3    0    0  0.41882582408E+01 -0.24122581008E+01 -0.27707949373E+02  0.28126339167E+02  0.51100000000E-03 0.  1.
        -12    1    3    3    0    0 -0.47221117770E+01  0.55143623115E+01  0.10384936866E+02  0.12670968592E+02  0.00000000000E+00 0.  1.
</event>
<event>
 7    1  0.1221195E-011  0.5930194E+02  0.7816164E-02  0.1266605E+00
        -11   -1    0    0    0    0  0.00000000000E+00  0.00000000000E+00  0.45593999997E+02  0.45594000000E+02  0.51100000000E-03 0. -1.
         11   -1    0    0    0    0 -0.00000000000E+00 -0.00000000000E+00 -0.45593999997E+02  0.45594000000E+02  0.51100000000E-03 0.  1.
    9900012    2    1    2    0    0 -0.30706727688E+02  0.29640902213E+01  0.80642323869E+01  0.59301940348E+02  0.49999993289E+02 0.  0.
        -12    1    1    2    0    0  0.30706727688E+02 -0.29640902213E+01 -0.80642323869E+01  0.31886059652E+02  0.00000000000E+00 0.  1.
         11    1    3    3    0    0 -0.17268802033E+02 -0.14525885905E+02  0.25321670144E+01  0.22707372261E+02  0.51100000000E-03 0. -1.
        -11    1    3    3    0    0 -0.13024729027E+01  0.99757200543E+00 -0.10475990106E+02  0.10603676463E+02  0.51100000000E-03 0.  1.
         12    1    3    3    0    0 -0.12135452753E+02  0.16492404121E+02  0.16008055478E+02  0.25990891624E+02  0.00000000000E+00 0. -1.
</event>
<event>
 7    1  0.1221195E-011  0.5930193E+02  0.7816164E-02  0.1266605E+00
        -11   -1    0    0    0    0  0.00000000000E+00  0.00000000000E+00  0.45593999997E+02  0.45594000000E+02  0.51100000000E-03 0.  1.
         11   -1    0    0    0    0 -0.00000000000E+00 -0.00000000000E+00 -0.45593999997E+02  0.45594000000E+02  0.51100000000E-03 0. -1.
    9900012    2    1    2    0    0 -0.40926083348E+00 -0.31777391367E+02 -0.25982813769E+01  0.59301934664E+02  0.49999982923E+02 0.  0.
        -12    1    1    2    0    0  0.40926083348E+00  0.31777391367E+02  0.25982813769E+01  0.31886065336E+02  0.00000000000E+00 0.  1.
         11    1    3    3    0    0 -0.24464793687E+01 -0.14973279202E+02 -0.36355071372E+01  0.15601322501E+02  0.51100000000E-03 0. -1.
        -11    1    3    3    0    0 -0.31602622228E+01 -0.27764168375E+02  0.88035303711E+01  0.29297413710E+02  0.51100000000E-03 0.  1.
         12    1    3    3    0    0  0.51974807580E+01  0.10960056210E+02 -0.77663046108E+01  0.14403198453E+02  0.00000000000E+00 0. -1.
</event>
<event>
 7    1  0.1332424E-011  0.5930195E+02  0.7816164E-02  0.1266605E+00
        -11   -1    0    0    0    0  0.00000000000E+00  0.00000000000E+00  0.45593999997E+02  0.45594000000E+02  0.51100000000E-03 0. -1.
         11   -1    0    0    0    0 -0.00000000000E+00 -0.00000000000E+00 -0.45593999997E+02  0.45594000000E+02  0.51100000000E-03 0.  1.
    9900012    2    1    2    0    0  0.27862308418E+01  0.26801674673E+02  0.17047791948E+02  0.59301951987E+02  0.50000014516E+02 0.  0.
        -12    1    1    2    0    0 -0.27862308418E+01 -0.26801674673E+02 -0.17047791948E+02  0.31886048013E+02  0.00000000000E+00 0.  1.
         11    1    3    3    0    0  0.86906878326E+01  0.14186833832E+02  0.22317490883E+02  0.27836391806E+02  0.51100000000E-03 0. -1.
        -11    1    3    3    0    0 -0.35221545599E+01 -0.75890516838E+01  0.38029881035E+01  0.91903208311E+01  0.51100000000E-03 0.  1.
        -12    1    3    3    0    0 -0.23823024308E+01  0.20203892525E+02 -0.90726870383E+01  0.22275239350E+02  0.00000000000E+00 0.  1.
</event>
<event>
 7    1  0.1221195E-011  0.5930194E+02  0.7816164E-02  0.1266605E+00
        -11   -1    0    0    0    0  0.00000000000E+00  0.00000000000E+00  0.45593999997E+02  0.45594000000E+02  0.51100000000E-03 0. -1.
         11   -1    0    0    0    0 -0.00000000000E+00 -0.00000000000E+00 -0.45593999997E+02  0.45594000000E+02  0.51100000000E-03 0.  1.
    9900012    2    1    2    0    0 -0.79080292948E+01 -0.26894625394E+02  0.15194187465E+02  0.59301935095E+02  0.49999983709E+02 0.  0.
        -12    1    1    2    0    0  0.79080292948E+01  0.26894625394E+02 -0.15194187465E+02  0.31886064905E+02  0.00000000000E+00 0.  1.
         11    1    3    3    0    0  0.26424117870E+01 -0.33917126284E+02  0.14709850188E+01  0.34051690011E+02  0.51100000000E-03 0. -1.
        -11    1    3    3    0    0  0.93640248267E+00 -0.38750364216E+00 -0.32803706397E+01  0.34333424643E+01  0.51100000000E-03 0.  1.
         12    1    3    3    0    0 -0.11486843564E+02  0.74100045326E+01  0.17003573086E+02  0.21816902620E+02  0.00000000000E+00 0. -1.
</event>
<event>
 7    1  0.1221195E-011  0.5930195E+02  0.7816164E-02  0.1266605E+00
        -11   -1    0    0    0    0  0.00000000000E+00  0.00000000000E+00  0.45593999997E+02  0.45594000000E+02  0.51100000000E-03 0. -1.
         11   -1    0    0    0    0 -0.00000000000E+00 -0.00000000000E+00 -0.45593999997E+02  0.45594000000E+02  0.51100000000E-03 0.  1.
    9900012    2    1    2    0    0 -0.31396682403E+02 -0.35578542143E+01  0.42790529110E+01  0.59301948404E+02  0.50000007982E+02 0.  0.
        -12    1    1    2    0    0  0.31396682403E+02  0.35578542143E+01 -0.42790529110E+01  0.31886051596E+02  0.00000000000E+00 0.  1.
         11    1    3    3    0    0 -0.13066439192E+02 -0.28725783202E+01  0.16067150172E+02  0.20907818018E+02  0.51100000000E-03 0. -1.
        -11    1    3    3    0    0 -0.11607551223E+02  0.67072623796E+01  0.84337435318E+01  0.15838265191E+02  0.51100000000E-03 0.  1.
        -12    1    3    3    0    0 -0.67226919882E+01 -0.73925382737E+01 -0.20221840793E+02  0.22555865196E+02  0.00000000000E+00 0.  1.
</event>
<event>
 7    1  0.1221195E-011  0.5930194E+02  0.7816164E-02  0.1266605E+00
        -11   -1    0    0    0    0  0.00000000000E+00  0.00000000000E+00  0.45593999997E+02  0.45594000000E+02  0.51100000000E-03 0.  1.
         11   -1    0    0    0    0 -0.00000000000E+00 -0.00000000000E+00 -0.45593999997E+02  0.45594000000E+02  0.51100000000E-03 0. -1.
    9900012    2    1    2    0    0 -0.15262110807E+01 -0.31008914718E+02 -0.72690267221E+01  0.59301939382E+02  0.49999991528E+02 0.  0.
        -12    1    1    2    0    0  0.15262110807E+01  0.31008914718E+02  0.72690267221E+01  0.31886060618E+02  0.00000000000E+00 0.  1.
         11    1    3    3    0    0 -0.74843439744E+01  0.52903042133E+01  0.80436990306E+01  0.12194417483E+02  0.51100000000E-03 0. -1.
        -11    1    3    3    0    0  0.11817031744E+02 -0.14187744970E+02  0.17831866405E+01  0.18550312705E+02  0.51100000000E-03 0.  1.
         12    1    3    3    0    0 -0.58588988501E+01 -0.22111473960E+02 -0.17095912393E+02  0.28557209195E+02  0.00000000000E+00 0. -1.
</event>
<event>
 7    1  0.1221195E-011  0.5930196E+02  0.7816164E-02  0.1266605E+00
        -11   -1    0    0    0    0  0.00000000000E+00  0.00000000000E+00  0.45593999997E+02  0.45594000000E+02  0.51100000000E-03 0.  1.
         11   -1    0    0    0    0 -0.00000000000E+00 -0.00000000000E+00 -0.45593999997E+02  0.45594000000E+02  0.51100000000E-03 0. -1.
    9900012    2    1    2    0    0  0.88320517792E+01  0.88214570579E+01 -0.29341035338E+02  0.59301959199E+02  0.50000027668E+02 0.  0.
        -12    1    1    2    0    0 -0.88320517792E+01 -0.88214570579E+01  0.29341035338E+02  0.31886040801E+02  0.00000000000E+00 0.  1.
         11    1    3    3    0    0 -0.71988461189E+01  0.14927685602E+01 -0.22598098282E+02  0.23763959890E+02  0.51100000000E-03 0. -1.
        -11    1    3    3    0    0 -0.36174561182E+01 -0.71462104485E+01 -0.77056960294E+01  0.11114497924E+02  0.51100000000E-03 0.  1.
        -12    1    3    3    0    0  0.19648354016E+02  0.14474898946E+02  0.96275897357E+00  0.24423501385E+02  0.00000000000E+00 0.  1.
</event>
<event>
 7    1  0.1221195E-011  0.5930188E+02  0.7816164E-02  0.1266605E+00
        -11   -1    0    0    0    0  0.00000000000E+00  0.00000000000E+00  0.45593999997E+02  0.45594000000E+02  0.51100000000E-03 0.  1.
         11   -1    0    0    0    0 -0.00000000000E+00 -0.00000000000E+00 -0.45593999997E+02  0.45594000000E+02  0.51100000000E-03 0. -1.
    9900012    2    1    2    0    0 -0.11992632384E+02 -0.82072085901E+01 -0.28382094427E+02  0.59301877808E+02  0.49999879232E+02 0.  0.
        -12    1    1    2    0    0  0.11992632384E+02  0.82072085901E+01  0.28382094427E+02  0.31886122192E+02  0.00000000000E+00 0.  1.
         11    1    3    3    0    0 -0.94687886992E+00  0.75842125507E+01  0.44906096888E+01  0.88646734428E+01  0.51100000000E-03 0. -1.
        -11    1    3    3    0    0  0.62781179654E+01 -0.99332519017E+01  0.11540837862E+01  0.11807462394E+02  0.51100000000E-03 0.  1.
         12    1    3    3    0    0 -0.17323871480E+02 -0.58581692391E+01 -0.34026787902E+02  0.38629741972E+02  0.00000000000E+00 0. -1.
</event>
<event>
 7    1  0.1221195E-011  0.5930196E+02  0.7816164E-02  0.1266605E+00
        -11   -1    0    0    0    0  0.00000000000E+00  0.00000000000E+00  0.45593999997E+02  0.45594000000E+02  0.51100000000E-03 0.  1.
         11   -1    0    0    0    0 -0.00000000000E+00 -0.00000000000E+00 -0.45593999997E+02  0.45594000000E+02  0.51100000000E-03 0. -1.
    9900012    2    1    2    0    0 -0.29713724096E+02  0.14421037669E+01 -0.11477561782E+02  0.59301960933E+02  0.50000030832E+02 0.  0.
        -12    1    1    2    0    0  0.29713724096E+02 -0.14421037669E+01  0.11477561782E+02  0.31886039067E+02  0.00000000000E+00 0.  1.
         11    1    3    3    0    0 -0.18646495239E+02 -0.47835613182E+01  0.11148347934E+02  0.22245446849E+02  0.51100000000E-03 0. -1.
        -11    1    3    3    0    0  0.15874544851E+01 -0.86190565331E+01 -0.26965493088E+01  0.91694888462E+01  0.51100000000E-03 0.  1.
         12    1    3    3    0    0 -0.12654683341E+02  0.14844721618E+02 -0.19929360407E+02  0.27887025238E+02  0.00000000000E+00 0. -1.
</event>
<event>
 7    1  0.1221195E-011  0.5930194E+02  0.7816164E-02  0.1266605E+00
        -11   -1    0    0    0    0  0.00000000000E+00  0.00000000000E+00  0.45593999997E+02  0.45594000000E+02  0.51100000000E-03 0.  1.
         11   -1    0    0    0    0 -0.00000000000E+00 -0.00000000000E+00 -0.45593999997E+02  0.45594000000E+02  0.51100000000E-03 0. -1.
    9900012    2    1    2    0    0 -0.16910141247E+02 -0.11198109866E+02 -0.24604270485E+02  0.59301942425E+02  0.49999997077E+02 0.  0.
        -12    1    1    2    0    0  0.16910141247E+02  0.11198109866E+02  0.24604270485E+02  0.31886057575E+02  0.00000000000E+00 0.  1.
         11    1    3    3    0    0 -0.10628963952E+02  0.29136357013E+01 -0.97019436538E+01  0.14683046640E+02  0.51100000000E-03 0. -1.
        -11    1    3    3    0    0 -0.83073913044E+01  0.23136613298E+01  0.10940731472E+02  0.13930735244E+02  0.51100000000E-03 0.  1.
         12    1    3    3    0    0  0.20262140097E+01 -0.16425406897E+02 -0.25843058303E+02  0.30688160541E+02  0.00000000000E+00 0. -1.
</event>
<event>
 7    1  0.1221195E-011  0.5930194E+02  0.7816164E-02  0.1266605E+00
        -11   -1    0    0    0    0  0.00000000000E+00  0.00000000000E+00  0.45593999997E+02  0.45594000000E+02  0.51100000000E-03 0.  1.
         11   -1    0    0    0    0 -0.00000000000E+00 -0.00000000000E+00 -0.45593999997E+02  0.45594000000E+02  0.51100000000E-03 0. -1.
    9900012    2    1    2    0    0  0.16814634918E+02  0.59989643191E+01 -0.26419711958E+02  0.59301941914E+02  0.49999996145E+02 0.  0.
        -12    1    1    2    0    0 -0.16814634918E+02 -0.59989643191E+01  0.26419711958E+02  0.31886058086E+02  0.00000000000E+00 0.  1.
         11    1    3    3    0    0 -0.15487697198E+01  0.28504890739E+01 -0.11776190004E+02  0.12214852716E+02  0.51100000000E-03 0. -1.
        -11    1    3    3    0    0  0.14002201916E+01  0.10857059134E+02 -0.23895700442E+02  0.26283851496E+02  0.51100000000E-03 0.  1.
        -12    1    3    3    0    0  0.16963184446E+02 -0.77085838889E+01  0.92521784875E+01  0.20803237702E+02  0.00000000000E+00 0.  1.
</event>
<event>
 7    1  0.1221195E-011  0.5930194E+02  0.7816164E-02  0.1266605E+00
        -11   -1    0    0    0    0  0.00000000000E+00  0.00000000000E+00  0.45593999997E+02  0.45594000000E+02  0.51100000000E-03 0. -1.
         11   -1    0    0    0    0 -0.00000000000E+00 -0.00000000000E+00 -0.45593999997E+02  0.45594000000E+02  0.51100000000E-03 0.  1.
    9900012    2    1    2    0    0  0.10242284777E+01 -0.13355127841E+02  0.28936347693E+02  0.59301941895E+02  0.49999996111E+02 0.  0.
        -12    1    1    2    0    0 -0.10242284777E+01  0.13355127841E+02 -0.28936347693E+02  0.31886058105E+02  0.00000000000E+00 0.  1.
         11    1    3    3    0    0 -0.57896889843E+01 -0.12148514529E+02 -0.40819996630E+01  0.14063058889E+02  0.51100000000E-03 0. -1.
        -11    1    3    3    0    0 -0.84110171322E+01  0.10495739756E+01 -0.35894538866E+00  0.84838468151E+01  0.51100000000E-03 0.  1.
         12    1    3    3    0    0  0.15224934594E+02 -0.22561872873E+01  0.33377292745E+02  0.36755036192E+02  0.00000000000E+00 0. -1.
</event>
<event>
 7    1  0.1221195E-011  0.5930195E+02  0.7816164E-02  0.1266605E+00
        -11   -1    0    0    0    0  0.00000000000E+00  0.00000000000E+00  0.45593999997E+02  0.45594000000E+02  0.51100000000E-03 0.  1.
         11   -1    0    0    0    0 -0.00000000000E+00 -0.00000000000E+00 -0.45593999997E+02  0.45594000000E+02  0.51100000000E-03 0. -1.
    9900012    2    1    2    0    0  0.24377786715E+02 -0.69576457981E+01 -0.19339984653E+02  0.59301947774E+02  0.50000006832E+02 0.  0.
        -12    1    1    2    0    0 -0.24377786715E+02  0.69576457981E+01  0.19339984653E+02  0.31886052226E+02  0.00000000000E+00 0.  1.
         11    1    3    3    0    0 -0.69783860909E+01  0.84955638105E+01 -0.69110520859E+01  0.12985958497E+02  0.51100000000E-03 0. -1.
        -11    1    3    3    0    0  0.99727296613E+01  0.66624695560E+01 -0.97133105913E+01  0.15433477910E+02  0.51100000000E-03 0.  1.
        -12    1    3    3    0    0  0.21383443145E+02 -0.22115679165E+02 -0.27156219755E+01  0.30882511367E+02  0.00000000000E+00 0.  1.
</event>
<event>
 7    1  0.1221195E-011  0.5930193E+02  0.7816164E-02  0.1266605E+00
        -11   -1    0    0    0    0  0.00000000000E+00  0.00000000000E+00  0.45593999997E+02  0.45594000000E+02  0.51100000000E-03 0.  1.
         11   -1    0    0    0    0 -0.00000000000E+00 -0.00000000000E+00 -0.45593999997E+02  0.45594000000E+02  0.51100000000E-03 0. -1.
    9900012    2    1    2    0    0  0.21830218654E+02 -0.21013902048E+00 -0.23240452439E+02  0.59301933538E+02  0.49999980869E+02 0.  0.
        -12    1    1    2    0    0 -0.21830218654E+02  0.21013902048E+00  0.23240452439E+02  0.31886066462E+02  0.00000000000E+00 0.  1.
         11    1    3    3    0    0  0.21616221940E+01 -0.79733714860E+01 -0.29997319703E+02  0.31114087693E+02  0.51100000000E-03 0. -1.
        -11    1    3    3    0    0  0.10407273806E+02 -0.48652929014E+01  0.11161907265E+01  0.11542456632E+02  0.51100000000E-03 0.  1.
        -12    1    3    3    0    0  0.92613226534E+01  0.12628525367E+02  0.56406765377E+01  0.16645389213E+02  0.00000000000E+00 0.  1.
</event>
<event>
 7    1  0.1221195E-011  0.5930195E+02  0.7816164E-02  0.1266605E+00
        -11   -1    0    0    0    0  0.00000000000E+00  0.00000000000E+00  0.45593999997E+02  0.45594000000E+02  0.51100000000E-03 0. -1.
         11   -1    0    0    0    0 -0.00000000000E+00 -0.00000000000E+00 -0.45593999997E+02  0.45594000000E+02  0.51100000000E-03 0.  1.
    9900012    2    1    2    0    0 -0.89503014596E+01  0.30404460909E+02 -0.34901291621E+01  0.59301950684E+02  0.50000012140E+02 0.  0.
        -12    1    1    2    0    0  0.89503014596E+01 -0.30404460909E+02  0.34901291621E+01  0.31886049316E+02  0.00000000000E+00 0.  1.
         11    1    3    3    0    0 -0.95872420997E-01 -0.83016794929E+01 -0.98274543794E+01  0.12864910950E+02  0.51100000000E-03 0. -1.
        -11    1    3    3    0    0  0.21801618882E+01  0.11103660286E+02  0.11648575422E+02  0.16239879532E+02  0.51100000000E-03 0.  1.
         12    1    3    3    0    0 -0.11034590927E+02  0.27602480116E+02 -0.53112502043E+01  0.30197160201E+02  0.00000000000E+00 0. -1.
</event>
<event>
 7    1  0.1221195E-011  0.5930192E+02  0.7816164E-02  0.1266605E+00
        -11   -1    0    0    0    0  0.00000000000E+00  0.00000000000E+00  0.45593999997E+02  0.45594000000E+02  0.51100000000E-03 0.  1.
         11   -1    0    0    0    0 -0.00000000000E+00 -0.00000000000E+00 -0.45593999997E+02  0.45594000000E+02  0.51100000000E-03 0. -1.
    9900012    2    1    2    0    0  0.15744902453E+02  0.19035760300E+02  0.20160859789E+02  0.59301915404E+02  0.49999947797E+02 0.  0.
        -12    1    1    2    0    0 -0.15744902453E+02 -0.19035760300E+02 -0.20160859789E+02  0.31886084596E+02  0.00000000000E+00 0.  1.
         11    1    3    3    0    0  0.26994527990E+01 -0.72613977308E+01  0.10559535496E+02  0.13096516047E+02  0.51100000000E-03 0. -1.
        -11    1    3    3    0    0  0.11661922905E+02 -0.58203282385E+01  0.22161960266E+01  0.13220748532E+02  0.51100000000E-03 0.  1.
         12    1    3    3    0    0  0.13835267490E+01  0.32117486269E+02  0.73851282658E+01  0.32984650824E+02  0.00000000000E+00 0. -1.
</event>
<event>
 7    1  0.1221195E-011  0.5930195E+02  0.7816164E-02  0.1266605E+00
        -11   -1    0    0    0    0  0.00000000000E+00  0.00000000000E+00  0.45593999997E+02  0.45594000000E+02  0.51100000000E-03 0.  1.
         11   -1    0    0    0    0 -0.00000000000E+00 -0.00000000000E+00 -0.45593999997E+02  0.45594000000E+02  0.51100000000E-03 0. -1.
    9900012    2    1    2    0    0  0.17932768916E+02 -0.17165711101E+02 -0.20011852601E+02  0.59301951592E+02  0.50000013795E+02 0.  0.
        -12    1    1    2    0    0 -0.17932768916E+02  0.17165711101E+02  0.20011852601E+02  0.31886048408E+02  0.00000000000E+00 0.  1.
         11    1    3    3    0    0  0.96066388537E+01 -0.12904164623E+02 -0.33284492921E+02  0.36968397908E+02  0.51100000000E-03 0.  1.
        -11    1    3    3    0    0  0.61662876012E+01 -0.15480807237E+01 -0.20057111135E+01  0.66665233848E+01  0.51100000000E-03 0. -1.
        -12    1    3    3    0    0  0.21598424606E+01 -0.27134657544E+01  0.15278351433E+02  0.15667030298E+02  0.00000000000E+00 0.  1.
</event>
<event>
 7    1  0.1221195E-011  0.5930195E+02  0.7816164E-02  0.1266605E+00
        -11   -1    0    0    0    0  0.00000000000E+00  0.00000000000E+00  0.45593999997E+02  0.45594000000E+02  0.51100000000E-03 0. -1.
         11   -1    0    0    0    0 -0.00000000000E+00 -0.00000000000E+00 -0.45593999997E+02  0.45594000000E+02  0.51100000000E-03 0.  1.
    9900012    2    1    2    0    0  0.77634924254E+01  0.26425075179E+02  0.16067473569E+02  0.59301951017E+02  0.50000012746E+02 0.  0.
        -12    1    1    2    0    0 -0.77634924254E+01 -0.26425075179E+02 -0.16067473569E+02  0.31886048983E+02  0.00000000000E+00 0.  1.
         11    1    3    3    0    0 -0.74370409909E+01  0.10360639707E+02 -0.11191703739E+02  0.16967812666E+02  0.51100000000E-03 0. -1.
        -11    1    3    3    0    0 -0.29720615706E+01 -0.40194072734E+01  0.65470605164E+01  0.82372802839E+01  0.51100000000E-03 0.  1.
         12    1    3    3    0    0  0.18172594987E+02  0.20083842746E+02  0.20712116792E+02  0.34096858066E+02  0.00000000000E+00 0. -1.
</event>
<event>
 7    1  0.1221195E-011  0.5930190E+02  0.7816164E-02  0.1266605E+00
        -11   -1    0    0    0    0  0.00000000000E+00  0.00000000000E+00  0.45593999997E+02  0.45594000000E+02  0.51100000000E-03 0. -1.
         11   -1    0    0    0    0 -0.00000000000E+00 -0.00000000000E+00 -0.45593999997E+02  0.45594000000E+02  0.51100000000E-03 0.  1.
    9900012    2    1    2    0    0  0.20462247345E+02  0.24306526162E+01  0.24333342031E+02  0.59301903140E+02  0.49999925430E+02 0.  0.
        -12    1    1    2    0    0 -0.20462247345E+02 -0.24306526162E+01 -0.24333342031E+02  0.31886096860E+02  0.00000000000E+00 0.  1.
         11    1    3    3    0    0  0.16336447558E+02  0.10742206145E+02  0.23947135058E+02  0.30915041475E+02  0.51100000000E-03 0. -1.
        -11    1    3    3    0    0 -0.35656745757E+00  0.48681677988E+01  0.10231461488E+02  0.11336181126E+02  0.51100000000E-03 0.  1.
        -12    1    3    3    0    0  0.44823672450E+01 -0.13179721327E+02 -0.98452545146E+01  0.17050680539E+02  0.00000000000E+00 0.  1.
</event>
<event>
 7    1  0.1221195E-011  0.5930195E+02  0.7816164E-02  0.1266605E+00
        -11   -1    0    0    0    0  0.00000000000E+00  0.00000000000E+00  0.45593999997E+02  0.45594000000E+02  0.51100000000E-03 0. -1.
         11   -1    0    0    0    0 -0.00000000000E+00 -0.00000000000E+00 -0.45593999997E+02  0.45594000000E+02  0.51100000000E-03 0.  1.
    9900012    2    1    2    0    0  0.57361595866E+01  0.29692529832E+02  0.10107937909E+02  0.59301948764E+02  0.50000008638E+02 0.  0.
        -12    1    1    2    0    0 -0.57361595866E+01 -0.29692529832E+02 -0.10107937909E+02  0.31886051236E+02  0.00000000000E+00 0.  1.
         11    1    3    3    0    0 -0.95391954033E+01 -0.17023281422E+01  0.15385210966E+02  0.18182378469E+02  0.51100000000E-03 0. -1.
        -11    1    3    3    0    0  0.46622504731E+01 -0.24578185742E+01 -0.12305466311E+01  0.54121804192E+01  0.51100000000E-03 0.  1.
        -12    1    3    3    0    0  0.10613104517E+02  0.33852676549E+02 -0.40467264258E+01  0.35707389876E+02  0.00000000000E+00 0.  1.
</event>
<event>
 7    1  0.1221195E-011  0.5930193E+02  0.7816164E-02  0.1266605E+00
        -11   -1    0    0    0    0  0.00000000000E+00  0.00000000000E+00  0.45593999997E+02  0.45594000000E+02  0.51100000000E-03 0.  1.
         11   -1    0    0    0    0 -0.00000000000E+00 -0.00000000000E+00 -0.45593999997E+02  0.45594000000E+02  0.51100000000E-03 0. -1.
    9900012    2    1    2    0    0 -0.57582319085E+01 -0.10794358025E+00 -0.31361643499E+02  0.59301928284E+02  0.49999971286E+02 0.  0.
        -12    1    1    2    0    0  0.57582319085E+01  0.10794358025E+00  0.31361643499E+02  0.31886071716E+02  0.00000000000E+00 0.  1.
         11    1    3    3    0    0  0.25168298167E+01 -0.53554737068E+01 -0.29619837795E+02  0.30205137348E+02  0.51100000000E-03 0. -1.
        -11    1    3    3    0    0  0.85611737035E+01  0.73734798705E+01 -0.39814125103E+01  0.11979713954E+02  0.51100000000E-03 0.  1.
        -12    1    3    3    0    0 -0.16836235429E+02 -0.21259497440E+01  0.22396068064E+01  0.17117076981E+02  0.00000000000E+00 0.  1.
</event>
<event>
 7    1  0.1930296E-011  0.5930195E+02  0.7816164E-02  0.1266605E+00
        -11   -1    0    0    0    0  0.00000000000E+00  0.00000000000E+00  0.45593999997E+02  0.45594000000E+02  0.51100000000E-03 0. -1.
         11   -1    0    0    0    0 -0.00000000000E+00 -0.00000000000E+00 -0.45593999997E+02  0.45594000000E+02  0.51100000000E-03 0.  1.
    9900012    2    1    2    0    0  0.16202744937E+02 -0.10358077077E+02  0.25434258313E+02  0.59301949756E+02  0.50000010447E+02 0.  0.
        -12    1    1    2    0    0 -0.16202744937E+02  0.10358077077E+02 -0.25434258313E+02  0.31886050244E+02  0.00000000000E+00 0.  1.
         11    1    3    3    0    0 -0.71862722049E+01  0.16070980217E+01  0.88041380492E+01  0.11477722740E+02  0.51100000000E-03 0. -1.
        -11    1    3    3    0    0  0.28519861896E+01  0.72525585661E+01 -0.74624471024E+01  0.10789881742E+02  0.51100000000E-03 0.  1.
         12    1    3    3    0    0  0.20537030953E+02 -0.19217733664E+02  0.24092567366E+02  0.37034345274E+02  0.00000000000E+00 0. -1.
</event>
<event>
 7    1  0.1221195E-011  0.5930194E+02  0.7816164E-02  0.1266605E+00
        -11   -1    0    0    0    0  0.00000000000E+00  0.00000000000E+00  0.45593999997E+02  0.45594000000E+02  0.51100000000E-03 0.  1.
         11   -1    0    0    0    0 -0.00000000000E+00 -0.00000000000E+00 -0.45593999997E+02  0.45594000000E+02  0.51100000000E-03 0. -1.
    9900012    2    1    2    0    0  0.20572993497E+02 -0.24304816449E+02 -0.16578249188E+01  0.59301944309E+02  0.50000000514E+02 0.  0.
        -12    1    1    2    0    0 -0.20572993497E+02  0.24304816449E+02  0.16578249188E+01  0.31886055691E+02  0.00000000000E+00 0.  1.
         11    1    3    3    0    0 -0.36819012499E+01  0.33974706584E+01  0.11862430438E+02  0.12876974017E+02  0.51100000000E-03 0. -1.
        -11    1    3    3    0    0 -0.20928561018E+01  0.30233369561E+01  0.21264338378E+00  0.36831821138E+01  0.51100000000E-03 0.  1.
         12    1    3    3    0    0  0.26347750849E+02 -0.30725624064E+02 -0.13732898740E+02  0.42741788178E+02  0.00000000000E+00 0. -1.
</event>
<event>
 7    1  0.1221195E-011  0.5930196E+02  0.7816164E-02  0.1266605E+00
        -11   -1    0    0    0    0  0.00000000000E+00  0.00000000000E+00  0.45593999997E+02  0.45594000000E+02  0.51100000000E-03 0.  1.
         11   -1    0    0    0    0 -0.00000000000E+00 -0.00000000000E+00 -0.45593999997E+02  0.45594000000E+02  0.51100000000E-03 0. -1.
    9900012    2    1    2    0    0 -0.24468193922E+02 -0.59532817526E+01 -0.19559795983E+02  0.59301957657E+02  0.50000024856E+02 0.  0.
        -12    1    1    2    0    0  0.24468193922E+02  0.59532817526E+01  0.19559795983E+02  0.31886042343E+02  0.00000000000E+00 0.  1.
         11    1    3    3    0    0 -0.28781222208E+01  0.86288808428E+01  0.39977014174E+01  0.99359342289E+01  0.51100000000E-03 0. -1.
        -11    1    3    3    0    0 -0.32407169589E+01 -0.10543617836E+02 -0.27969886964E+02  0.30066338329E+02  0.51100000000E-03 0.  1.
         12    1    3    3    0    0 -0.18349354743E+02 -0.40385447593E+01  0.44123895640E+01  0.19299685099E+02  0.00000000000E+00 0. -1.
</event>
<event>
 7    1  0.1221195E-011  0.5930197E+02  0.7816164E-02  0.1266605E+00
        -11   -1    0    0    0    0  0.00000000000E+00  0.00000000000E+00  0.45593999997E+02  0.45594000000E+02  0.51100000000E-03 0.  1.
         11   -1    0    0    0    0 -0.00000000000E+00 -0.00000000000E+00 -0.45593999997E+02  0.45594000000E+02  0.51100000000E-03 0. -1.
    9900012    2    1    2    0    0 -0.86257816244E+01 -0.95146752269E+01 -0.29185367467E+02  0.59301971280E+02  0.50000049702E+02 0.  0.
        -12    1    1    2    0    0  0.86257816244E+01  0.95146752269E+01  0.29185367467E+02  0.31886028720E+02  0.00000000000E+00 0.  1.
         11    1    3    3    0    0 -0.22444478171E+01  0.10115619416E+02 -0.72029168036E+01  0.12619243754E+02  0.51100000000E-03 0. -1.
        -11    1    3    3    0    0 -0.10758846051E+02 -0.65739646902E+01  0.71249672814E+01  0.14482228389E+02  0.51100000000E-03 0.  1.
         12    1    3    3    0    0  0.43775122435E+01 -0.13056329953E+02 -0.29107417945E+02  0.32200499138E+02  0.00000000000E+00 0. -1.
</event>
<event>
 7    1  0.1221195E-011  0.5930194E+02  0.7816164E-02  0.1266605E+00
        -11   -1    0    0    0    0  0.00000000000E+00  0.00000000000E+00  0.45593999997E+02  0.45594000000E+02  0.51100000000E-03 0.  1.
         11   -1    0    0    0    0 -0.00000000000E+00 -0.00000000000E+00 -0.45593999997E+02  0.45594000000E+02  0.51100000000E-03 0. -1.
    9900012    2    1    2    0    0 -0.13316028509E+02 -0.15244190581E+02 -0.24637746595E+02  0.59301944756E+02  0.50000001329E+02 0.  0.
        -12    1    1    2    0    0  0.13316028509E+02  0.15244190581E+02  0.24637746595E+02  0.31886055244E+02  0.00000000000E+00 0.  1.
         11    1    3    3    0    0 -0.56904965317E+01 -0.60761056499E+01 -0.67430754188E+01  0.10713070382E+02  0.51100000000E-03 0. -1.
        -11    1    3    3    0    0 -0.11295653025E+02 -0.17931956840E+02  0.66965963201E+01  0.22225914062E+02  0.51100000000E-03 0.  1.
        -12    1    3    3    0    0  0.36701210477E+01  0.87638719089E+01 -0.24591267496E+02  0.26362960312E+02  0.00000000000E+00 0.  1.
</event>
<event>
 7    1  0.1221195E-011  0.5930189E+02  0.7816164E-02  0.1266605E+00
        -11   -1    0    0    0    0  0.00000000000E+00  0.00000000000E+00  0.45593999997E+02  0.45594000000E+02  0.51100000000E-03 0. -1.
         11   -1    0    0    0    0 -0.00000000000E+00 -0.00000000000E+00 -0.45593999997E+02  0.45594000000E+02  0.51100000000E-03 0.  1.
    9900012    2    1    2    0    0  0.79100097877E+01 -0.30093297045E+02 -0.69677285123E+01  0.59301889819E+02  0.49999901135E+02 0.  0.
        -12    1    1    2    0    0 -0.79100097877E+01  0.30093297045E+02  0.69677285123E+01  0.31886110181E+02  0.00000000000E+00 0.  1.
         11    1    3    3    0    0  0.17016696840E+02 -0.63175310677E+01 -0.10006447043E+02  0.20726990926E+02  0.51100000000E-03 0. -1.
        -11    1    3    3    0    0 -0.12978366761E+02 -0.65686677113E+01 -0.91055928902E+01  0.17160921346E+02  0.51100000000E-03 0.  1.
        -12    1    3    3    0    0  0.38716797089E+01 -0.17207098266E+02  0.12144311421E+02  0.21413977547E+02  0.00000000000E+00 0.  1.
</event>
<event>
 7    1  0.1221195E-011  0.5930204E+02  0.7816164E-02  0.1266604E+00
        -11   -1    0    0    0    0  0.00000000000E+00  0.00000000000E+00  0.45593999997E+02  0.45594000000E+02  0.51100000000E-03 0.  1.
         11   -1    0    0    0    0 -0.00000000000E+00 -0.00000000000E+00 -0.45593999997E+02  0.45594000000E+02  0.51100000000E-03 0. -1.
    9900012    2    1    2    0    0  0.85287851604E+00 -0.30112762274E+02 -0.10450284284E+02  0.59302042351E+02  0.50000179318E+02 0.  0.
        -12    1    1    2    0    0 -0.85287851604E+00  0.30112762274E+02  0.10450284284E+02  0.31885957649E+02  0.00000000000E+00 0.  1.
         11    1    3    3    0    0  0.16211674805E+01  0.46920753474E+01  0.98578181765E+01  0.11037224947E+02  0.51100000000E-03 0.  1.
        -11    1    3    3    0    0 -0.50470878407E+00  0.33536369784E+01 -0.71274830539E+01  0.78932013078E+01  0.51100000000E-03 0. -1.
        -12    1    3    3    0    0 -0.26358018035E+00 -0.38158474600E+02 -0.13180619407E+02  0.40371616097E+02  0.00000000000E+00 0.  1.
</event>
<event>
 7    1  0.1221195E-011  0.5930196E+02  0.7816164E-02  0.1266605E+00
        -11   -1    0    0    0    0  0.00000000000E+00  0.00000000000E+00  0.45593999997E+02  0.45594000000E+02  0.51100000000E-03 0. -1.
         11   -1    0    0    0    0 -0.00000000000E+00 -0.00000000000E+00 -0.45593999997E+02  0.45594000000E+02  0.51100000000E-03 0.  1.
    9900012    2    1    2    0    0 -0.11181490993E+02 -0.29771678571E+02 -0.23110624225E+01  0.59301959241E+02  0.50000027746E+02 0.  0.
        -12    1    1    2    0    0  0.11181490993E+02  0.29771678571E+02  0.23110624225E+01  0.31886040759E+02  0.00000000000E+00 0.  1.
         11    1    3    3    0    0 -0.17584316791E+00 -0.29874540023E+01  0.62099290872E+01  0.68934042218E+01  0.51100000000E-03 0. -1.
        -11    1    3    3    0    0  0.86106923948E+01  0.63480087636E+01 -0.88799401828E+01  0.13903041994E+02  0.51100000000E-03 0.  1.
         12    1    3    3    0    0 -0.19616340220E+02 -0.33132233332E+02  0.35894867306E+00  0.38505513025E+02  0.00000000000E+00 0. -1.
</event>
<event>
 7    1  0.1221195E-011  0.5930197E+02  0.7816164E-02  0.1266605E+00
        -11   -1    0    0    0    0  0.00000000000E+00  0.00000000000E+00  0.45593999997E+02  0.45594000000E+02  0.51100000000E-03 0.  1.
         11   -1    0    0    0    0 -0.00000000000E+00 -0.00000000000E+00 -0.45593999997E+02  0.45594000000E+02  0.51100000000E-03 0. -1.
    9900012    2    1    2    0    0 -0.31540519557E+01  0.33576068937E+01 -0.31551503255E+02  0.59301969744E+02  0.50000046901E+02 0.  0.
        -12    1    1    2    0    0  0.31540519557E+01 -0.33576068937E+01  0.31551503255E+02  0.31886030256E+02  0.00000000000E+00 0.  1.
         11    1    3    3    0    0  0.10477400234E+02 -0.36412050706E+01 -0.67843968090E+01  0.13002397100E+02  0.51100000000E-03 0. -1.
        -11    1    3    3    0    0  0.77128221787E+01 -0.86891347280E+01 -0.29624287018E+01  0.11990190672E+02  0.51100000000E-03 0.  1.
         12    1    3    3    0    0 -0.21344274369E+02  0.15687946692E+02 -0.21804677744E+02  0.34309381972E+02  0.00000000000E+00 0. -1.
</event>
<event>
 7    1  0.1221195E-011  0.5930192E+02  0.7816164E-02  0.1266605E+00
        -11   -1    0    0    0    0  0.00000000000E+00  0.00000000000E+00  0.45593999997E+02  0.45594000000E+02  0.51100000000E-03 0. -1.
         11   -1    0    0    0    0 -0.00000000000E+00 -0.00000000000E+00 -0.45593999997E+02  0.45594000000E+02  0.51100000000E-03 0.  1.
    9900012    2    1    2    0    0  0.23787538716E+02 -0.77815547639E+01  0.19756573614E+02  0.59301924769E+02  0.49999964876E+02 0.  0.
        -12    1    1    2    0    0 -0.23787538716E+02  0.77815547639E+01 -0.19756573614E+02  0.31886075231E+02  0.00000000000E+00 0.  1.
         11    1    3    3    0    0 -0.13387064174E+01  0.40506775745E+01 -0.61059362418E+01  0.74486630568E+01  0.51100000000E-03 0. -1.
        -11    1    3    3    0    0  0.25104085430E+02  0.54893331810E+01  0.22611897698E+02  0.34229312027E+02  0.51100000000E-03 0.  1.
         12    1    3    3    0    0  0.22159703167E-01 -0.17321565519E+02  0.32506121575E+01  0.17623949685E+02  0.00000000000E+00 0. -1.
</event>
<event>
 7    1  0.1221195E-011  0.5930196E+02  0.7816164E-02  0.1266605E+00
        -11   -1    0    0    0    0  0.00000000000E+00  0.00000000000E+00  0.45593999997E+02  0.45594000000E+02  0.51100000000E-03 0.  1.
         11   -1    0    0    0    0 -0.00000000000E+00 -0.00000000000E+00 -0.45593999997E+02  0.45594000000E+02  0.51100000000E-03 0. -1.
    9900012    2    1    2    0    0  0.11187913416E+01  0.55884663699E+01 -0.31372553963E+02  0.59301956147E+02  0.50000022103E+02 0.  0.
        -12    1    1    2    0    0 -0.11187913416E+01 -0.55884663699E+01  0.31372553963E+02  0.31886043853E+02  0.00000000000E+00 0.  1.
         11    1    3    3    0    0  0.12953878223E+02 -0.16886596114E+01 -0.19336868895E+02  0.23336002897E+02  0.51100000000E-03 0. -1.
        -11    1    3    3    0    0 -0.94651803023E+01 -0.11238591515E+02 -0.21709632509E+01  0.14852900697E+02  0.51100000000E-03 0.  1.
         12    1    3    3    0    0 -0.23699065790E+01  0.18515717497E+02 -0.98647218167E+01  0.21113052554E+02  0.00000000000E+00 0. -1.
</event>
<event>
 7    1  0.1400616E-011  0.5930194E+02  0.7816164E-02  0.1266605E+00
        -11   -1    0    0    0    0  0.00000000000E+00  0.00000000000E+00  0.45593999997E+02  0.45594000000E+02  0.51100000000E-03 0. -1.
         11   -1    0    0    0    0 -0.00000000000E+00 -0.00000000000E+00 -0.45593999997E+02  0.45594000000E+02  0.51100000000E-03 0.  1.
    9900012    2    1    2    0    0  0.98585369620E+01  0.27060879850E+02  0.13683521312E+02  0.59301941530E+02  0.49999995444E+02 0.  0.
        -12    1    1    2    0    0 -0.98585369620E+01 -0.27060879850E+02 -0.13683521312E+02  0.31886058470E+02  0.00000000000E+00 0.  1.
         11    1    3    3    0    0  0.76948973288E+01  0.21087129552E+02  0.22951763373E+02  0.32103923745E+02  0.51100000000E-03 0. -1.
        -11    1    3    3    0    0  0.48186443425E+01  0.11746567790E+02  0.32969509398E+01  0.13117586436E+02  0.51100000000E-03 0.  1.
        -12    1    3    3    0    0 -0.26550047093E+01 -0.57728174920E+01 -0.12565193001E+02  0.14080431348E+02  0.00000000000E+00 0.  1.
</event>
<event>
 7    1  0.1221195E-011  0.5930194E+02  0.7816164E-02  0.1266605E+00
        -11   -1    0    0    0    0  0.00000000000E+00  0.00000000000E+00  0.45593999997E+02  0.45594000000E+02  0.51100000000E-03 0. -1.
         11   -1    0    0    0    0 -0.00000000000E+00 -0.00000000000E+00 -0.45593999997E+02  0.45594000000E+02  0.51100000000E-03 0.  1.
    9900012    2    1    2    0    0  0.59849265749E+01  0.19209077003E+02  0.24736872211E+02  0.59301939845E+02  0.49999992371E+02 0.  0.
        -12    1    1    2    0    0 -0.59849265749E+01 -0.19209077003E+02 -0.24736872211E+02  0.31886060155E+02  0.00000000000E+00 0.  1.
         11    1    3    3    0    0 -0.10253145001E+02 -0.71173244176E+00 -0.41572427833E+00  0.10286222456E+02  0.51100000000E-03 0. -1.
        -11    1    3    3    0    0 -0.25203931534E+00 -0.72534324977E+01  0.13186232392E+02  0.15051662093E+02  0.51100000000E-03 0.  1.
        -12    1    3    3    0    0  0.16490110891E+02  0.27174241943E+02  0.11966364098E+02  0.33964055295E+02  0.00000000000E+00 0.  1.
</event>
<event>
 7    1  0.1221195E-011  0.5930195E+02  0.7816164E-02  0.1266605E+00
        -11   -1    0    0    0    0  0.00000000000E+00  0.00000000000E+00  0.45593999997E+02  0.45594000000E+02  0.51100000000E-03 0.  1.
         11   -1    0    0    0    0 -0.00000000000E+00 -0.00000000000E+00 -0.45593999997E+02  0.45594000000E+02  0.51100000000E-03 0. -1.
    9900012    2    1    2    0    0  0.16689724290E+02 -0.24421322867E+01 -0.27059369463E+02  0.59301946893E+02  0.50000005226E+02 0.  0.
        -12    1    1    2    0    0 -0.16689724290E+02  0.24421322867E+01  0.27059369463E+02  0.31886053107E+02  0.00000000000E+00 0.  1.
         11    1    3    3    0    0  0.16452154830E+02  0.13626238485E+02 -0.24939647334E+02  0.32837992984E+02  0.51100000000E-03 0. -1.
        -11    1    3    3    0    0  0.56964256729E+01 -0.13822072491E+01  0.63594395807E+01  0.86488284969E+01  0.51100000000E-03 0.  1.
        -12    1    3    3    0    0 -0.54588562131E+01 -0.14686163523E+02 -0.84791617100E+01  0.17815125413E+02  0.00000000000E+00 0.  1.
</event>
<event>
 7    1  0.1221195E-011  0.5930196E+02  0.7816164E-02  0.1266605E+00
        -11   -1    0    0    0    0  0.00000000000E+00  0.00000000000E+00  0.45593999997E+02  0.45594000000E+02  0.51100000000E-03 0. -1.
         11   -1    0    0    0    0 -0.00000000000E+00 -0.00000000000E+00 -0.45593999997E+02  0.45594000000E+02  0.51100000000E-03 0.  1.
    9900012    2    1    2    0    0  0.20600290742E+02  0.23905418559E+02 -0.45692872173E+01  0.59301962291E+02  0.50000033307E+02 0.  0.
        -12    1    1    2    0    0 -0.20600290742E+02 -0.23905418559E+02  0.45692872173E+01  0.31886037709E+02  0.00000000000E+00 0.  1.
         11    1    3    3    0    0  0.56706393079E+01  0.15978666022E+02  0.16048372199E+02  0.23345752687E+02  0.51100000000E-03 0. -1.
        -11    1    3    3    0    0  0.68245414957E+01  0.15516544545E+02 -0.68848526481E+01  0.18295866131E+02  0.51100000000E-03 0.  1.
        -12    1    3    3    0    0  0.81051099382E+01 -0.75897920085E+01 -0.13732806768E+02  0.17660343473E+02  0.00000000000E+00 0.  1.
</event>
<event>
 7    1  0.1221195E-011  0.5930198E+02  0.7816164E-02  0.1266605E+00
        -11   -1    0    0    0    0  0.00000000000E+00  0.00000000000E+00  0.45593999997E+02  0.45594000000E+02  0.51100000000E-03 0.  1.
         11   -1    0    0    0    0 -0.00000000000E+00 -0.00000000000E+00 -0.45593999997E+02  0.45594000000E+02  0.51100000000E-03 0. -1.
    9900012    2    1    2    0    0 -0.76911875033E+01  0.27509218547E+02 -0.14170635329E+02  0.59301978362E+02  0.50000062617E+02 0.  0.
        -12    1    1    2    0    0  0.76911875033E+01 -0.27509218547E+02  0.14170635329E+02  0.31886021638E+02  0.00000000000E+00 0.  1.
         11    1    3    3    0    0 -0.68245791193E+01  0.12508770964E+02 -0.26710100583E+02  0.30273316709E+02  0.51100000000E-03 0. -1.
        -11    1    3    3    0    0 -0.28734385025E+00  0.81774007915E+00 -0.57849931956E+01  0.58495651001E+01  0.51100000000E-03 0.  1.
        -12    1    3    3    0    0 -0.57926453376E+00  0.14182707504E+02  0.18324458449E+02  0.23179096553E+02  0.00000000000E+00 0.  1.
</event>
<event>
 7    1  0.1620663E-011  0.5930195E+02  0.7816164E-02  0.1266605E+00
        -11   -1    0    0    0    0  0.00000000000E+00  0.00000000000E+00  0.45593999997E+02  0.45594000000E+02  0.51100000000E-03 0.  1.
         11   -1    0    0    0    0 -0.00000000000E+00 -0.00000000000E+00 -0.45593999997E+02  0.45594000000E+02  0.51100000000E-03 0. -1.
    9900012    2    1    2    0    0 -0.17531614192E+02 -0.21267057861E+02 -0.16033554637E+02  0.59301951005E+02  0.50000012724E+02 0.  0.
        -12    1    1    2    0    0  0.17531614192E+02  0.21267057861E+02  0.16033554637E+02  0.31886048995E+02  0.00000000000E+00 0.  1.
         11    1    3    3    0    0 -0.15922516921E+02 -0.12699051809E+02 -0.23417450921E+02  0.31034971723E+02  0.51100000000E-03 0. -1.
        -11    1    3    3    0    0 -0.13354912040E+02 -0.75223080173E+01  0.57088437679E+01  0.16356334887E+02  0.51100000000E-03 0.  1.
        -12    1    3    3    0    0  0.11745814769E+02 -0.10456980345E+01  0.16750525162E+01  0.11910644395E+02  0.00000000000E+00 0.  1.
</event>
<event>
 7    1  0.1221195E-011  0.5930192E+02  0.7816164E-02  0.1266605E+00
        -11   -1    0    0    0    0  0.00000000000E+00  0.00000000000E+00  0.45593999997E+02  0.45594000000E+02  0.51100000000E-03 0.  1.
         11   -1    0    0    0    0 -0.00000000000E+00 -0.00000000000E+00 -0.45593999997E+02  0.45594000000E+02  0.51100000000E-03 0. -1.
    9900012    2    1    2    0    0 -0.72264454003E+01 -0.35270414172E+01 -0.30855482013E+02  0.59301916757E+02  0.49999950266E+02 0.  0.
        -12    1    1    2    0    0  0.72264454003E+01  0.35270414172E+01  0.30855482013E+02  0.31886083243E+02  0.00000000000E+00 0.  1.
         11    1    3    3    0    0 -0.20748603313E+01  0.13167671556E+02 -0.46085241272E+01  0.14104294187E+02  0.51100000000E-03 0. -1.
        -11    1    3    3    0    0 -0.30393120030E+01  0.36493718734E+01  0.56034788843E+01  0.73453596501E+01  0.51100000000E-03 0.  1.
         12    1    3    3    0    0 -0.21122730660E+01 -0.20344084847E+02 -0.31850436770E+02  0.37852262921E+02  0.00000000000E+00 0. -1.
</event>
<event>
 7    1  0.1221195E-011  0.5930195E+02  0.7816164E-02  0.1266605E+00
        -11   -1    0    0    0    0  0.00000000000E+00  0.00000000000E+00  0.45593999997E+02  0.45594000000E+02  0.51100000000E-03 0. -1.
         11   -1    0    0    0    0 -0.00000000000E+00 -0.00000000000E+00 -0.45593999997E+02  0.45594000000E+02  0.51100000000E-03 0.  1.
    9900012    2    1    2    0    0  0.29433188004E+02  0.36495076805E+01  0.11708485484E+02  0.59301951409E+02  0.50000013462E+02 0.  0.
        -12    1    1    2    0    0 -0.29433188004E+02 -0.36495076805E+01 -0.11708485484E+02  0.31886048591E+02  0.00000000000E+00 0.  1.
         11    1    3    3    0    0  0.25801023112E+02  0.23152637952E+01  0.58180867012E+01  0.26550016445E+02  0.51100000000E-03 0. -1.
        -11    1    3    3    0    0  0.89169696277E+01 -0.31276707011E+01 -0.10999243352E+02  0.14500966379E+02  0.51100000000E-03 0.  1.
         12    1    3    3    0    0 -0.52848047360E+01  0.44619145864E+01  0.16889642135E+02  0.18250968586E+02  0.00000000000E+00 0. -1.
</event>
<event>
 7    1  0.1221195E-011  0.5930191E+02  0.7816164E-02  0.1266605E+00
        -11   -1    0    0    0    0  0.00000000000E+00  0.00000000000E+00  0.45593999997E+02  0.45594000000E+02  0.51100000000E-03 0. -1.
         11   -1    0    0    0    0 -0.00000000000E+00 -0.00000000000E+00 -0.45593999997E+02  0.45594000000E+02  0.51100000000E-03 0.  1.
    9900012    2    1    2    0    0 -0.16169051200E+02 -0.26102276250E+02  0.85997592395E+01  0.59301907403E+02  0.49999933205E+02 0.  0.
        -12    1    1    2    0    0  0.16169051200E+02  0.26102276250E+02 -0.85997592395E+01  0.31886092597E+02  0.00000000000E+00 0.  1.
         11    1    3    3    0    0  0.28554349839E+01  0.17500615221E+01 -0.10458195647E+02  0.10981351499E+02  0.51100000000E-03 0. -1.
        -11    1    3    3    0    0 -0.17026615936E+01 -0.15142570271E+02 -0.50268827365E+01  0.16045748385E+02  0.51100000000E-03 0.  1.
         12    1    3    3    0    0 -0.17321824590E+02 -0.12709767502E+02  0.24084837623E+02  0.32274807519E+02  0.00000000000E+00 0. -1.
</event>
<event>
 7    1  0.1221195E-011  0.5930198E+02  0.7816164E-02  0.1266605E+00
        -11   -1    0    0    0    0  0.00000000000E+00  0.00000000000E+00  0.45593999997E+02  0.45594000000E+02  0.51100000000E-03 0.  1.
         11   -1    0    0    0    0 -0.00000000000E+00 -0.00000000000E+00 -0.45593999997E+02  0.45594000000E+02  0.51100000000E-03 0. -1.
    9900012    2    1    2    0    0 -0.28320028678E+02 -0.14633430860E+02  0.74630018567E+00  0.59301979755E+02  0.50000065159E+02 0.  0.
        -12    1    1    2    0    0  0.28320028678E+02  0.14633430860E+02 -0.74630018567E+00  0.31886020245E+02  0.00000000000E+00 0.  1.
         11    1    3    3    0    0 -0.21108221712E+02  0.55161797023E+01  0.15295561861E+02  0.26644689438E+02  0.51100000000E-03 0. -1.
        -11    1    3    3    0    0  0.42408961522E+01 -0.86629017499E+00 -0.83228795677E+01  0.93811504306E+01  0.51100000000E-03 0.  1.
        -12    1    3    3    0    0 -0.11452703119E+02 -0.19283320387E+02 -0.62263821076E+01  0.23276139887E+02  0.00000000000E+00 0.  1.
</event>
<event>
 7    1  0.1221195E-011  0.5930192E+02  0.7816164E-02  0.1266605E+00
        -11   -1    0    0    0    0  0.00000000000E+00  0.00000000000E+00  0.45593999997E+02  0.45594000000E+02  0.51100000000E-03 0.  1.
         11   -1    0    0    0    0 -0.00000000000E+00 -0.00000000000E+00 -0.45593999997E+02  0.45594000000E+02  0.51100000000E-03 0. -1.
    9900012    2    1    2    0    0  0.13869198592E+02 -0.10021111034E+02 -0.26906225159E+02  0.59301917013E+02  0.49999950732E+02 0.  0.
        -12    1    1    2    0    0 -0.13869198592E+02  0.10021111034E+02  0.26906225159E+02  0.31886082987E+02  0.00000000000E+00 0.  1.
         11    1    3    3    0    0  0.16753648730E+02  0.98300190398E+01 -0.14204713191E+01  0.19476441131E+02  0.51100000000E-03 0. -1.
        -11    1    3    3    0    0  0.23831423587E+01  0.31966719952E+01 -0.11917022419E+02  0.12566363950E+02  0.51100000000E-03 0.  1.
        -12    1    3    3    0    0 -0.52675924969E+01 -0.23047802069E+02 -0.13568731421E+02  0.27259111932E+02  0.00000000000E+00 0.  1.
</event>
<event>
 7    1  0.1221195E-011  0.5930191E+02  0.7816164E-02  0.1266605E+00
        -11   -1    0    0    0    0  0.00000000000E+00  0.00000000000E+00  0.45593999997E+02  0.45594000000E+02  0.51100000000E-03 0. -1.
         11   -1    0    0    0    0 -0.00000000000E+00 -0.00000000000E+00 -0.45593999997E+02  0.45594000000E+02  0.51100000000E-03 0.  1.
    9900012    2    1    2    0    0  0.80487775583E+01 -0.20248365911E+02  0.23279675237E+02  0.59301914925E+02  0.49999946924E+02 0.  0.
        -12    1    1    2    0    0 -0.80487775583E+01  0.20248365911E+02 -0.23279675237E+02  0.31886085075E+02  0.00000000000E+00 0.  1.
         11    1    3    3    0    0  0.11757981172E+01 -0.66088506133E+01  0.19644260984E+02  0.20759489336E+02  0.51100000000E-03 0. -1.
        -11    1    3    3    0    0  0.13004352062E+01 -0.25057700393E+02 -0.74666363769E+00  0.25102529505E+02  0.51100000000E-03 0.  1.
         12    1    3    3    0    0  0.55725442349E+01  0.11418185095E+02  0.43820778908E+01  0.13439896084E+02  0.00000000000E+00 0. -1.
</event>
<event>
 7    1  0.1221195E-011  0.5930196E+02  0.7816164E-02  0.1266605E+00
        -11   -1    0    0    0    0  0.00000000000E+00  0.00000000000E+00  0.45593999997E+02  0.45594000000E+02  0.51100000000E-03 0.  1.
         11   -1    0    0    0    0 -0.00000000000E+00 -0.00000000000E+00 -0.45593999997E+02  0.45594000000E+02  0.51100000000E-03 0. -1.
    9900012    2    1    2    0    0 -0.26908659266E+02 -0.16307268967E+02 -0.51688235036E+01  0.59301957582E+02  0.50000024719E+02 0.  0.
        -12    1    1    2    0    0  0.26908659266E+02  0.16307268967E+02  0.51688235036E+01  0.31886042418E+02  0.00000000000E+00 0.  1.
         11    1    3    3    0    0 -0.15239226622E+02  0.11294629477E+01 -0.15520106598E+01  0.15359637103E+02  0.51100000000E-03 0. -1.
        -11    1    3    3    0    0 -0.20827427818E+02 -0.21651705236E+02  0.52718356425E+01  0.30501972730E+02  0.51100000000E-03 0.  1.
        -12    1    3    3    0    0  0.91579951732E+01  0.42149733210E+01 -0.88886484863E+01  0.13440347749E+02  0.00000000000E+00 0.  1.
</event>
<event>
 7    1  0.1221195E-011  0.5930195E+02  0.7816164E-02  0.1266605E+00
        -11   -1    0    0    0    0  0.00000000000E+00  0.00000000000E+00  0.45593999997E+02  0.45594000000E+02  0.51100000000E-03 0.  1.
         11   -1    0    0    0    0 -0.00000000000E+00 -0.00000000000E+00 -0.45593999997E+02  0.45594000000E+02  0.51100000000E-03 0. -1.
    9900012    2    1    2    0    0  0.28039643979E+02 -0.14656054097E+02 -0.39621459269E+01  0.59301950441E+02  0.50000011695E+02 0.  0.
        -12    1    1    2    0    0 -0.28039643979E+02  0.14656054097E+02  0.39621459269E+01  0.31886049559E+02  0.00000000000E+00 0.  1.
         11    1    3    3    0    0 -0.31762053419E+01 -0.14949545124E+02  0.66850827898E+01  0.16681352222E+02  0.51100000000E-03 0. -1.
        -11    1    3    3    0    0 -0.95901868519E+00 -0.53789211794E+01  0.40448534261E+01  0.67980401141E+01  0.51100000000E-03 0.  1.
        -12    1    3    3    0    0  0.32174868006E+02  0.56724122063E+01 -0.14692082143E+02  0.35822558104E+02  0.00000000000E+00 0.  1.
</event>
<event>
 7    1  0.1221195E-011  0.5930195E+02  0.7816164E-02  0.1266605E+00
        -11   -1    0    0    0    0  0.00000000000E+00  0.00000000000E+00  0.45593999997E+02  0.45594000000E+02  0.51100000000E-03 0.  1.
         11   -1    0    0    0    0 -0.00000000000E+00 -0.00000000000E+00 -0.45593999997E+02  0.45594000000E+02  0.51100000000E-03 0. -1.
    9900012    2    1    2    0    0 -0.15719532643E+01  0.92485804837E+01 -0.30474789047E+02  0.59301952182E+02  0.50000014871E+02 0.  0.
        -12    1    1    2    0    0  0.15719532643E+01 -0.92485804837E+01  0.30474789047E+02  0.31886047818E+02  0.00000000000E+00 0.  1.
         11    1    3    3    0    0  0.61392697683E+01 -0.18439480387E+01 -0.20113994537E+02  0.21110744993E+02  0.51100000000E-03 0. -1.
        -11    1    3    3    0    0 -0.34545219088E+01 -0.11653832758E+02  0.13955876571E+01  0.12234917439E+02  0.51100000000E-03 0.  1.
        -12    1    3    3    0    0 -0.42567011238E+01  0.22746361280E+02 -0.11756382167E+02  0.25956289750E+02  0.00000000000E+00 0.  1.
</event>
<event>
 7    1  0.1221195E-011  0.5930195E+02  0.7816164E-02  0.1266605E+00
        -11   -1    0    0    0    0  0.00000000000E+00  0.00000000000E+00  0.45593999997E+02  0.45594000000E+02  0.51100000000E-03 0. -1.
         11   -1    0    0    0    0 -0.00000000000E+00 -0.00000000000E+00 -0.45593999997E+02  0.45594000000E+02  0.51100000000E-03 0.  1.
    9900012    2    1    2    0    0  0.31589083337E+02 -0.85469268482E+00 -0.42566867598E+01  0.59301951831E+02  0.50000014231E+02 0.  0.
        -12    1    1    2    0    0 -0.31589083337E+02  0.85469268482E+00  0.42566867598E+01  0.31886048169E+02  0.00000000000E+00 0.  1.
         11    1    3    3    0    0  0.15266388262E+02  0.47716501312E+01  0.13829814367E+02  0.21144621568E+02  0.51100000000E-03 0. -1.
        -11    1    3    3    0    0 -0.45611901009E+01  0.74994094615E+01 -0.31748791824E+01  0.93341017507E+01  0.51100000000E-03 0.  1.
         12    1    3    3    0    0  0.20883885176E+02 -0.13125752278E+02 -0.14911621944E+02  0.28823228513E+02  0.00000000000E+00 0. -1.
</event>
<event>
 7    1  0.1221195E-011  0.5930191E+02  0.7816164E-02  0.1266605E+00
        -11   -1    0    0    0    0  0.00000000000E+00  0.00000000000E+00  0.45593999997E+02  0.45594000000E+02  0.51100000000E-03 0. -1.
         11   -1    0    0    0    0 -0.00000000000E+00 -0.00000000000E+00 -0.45593999997E+02  0.45594000000E+02  0.51100000000E-03 0.  1.
    9900012    2    1    2    0    0 -0.10220063898E+02  0.25188116509E+02  0.16668281650E+02  0.59301913183E+02  0.49999943746E+02 0.  0.
        -12    1    1    2    0    0  0.10220063898E+02 -0.25188116509E+02 -0.16668281650E+02  0.31886086817E+02  0.00000000000E+00 0.  1.
         11    1    3    3    0    0 -0.10705990569E+02 -0.18740349283E+01 -0.31583008551E+01  0.11318352598E+02  0.51100000000E-03 0. -1.
        -11    1    3    3    0    0 -0.55642383321E+01  0.28407016735E+02  0.18924003829E+01  0.29008628500E+02  0.51100000000E-03 0.  1.
        -12    1    3    3    0    0  0.60501650034E+01 -0.13448652974E+01  0.17934182122E+02  0.18974932085E+02  0.00000000000E+00 0.  1.
</event>
<event>
 7    1  0.1221195E-011  0.5930194E+02  0.7816164E-02  0.1266605E+00
        -11   -1    0    0    0    0  0.00000000000E+00  0.00000000000E+00  0.45593999997E+02  0.45594000000E+02  0.51100000000E-03 0. -1.
         11   -1    0    0    0    0 -0.00000000000E+00 -0.00000000000E+00 -0.45593999997E+02  0.45594000000E+02  0.51100000000E-03 0.  1.
    9900012    2    1    2    0    0  0.18388092140E+02 -0.14056180757E+02  0.21932229700E+02  0.59301939571E+02  0.49999991873E+02 0.  0.
        -12    1    1    2    0    0 -0.18388092140E+02  0.14056180757E+02 -0.21932229700E+02  0.31886060429E+02  0.00000000000E+00 0.  1.
         11    1    3    3    0    0  0.14127416647E+02  0.12675859750E+02  0.52055229897E+01  0.19681432656E+02  0.51100000000E-03 0. -1.
        -11    1    3    3    0    0 -0.81709264794E+01 -0.75656346415E+01  0.11849214407E+02  0.16260588839E+02  0.51100000000E-03 0.  1.
        -12    1    3    3    0    0  0.12431601972E+02 -0.19166405865E+02  0.48774923041E+01  0.23359918077E+02  0.00000000000E+00 0.  1.
</event>
<event>
 7    1  0.1221195E-011  0.5930196E+02  0.7816164E-02  0.1266605E+00
        -11   -1    0    0    0    0  0.00000000000E+00  0.00000000000E+00  0.45593999997E+02  0.45594000000E+02  0.51100000000E-03 0.  1.
         11   -1    0    0    0    0 -0.00000000000E+00 -0.00000000000E+00 -0.45593999997E+02  0.45594000000E+02  0.51100000000E-03 0. -1.
    9900012    2    1    2    0    0  0.30667196565E+02  0.57906271181E+01 -0.65353916012E+01  0.59301958368E+02  0.50000026153E+02 0.  0.
        -12    1    1    2    0    0 -0.30667196565E+02 -0.57906271181E+01  0.65353916012E+01  0.31886041632E+02  0.00000000000E+00 0.  1.
         11    1    3    3    0    0  0.16669737089E+01 -0.50059216383E+01  0.11083348354E+02  0.12275123779E+02  0.51100000000E-03 0. -1.
        -11    1    3    3    0    0  0.13123280410E+02 -0.46643492313E+00 -0.23302547127E+02  0.26747836419E+02  0.51100000000E-03 0.  1.
         12    1    3    3    0    0  0.15876942446E+02  0.11262983679E+02  0.56838071717E+01  0.20278998170E+02  0.00000000000E+00 0. -1.
</event>
<event>
 7    1  0.1221195E-011  0.5930197E+02  0.7816164E-02  0.1266605E+00
        -11   -1    0    0    0    0  0.00000000000E+00  0.00000000000E+00  0.45593999997E+02  0.45594000000E+02  0.51100000000E-03 0.  1.
         11   -1    0    0    0    0 -0.00000000000E+00 -0.00000000000E+00 -0.45593999997E+02  0.45594000000E+02  0.51100000000E-03 0. -1.
    9900012    2    1    2    0    0 -0.27669680983E+01 -0.28729998297E+02 -0.13551761437E+02  0.59301966182E+02  0.50000040404E+02 0.  0.
        -12    1    1    2    0    0  0.27669680983E+01  0.28729998297E+02  0.13551761437E+02  0.31886033818E+02  0.00000000000E+00 0.  1.
         11    1    3    3    0    0  0.44768182420E+01 -0.92694805249E+01 -0.14261657236E+02  0.17588633777E+02  0.51100000000E-03 0. -1.
        -11    1    3    3    0    0  0.43980268163E+01  0.84837733348E+01 -0.51854911876E+01  0.10872275244E+02  0.51100000000E-03 0.  1.
         12    1    3    3    0    0 -0.11641813157E+02 -0.27944291107E+02  0.58953869869E+01  0.30841057160E+02  0.00000000000E+00 0. -1.
</event>
<event>
 7    1  0.1221195E-011  0.5930185E+02  0.7816164E-02  0.1266605E+00
        -11   -1    0    0    0    0  0.00000000000E+00  0.00000000000E+00  0.45593999997E+02  0.45594000000E+02  0.51100000000E-03 0. -1.
         11   -1    0    0    0    0 -0.00000000000E+00 -0.00000000000E+00 -0.45593999997E+02  0.45594000000E+02  0.51100000000E-03 0.  1.
    9900012    2    1    2    0    0  0.84576126405E+01 -0.28927686965E+02  0.10410791270E+02  0.59301845331E+02  0.49999820001E+02 0.  0.
        -12    1    1    2    0    0 -0.84576126405E+01  0.28927686965E+02 -0.10410791270E+02  0.31886154669E+02  0.00000000000E+00 0.  1.
         11    1    3    3    0    0  0.23202646526E+01 -0.22065766200E+02 -0.13939001425E+02  0.26202622522E+02  0.51100000000E-03 0. -1.
        -11    1    3    3    0    0  0.91760648062E+01 -0.55123989724E+01  0.24930067805E+01  0.10990986800E+02  0.51100000000E-03 0.  1.
        -12    1    3    3    0    0 -0.30387168182E+01 -0.13495217924E+01  0.21856785914E+02  0.22108236010E+02  0.00000000000E+00 0.  1.
</event>
<event>
 7    1  0.1221195E-011  0.5930206E+02  0.7816164E-02  0.1266604E+00
        -11   -1    0    0    0    0  0.00000000000E+00  0.00000000000E+00  0.45593999997E+02  0.45594000000E+02  0.51100000000E-03 0. -1.
         11   -1    0    0    0    0 -0.00000000000E+00 -0.00000000000E+00 -0.45593999997E+02  0.45594000000E+02  0.51100000000E-03 0.  1.
    9900012    2    1    2    0    0 -0.28828821124E+02  0.73884633692E-01  0.13623748879E+02  0.59302063918E+02  0.50000218650E+02 0.  0.
        -12    1    1    2    0    0  0.28828821124E+02 -0.73884633692E-01 -0.13623748879E+02  0.31885936082E+02  0.00000000000E+00 0.  1.
         11    1    3    3    0    0 -0.96238460044E+01 -0.42821403873E+01  0.24163666969E+01  0.10807125727E+02  0.51100000000E-03 0. -1.
        -11    1    3    3    0    0  0.53163395311E+01  0.12110301067E+00 -0.12835256899E+02  0.13893234033E+02  0.51100000000E-03 0.  1.
         12    1    3    3    0    0 -0.24521314650E+02  0.42349220103E+01  0.24042639082E+02  0.34601704158E+02  0.00000000000E+00 0. -1.
</event>
<event>
 7    1  0.1221195E-011  0.5930202E+02  0.7816164E-02  0.1266605E+00
        -11   -1    0    0    0    0  0.00000000000E+00  0.00000000000E+00  0.45593999997E+02  0.45594000000E+02  0.51100000000E-03 0. -1.
         11   -1    0    0    0    0 -0.00000000000E+00 -0.00000000000E+00 -0.45593999997E+02  0.45594000000E+02  0.51100000000E-03 0.  1.
    9900012    2    1    2    0    0  0.14650068653E+02 -0.48415426790E+01  0.27904316339E+02  0.59302016914E+02  0.50000132927E+02 0.  0.
        -12    1    1    2    0    0 -0.14650068653E+02  0.48415426790E+01 -0.27904316339E+02  0.31885983086E+02  0.00000000000E+00 0.  1.
         11    1    3    3    0    0 -0.21588793021E+00  0.22955011723E+01  0.10097094864E+02  0.10356990788E+02  0.51100000000E-03 0. -1.
        -11    1    3    3    0    0 -0.26286581708E+01  0.41066740730E+01  0.26103547547E+02  0.26555033619E+02  0.51100000000E-03 0.  1.
        -12    1    3    3    0    0  0.17494614754E+02 -0.11243717924E+02 -0.82963260724E+01  0.22389992507E+02  0.00000000000E+00 0.  1.
</event>
<event>
 7    1  0.1221195E-011  0.5930188E+02  0.7816164E-02  0.1266605E+00
        -11   -1    0    0    0    0  0.00000000000E+00  0.00000000000E+00  0.45593999997E+02  0.45594000000E+02  0.51100000000E-03 0. -1.
         11   -1    0    0    0    0 -0.00000000000E+00 -0.00000000000E+00 -0.45593999997E+02  0.45594000000E+02  0.51100000000E-03 0.  1.
    9900012    2    1    2    0    0  0.58481366193E+01  0.13415982621E+02  0.28329051366E+02  0.59301883227E+02  0.49999889113E+02 0.  0.
        -12    1    1    2    0    0 -0.58481366193E+01 -0.13415982621E+02 -0.28329051366E+02  0.31886116773E+02  0.00000000000E+00 0.  1.
         11    1    3    3    0    0  0.61382690036E+01  0.70924240619E+01 -0.74692424792E+01  0.11990429888E+02  0.51100000000E-03 0. -1.
        -11    1    3    3    0    0 -0.12609636591E+02  0.11937272158E+02  0.19059052986E+02  0.25782724886E+02  0.51100000000E-03 0.  1.
         12    1    3    3    0    0  0.12319504207E+02 -0.56137135985E+01  0.16739240858E+02  0.21528728453E+02  0.00000000000E+00 0. -1.
</event>
<event>
 7    1  0.1221195E-011  0.5930194E+02  0.7816164E-02  0.1266605E+00
        -11   -1    0    0    0    0  0.00000000000E+00  0.00000000000E+00  0.45593999997E+02  0.45594000000E+02  0.51100000000E-03 0.  1.
         11   -1    0    0    0    0 -0.00000000000E+00 -0.00000000000E+00 -0.45593999997E+02  0.45594000000E+02  0.51100000000E-03 0. -1.
    9900012    2    1    2    0    0  0.10804411158E+01  0.18588358578E+02 -0.25884867682E+02  0.59301940310E+02  0.49999993219E+02 0.  0.
        -12    1    1    2    0    0 -0.10804411158E+01 -0.18588358578E+02  0.25884867682E+02  0.31886059690E+02  0.00000000000E+00 0.  1.
         11    1    3    3    0    0 -0.23652392565E-01  0.25533734983E+02 -0.15932685326E+02  0.30096887606E+02  0.51100000000E-03 0. -1.
        -11    1    3    3    0    0  0.87088093745E+01  0.65814218908E+01 -0.80664084127E+01  0.13572966506E+02  0.51100000000E-03 0.  1.
        -12    1    3    3    0    0 -0.76047158662E+01 -0.13526798295E+02 -0.18857739433E+01  0.15632086198E+02  0.00000000000E+00 0.  1.
</event>
<event>
 7    1  0.1221195E-011  0.5930195E+02  0.7816164E-02  0.1266605E+00
        -11   -1    0    0    0    0  0.00000000000E+00  0.00000000000E+00  0.45593999997E+02  0.45594000000E+02  0.51100000000E-03 0.  1.
         11   -1    0    0    0    0 -0.00000000000E+00 -0.00000000000E+00 -0.45593999997E+02  0.45594000000E+02  0.51100000000E-03 0. -1.
    9900012    2    1    2    0    0 -0.24303385507E+02  0.13428132453E+02 -0.15676444833E+02  0.59301949588E+02  0.50000010141E+02 0.  0.
        -12    1    1    2    0    0  0.24303385507E+02 -0.13428132453E+02  0.15676444833E+02  0.31886050412E+02  0.00000000000E+00 0.  1.
         11    1    3    3    0    0 -0.33903660078E+00 -0.41218190279E+01 -0.19681420872E+02  0.20111257189E+02  0.51100000000E-03 0. -1.
        -11    1    3    3    0    0 -0.16892643707E+01 -0.61944823559E+01  0.37442430954E+00  0.64315954161E+01  0.51100000000E-03 0.  1.
        -12    1    3    3    0    0 -0.22275084535E+02  0.23744433837E+02  0.36305517297E+01  0.32759096983E+02  0.00000000000E+00 0.  1.
</event>
<event>
 7    1  0.1221195E-011  0.5930200E+02  0.7816164E-02  0.1266605E+00
        -11   -1    0    0    0    0  0.00000000000E+00  0.00000000000E+00  0.45593999997E+02  0.45594000000E+02  0.51100000000E-03 0.  1.
         11   -1    0    0    0    0 -0.00000000000E+00 -0.00000000000E+00 -0.45593999997E+02  0.45594000000E+02  0.51100000000E-03 0. -1.
    9900012    2    1    2    0    0 -0.28958444787E+02  0.10176662531E+02 -0.86348548865E+01  0.59302004584E+02  0.50000110440E+02 0.  0.
        -12    1    1    2    0    0  0.28958444787E+02 -0.10176662531E+02  0.86348548865E+01  0.31885995416E+02  0.00000000000E+00 0.  1.
         11    1    3    3    0    0  0.85607918462E+00  0.73327152490E+01  0.12225857179E+01  0.74830675924E+01  0.51100000000E-03 0. -1.
        -11    1    3    3    0    0 -0.57662428299E+01  0.14969269187E+02 -0.17582540801E+02  0.23800720949E+02  0.51100000000E-03 0.  1.
        -12    1    3    3    0    0 -0.24048281142E+02 -0.12125321905E+02  0.77251001969E+01  0.28018216043E+02  0.00000000000E+00 0.  1.
</event>
<event>
 7    1  0.1221195E-011  0.5930193E+02  0.7816164E-02  0.1266605E+00
        -11   -1    0    0    0    0  0.00000000000E+00  0.00000000000E+00  0.45593999997E+02  0.45594000000E+02  0.51100000000E-03 0.  1.
         11   -1    0    0    0    0 -0.00000000000E+00 -0.00000000000E+00 -0.45593999997E+02  0.45594000000E+02  0.51100000000E-03 0. -1.
    9900012    2    1    2    0    0 -0.76588068313E+01 -0.27785306209E+02  0.13639691006E+02  0.59301925705E+02  0.49999966584E+02 0.  0.
        -12    1    1    2    0    0  0.76588068313E+01  0.27785306209E+02 -0.13639691006E+02  0.31886074295E+02  0.00000000000E+00 0.  1.
         11    1    3    3    0    0 -0.55026523249E+01 -0.40675302196E+02  0.59392215679E+01  0.41473289530E+02  0.51100000000E-03 0. -1.
        -11    1    3    3    0    0  0.28639024794E+01  0.78906398388E+00  0.12023721549E+01  0.32047243941E+01  0.51100000000E-03 0.  1.
        -12    1    3    3    0    0 -0.50200569858E+01  0.12100932003E+02  0.64980972836E+01  0.14623911781E+02  0.00000000000E+00 0.  1.
</event>
<event>
 7    1  0.1221195E-011  0.5930194E+02  0.7816164E-02  0.1266605E+00
        -11   -1    0    0    0    0  0.00000000000E+00  0.00000000000E+00  0.45593999997E+02  0.45594000000E+02  0.51100000000E-03 0.  1.
         11   -1    0    0    0    0 -0.00000000000E+00 -0.00000000000E+00 -0.45593999997E+02  0.45594000000E+02  0.51100000000E-03 0. -1.
    9900012    2    1    2    0    0  0.13441471047E+02  0.23521262236E+02 -0.16816587308E+02  0.59301944588E+02  0.50000001021E+02 0.  0.
        -12    1    1    2    0    0 -0.13441471047E+02 -0.23521262236E+02  0.16816587308E+02  0.31886055412E+02  0.00000000000E+00 0.  1.
         11    1    3    3    0    0  0.21937506920E+02  0.17590646067E+02 -0.11499819494E+02  0.30379777609E+02  0.51100000000E-03 0. -1.
        -11    1    3    3    0    0 -0.25856140225E+00 -0.44196436531E+01 -0.12924943486E+02  0.13662147283E+02  0.51100000000E-03 0.  1.
        -12    1    3    3    0    0 -0.82374744706E+01  0.10350259822E+02  0.76081756721E+01  0.15260019695E+02  0.00000000000E+00 0.  1.
</event>
<event>
 7    1  0.1221195E-011  0.5930194E+02  0.7816164E-02  0.1266605E+00
        -11   -1    0    0    0    0  0.00000000000E+00  0.00000000000E+00  0.45593999997E+02  0.45594000000E+02  0.51100000000E-03 0.  1.
         11   -1    0    0    0    0 -0.00000000000E+00 -0.00000000000E+00 -0.45593999997E+02  0.45594000000E+02  0.51100000000E-03 0. -1.
    9900012    2    1    2    0    0 -0.73047876841E+01 -0.20539052666E+02 -0.23270329541E+02  0.59301939653E+02  0.49999992021E+02 0.  0.
        -12    1    1    2    0    0  0.73047876841E+01  0.20539052666E+02  0.23270329541E+02  0.31886060347E+02  0.00000000000E+00 0.  1.
         11    1    3    3    0    0  0.51088003520E+01  0.54093831762E+01  0.38562439401E+01  0.83804465854E+01  0.51100000000E-03 0. -1.
        -11    1    3    3    0    0  0.10748119151E+02 -0.99793597438E+01 -0.65296538313E+01  0.16054471825E+02  0.51100000000E-03 0.  1.
         12    1    3    3    0    0 -0.23161707187E+02 -0.15969076098E+02 -0.20596919650E+02  0.34867021242E+02  0.00000000000E+00 0. -1.
</event>
<event>
 7    1  0.1221195E-011  0.5930191E+02  0.7816164E-02  0.1266605E+00
        -11   -1    0    0    0    0  0.00000000000E+00  0.00000000000E+00  0.45593999997E+02  0.45594000000E+02  0.51100000000E-03 0. -1.
         11   -1    0    0    0    0 -0.00000000000E+00 -0.00000000000E+00 -0.45593999997E+02  0.45594000000E+02  0.51100000000E-03 0.  1.
    9900012    2    1    2    0    0 -0.13978443602E+02  0.26887665054E+02  0.99186463875E+01  0.59301906421E+02  0.49999931414E+02 0.  0.
        -12    1    1    2    0    0  0.13978443602E+02 -0.26887665054E+02 -0.99186463875E+01  0.31886093579E+02  0.00000000000E+00 0.  1.
         11    1    3    3    0    0 -0.75378216889E+01 -0.88755024427E+01  0.13237373604E+02  0.17630126477E+02  0.51100000000E-03 0. -1.
        -11    1    3    3    0    0  0.25748483284E+01 -0.16240717836E+01  0.20927157369E+00  0.30514337491E+01  0.51100000000E-03 0.  1.
        -12    1    3    3    0    0 -0.90154702418E+01  0.37387239280E+02 -0.35279987901E+01  0.38620346194E+02  0.00000000000E+00 0.  1.
</event>
<event>
 7    1  0.1221195E-011  0.5930197E+02  0.7816164E-02  0.1266605E+00
        -11   -1    0    0    0    0  0.00000000000E+00  0.00000000000E+00  0.45593999997E+02  0.45594000000E+02  0.51100000000E-03 0. -1.
         11   -1    0    0    0    0 -0.00000000000E+00 -0.00000000000E+00 -0.45593999997E+02  0.45594000000E+02  0.51100000000E-03 0.  1.
    9900012    2    1    2    0    0  0.19108579448E+02  0.11572166554E+02  0.22752275794E+02  0.59301970127E+02  0.50000047598E+02 0.  0.
        -12    1    1    2    0    0 -0.19108579448E+02 -0.11572166554E+02 -0.22752275794E+02  0.31886029873E+02  0.00000000000E+00 0.  1.
         11    1    3    3    0    0  0.11676430776E+02  0.19442863033E+02  0.81685881785E+01  0.24105804108E+02  0.51100000000E-03 0. -1.
        -11    1    3    3    0    0  0.97233133082E+01  0.73343416502E+01  0.15593711028E+02  0.19786339050E+02  0.51100000000E-03 0.  1.
        -12    1    3    3    0    0 -0.22911646356E+01 -0.15205038130E+02 -0.10100234123E+01  0.15409826969E+02  0.00000000000E+00 0.  1.
</event>
<event>
 7    1  0.1221195E-011  0.5930202E+02  0.7816164E-02  0.1266604E+00
        -11   -1    0    0    0    0  0.00000000000E+00  0.00000000000E+00  0.45593999997E+02  0.45594000000E+02  0.51100000000E-03 0. -1.
         11   -1    0    0    0    0 -0.00000000000E+00 -0.00000000000E+00 -0.45593999997E+02  0.45594000000E+02  0.51100000000E-03 0.  1.
    9900012    2    1    2    0    0 -0.16974245945E+02 -0.11894318045E+02  0.24230470491E+02  0.59302023029E+02  0.50000144080E+02 0.  0.
        -12    1    1    2    0    0  0.16974245945E+02  0.11894318045E+02 -0.24230470491E+02  0.31885976971E+02  0.00000000000E+00 0.  1.
         11    1    3    3    0    0 -0.22725900179E+01 -0.32374317858E+01  0.89403174158E+01  0.97762419013E+01  0.51100000000E-03 0. -1.
        -11    1    3    3    0    0  0.76863741546E+01  0.42321641827E+01  0.21270667135E+02  0.23009407684E+02  0.51100000000E-03 0.  1.
        -12    1    3    3    0    0 -0.22388030081E+02 -0.12889050442E+02 -0.59805140598E+01  0.26516373444E+02  0.00000000000E+00 0.  1.
</event>
<event>
 7    1  0.1221195E-011  0.5930194E+02  0.7816164E-02  0.1266605E+00
        -11   -1    0    0    0    0  0.00000000000E+00  0.00000000000E+00  0.45593999997E+02  0.45594000000E+02  0.51100000000E-03 0. -1.
         11   -1    0    0    0    0 -0.00000000000E+00 -0.00000000000E+00 -0.45593999997E+02  0.45594000000E+02  0.51100000000E-03 0.  1.
    9900012    2    1    2    0    0 -0.20523805218E+02 -0.23126730011E+02  0.77877381880E+01  0.59301935838E+02  0.49999985064E+02 0.  0.
        -12    1    1    2    0    0  0.20523805218E+02  0.23126730011E+02 -0.77877381880E+01  0.31886064162E+02  0.00000000000E+00 0.  1.
         11    1    3    3    0    0 -0.12000284541E+02 -0.20626078546E+02  0.13901569642E+02  0.27616943785E+02  0.51100000000E-03 0. -1.
        -11    1    3    3    0    0 -0.12278883394E+02  0.82888899864E+01  0.51084150698E+01  0.15670755546E+02  0.51100000000E-03 0.  1.
         12    1    3    3    0    0  0.37553627164E+01 -0.10789541452E+02 -0.11222246524E+02  0.16014236507E+02  0.00000000000E+00 0. -1.
</event>
<event>
 7    1  0.1221195E-011  0.5930196E+02  0.7816164E-02  0.1266605E+00
        -11   -1    0    0    0    0  0.00000000000E+00  0.00000000000E+00  0.45593999997E+02  0.45594000000E+02  0.51100000000E-03 0.  1.
         11   -1    0    0    0    0 -0.00000000000E+00 -0.00000000000E+00 -0.45593999997E+02  0.45594000000E+02  0.51100000000E-03 0. -1.
    9900012    2    1    2    0    0 -0.24358087423E+02 -0.17150565216E+02 -0.11369321196E+02  0.59301956429E+02  0.50000022618E+02 0.  0.
        -12    1    1    2    0    0  0.24358087423E+02  0.17150565216E+02  0.11369321196E+02  0.31886043571E+02  0.00000000000E+00 0.  1.
         11    1    3    3    0    0  0.85417558174E+00  0.54397842319E+01 -0.72237514336E+01  0.90831411665E+01  0.51100000000E-03 0. -1.
        -11    1    3    3    0    0  0.52790405879E+01 -0.15252137937E+02  0.60571521934E+01  0.17239056649E+02  0.51100000000E-03 0.  1.
        -12    1    3    3    0    0 -0.30491303592E+02 -0.73382115106E+01 -0.10202721956E+02  0.32979758614E+02  0.00000000000E+00 0.  1.
</event>
<event>
 7    1  0.1221195E-011  0.5930197E+02  0.7816164E-02  0.1266605E+00
        -11   -1    0    0    0    0  0.00000000000E+00  0.00000000000E+00  0.45593999997E+02  0.45594000000E+02  0.51100000000E-03 0. -1.
         11   -1    0    0    0    0 -0.00000000000E+00 -0.00000000000E+00 -0.45593999997E+02  0.45594000000E+02  0.51100000000E-03 0.  1.
    9900012    2    1    2    0    0 -0.26807211477E+02 -0.72447980176E+01  0.15671795880E+02  0.59301970589E+02  0.50000048441E+02 0.  0.
        -12    1    1    2    0    0  0.26807211477E+02  0.72447980176E+01 -0.15671795880E+02  0.31886029411E+02  0.00000000000E+00 0.  1.
         11    1    3    3    0    0 -0.15619381548E+02 -0.43851123453E+01  0.26252715941E+02  0.30860968630E+02  0.51100000000E-03 0. -1.
        -11    1    3    3    0    0 -0.62604837700E+00  0.77268896549E+01  0.29298617675E+01  0.82873910579E+01  0.51100000000E-03 0.  1.
        -12    1    3    3    0    0 -0.10561781552E+02 -0.10586575327E+02 -0.13510781829E+02  0.20153610901E+02  0.00000000000E+00 0.  1.
</event>
<event>
 7    1  0.1221195E-011  0.5930195E+02  0.7816164E-02  0.1266605E+00
        -11   -1    0    0    0    0  0.00000000000E+00  0.00000000000E+00  0.45593999997E+02  0.45594000000E+02  0.51100000000E-03 0. -1.
         11   -1    0    0    0    0 -0.00000000000E+00 -0.00000000000E+00 -0.45593999997E+02  0.45594000000E+02  0.51100000000E-03 0.  1.
    9900012    2    1    2    0    0 -0.31015574782E+02  0.54771011920E+01  0.49755369040E+01  0.59301945305E+02  0.50000002329E+02 0.  0.
        -12    1    1    2    0    0  0.31015574782E+02 -0.54771011920E+01 -0.49755369040E+01  0.31886054695E+02  0.00000000000E+00 0.  1.
         11    1    3    3    0    0 -0.22636490284E+02 -0.13552810101E+02 -0.37540752989E+01  0.26649248313E+02  0.51100000000E-03 0. -1.
        -11    1    3    3    0    0 -0.16485467023E+02  0.13624808225E+02  0.37589621846E+01  0.21714875526E+02  0.51100000000E-03 0.  1.
        -12    1    3    3    0    0  0.81063825254E+01  0.54051030675E+01  0.49706500182E+01  0.10937821466E+02  0.00000000000E+00 0.  1.
</event>
<event>
 7    1  0.1221195E-011  0.5930194E+02  0.7816164E-02  0.1266605E+00
        -11   -1    0    0    0    0  0.00000000000E+00  0.00000000000E+00  0.45593999997E+02  0.45594000000E+02  0.51100000000E-03 0.  1.
         11   -1    0    0    0    0 -0.00000000000E+00 -0.00000000000E+00 -0.45593999997E+02  0.45594000000E+02  0.51100000000E-03 0. -1.
    9900012    2    1    2    0    0 -0.16102532011E+02 -0.16140010190E+02 -0.22291906654E+02  0.59301943982E+02  0.49999999917E+02 0.  0.
        -12    1    1    2    0    0  0.16102532011E+02  0.16140010190E+02  0.22291906654E+02  0.31886056018E+02  0.00000000000E+00 0.  1.
         11    1    3    3    0    0 -0.72638155111E+01 -0.10196548145E+01  0.81882379101E+01  0.10993177523E+02  0.51100000000E-03 0. -1.
        -11    1    3    3    0    0  0.34648299477E+00 -0.11651782415E+02  0.41037428085E+01  0.12358187133E+02  0.51100000000E-03 0.  1.
         12    1    3    3    0    0 -0.91851994950E+01 -0.34685729602E+01 -0.34583887372E+02  0.35950579327E+02  0.00000000000E+00 0. -1.
</event>
<event>
 7    1  0.1221195E-011  0.5930194E+02  0.7816164E-02  0.1266605E+00
        -11   -1    0    0    0    0  0.00000000000E+00  0.00000000000E+00  0.45593999997E+02  0.45594000000E+02  0.51100000000E-03 0.  1.
         11   -1    0    0    0    0 -0.00000000000E+00 -0.00000000000E+00 -0.45593999997E+02  0.45594000000E+02  0.51100000000E-03 0. -1.
    9900012    2    1    2    0    0 -0.12534726006E+02 -0.18459277205E+02 -0.22778425181E+02  0.59301938394E+02  0.49999989726E+02 0.  0.
        -12    1    1    2    0    0  0.12534726006E+02  0.18459277205E+02  0.22778425181E+02  0.31886061606E+02  0.00000000000E+00 0.  1.
         11    1    3    3    0    0  0.68304951066E+01  0.98520015348E-01 -0.10287572215E+02  0.12349069274E+02  0.51100000000E-03 0. -1.
        -11    1    3    3    0    0  0.81041734639E+01 -0.93306392662E-01  0.49941399992E+01  0.95198617746E+01  0.51100000000E-03 0.  1.
         12    1    3    3    0    0 -0.27469394577E+02 -0.18464490828E+02 -0.17484992965E+02  0.37433007346E+02  0.00000000000E+00 0. -1.
</event>
<event>
 7    1  0.1221195E-011  0.5930192E+02  0.7816164E-02  0.1266605E+00
        -11   -1    0    0    0    0  0.00000000000E+00  0.00000000000E+00  0.45593999997E+02  0.45594000000E+02  0.51100000000E-03 0.  1.
         11   -1    0    0    0    0 -0.00000000000E+00 -0.00000000000E+00 -0.45593999997E+02  0.45594000000E+02  0.51100000000E-03 0. -1.
    9900012    2    1    2    0    0  0.13249122354E+02  0.28938877925E+02 -0.19298130261E+01  0.59301920325E+02  0.49999956772E+02 0.  0.
        -12    1    1    2    0    0 -0.13249122354E+02 -0.28938877925E+02  0.19298130261E+01  0.31886079675E+02  0.00000000000E+00 0.  1.
         11    1    3    3    0    0  0.19822610174E+02  0.22492201838E+02  0.67631518194E+01  0.30733942806E+02  0.51100000000E-03 0. -1.
        -11    1    3    3    0    0  0.39629933763E+01  0.13770500986E+02 -0.37037510188E+01  0.14800330597E+02  0.51100000000E-03 0.  1.
        -12    1    3    3    0    0 -0.10536481196E+02 -0.73238248993E+01 -0.49892138267E+01  0.13767646921E+02  0.00000000000E+00 0.  1.
</event>
<event>
 7    1  0.1221195E-011  0.5930194E+02  0.7816164E-02  0.1266605E+00
        -11   -1    0    0    0    0  0.00000000000E+00  0.00000000000E+00  0.45593999997E+02  0.45594000000E+02  0.51100000000E-03 0.  1.
         11   -1    0    0    0    0 -0.00000000000E+00 -0.00000000000E+00 -0.45593999997E+02  0.45594000000E+02  0.51100000000E-03 0. -1.
    9900012    2    1    2    0    0  0.75844324310E+01 -0.30062024815E+02  0.74479591471E+01  0.59301936481E+02  0.49999986236E+02 0.  0.
        -12    1    1    2    0    0 -0.75844324310E+01  0.30062024815E+02 -0.74479591471E+01  0.31886063519E+02  0.00000000000E+00 0.  1.
         11    1    3    3    0    0  0.19959183379E+02 -0.41869882894E+01 -0.21340676098E+01  0.20504977857E+02  0.51100000000E-03 0. -1.
        -11    1    3    3    0    0 -0.10056488801E+02 -0.40684902709E+01 -0.55185449407E+01  0.12171274321E+02  0.51100000000E-03 0.  1.
        -12    1    3    3    0    0 -0.23182621475E+01 -0.21806546255E+02  0.15100571698E+02  0.26625684302E+02  0.00000000000E+00 0.  1.
</event>
<event>
 7    1  0.1221195E-011  0.5930193E+02  0.7816164E-02  0.1266605E+00
        -11   -1    0    0    0    0  0.00000000000E+00  0.00000000000E+00  0.45593999997E+02  0.45594000000E+02  0.51100000000E-03 0.  1.
         11   -1    0    0    0    0 -0.00000000000E+00 -0.00000000000E+00 -0.45593999997E+02  0.45594000000E+02  0.51100000000E-03 0. -1.
    9900012    2    1    2    0    0  0.16819007956E+02 -0.22064481081E+02 -0.15716274728E+02  0.59301927095E+02  0.49999969119E+02 0.  0.
        -12    1    1    2    0    0 -0.16819007956E+02  0.22064481081E+02  0.15716274728E+02  0.31886072905E+02  0.00000000000E+00 0.  1.
         11    1    3    3    0    0  0.11232097468E+02  0.12730438306E+02 -0.27753917305E+01  0.17202525178E+02  0.51100000000E-03 0. -1.
        -11    1    3    3    0    0  0.11147693420E+01 -0.99211991909E+01  0.49419101628E+01  0.11139810608E+02  0.51100000000E-03 0.  1.
         12    1    3    3    0    0  0.44721411460E+01 -0.24873720195E+02 -0.17882793160E+02  0.30959591309E+02  0.00000000000E+00 0. -1.
</event>
<event>
 7    1  0.1221195E-011  0.5930192E+02  0.7816164E-02  0.1266605E+00
        -11   -1    0    0    0    0  0.00000000000E+00  0.00000000000E+00  0.45593999997E+02  0.45594000000E+02  0.51100000000E-03 0.  1.
         11   -1    0    0    0    0 -0.00000000000E+00 -0.00000000000E+00 -0.45593999997E+02  0.45594000000E+02  0.51100000000E-03 0. -1.
    9900012    2    1    2    0    0 -0.12508972004E+02  0.14284962345E+02 -0.25616162263E+02  0.59301916846E+02  0.49999950428E+02 0.  0.
        -12    1    1    2    0    0  0.12508972004E+02 -0.14284962345E+02  0.25616162263E+02  0.31886083154E+02  0.00000000000E+00 0.  1.
         11    1    3    3    0    0 -0.53781460960E+00  0.16742675818E+02 -0.57343833578E+01  0.17705637262E+02  0.51100000000E-03 0. -1.
        -11    1    3    3    0    0  0.64746234451E+01  0.63741321023E+01 -0.19076078616E+02  0.21129294461E+02  0.51100000000E-03 0.  1.
        -12    1    3    3    0    0 -0.18445780840E+02 -0.88318455758E+01 -0.80570028968E+00  0.20466985123E+02  0.00000000000E+00 0.  1.
</event>
<event>
 7    1  0.1221195E-011  0.5930193E+02  0.7816164E-02  0.1266605E+00
        -11   -1    0    0    0    0  0.00000000000E+00  0.00000000000E+00  0.45593999997E+02  0.45594000000E+02  0.51100000000E-03 0.  1.
         11   -1    0    0    0    0 -0.00000000000E+00 -0.00000000000E+00 -0.45593999997E+02  0.45594000000E+02  0.51100000000E-03 0. -1.
    9900012    2    1    2    0    0  0.79863034363E+01 -0.29582740672E+01 -0.30727662869E+02  0.59301926340E+02  0.49999967742E+02 0.  0.
        -12    1    1    2    0    0 -0.79863034363E+01  0.29582740672E+01  0.30727662869E+02  0.31886073660E+02  0.00000000000E+00 0.  1.
         11    1    3    3    0    0 -0.14884160541E+01  0.13123542060E+01 -0.70618903655E+01  0.73353903582E+01  0.51100000000E-03 0. -1.
        -11    1    3    3    0    0 -0.88365586100E+01  0.95317365846E+01  0.61284090157E+01  0.14369974520E+02  0.51100000000E-03 0.  1.
         12    1    3    3    0    0  0.18311278100E+02 -0.13802364858E+02 -0.29794181519E+02  0.37596561462E+02  0.00000000000E+00 0. -1.
</event>
<event>
 7    1  0.1221195E-011  0.5930194E+02  0.7816164E-02  0.1266605E+00
        -11   -1    0    0    0    0  0.00000000000E+00  0.00000000000E+00  0.45593999997E+02  0.45594000000E+02  0.51100000000E-03 0. -1.
         11   -1    0    0    0    0 -0.00000000000E+00 -0.00000000000E+00 -0.45593999997E+02  0.45594000000E+02  0.51100000000E-03 0.  1.
    9900012    2    1    2    0    0  0.98189683434E+01 -0.28415311518E+02  0.10624432190E+02  0.59301943057E+02  0.49999998230E+02 0.  0.
        -12    1    1    2    0    0 -0.98189683434E+01  0.28415311518E+02 -0.10624432190E+02  0.31886056943E+02  0.00000000000E+00 0.  1.
         11    1    3    3    0    0  0.11248064189E+02 -0.31726294902E+01 -0.78275301269E+01  0.14066085242E+02  0.51100000000E-03 0.  1.
        -11    1    3    3    0    0 -0.12151523466E+02 -0.27641260509E+02  0.11981007697E+02  0.32484509397E+02  0.51100000000E-03 0. -1.
         12    1    3    3    0    0  0.10722427620E+02  0.23985784815E+01  0.64709546193E+01  0.12751348418E+02  0.00000000000E+00 0. -1.
</event>
<event>
 7    1  0.1221195E-011  0.5930197E+02  0.7816164E-02  0.1266605E+00
        -11   -1    0    0    0    0  0.00000000000E+00  0.00000000000E+00  0.45593999997E+02  0.45594000000E+02  0.51100000000E-03 0. -1.
         11   -1    0    0    0    0 -0.00000000000E+00 -0.00000000000E+00 -0.45593999997E+02  0.45594000000E+02  0.51100000000E-03 0.  1.
    9900012    2    1    2    0    0  0.17684033337E+02 -0.26336554476E+02 -0.32217849779E+01  0.59301968024E+02  0.50000043763E+02 0.  0.
        -12    1    1    2    0    0 -0.17684033337E+02  0.26336554476E+02  0.32217849779E+01  0.31886031976E+02  0.00000000000E+00 0.  1.
         11    1    3    3    0    0  0.10660319235E+02 -0.64867274283E+01  0.39988828550E+01  0.13103858336E+02  0.51100000000E-03 0. -1.
        -11    1    3    3    0    0  0.68564769723E+01 -0.15359498333E+02  0.15599007655E+02  0.22940237697E+02  0.51100000000E-03 0.  1.
        -12    1    3    3    0    0  0.16723712887E+00 -0.44903287148E+01 -0.22819675488E+02  0.23257871992E+02  0.00000000000E+00 0.  1.
</event>
<event>
 7    1  0.1221195E-011  0.5930199E+02  0.7816164E-02  0.1266605E+00
        -11   -1    0    0    0    0  0.00000000000E+00  0.00000000000E+00  0.45593999997E+02  0.45594000000E+02  0.51100000000E-03 0.  1.
         11   -1    0    0    0    0 -0.00000000000E+00 -0.00000000000E+00 -0.45593999997E+02  0.45594000000E+02  0.51100000000E-03 0. -1.
    9900012    2    1    2    0    0  0.18320147324E+02  0.87889204307E+01 -0.24573251693E+02  0.59301990230E+02  0.50000084261E+02 0.  0.
        -12    1    1    2    0    0 -0.18320147324E+02 -0.87889204307E+01  0.24573251693E+02  0.31886009770E+02  0.00000000000E+00 0.  1.
         11    1    3    3    0    0  0.25617246907E+02  0.90672853688E+01 -0.24526331163E+02  0.36606009393E+02  0.51100000000E-03 0. -1.
        -11    1    3    3    0    0  0.40660970466E+01 -0.73008002301E+01 -0.32379568455E+01  0.89620976332E+01  0.51100000000E-03 0.  1.
        -12    1    3    3    0    0 -0.11363196630E+02  0.70224352919E+01  0.31910363154E+01  0.13733883204E+02  0.00000000000E+00 0.  1.
</event>
<event>
 7    1  0.1221195E-011  0.5930193E+02  0.7816164E-02  0.1266605E+00
        -11   -1    0    0    0    0  0.00000000000E+00  0.00000000000E+00  0.45593999997E+02  0.45594000000E+02  0.51100000000E-03 0.  1.
         11   -1    0    0    0    0 -0.00000000000E+00 -0.00000000000E+00 -0.45593999997E+02  0.45594000000E+02  0.51100000000E-03 0. -1.
    9900012    2    1    2    0    0 -0.45288772217E+01 -0.80697215679E+00 -0.31552489448E+02  0.59301929008E+02  0.49999972607E+02 0.  0.
        -12    1    1    2    0    0  0.45288772217E+01  0.80697215679E+00  0.31552489448E+02  0.31886070992E+02  0.00000000000E+00 0.  1.
         11    1    3    3    0    0 -0.20230293845E+02 -0.39164212746E-01 -0.21665429245E+02  0.29642151533E+02  0.51100000000E-03 0. -1.
        -11    1    3    3    0    0  0.38125342566E+01  0.77228958211E+01  0.40062600718E+01  0.94988766360E+01  0.51100000000E-03 0.  1.
        -12    1    3    3    0    0  0.11888882366E+02 -0.84907037652E+01 -0.13893320275E+02  0.20160900839E+02  0.00000000000E+00 0.  1.
</event>
<event>
 7    1  0.1221195E-011  0.5930194E+02  0.7816164E-02  0.1266605E+00
        -11   -1    0    0    0    0  0.00000000000E+00  0.00000000000E+00  0.45593999997E+02  0.45594000000E+02  0.51100000000E-03 0. -1.
         11   -1    0    0    0    0 -0.00000000000E+00 -0.00000000000E+00 -0.45593999997E+02  0.45594000000E+02  0.51100000000E-03 0.  1.
    9900012    2    1    2    0    0 -0.22213520890E+02  0.18948601365E+02 -0.12815259183E+02  0.59301939222E+02  0.49999991236E+02 0.  0.
        -12    1    1    2    0    0  0.22213520890E+02 -0.18948601365E+02  0.12815259183E+02  0.31886060778E+02  0.00000000000E+00 0.  1.
         11    1    3    3    0    0 -0.39044335862E+01  0.51900859009E+00 -0.75606074478E+01  0.85250663801E+01  0.51100000000E-03 0. -1.
        -11    1    3    3    0    0  0.14024905762E+02  0.32196784971E+01 -0.43493441944E+01  0.15032667975E+02  0.51100000000E-03 0.  1.
         12    1    3    3    0    0 -0.32333993065E+02  0.15209914277E+02 -0.90530754051E+00  0.35744204868E+02  0.00000000000E+00 0. -1.
</event>
<event>
 7    1  0.1221195E-011  0.5930196E+02  0.7816164E-02  0.1266605E+00
        -11   -1    0    0    0    0  0.00000000000E+00  0.00000000000E+00  0.45593999997E+02  0.45594000000E+02  0.51100000000E-03 0. -1.
         11   -1    0    0    0    0 -0.00000000000E+00 -0.00000000000E+00 -0.45593999997E+02  0.45594000000E+02  0.51100000000E-03 0.  1.
    9900012    2    1    2    0    0 -0.99223823064E+01  0.10422646186E+02  0.28454078127E+02  0.59301956247E+02  0.50000022286E+02 0.  0.
        -12    1    1    2    0    0  0.99223823064E+01 -0.10422646186E+02 -0.28454078127E+02  0.31886043753E+02  0.00000000000E+00 0.  1.
         11    1    3    3    0    0 -0.28813962327E+01 -0.85288220971E+01  0.31937786478E+02  0.33182306369E+02  0.51100000000E-03 0. -1.
        -11    1    3    3    0    0 -0.58393847564E+01 -0.85862692171E+00 -0.19415753226E+01  0.62133219391E+01  0.51100000000E-03 0.  1.
        -12    1    3    3    0    0 -0.12016013173E+01  0.19810095205E+02 -0.15421330283E+01  0.19906327939E+02  0.00000000000E+00 0.  1.
</event>
<event>
 7    1  0.1221195E-011  0.5930195E+02  0.7816164E-02  0.1266605E+00
        -11   -1    0    0    0    0  0.00000000000E+00  0.00000000000E+00  0.45593999997E+02  0.45594000000E+02  0.51100000000E-03 0. -1.
         11   -1    0    0    0    0 -0.00000000000E+00 -0.00000000000E+00 -0.45593999997E+02  0.45594000000E+02  0.51100000000E-03 0.  1.
    9900012    2    1    2    0    0  0.14023545737E+02  0.28634719627E+02 -0.33633157541E+00  0.59301950981E+02  0.50000012681E+02 0.  0.
        -12    1    1    2    0    0 -0.14023545737E+02 -0.28634719627E+02  0.33633157541E+00  0.31886049019E+02  0.00000000000E+00 0.  1.
         11    1    3    3    0    0  0.17215387715E+02  0.10402080000E+02  0.10011085862E+02  0.22467636344E+02  0.51100000000E-03 0. -1.
        -11    1    3    3    0    0 -0.81832088343E+01  0.14995716334E+02  0.70252027312E+01  0.18471326126E+02  0.51100000000E-03 0.  1.
        -12    1    3    3    0    0  0.49913668564E+01  0.32369232930E+01 -0.17372620169E+02  0.18362988510E+02  0.00000000000E+00 0.  1.
</event>
<event>
 7    1  0.1221195E-011  0.5930196E+02  0.7816164E-02  0.1266605E+00
        -11   -1    0    0    0    0  0.00000000000E+00  0.00000000000E+00  0.45593999997E+02  0.45594000000E+02  0.51100000000E-03 0. -1.
         11   -1    0    0    0    0 -0.00000000000E+00 -0.00000000000E+00 -0.45593999997E+02  0.45594000000E+02  0.51100000000E-03 0.  1.
    9900012    2    1    2    0    0  0.16750694901E+01 -0.17623925533E+02  0.26520011988E+02  0.59301958464E+02  0.50000026329E+02 0.  0.
        -12    1    1    2    0    0 -0.16750694901E+01  0.17623925533E+02 -0.26520011988E+02  0.31886041536E+02  0.00000000000E+00 0.  1.
         11    1    3    3    0    0 -0.87717037023E+01  0.11940434366E+02  0.15792779360E+01  0.14900029454E+02  0.51100000000E-03 0. -1.
        -11    1    3    3    0    0  0.13002629972E+02 -0.96708283652E+01  0.14713495437E+02  0.21887902039E+02  0.51100000000E-03 0.  1.
        -12    1    3    3    0    0 -0.25558567796E+01 -0.19893531533E+02  0.10227238615E+02  0.22514026971E+02  0.00000000000E+00 0.  1.
</event>
<event>
 7    1  0.1221195E-011  0.5930196E+02  0.7816164E-02  0.1266605E+00
        -11   -1    0    0    0    0  0.00000000000E+00  0.00000000000E+00  0.45593999997E+02  0.45594000000E+02  0.51100000000E-03 0. -1.
         11   -1    0    0    0    0 -0.00000000000E+00 -0.00000000000E+00 -0.45593999997E+02  0.45594000000E+02  0.51100000000E-03 0.  1.
    9900012    2    1    2    0    0 -0.83932642563E+01 -0.48426984957E+01  0.30377972306E+02  0.59301955795E+02  0.50000021461E+02 0.  0.
        -12    1    1    2    0    0  0.83932642563E+01  0.48426984957E+01 -0.30377972306E+02  0.31886044205E+02  0.00000000000E+00 0.  1.
         11    1    3    3    0    0 -0.13070534956E+02  0.58014936269E+01  0.31595734514E+02  0.34681214686E+02  0.51100000000E-03 0. -1.
        -11    1    3    3    0    0  0.77529269245E+01 -0.13963422080E+02  0.51746639055E+01  0.16788751558E+02  0.51100000000E-03 0.  1.
        -12    1    3    3    0    0 -0.30756562249E+01  0.33192299570E+01 -0.63924261135E+01  0.78319895517E+01  0.00000000000E+00 0.  1.
</event>
<event>
 7    1  0.1221195E-011  0.5930194E+02  0.7816164E-02  0.1266605E+00
        -11   -1    0    0    0    0  0.00000000000E+00  0.00000000000E+00  0.45593999997E+02  0.45594000000E+02  0.51100000000E-03 0. -1.
         11   -1    0    0    0    0 -0.00000000000E+00 -0.00000000000E+00 -0.45593999997E+02  0.45594000000E+02  0.51100000000E-03 0.  1.
    9900012    2    1    2    0    0 -0.21777443347E+02  0.19203120682E+02  0.13179680420E+02  0.59301939430E+02  0.49999991615E+02 0.  0.
        -12    1    1    2    0    0  0.21777443347E+02 -0.19203120682E+02 -0.13179680420E+02  0.31886060570E+02  0.00000000000E+00 0.  1.
         11    1    3    3    0    0 -0.12372969001E+02  0.17713898307E+02  0.20651784788E+02  0.29889275172E+02  0.51100000000E-03 0. -1.
        -11    1    3    3    0    0 -0.64832985860E+01 -0.62630289532E+01  0.78767120312E+01  0.11970851470E+02  0.51100000000E-03 0.  1.
         12    1    3    3    0    0 -0.29211757608E+01  0.77522513287E+01 -0.15348816400E+02  0.17441812789E+02  0.00000000000E+00 0. -1.
</event>
<event>
 7    1  0.1221195E-011  0.5930195E+02  0.7816164E-02  0.1266605E+00
        -11   -1    0    0    0    0  0.00000000000E+00  0.00000000000E+00  0.45593999997E+02  0.45594000000E+02  0.51100000000E-03 0.  1.
         11   -1    0    0    0    0 -0.00000000000E+00 -0.00000000000E+00 -0.45593999997E+02  0.45594000000E+02  0.51100000000E-03 0. -1.
    9900012    2    1    2    0    0 -0.24102172824E+02  0.74216395129E+01 -0.19512167830E+02  0.59301950365E+02  0.50000011557E+02 0.  0.
        -12    1    1    2    0    0  0.24102172824E+02 -0.74216395129E+01  0.19512167830E+02  0.31886049635E+02  0.00000000000E+00 0.  1.
         11    1    3    3    0    0 -0.59931509673E+01 -0.23188029626E+01 -0.23146762596E+01  0.68302585709E+01  0.51100000000E-03 0. -1.
        -11    1    3    3    0    0  0.29244431703E+01 -0.13442935603E+02  0.43968233766E+01  0.14442885499E+02  0.51100000000E-03 0.  1.
        -12    1    3    3    0    0 -0.21033465027E+02  0.23183378078E+02 -0.21594314947E+02  0.38028806295E+02  0.00000000000E+00 0.  1.
</event>
<event>
 7    1  0.1221195E-011  0.5930191E+02  0.7816164E-02  0.1266605E+00
        -11   -1    0    0    0    0  0.00000000000E+00  0.00000000000E+00  0.45593999997E+02  0.45594000000E+02  0.51100000000E-03 0. -1.
         11   -1    0    0    0    0 -0.00000000000E+00 -0.00000000000E+00 -0.45593999997E+02  0.45594000000E+02  0.51100000000E-03 0.  1.
    9900012    2    1    2    0    0 -0.20944143182E+02  0.22924325756E+02 -0.72485033076E+01  0.59301911416E+02  0.49999940524E+02 0.  0.
        -12    1    1    2    0    0  0.20944143182E+02 -0.22924325756E+02  0.72485033076E+01  0.31886088584E+02  0.00000000000E+00 0.  1.
         11    1    3    3    0    0 -0.17338478130E+01 -0.52180878490E+01  0.88190095086E+01  0.10392766620E+02  0.51100000000E-03 0. -1.
        -11    1    3    3    0    0  0.46605720883E+01  0.20646307876E+02 -0.68934679267E+01  0.22260073257E+02  0.51100000000E-03 0.  1.
         12    1    3    3    0    0 -0.23870867457E+02  0.74961057294E+01 -0.91740448896E+01  0.26649071539E+02  0.00000000000E+00 0. -1.
</event>
<event>
 7    1  0.1221195E-011  0.5930195E+02  0.7816164E-02  0.1266605E+00
        -11   -1    0    0    0    0  0.00000000000E+00  0.00000000000E+00  0.45593999997E+02  0.45594000000E+02  0.51100000000E-03 0.  1.
         11   -1    0    0    0    0 -0.00000000000E+00 -0.00000000000E+00 -0.45593999997E+02  0.45594000000E+02  0.51100000000E-03 0. -1.
    9900012    2    1    2    0    0  0.94855623034E+01 -0.12977153291E+02 -0.27537934530E+02  0.59301949164E+02  0.50000009367E+02 0.  0.
        -12    1    1    2    0    0 -0.94855623034E+01  0.12977153291E+02  0.27537934530E+02  0.31886050836E+02  0.00000000000E+00 0.  1.
         11    1    3    3    0    0  0.22912996797E+01  0.98731138694E+01 -0.14931713808E+01  0.10244900816E+02  0.51100000000E-03 0. -1.
        -11    1    3    3    0    0 -0.93428603506E+01  0.38989081489E+01 -0.62562180853E+01  0.11900873467E+02  0.51100000000E-03 0.  1.
         12    1    3    3    0    0  0.16537122974E+02 -0.26749175309E+02 -0.19788545064E+02  0.37156174880E+02  0.00000000000E+00 0. -1.
</event>
<event>
 7    1  0.1221195E-011  0.5930197E+02  0.7816164E-02  0.1266605E+00
        -11   -1    0    0    0    0  0.00000000000E+00  0.00000000000E+00  0.45593999997E+02  0.45594000000E+02  0.51100000000E-03 0. -1.
         11   -1    0    0    0    0 -0.00000000000E+00 -0.00000000000E+00 -0.45593999997E+02  0.45594000000E+02  0.51100000000E-03 0.  1.
    9900012    2    1    2    0    0  0.16614313604E+02 -0.23678294331E+02  0.13417222502E+02  0.59301970166E+02  0.50000047669E+02 0.  0.
        -12    1    1    2    0    0 -0.16614313604E+02  0.23678294331E+02 -0.13417222502E+02  0.31886029834E+02  0.00000000000E+00 0.  1.
         11    1    3    3    0    0  0.14890588633E+02 -0.92178619770E+01  0.16782159976E+02  0.24255710730E+02  0.51100000000E-03 0. -1.
        -11    1    3    3    0    0 -0.38025472502E+01 -0.22182928234E+02 -0.87288831581E+01  0.24139906215E+02  0.51100000000E-03 0.  1.
         12    1    3    3    0    0  0.55262722206E+01  0.77224958803E+01  0.53639456841E+01  0.10906353221E+02  0.00000000000E+00 0. -1.
</event>
<event>
 7    1  0.1221195E-011  0.5930197E+02  0.7816164E-02  0.1266605E+00
        -11   -1    0    0    0    0  0.00000000000E+00  0.00000000000E+00  0.45593999997E+02  0.45594000000E+02  0.51100000000E-03 0.  1.
         11   -1    0    0    0    0 -0.00000000000E+00 -0.00000000000E+00 -0.45593999997E+02  0.45594000000E+02  0.51100000000E-03 0. -1.
    9900012    2    1    2    0    0 -0.21490934917E+01  0.19897881257E+02 -0.24822867151E+02  0.59301968341E+02  0.50000044342E+02 0.  0.
        -12    1    1    2    0    0  0.21490934917E+01 -0.19897881257E+02  0.24822867151E+02  0.31886031659E+02  0.00000000000E+00 0.  1.
         11    1    3    3    0    0  0.99692252980E+01  0.53998678289E+01 -0.51671555487E+01  0.12459675852E+02  0.51100000000E-03 0. -1.
        -11    1    3    3    0    0  0.78409576417E+01  0.19848970410E+02 -0.63551087158E+01  0.22267681741E+02  0.51100000000E-03 0.  1.
        -12    1    3    3    0    0 -0.19959276431E+02 -0.53509569821E+01 -0.13300602887E+02  0.24574610748E+02  0.00000000000E+00 0.  1.
</event>
<event>
 7    1  0.1221195E-011  0.5930184E+02  0.7816164E-02  0.1266605E+00
        -11   -1    0    0    0    0  0.00000000000E+00  0.00000000000E+00  0.45593999997E+02  0.45594000000E+02  0.51100000000E-03 0.  1.
         11   -1    0    0    0    0 -0.00000000000E+00 -0.00000000000E+00 -0.45593999997E+02  0.45594000000E+02  0.51100000000E-03 0. -1.
    9900012    2    1    2    0    0  0.20444840531E+02 -0.24340380277E+02 -0.25063631641E+01  0.59301835717E+02  0.49999802467E+02 0.  0.
        -12    1    1    2    0    0 -0.20444840531E+02  0.24340380277E+02  0.25063631641E+01  0.31886164283E+02  0.00000000000E+00 0.  1.
         11    1    3    3    0    0  0.30527762242E+00  0.72486641491E+00  0.15121334940E+02  0.15141776527E+02  0.51100000000E-03 0. -1.
        -11    1    3    3    0    0  0.17858416453E+02 -0.83918426985E+01  0.78895945380E-01  0.19732011730E+02  0.51100000000E-03 0.  1.
         12    1    3    3    0    0  0.22811464552E+01 -0.16673403994E+02 -0.17706594050E+02  0.24428047460E+02  0.00000000000E+00 0. -1.
</event>
<event>
 7    1  0.1221195E-011  0.5930195E+02  0.7816164E-02  0.1266605E+00
        -11   -1    0    0    0    0  0.00000000000E+00  0.00000000000E+00  0.45593999997E+02  0.45594000000E+02  0.51100000000E-03 0.  1.
         11   -1    0    0    0    0 -0.00000000000E+00 -0.00000000000E+00 -0.45593999997E+02  0.45594000000E+02  0.51100000000E-03 0. -1.
    9900012    2    1    2    0    0  0.18639811508E+02 -0.14200927371E+02 -0.21624326534E+02  0.59301946476E+02  0.50000004466E+02 0.  0.
        -12    1    1    2    0    0 -0.18639811508E+02  0.14200927371E+02  0.21624326534E+02  0.31886053524E+02  0.00000000000E+00 0.  1.
         11    1    3    3    0    0  0.28038148919E+02 -0.95288333361E+01 -0.27755684848E+02  0.40587122357E+02  0.51100000000E-03 0. -1.
        -11    1    3    3    0    0 -0.68206526415E+01 -0.89727424122E+01  0.65501104979E+00  0.11289838289E+02  0.51100000000E-03 0.  1.
        -12    1    3    3    0    0 -0.25776847690E+01  0.43006483771E+01  0.54763472644E+01  0.74249858311E+01  0.00000000000E+00 0.  1.
</event>
<event>
 7    1  0.1221195E-011  0.5930194E+02  0.7816164E-02  0.1266605E+00
        -11   -1    0    0    0    0  0.00000000000E+00  0.00000000000E+00  0.45593999997E+02  0.45594000000E+02  0.51100000000E-03 0. -1.
         11   -1    0    0    0    0 -0.00000000000E+00 -0.00000000000E+00 -0.45593999997E+02  0.45594000000E+02  0.51100000000E-03 0.  1.
    9900012    2    1    2    0    0  0.29902119408E+02 -0.77346902525E+01  0.79220219471E+01  0.59301943328E+02  0.49999998723E+02 0.  0.
        -12    1    1    2    0    0 -0.29902119408E+02  0.77346902525E+01 -0.79220219471E+01  0.31886056672E+02  0.00000000000E+00 0.  1.
         11    1    3    3    0    0  0.50203721812E+01 -0.11197747630E+02  0.10391064002E+02  0.16080046647E+02  0.51100000000E-03 0. -1.
        -11    1    3    3    0    0 -0.51579948043E+01  0.28106340285E+01 -0.10578490811E+02  0.12099960419E+02  0.51100000000E-03 0.  1.
         12    1    3    3    0    0  0.30039742031E+02  0.65242334868E+00  0.81094487562E+01  0.31121936261E+02  0.00000000000E+00 0. -1.
</event>
<event>
 7    1  0.1221195E-011  0.5930192E+02  0.7816164E-02  0.1266605E+00
        -11   -1    0    0    0    0  0.00000000000E+00  0.00000000000E+00  0.45593999997E+02  0.45594000000E+02  0.51100000000E-03 0.  1.
         11   -1    0    0    0    0 -0.00000000000E+00 -0.00000000000E+00 -0.45593999997E+02  0.45594000000E+02  0.51100000000E-03 0. -1.
    9900012    2    1    2    0    0 -0.19576632188E+02  0.23564988719E+02 -0.88413048999E+01  0.59301923204E+02  0.49999962022E+02 0.  0.
        -12    1    1    2    0    0  0.19576632188E+02 -0.23564988719E+02  0.88413048999E+01  0.31886076796E+02  0.00000000000E+00 0.  1.
         11    1    3    3    0    0 -0.50363234361E+01  0.84339817171E+01 -0.40591401941E+01  0.10628886147E+02  0.51100000000E-03 0. -1.
        -11    1    3    3    0    0  0.14047880754E+02  0.91768506099E+01 -0.92044485197E+01  0.19138427668E+02  0.51100000000E-03 0.  1.
         12    1    3    3    0    0 -0.28588189506E+02  0.59541563916E+01  0.44222838139E+01  0.29534609388E+02  0.00000000000E+00 0. -1.
</event>
<event>
 7    1  0.1221195E-011  0.5930192E+02  0.7816164E-02  0.1266605E+00
        -11   -1    0    0    0    0  0.00000000000E+00  0.00000000000E+00  0.45593999997E+02  0.45594000000E+02  0.51100000000E-03 0.  1.
         11   -1    0    0    0    0 -0.00000000000E+00 -0.00000000000E+00 -0.45593999997E+02  0.45594000000E+02  0.51100000000E-03 0. -1.
    9900012    2    1    2    0    0 -0.12734080686E+02 -0.18399238731E+02 -0.22716365253E+02  0.59301920794E+02  0.49999957627E+02 0.  0.
        -12    1    1    2    0    0  0.12734080686E+02  0.18399238731E+02  0.22716365253E+02  0.31886079206E+02  0.00000000000E+00 0.  1.
         11    1    3    3    0    0 -0.64651607156E+01 -0.29185385693E+00 -0.12729767929E+02  0.14280422736E+02  0.51100000000E-03 0. -1.
        -11    1    3    3    0    0 -0.98144734756E+01  0.10158966738E+02 -0.85197749353E+01  0.16495910402E+02  0.51100000000E-03 0.  1.
        -12    1    3    3    0    0  0.35455535056E+01 -0.28266351613E+02 -0.14668223896E+01  0.28525587655E+02  0.00000000000E+00 0.  1.
</event>
<event>
 7    1  0.1221195E-011  0.5930198E+02  0.7816164E-02  0.1266605E+00
        -11   -1    0    0    0    0  0.00000000000E+00  0.00000000000E+00  0.45593999997E+02  0.45594000000E+02  0.51100000000E-03 0. -1.
         11   -1    0    0    0    0 -0.00000000000E+00 -0.00000000000E+00 -0.45593999997E+02  0.45594000000E+02  0.51100000000E-03 0.  1.
    9900012    2    1    2    0    0 -0.13605252935E+02  0.28288428569E+02  0.56018142076E+01  0.59301977659E+02  0.50000061336E+02 0.  0.
        -12    1    1    2    0    0  0.13605252935E+02 -0.28288428569E+02 -0.56018142076E+01  0.31886022341E+02  0.00000000000E+00 0.  1.
         11    1    3    3    0    0 -0.12827621833E+02  0.15884173135E+01  0.12236074872E+02  0.17798665119E+02  0.51100000000E-03 0. -1.
        -11    1    3    3    0    0  0.98981428975E+01 -0.11754869900E+01 -0.60251654412E+01  0.11647215175E+02  0.51100000000E-03 0.  1.
         12    1    3    3    0    0 -0.10675773999E+02  0.27875498245E+02 -0.60909522348E+00  0.29856097365E+02  0.00000000000E+00 0. -1.
</event>
<event>
 7    1  0.1221195E-011  0.5930195E+02  0.7816164E-02  0.1266605E+00
        -11   -1    0    0    0    0  0.00000000000E+00  0.00000000000E+00  0.45593999997E+02  0.45594000000E+02  0.51100000000E-03 0. -1.
         11   -1    0    0    0    0 -0.00000000000E+00 -0.00000000000E+00 -0.45593999997E+02  0.45594000000E+02  0.51100000000E-03 0.  1.
    9900012    2    1    2    0    0 -0.16114623596E+02  0.13840849467E+02  0.23779618851E+02  0.59301945363E+02  0.50000002436E+02 0.  0.
        -12    1    1    2    0    0  0.16114623596E+02 -0.13840849467E+02 -0.23779618851E+02  0.31886054637E+02  0.00000000000E+00 0.  1.
         11    1    3    3    0    0  0.29124194608E+01  0.13203891560E+02 -0.44244836624E+01  0.14226770378E+02  0.51100000000E-03 0.  1.
        -11    1    3    3    0    0 -0.24658681254E+01  0.11056724409E+02  0.21659766492E+02  0.24443345619E+02  0.51100000000E-03 0. -1.
        -12    1    3    3    0    0 -0.16561174931E+02 -0.10419766503E+02  0.65443360212E+01  0.20631829367E+02  0.00000000000E+00 0.  1.
</event>
<event>
 7    1  0.1221195E-011  0.5930195E+02  0.7816164E-02  0.1266605E+00
        -11   -1    0    0    0    0  0.00000000000E+00  0.00000000000E+00  0.45593999997E+02  0.45594000000E+02  0.51100000000E-03 0. -1.
         11   -1    0    0    0    0 -0.00000000000E+00 -0.00000000000E+00 -0.45593999997E+02  0.45594000000E+02  0.51100000000E-03 0.  1.
    9900012    2    1    2    0    0 -0.60946890867E+01 -0.95717761435E+01  0.29798587314E+02  0.59301953844E+02  0.50000017902E+02 0.  0.
        -12    1    1    2    0    0  0.60946890867E+01  0.95717761435E+01 -0.29798587314E+02  0.31886046156E+02  0.00000000000E+00 0.  1.
         11    1    3    3    0    0  0.77152427380E+01  0.98082503881E+01  0.76785690719E+01  0.14652206982E+02  0.51100000000E-03 0. -1.
        -11    1    3    3    0    0 -0.19501241448E+02 -0.47493325033E+01  0.36344451313E+01  0.20397641258E+02  0.51100000000E-03 0.  1.
         12    1    3    3    0    0  0.56913096232E+01 -0.14630694028E+02  0.18485573110E+02  0.24252105603E+02  0.00000000000E+00 0. -1.
</event>
<event>
 7    1  0.1221195E-011  0.5930195E+02  0.7816164E-02  0.1266605E+00
        -11   -1    0    0    0    0  0.00000000000E+00  0.00000000000E+00  0.45593999997E+02  0.45594000000E+02  0.51100000000E-03 0. -1.
         11   -1    0    0    0    0 -0.00000000000E+00 -0.00000000000E+00 -0.45593999997E+02  0.45594000000E+02  0.51100000000E-03 0.  1.
    9900012    2    1    2    0    0 -0.19078742660E+02 -0.25131034274E+02  0.45992191937E+01  0.59301950976E+02  0.50000012672E+02 0.  0.
        -12    1    1    2    0    0  0.19078742660E+02  0.25131034274E+02 -0.45992191937E+01  0.31886049024E+02  0.00000000000E+00 0.  1.
         11    1    3    3    0    0 -0.31094002810E+01  0.11147081653E+02  0.73432291478E+01  0.13705794908E+02  0.51100000000E-03 0. -1.
        -11    1    3    3    0    0  0.14328242955E+01 -0.10490619774E+02 -0.89610371230E+01  0.13871058910E+02  0.51100000000E-03 0.  1.
        -12    1    3    3    0    0 -0.17402166674E+02 -0.25787496154E+02  0.62170271689E+01  0.31725097158E+02  0.00000000000E+00 0.  1.
</event>
<event>
 7    1  0.1221195E-011  0.5930196E+02  0.7816164E-02  0.1266605E+00
        -11   -1    0    0    0    0  0.00000000000E+00  0.00000000000E+00  0.45593999997E+02  0.45594000000E+02  0.51100000000E-03 0.  1.
         11   -1    0    0    0    0 -0.00000000000E+00 -0.00000000000E+00 -0.45593999997E+02  0.45594000000E+02  0.51100000000E-03 0. -1.
    9900012    2    1    2    0    0 -0.12330640060E+02  0.21933350611E+02 -0.19585793152E+02  0.59301955299E+02  0.50000020556E+02 0.  0.
        -12    1    1    2    0    0  0.12330640060E+02 -0.21933350611E+02  0.19585793152E+02  0.31886044701E+02  0.00000000000E+00 0.  1.
         11    1    3    3    0    0  0.51459798124E+01  0.17238888714E+02 -0.29228508208E+01  0.18226449174E+02  0.51100000000E-03 0. -1.
        -11    1    3    3    0    0  0.20122493318E+01 -0.47775481633E+01 -0.18610857610E+02  0.19319372015E+02  0.51100000000E-03 0.  1.
         12    1    3    3    0    0 -0.19488869204E+02  0.94720100605E+01  0.19479152793E+01  0.21756134109E+02  0.00000000000E+00 0. -1.
</event>
<event>
 7    1  0.1221195E-011  0.5930194E+02  0.7816164E-02  0.1266605E+00
        -11   -1    0    0    0    0  0.00000000000E+00  0.00000000000E+00  0.45593999997E+02  0.45594000000E+02  0.51100000000E-03 0. -1.
         11   -1    0    0    0    0 -0.00000000000E+00 -0.00000000000E+00 -0.45593999997E+02  0.45594000000E+02  0.51100000000E-03 0.  1.
    9900012    2    1    2    0    0 -0.22455235789E+02 -0.19454887745E+01 -0.22554343236E+02  0.59301938159E+02  0.49999989296E+02 0.  0.
        -12    1    1    2    0    0  0.22455235789E+02  0.19454887745E+01  0.22554343236E+02  0.31886061841E+02  0.00000000000E+00 0.  1.
         11    1    3    3    0    0 -0.21199491526E+02 -0.32807507150E+00 -0.15107341708E+02  0.26033782821E+02  0.51100000000E-03 0. -1.
        -11    1    3    3    0    0 -0.58739548128E+01  0.43162506689E+00 -0.19408982928E+02  0.20282955009E+02  0.51100000000E-03 0.  1.
         12    1    3    3    0    0  0.46182105503E+01 -0.20490387699E+01  0.11961981400E+02  0.12985200329E+02  0.00000000000E+00 0. -1.
</event>
<event>
 7    1  0.1221195E-011  0.5930197E+02  0.7816164E-02  0.1266605E+00
        -11   -1    0    0    0    0  0.00000000000E+00  0.00000000000E+00  0.45593999997E+02  0.45594000000E+02  0.51100000000E-03 0. -1.
         11   -1    0    0    0    0 -0.00000000000E+00 -0.00000000000E+00 -0.45593999997E+02  0.45594000000E+02  0.51100000000E-03 0.  1.
    9900012    2    1    2    0    0 -0.25569722074E+02 -0.15505680299E+02  0.11067163854E+02  0.59301969763E+02  0.50000046935E+02 0.  0.
        -12    1    1    2    0    0  0.25569722074E+02  0.15505680299E+02 -0.11067163854E+02  0.31886030237E+02  0.00000000000E+00 0.  1.
         11    1    3    3    0    0 -0.10407763166E+02 -0.55858016012E+01  0.14448524022E+01  0.11900013125E+02  0.51100000000E-03 0. -1.
        -11    1    3    3    0    0 -0.70222338116E+01 -0.19452502379E+02 -0.10882161660E+02  0.23369489921E+02  0.51100000000E-03 0.  1.
        -12    1    3    3    0    0 -0.81397250963E+01  0.95326236814E+01  0.20504473112E+02  0.24032466717E+02  0.00000000000E+00 0.  1.
</event>
<event>
 7    1  0.1221195E-011  0.5930194E+02  0.7816164E-02  0.1266605E+00
        -11   -1    0    0    0    0  0.00000000000E+00  0.00000000000E+00  0.45593999997E+02  0.45594000000E+02  0.51100000000E-03 0. -1.
         11   -1    0    0    0    0 -0.00000000000E+00 -0.00000000000E+00 -0.45593999997E+02  0.45594000000E+02  0.51100000000E-03 0.  1.
    9900012    2    1    2    0    0 -0.23126291097E+02  0.55478947653E+01  0.21239501013E+02  0.59301939104E+02  0.49999991019E+02 0.  0.
        -12    1    1    2    0    0  0.23126291097E+02 -0.55478947653E+01 -0.21239501013E+02  0.31886060896E+02  0.00000000000E+00 0.  1.
         11    1    3    3    0    0 -0.13149474945E+00 -0.11584253721E+02  0.16119339056E+02  0.19850574728E+02  0.51100000000E-03 0. -1.
        -11    1    3    3    0    0 -0.27885569818E+02  0.89715314118E+01  0.59842935029E+01  0.29898246586E+02  0.51100000000E-03 0.  1.
         12    1    3    3    0    0  0.48907734701E+01  0.81606170749E+01 -0.86413154632E+00  0.95531177899E+01  0.00000000000E+00 0. -1.
</event>
<event>
 7    1  0.1221195E-011  0.5930193E+02  0.7816164E-02  0.1266605E+00
        -11   -1    0    0    0    0  0.00000000000E+00  0.00000000000E+00  0.45593999997E+02  0.45594000000E+02  0.51100000000E-03 0.  1.
         11   -1    0    0    0    0 -0.00000000000E+00 -0.00000000000E+00 -0.45593999997E+02  0.45594000000E+02  0.51100000000E-03 0. -1.
    9900012    2    1    2    0    0 -0.27092435788E+02  0.16522893267E+02 -0.31169109674E+01  0.59301933877E+02  0.49999981488E+02 0.  0.
        -12    1    1    2    0    0  0.27092435788E+02 -0.16522893267E+02  0.31169109674E+01  0.31886066123E+02  0.00000000000E+00 0.  1.
         11    1    3    3    0    0 -0.73904819150E+01  0.55433738340E+01  0.57845660422E+01  0.10899973438E+02  0.51100000000E-03 0.  1.
        -11    1    3    3    0    0  0.31384567549E+01  0.14769034454E+02 -0.18027878097E+02  0.23515498686E+02  0.51100000000E-03 0. -1.
         12    1    3    3    0    0 -0.22840410627E+02 -0.37895150214E+01  0.91264010878E+01  0.24886461752E+02  0.00000000000E+00 0. -1.
</event>
<event>
 7    1  0.1221195E-011  0.5930196E+02  0.7816164E-02  0.1266605E+00
        -11   -1    0    0    0    0  0.00000000000E+00  0.00000000000E+00  0.45593999997E+02  0.45594000000E+02  0.51100000000E-03 0.  1.
         11   -1    0    0    0    0 -0.00000000000E+00 -0.00000000000E+00 -0.45593999997E+02  0.45594000000E+02  0.51100000000E-03 0. -1.
    9900012    2    1    2    0    0  0.19164593117E+02  0.23166564342E+02 -0.10618306775E+02  0.59301956477E+02  0.50000022705E+02 0.  0.
        -12    1    1    2    0    0 -0.19164593117E+02 -0.23166564342E+02  0.10618306775E+02  0.31886043523E+02  0.00000000000E+00 0.  1.
         11    1    3    3    0    0  0.64114347131E+01  0.23029563344E+02 -0.49811583673E+01  0.24418829248E+02  0.51100000000E-03 0.  1.
        -11    1    3    3    0    0  0.12668122631E+02  0.14089939846E+02 -0.82871104698E+01  0.20680520691E+02  0.51100000000E-03 0. -1.
        -12    1    3    3    0    0  0.85035773013E-01 -0.13952938848E+02  0.26499620616E+01  0.14202606539E+02  0.00000000000E+00 0.  1.
</event>
<event>
 7    1  0.1221195E-011  0.5930195E+02  0.7816164E-02  0.1266605E+00
        -11   -1    0    0    0    0  0.00000000000E+00  0.00000000000E+00  0.45593999997E+02  0.45594000000E+02  0.51100000000E-03 0. -1.
         11   -1    0    0    0    0 -0.00000000000E+00 -0.00000000000E+00 -0.45593999997E+02  0.45594000000E+02  0.51100000000E-03 0.  1.
    9900012    2    1    2    0    0 -0.29735054552E+02  0.96925480307E+01 -0.62130080647E+01  0.59301946218E+02  0.50000003995E+02 0.  0.
        -12    1    1    2    0    0  0.29735054552E+02 -0.96925480307E+01  0.62130080647E+01  0.31886053782E+02  0.00000000000E+00 0.  1.
         11    1    3    3    0    0  0.73704177026E+00 -0.88627726760E+01 -0.70728277411E+00  0.89214471506E+01  0.51100000000E-03 0. -1.
        -11    1    3    3    0    0 -0.90916815116E+01 -0.14170400956E+01 -0.16689589324E+02  0.19058044690E+02  0.51100000000E-03 0.  1.
         12    1    3    3    0    0 -0.21380414811E+02  0.19972360802E+02  0.11183864034E+02  0.31322454377E+02  0.00000000000E+00 0. -1.
</event>
<event>
 7    1  0.1221195E-011  0.5930193E+02  0.7816164E-02  0.1266605E+00
        -11   -1    0    0    0    0  0.00000000000E+00  0.00000000000E+00  0.45593999997E+02  0.45594000000E+02  0.51100000000E-03 0. -1.
         11   -1    0    0    0    0 -0.00000000000E+00 -0.00000000000E+00 -0.45593999997E+02  0.45594000000E+02  0.51100000000E-03 0.  1.
    9900012    2    1    2    0    0  0.25380651987E+02 -0.13436660577E+02 -0.13856401734E+02  0.59301933893E+02  0.49999981518E+02 0.  0.
        -12    1    1    2    0    0 -0.25380651987E+02  0.13436660577E+02  0.13856401734E+02  0.31886066107E+02  0.00000000000E+00 0.  1.
         11    1    3    3    0    0  0.44769525594E+01 -0.46202814144E+01  0.78292571298E+01  0.10133477786E+02  0.51100000000E-03 0. -1.
        -11    1    3    3    0    0  0.22947233727E+02 -0.20051801499E+02 -0.83210661279E+01  0.31589403616E+02  0.51100000000E-03 0.  1.
        -12    1    3    3    0    0 -0.20435342998E+01  0.11235422336E+02 -0.13364592736E+02  0.17579052491E+02  0.00000000000E+00 0.  1.
</event>
<event>
 7    1  0.1221195E-011  0.5930200E+02  0.7816164E-02  0.1266605E+00
        -11   -1    0    0    0    0  0.00000000000E+00  0.00000000000E+00  0.45593999997E+02  0.45594000000E+02  0.51100000000E-03 0.  1.
         11   -1    0    0    0    0 -0.00000000000E+00 -0.00000000000E+00 -0.45593999997E+02  0.45594000000E+02  0.51100000000E-03 0. -1.
    9900012    2    1    2    0    0  0.19318602437E+02 -0.25261013054E+02  0.23216643280E+01  0.59301995141E+02  0.50000093218E+02 0.  0.
        -12    1    1    2    0    0 -0.19318602437E+02  0.25261013054E+02 -0.23216643280E+01  0.31886004859E+02  0.00000000000E+00 0.  1.
         11    1    3    3    0    0 -0.39232658297E+01  0.69578140212E+01  0.43305472204E+01  0.90860789240E+01  0.51100000000E-03 0. -1.
        -11    1    3    3    0    0 -0.74721319156E+01 -0.62800654871E+01  0.14411034192E+01  0.98665473805E+01  0.51100000000E-03 0.  1.
         12    1    3    3    0    0  0.30714000182E+02 -0.25938761588E+02 -0.34499863117E+01  0.40349368836E+02  0.00000000000E+00 0. -1.
</event>
<event>
 7    1  0.1221195E-011  0.5930193E+02  0.7816164E-02  0.1266605E+00
        -11   -1    0    0    0    0  0.00000000000E+00  0.00000000000E+00  0.45593999997E+02  0.45594000000E+02  0.51100000000E-03 0. -1.
         11   -1    0    0    0    0 -0.00000000000E+00 -0.00000000000E+00 -0.45593999997E+02  0.45594000000E+02  0.51100000000E-03 0.  1.
    9900012    2    1    2    0    0 -0.22609568832E+02 -0.18403293355E+02  0.12916947229E+02  0.59301931964E+02  0.49999977999E+02 0.  0.
        -12    1    1    2    0    0  0.22609568832E+02  0.18403293355E+02 -0.12916947229E+02  0.31886068036E+02  0.00000000000E+00 0.  1.
         11    1    3    3    0    0  0.19981902099E+01  0.14862548909E+01 -0.68935072431E+00  0.25839741481E+01  0.51100000000E-03 0. -1.
        -11    1    3    3    0    0 -0.19656379667E+02  0.84194449537E+01 -0.56584142192E+01  0.22119628539E+02  0.51100000000E-03 0.  1.
         12    1    3    3    0    0 -0.49513793749E+01 -0.28308993199E+02  0.19264712173E+02  0.34598329277E+02  0.00000000000E+00 0. -1.
</event>
<event>
 7    1  0.1221195E-011  0.5930194E+02  0.7816164E-02  0.1266605E+00
        -11   -1    0    0    0    0  0.00000000000E+00  0.00000000000E+00  0.45593999997E+02  0.45594000000E+02  0.51100000000E-03 0.  1.
         11   -1    0    0    0    0 -0.00000000000E+00 -0.00000000000E+00 -0.45593999997E+02  0.45594000000E+02  0.51100000000E-03 0. -1.
    9900012    2    1    2    0    0  0.31128418192E+02  0.42758378743E+01 -0.54276642204E+01  0.59301941173E+02  0.49999994793E+02 0.  0.
        -12    1    1    2    0    0 -0.31128418192E+02 -0.42758378743E+01  0.54276642204E+01  0.31886058827E+02  0.00000000000E+00 0.  1.
         11    1    3    3    0    0  0.10595122806E+02 -0.69808635765E+01  0.13792556874E+02  0.18740963394E+02  0.51100000000E-03 0. -1.
        -11    1    3    3    0    0  0.30597311103E+01  0.11347864587E+02  0.31568058827E+01  0.12169692223E+02  0.51100000000E-03 0.  1.
         12    1    3    3    0    0  0.17473564276E+02 -0.91163136662E-01 -0.22377026977E+02  0.28391285556E+02  0.00000000000E+00 0. -1.
</event>
<event>
 7    1  0.1221195E-011  0.5930196E+02  0.7816164E-02  0.1266605E+00
        -11   -1    0    0    0    0  0.00000000000E+00  0.00000000000E+00  0.45593999997E+02  0.45594000000E+02  0.51100000000E-03 0.  1.
         11   -1    0    0    0    0 -0.00000000000E+00 -0.00000000000E+00 -0.45593999997E+02  0.45594000000E+02  0.51100000000E-03 0. -1.
    9900012    2    1    2    0    0 -0.40592925945E+01  0.29879090374E+02 -0.10367342883E+02  0.59301957656E+02  0.50000024855E+02 0.  0.
        -12    1    1    2    0    0  0.40592925945E+01 -0.29879090374E+02  0.10367342883E+02  0.31886042344E+02  0.00000000000E+00 0.  1.
         11    1    3    3    0    0  0.27317808992E+01  0.14139305302E+02  0.56660625193E+01  0.15475362549E+02  0.51100000000E-03 0. -1.
        -11    1    3    3    0    0  0.14429920239E+02  0.12508161670E+02 -0.98550089565E+01  0.21489483667E+02  0.51100000000E-03 0.  1.
         12    1    3    3    0    0 -0.21220993733E+02  0.32316234019E+01 -0.61783964457E+01  0.22337111440E+02  0.00000000000E+00 0. -1.
</event>
<event>
 7    1  0.1221195E-011  0.5930202E+02  0.7816164E-02  0.1266604E+00
        -11   -1    0    0    0    0  0.00000000000E+00  0.00000000000E+00  0.45593999997E+02  0.45594000000E+02  0.51100000000E-03 0. -1.
         11   -1    0    0    0    0 -0.00000000000E+00 -0.00000000000E+00 -0.45593999997E+02  0.45594000000E+02  0.51100000000E-03 0.  1.
    9900012    2    1    2    0    0  0.24177548748E+02 -0.76968260689E+01  0.19311156050E+02  0.59302019649E+02  0.50000137914E+02 0.  0.
        -12    1    1    2    0    0 -0.24177548748E+02  0.76968260689E+01 -0.19311156050E+02  0.31885980351E+02  0.00000000000E+00 0.  1.
         11    1    3    3    0    0 -0.16316293554E+01  0.16161876565E+02  0.79615706697E+01  0.18090192819E+02  0.51100000000E-03 0.  1.
        -11    1    3    3    0    0  0.12870892740E+02 -0.11231179594E+02 -0.39442259185E+01  0.17531577036E+02  0.51100000000E-03 0. -1.
        -12    1    3    3    0    0  0.12938285363E+02 -0.12627523039E+02  0.15293811299E+02  0.23680249793E+02  0.00000000000E+00 0.  1.
</event>
<event>
 7    1  0.1221195E-011  0.5930195E+02  0.7816164E-02  0.1266605E+00
        -11   -1    0    0    0    0  0.00000000000E+00  0.00000000000E+00  0.45593999997E+02  0.45594000000E+02  0.51100000000E-03 0.  1.
         11   -1    0    0    0    0 -0.00000000000E+00 -0.00000000000E+00 -0.45593999997E+02  0.45594000000E+02  0.51100000000E-03 0. -1.
    9900012    2    1    2    0    0 -0.25640459483E+02 -0.16524237374E+02  0.92863553030E+01  0.59301953238E+02  0.50000016797E+02 0.  0.
        -12    1    1    2    0    0  0.25640459483E+02  0.16524237374E+02 -0.92863553030E+01  0.31886046762E+02  0.00000000000E+00 0.  1.
         11    1    3    3    0    0 -0.11577139754E+02 -0.47181868433E+01  0.50463220143E+01  0.13481721629E+02  0.51100000000E-03 0. -1.
        -11    1    3    3    0    0 -0.12242850468E+02 -0.26827887821E+02  0.73061726238E+01  0.30380966265E+02  0.51100000000E-03 0.  1.
         12    1    3    3    0    0 -0.18204692616E+01  0.15021837290E+02 -0.30661393352E+01  0.15439265343E+02  0.00000000000E+00 0. -1.
</event>
<event>
 7    1  0.1221195E-011  0.5930196E+02  0.7816164E-02  0.1266605E+00
        -11   -1    0    0    0    0  0.00000000000E+00  0.00000000000E+00  0.45593999997E+02  0.45594000000E+02  0.51100000000E-03 0. -1.
         11   -1    0    0    0    0 -0.00000000000E+00 -0.00000000000E+00 -0.45593999997E+02  0.45594000000E+02  0.51100000000E-03 0.  1.
    9900012    2    1    2    0    0 -0.16263004817E+02  0.27356003225E+02  0.19705529883E+01  0.59301963602E+02  0.50000035699E+02 0.  0.
        -12    1    1    2    0    0  0.16263004817E+02 -0.27356003225E+02 -0.19705529883E+01  0.31886036398E+02  0.00000000000E+00 0.  1.
         11    1    3    3    0    0 -0.86805982942E+01 -0.57930257876E+01  0.42662699932E+01  0.11274439872E+02  0.51100000000E-03 0. -1.
        -11    1    3    3    0    0  0.30769033687E+01  0.82922275821E+01  0.13920486329E+02  0.16492674510E+02  0.51100000000E-03 0.  1.
        -12    1    3    3    0    0 -0.10659309891E+02  0.24856801430E+02 -0.16216203334E+02  0.31534849219E+02  0.00000000000E+00 0.  1.
</event>
<event>
 7    1  0.1221195E-011  0.5930197E+02  0.7816164E-02  0.1266605E+00
        -11   -1    0    0    0    0  0.00000000000E+00  0.00000000000E+00  0.45593999997E+02  0.45594000000E+02  0.51100000000E-03 0.  1.
         11   -1    0    0    0    0 -0.00000000000E+00 -0.00000000000E+00 -0.45593999997E+02  0.45594000000E+02  0.51100000000E-03 0. -1.
    9900012    2    1    2    0    0  0.49301408033E+01  0.10742443098E+02 -0.29614400381E+02  0.59301967290E+02  0.50000042425E+02 0.  0.
        -12    1    1    2    0    0 -0.49301408033E+01 -0.10742443098E+02  0.29614400381E+02  0.31886032710E+02  0.00000000000E+00 0.  1.
         11    1    3    3    0    0  0.10397108684E+02  0.15706592500E+02 -0.13555252738E+02  0.23206503270E+02  0.51100000000E-03 0. -1.
        -11    1    3    3    0    0  0.10695320465E+02  0.12943280310E+01  0.21182395536E+01  0.10979622214E+02  0.51100000000E-03 0.  1.
         12    1    3    3    0    0 -0.16162288346E+02 -0.62584774330E+01 -0.18177387196E+02  0.25115841806E+02  0.00000000000E+00 0. -1.
</event>
<event>
 7    1  0.1221195E-011  0.5930194E+02  0.7816164E-02  0.1266605E+00
        -11   -1    0    0    0    0  0.00000000000E+00  0.00000000000E+00  0.45593999997E+02  0.45594000000E+02  0.51100000000E-03 0. -1.
         11   -1    0    0    0    0 -0.00000000000E+00 -0.00000000000E+00 -0.45593999997E+02  0.45594000000E+02  0.51100000000E-03 0.  1.
    9900012    2    1    2    0    0 -0.10288019246E+02 -0.21470306274E+01  0.30104282027E+02  0.59301939144E+02  0.49999991094E+02 0.  0.
        -12    1    1    2    0    0  0.10288019246E+02  0.21470306274E+01 -0.30104282027E+02  0.31886060856E+02  0.00000000000E+00 0.  1.
         11    1    3    3    0    0  0.61958156253E+01 -0.71221284160E+01  0.25891570331E+02  0.27558778255E+02  0.51100000000E-03 0. -1.
        -11    1    3    3    0    0 -0.11129036459E+02 -0.10192413702E+02 -0.94787955525E-01  0.15091379480E+02  0.51100000000E-03 0.  1.
        -12    1    3    3    0    0 -0.53547984121E+01  0.15167511491E+02  0.43074996514E+01  0.16651781409E+02  0.00000000000E+00 0.  1.
</event>
<event>
 7    1  0.1221195E-011  0.5930169E+02  0.7816164E-02  0.1266606E+00
        -11   -1    0    0    0    0  0.00000000000E+00  0.00000000000E+00  0.45593999997E+02  0.45594000000E+02  0.51100000000E-03 0. -1.
         11   -1    0    0    0    0 -0.00000000000E+00 -0.00000000000E+00 -0.45593999997E+02  0.45594000000E+02  0.51100000000E-03 0.  1.
    9900012    2    1    2    0    0  0.31749659161E+02 -0.28826677159E+01 -0.62115624818E+00  0.59301694710E+02  0.49999545302E+02 0.  0.
        -12    1    1    2    0    0 -0.31749659161E+02  0.28826677159E+01  0.62115624818E+00  0.31886305290E+02  0.00000000000E+00 0.  1.
         11    1    3    3    0    0 -0.66388715870E+01  0.14885606420E+01 -0.25457308130E+01  0.72643770804E+01  0.51100000000E-03 0. -1.
        -11    1    3    3    0    0  0.36225409191E+02 -0.14501700914E+02  0.82734007508E+01  0.39887701873E+02  0.51100000000E-03 0.  1.
         12    1    3    3    0    0  0.21631215564E+01  0.10130472556E+02 -0.63488261860E+01  0.12149615756E+02  0.00000000000E+00 0. -1.
</event>
<event>
 7    1  0.1221195E-011  0.5930192E+02  0.7816164E-02  0.1266605E+00
        -11   -1    0    0    0    0  0.00000000000E+00  0.00000000000E+00  0.45593999997E+02  0.45594000000E+02  0.51100000000E-03 0. -1.
         11   -1    0    0    0    0 -0.00000000000E+00 -0.00000000000E+00 -0.45593999997E+02  0.45594000000E+02  0.51100000000E-03 0.  1.
    9900012    2    1    2    0    0 -0.15815093462E+02 -0.16558853255E+02  0.22190293373E+02  0.59301922752E+02  0.49999961198E+02 0.  0.
        -12    1    1    2    0    0  0.15815093462E+02  0.16558853255E+02 -0.22190293373E+02  0.31886077248E+02  0.00000000000E+00 0.  1.
         11    1    3    3    0    0  0.79900052094E+01 -0.19078482296E+01  0.98302202344E+01  0.12810671264E+02  0.51100000000E-03 0. -1.
        -11    1    3    3    0    0 -0.75670817172E+00 -0.16257630324E+01 -0.11023729824E+02  0.11168631617E+02  0.51100000000E-03 0.  1.
        -12    1    3    3    0    0 -0.23048390500E+02 -0.13025241993E+02  0.23383802962E+02  0.35322619871E+02  0.00000000000E+00 0.  1.
</event>
<event>
 7    1  0.1221195E-011  0.5930198E+02  0.7816164E-02  0.1266605E+00
        -11   -1    0    0    0    0  0.00000000000E+00  0.00000000000E+00  0.45593999997E+02  0.45594000000E+02  0.51100000000E-03 0.  1.
         11   -1    0    0    0    0 -0.00000000000E+00 -0.00000000000E+00 -0.45593999997E+02  0.45594000000E+02  0.51100000000E-03 0. -1.
    9900012    2    1    2    0    0  0.20368795347E+02  0.20538980599E+02 -0.13415683130E+02  0.59301982660E+02  0.50000070457E+02 0.  0.
        -12    1    1    2    0    0 -0.20368795347E+02 -0.20538980599E+02  0.13415683130E+02  0.31886017340E+02  0.00000000000E+00 0.  1.
         11    1    3    3    0    0  0.54858175827E+01 -0.10422187254E+02 -0.10504624981E+01  0.11824536077E+02  0.51100000000E-03 0. -1.
        -11    1    3    3    0    0 -0.17361289099E+01  0.18978289460E+02  0.59823145818E+01  0.19974426211E+02  0.51100000000E-03 0.  1.
         12    1    3    3    0    0  0.16619106674E+02  0.11982878393E+02 -0.18347535213E+02  0.27503020373E+02  0.00000000000E+00 0. -1.
</event>
<event>
 7    1  0.1221195E-011  0.5930194E+02  0.7816164E-02  0.1266605E+00
        -11   -1    0    0    0    0  0.00000000000E+00  0.00000000000E+00  0.45593999997E+02  0.45594000000E+02  0.51100000000E-03 0.  1.
         11   -1    0    0    0    0 -0.00000000000E+00 -0.00000000000E+00 -0.45593999997E+02  0.45594000000E+02  0.51100000000E-03 0. -1.
    9900012    2    1    2    0    0  0.18905612798E+02 -0.72634421920E+01 -0.24628052373E+02  0.59301941112E+02  0.49999994682E+02 0.  0.
        -12    1    1    2    0    0 -0.18905612798E+02  0.72634421920E+01  0.24628052373E+02  0.31886058888E+02  0.00000000000E+00 0.  1.
         11    1    3    3    0    0 -0.15704664969E+01  0.76821875591E+01  0.24895081868E+01  0.82267868566E+01  0.51100000000E-03 0. -1.
        -11    1    3    3    0    0 -0.74419665944E+01  0.72629671721E+00 -0.15151347834E+02  0.16895967423E+02  0.51100000000E-03 0.  1.
         12    1    3    3    0    0  0.27918045890E+02 -0.15671926468E+02 -0.11966212726E+02  0.34179186832E+02  0.00000000000E+00 0. -1.
</event>
<event>
 7    1  0.1221195E-011  0.5930196E+02  0.7816164E-02  0.1266605E+00
        -11   -1    0    0    0    0  0.00000000000E+00  0.00000000000E+00  0.45593999997E+02  0.45594000000E+02  0.51100000000E-03 0.  1.
         11   -1    0    0    0    0 -0.00000000000E+00 -0.00000000000E+00 -0.45593999997E+02  0.45594000000E+02  0.51100000000E-03 0. -1.
    9900012    2    1    2    0    0  0.91489164987E+01 -0.12645066313E+02 -0.27805023083E+02  0.59301957853E+02  0.50000025214E+02 0.  0.
        -12    1    1    2    0    0 -0.91489164987E+01  0.12645066313E+02  0.27805023083E+02  0.31886042147E+02  0.00000000000E+00 0.  1.
         11    1    3    3    0    0  0.89075031346E+01 -0.15975866320E+02 -0.15007221628E+02  0.23659852452E+02  0.51100000000E-03 0. -1.
        -11    1    3    3    0    0  0.14438927200E+02  0.92611729818E+01 -0.10426970368E+02  0.20074203720E+02  0.51100000000E-03 0.  1.
         12    1    3    3    0    0 -0.14197513836E+02 -0.59303729742E+01 -0.23708310872E+01  0.15567901682E+02  0.00000000000E+00 0. -1.
</event>
<event>
 7    1  0.1221195E-011  0.5930195E+02  0.7816164E-02  0.1266605E+00
        -11   -1    0    0    0    0  0.00000000000E+00  0.00000000000E+00  0.45593999997E+02  0.45594000000E+02  0.51100000000E-03 0. -1.
         11   -1    0    0    0    0 -0.00000000000E+00 -0.00000000000E+00 -0.45593999997E+02  0.45594000000E+02  0.51100000000E-03 0.  1.
    9900012    2    1    2    0    0 -0.31141032201E+02 -0.68326437616E+01 -0.52066921253E+00  0.59301952836E+02  0.50000016064E+02 0.  0.
        -12    1    1    2    0    0  0.31141032201E+02  0.68326437616E+01  0.52066921253E+00  0.31886047164E+02  0.00000000000E+00 0.  1.
         11    1    3    3    0    0  0.32673042582E+01  0.32506545335E+01  0.20521516448E+01  0.50451321733E+01  0.51100000000E-03 0. -1.
        -11    1    3    3    0    0  0.79943742494E+01  0.41090385636E+01 -0.31898191650E+01  0.95377756381E+01  0.51100000000E-03 0.  1.
        -12    1    3    3    0    0 -0.42402710709E+02 -0.14192336859E+02  0.61699830761E+00  0.44719045024E+02  0.00000000000E+00 0.  1.
</event>
<event>
 7    1  0.1221195E-011  0.5930208E+02  0.7816164E-02  0.1266604E+00
        -11   -1    0    0    0    0  0.00000000000E+00  0.00000000000E+00  0.45593999997E+02  0.45594000000E+02  0.51100000000E-03 0.  1.
         11   -1    0    0    0    0 -0.00000000000E+00 -0.00000000000E+00 -0.45593999997E+02  0.45594000000E+02  0.51100000000E-03 0. -1.
    9900012    2    1    2    0    0  0.12107241274E+02  0.18286020996E+02 -0.23146234383E+02  0.59302078009E+02  0.50000244349E+02 0.  0.
        -12    1    1    2    0    0 -0.12107241274E+02 -0.18286020996E+02  0.23146234383E+02  0.31885921991E+02  0.00000000000E+00 0.  1.
         11    1    3    3    0    0 -0.91231852580E+01 -0.44783553897E+00 -0.16332694530E+02  0.18713363589E+02  0.51100000000E-03 0. -1.
        -11    1    3    3    0    0  0.27281596224E+02  0.95878192498E+01 -0.63843271505E+01  0.29613702976E+02  0.51100000000E-03 0.  1.
         12    1    3    3    0    0 -0.60511696922E+01  0.91460372849E+01 -0.42921270170E+00  0.10975011444E+02  0.00000000000E+00 0. -1.
</event>
<event>
 7    1  0.1221195E-011  0.5930194E+02  0.7816164E-02  0.1266605E+00
        -11   -1    0    0    0    0  0.00000000000E+00  0.00000000000E+00  0.45593999997E+02  0.45594000000E+02  0.51100000000E-03 0.  1.
         11   -1    0    0    0    0 -0.00000000000E+00 -0.00000000000E+00 -0.45593999997E+02  0.45594000000E+02  0.51100000000E-03 0. -1.
    9900012    2    1    2    0    0  0.12754905466E+02 -0.41350546899E+00 -0.29220922921E+02  0.59301938209E+02  0.49999989387E+02 0.  0.
        -12    1    1    2    0    0 -0.12754905466E+02  0.41350546899E+00  0.29220922921E+02  0.31886061791E+02  0.00000000000E+00 0.  1.
         11    1    3    3    0    0  0.12486577599E+02  0.49422371435E+01 -0.75806864932E+01  0.15420996599E+02  0.51100000000E-03 0. -1.
        -11    1    3    3    0    0  0.15895676091E+02 -0.11955068601E+02 -0.17324848310E+02  0.26377008035E+02  0.51100000000E-03 0.  1.
        -12    1    3    3    0    0 -0.15627348224E+02  0.65993259890E+01 -0.43153881177E+01  0.17503933576E+02  0.00000000000E+00 0.  1.
</event>
<event>
 7    1  0.1221195E-011  0.5930200E+02  0.7816164E-02  0.1266605E+00
        -11   -1    0    0    0    0  0.00000000000E+00  0.00000000000E+00  0.45593999997E+02  0.45594000000E+02  0.51100000000E-03 0. -1.
         11   -1    0    0    0    0 -0.00000000000E+00 -0.00000000000E+00 -0.45593999997E+02  0.45594000000E+02  0.51100000000E-03 0.  1.
    9900012    2    1    2    0    0 -0.18234502982E+01  0.31696121177E+02  0.29577192948E+01  0.59301997239E+02  0.50000097044E+02 0.  0.
        -12    1    1    2    0    0  0.18234502982E+01 -0.31696121177E+02 -0.29577192948E+01  0.31886002761E+02  0.00000000000E+00 0.  1.
         11    1    3    3    0    0 -0.61795733095E+01  0.22816856662E+02  0.73908692861E+01  0.24767337832E+02  0.51100000000E-03 0. -1.
        -11    1    3    3    0    0  0.17673359629E+02  0.85771662522E+01 -0.72129011354E+01  0.20927048635E+02  0.51100000000E-03 0.  1.
         12    1    3    3    0    0 -0.13317236618E+02  0.30209826278E+00  0.27797511442E+01  0.13607610772E+02  0.00000000000E+00 0. -1.
</event>
<event>
 7    1  0.1221195E-011  0.5930193E+02  0.7816164E-02  0.1266605E+00
        -11   -1    0    0    0    0  0.00000000000E+00  0.00000000000E+00  0.45593999997E+02  0.45594000000E+02  0.51100000000E-03 0.  1.
         11   -1    0    0    0    0 -0.00000000000E+00 -0.00000000000E+00 -0.45593999997E+02  0.45594000000E+02  0.51100000000E-03 0. -1.
    9900012    2    1    2    0    0  0.14992870521E+02 -0.21406500336E+02 -0.18267372396E+02  0.59301932237E+02  0.49999978497E+02 0.  0.
        -12    1    1    2    0    0 -0.14992870521E+02  0.21406500336E+02  0.18267372396E+02  0.31886067763E+02  0.00000000000E+00 0.  1.
         11    1    3    3    0    0 -0.36898317254E+01 -0.16759025217E+02 -0.23894802000E+02  0.29418384511E+02  0.51100000000E-03 0. -1.
        -11    1    3    3    0    0 -0.49569127910E+01 -0.20623605865E+01 -0.29397336756E+00  0.53768704846E+01  0.51100000000E-03 0.  1.
         12    1    3    3    0    0  0.23639615037E+02 -0.25851145330E+01  0.59214029713E+01  0.24506677241E+02  0.00000000000E+00 0. -1.
</event>
<event>
 7    1  0.1221195E-011  0.5930195E+02  0.7816164E-02  0.1266605E+00
        -11   -1    0    0    0    0  0.00000000000E+00  0.00000000000E+00  0.45593999997E+02  0.45594000000E+02  0.51100000000E-03 0. -1.
         11   -1    0    0    0    0 -0.00000000000E+00 -0.00000000000E+00 -0.45593999997E+02  0.45594000000E+02  0.51100000000E-03 0.  1.
    9900012    2    1    2    0    0 -0.28419510508E+02 -0.14082224887E+02  0.32775997281E+01  0.59301948265E+02  0.50000007727E+02 0.  0.
        -12    1    1    2    0    0  0.28419510508E+02  0.14082224887E+02 -0.32775997281E+01  0.31886051735E+02  0.00000000000E+00 0.  1.
         11    1    3    3    0    0 -0.11863377651E+02 -0.81244656192E+01 -0.95721343822E+01  0.17273460215E+02  0.51100000000E-03 0.  1.
        -11    1    3    3    0    0 -0.13478672084E+01 -0.12444575537E+02 -0.84219012904E+01  0.15086836246E+02  0.51100000000E-03 0. -1.
         12    1    3    3    0    0 -0.15208265648E+02  0.64868162685E+01  0.21271635401E+02  0.26941651804E+02  0.00000000000E+00 0. -1.
</event>
<event>
 7    1  0.1221195E-011  0.5930200E+02  0.7816164E-02  0.1266605E+00
        -11   -1    0    0    0    0  0.00000000000E+00  0.00000000000E+00  0.45593999997E+02  0.45594000000E+02  0.51100000000E-03 0.  1.
         11   -1    0    0    0    0 -0.00000000000E+00 -0.00000000000E+00 -0.45593999997E+02  0.45594000000E+02  0.51100000000E-03 0. -1.
    9900012    2    1    2    0    0 -0.79681650187E+01  0.98483430864E+00 -0.30858635041E+02  0.59302001365E+02  0.50000104568E+02 0.  0.
        -12    1    1    2    0    0  0.79681650187E+01 -0.98483430864E+00  0.30858635041E+02  0.31885998635E+02  0.00000000000E+00 0.  1.
         11    1    3    3    0    0 -0.77610697312E+01  0.99246508353E+01  0.64391739560E+00  0.12615368700E+02  0.51100000000E-03 0. -1.
        -11    1    3    3    0    0 -0.40008565034E+01 -0.23231023783E+01  0.64709797950E+01  0.79546990634E+01  0.51100000000E-03 0.  1.
        -12    1    3    3    0    0  0.37937612159E+01 -0.66167141484E+01 -0.37973532232E+02  0.38731933601E+02  0.00000000000E+00 0.  1.
</event>
<event>
 7    1  0.1221195E-011  0.5930202E+02  0.7816164E-02  0.1266604E+00
        -11   -1    0    0    0    0  0.00000000000E+00  0.00000000000E+00  0.45593999997E+02  0.45594000000E+02  0.51100000000E-03 0.  1.
         11   -1    0    0    0    0 -0.00000000000E+00 -0.00000000000E+00 -0.45593999997E+02  0.45594000000E+02  0.51100000000E-03 0. -1.
    9900012    2    1    2    0    0  0.16044536209E+02 -0.13435159092E+02 -0.24057948794E+02  0.59302022797E+02  0.50000143656E+02 0.  0.
        -12    1    1    2    0    0 -0.16044536209E+02  0.13435159092E+02  0.24057948794E+02  0.31885977203E+02  0.00000000000E+00 0.  1.
         11    1    3    3    0    0  0.55819882123E+01 -0.19137492888E+02 -0.36432428643E+01  0.20265128799E+02  0.51100000000E-03 0. -1.
        -11    1    3    3    0    0  0.19143735637E+02 -0.24663684682E+01 -0.18911324832E+02  0.27022283299E+02  0.51100000000E-03 0.  1.
        -12    1    3    3    0    0 -0.86811876396E+01  0.81687022638E+01 -0.15033810982E+01  0.12014610698E+02  0.00000000000E+00 0.  1.
</event>
<event>
 7    1  0.1221195E-011  0.5930192E+02  0.7816164E-02  0.1266605E+00
        -11   -1    0    0    0    0  0.00000000000E+00  0.00000000000E+00  0.45593999997E+02  0.45594000000E+02  0.51100000000E-03 0.  1.
         11   -1    0    0    0    0 -0.00000000000E+00 -0.00000000000E+00 -0.45593999997E+02  0.45594000000E+02  0.51100000000E-03 0. -1.
    9900012    2    1    2    0    0  0.29923611691E+02 -0.33199928881E+01 -0.10501298393E+02  0.59301919066E+02  0.49999954476E+02 0.  0.
        -12    1    1    2    0    0 -0.29923611691E+02  0.33199928881E+01  0.10501298393E+02  0.31886080934E+02  0.00000000000E+00 0.  1.
         11    1    3    3    0    0 -0.63502555831E+01  0.39268159430E+01 -0.23955735794E+01  0.78411990446E+01  0.51100000000E-03 0. -1.
        -11    1    3    3    0    0 -0.17251817794E+01  0.63927126137E+00  0.89010250134E+01  0.90891785364E+01  0.51100000000E-03 0.  1.
         12    1    3    3    0    0  0.37999049053E+02 -0.78860800925E+01 -0.17006749827E+02  0.42371541485E+02  0.00000000000E+00 0. -1.
</event>
<event>
 7    1  0.1221195E-011  0.5930186E+02  0.7816164E-02  0.1266605E+00
        -11   -1    0    0    0    0  0.00000000000E+00  0.00000000000E+00  0.45593999997E+02  0.45594000000E+02  0.51100000000E-03 0.  1.
         11   -1    0    0    0    0 -0.00000000000E+00 -0.00000000000E+00 -0.45593999997E+02  0.45594000000E+02  0.51100000000E-03 0. -1.
    9900012    2    1    2    0    0  0.20786649562E+01 -0.12063659509E+02 -0.29442707155E+02  0.59301862991E+02  0.49999852207E+02 0.  0.
        -12    1    1    2    0    0 -0.20786649562E+01  0.12063659509E+02  0.29442707155E+02  0.31886137009E+02  0.00000000000E+00 0.  1.
         11    1    3    3    0    0 -0.41172177036E+01 -0.22631342152E+02 -0.13625249799E+02  0.26735305526E+02  0.51100000000E-03 0. -1.
        -11    1    3    3    0    0 -0.74178775469E+01  0.10022871458E+00 -0.13274177855E+02  0.15206536459E+02  0.51100000000E-03 0.  1.
         12    1    3    3    0    0  0.13613760207E+02  0.10467453928E+02 -0.25432795009E+01  0.17360021006E+02  0.00000000000E+00 0. -1.
</event>
<event>
 7    1  0.1221195E-011  0.5930192E+02  0.7816164E-02  0.1266605E+00
        -11   -1    0    0    0    0  0.00000000000E+00  0.00000000000E+00  0.45593999997E+02  0.45594000000E+02  0.51100000000E-03 0.  1.
         11   -1    0    0    0    0 -0.00000000000E+00 -0.00000000000E+00 -0.45593999997E+02  0.45594000000E+02  0.51100000000E-03 0. -1.
    9900012    2    1    2    0    0 -0.12215730269E+02 -0.16096291668E+02 -0.24665916963E+02  0.59301919477E+02  0.49999955226E+02 0.  0.
        -12    1    1    2    0    0  0.12215730269E+02  0.16096291668E+02  0.24665916963E+02  0.31886080523E+02  0.00000000000E+00 0.  1.
         11    1    3    3    0    0 -0.40836397560E+01  0.85305524005E+01 -0.23574302585E+01  0.97469952087E+01  0.51100000000E-03 0. -1.
        -11    1    3    3    0    0 -0.15832707538E+02 -0.38947513215E+01  0.23029238492E+01  0.16466547130E+02  0.51100000000E-03 0.  1.
         12    1    3    3    0    0  0.77006170249E+01 -0.20732092747E+02 -0.24611410554E+02  0.33088377139E+02  0.00000000000E+00 0. -1.
</event>
<event>
 7    1  0.1221195E-011  0.5930198E+02  0.7816164E-02  0.1266605E+00
        -11   -1    0    0    0    0  0.00000000000E+00  0.00000000000E+00  0.45593999997E+02  0.45594000000E+02  0.51100000000E-03 0.  1.
         11   -1    0    0    0    0 -0.00000000000E+00 -0.00000000000E+00 -0.45593999997E+02  0.45594000000E+02  0.51100000000E-03 0. -1.
    9900012    2    1    2    0    0  0.16702898528E+02  0.16451064987E+02 -0.21612361239E+02  0.59301976153E+02  0.50000058588E+02 0.  0.
        -12    1    1    2    0    0 -0.16702898528E+02 -0.16451064987E+02  0.21612361239E+02  0.31886023847E+02  0.00000000000E+00 0.  1.
         11    1    3    3    0    0 -0.67415332847E+01  0.13794696912E+02 -0.20192364668E+02  0.25366779951E+02  0.51100000000E-03 0. -1.
        -11    1    3    3    0    0 -0.32440270073E+00 -0.76261181392E+01 -0.24515184885E+01  0.80170354961E+01  0.51100000000E-03 0.  1.
         12    1    3    3    0    0  0.23768834514E+02  0.10282486214E+02  0.10315219180E+01  0.25918160706E+02  0.00000000000E+00 0. -1.
</event>
<event>
 7    1  0.1221195E-011  0.5930209E+02  0.7816164E-02  0.1266604E+00
        -11   -1    0    0    0    0  0.00000000000E+00  0.00000000000E+00  0.45593999997E+02  0.45594000000E+02  0.51100000000E-03 0. -1.
         11   -1    0    0    0    0 -0.00000000000E+00 -0.00000000000E+00 -0.45593999997E+02  0.45594000000E+02  0.51100000000E-03 0.  1.
    9900012    2    1    2    0    0  0.23834019468E+02 -0.87962942376E+01  0.19268522968E+02  0.59302090045E+02  0.50000266300E+02 0.  0.
        -12    1    1    2    0    0 -0.23834019468E+02  0.87962942376E+01 -0.19268522968E+02  0.31885909955E+02  0.00000000000E+00 0.  1.
         11    1    3    3    0    0  0.13991120926E+01  0.64863924197E+01 -0.76465053962E+01  0.10124220775E+02  0.51100000000E-03 0. -1.
        -11    1    3    3    0    0  0.17240294425E+02 -0.17565763041E+02  0.32312683359E+01  0.24823877183E+02  0.51100000000E-03 0.  1.
         12    1    3    3    0    0  0.51946129504E+01  0.22830763841E+01  0.23683760028E+02  0.24353992087E+02  0.00000000000E+00 0. -1.
</event>
<event>
 7    1  0.1221195E-011  0.5930157E+02  0.7816164E-02  0.1266606E+00
        -11   -1    0    0    0    0  0.00000000000E+00  0.00000000000E+00  0.45593999997E+02  0.45594000000E+02  0.51100000000E-03 0. -1.
         11   -1    0    0    0    0 -0.00000000000E+00 -0.00000000000E+00 -0.45593999997E+02  0.45594000000E+02  0.51100000000E-03 0.  1.
    9900012    2    1    2    0    0 -0.22191268949E+02 -0.21797995798E+02 -0.70099293775E+01  0.59301574232E+02  0.49999325577E+02 0.  0.
        -12    1    1    2    0    0  0.22191268949E+02  0.21797995798E+02  0.70099293775E+01  0.31886425768E+02  0.00000000000E+00 0.  1.
         11    1    3    3    0    0 -0.22425200842E+02  0.41068519548E+01 -0.18710776698E+00  0.22798922680E+02  0.51100000000E-03 0. -1.
        -11    1    3    3    0    0 -0.22741225694E+01 -0.12623950793E+01 -0.11069952866E+02  0.11371417304E+02  0.51100000000E-03 0.  1.
         12    1    3    3    0    0  0.25080544623E+01 -0.24642452673E+02  0.42471312554E+01  0.25131234248E+02  0.00000000000E+00 0. -1.
</event>
<event>
 7    1  0.1221195E-011  0.5930194E+02  0.7816164E-02  0.1266605E+00
        -11   -1    0    0    0    0  0.00000000000E+00  0.00000000000E+00  0.45593999997E+02  0.45594000000E+02  0.51100000000E-03 0.  1.
         11   -1    0    0    0    0 -0.00000000000E+00 -0.00000000000E+00 -0.45593999997E+02  0.45594000000E+02  0.51100000000E-03 0. -1.
    9900012    2    1    2    0    0 -0.81965038268E+00 -0.29972167127E+02 -0.10849814556E+02  0.59301935569E+02  0.49999984573E+02 0.  0.
        -12    1    1    2    0    0  0.81965038268E+00  0.29972167127E+02  0.10849814556E+02  0.31886064431E+02  0.00000000000E+00 0.  1.
         11    1    3    3    0    0 -0.10386897621E+01  0.33236975298E-01  0.98648492500E+01  0.99194370861E+01  0.51100000000E-03 0.  1.
        -11    1    3    3    0    0 -0.16245903899E+02 -0.17707905722E+02 -0.85811441845E+01  0.25517353984E+02  0.51100000000E-03 0. -1.
        -12    1    3    3    0    0  0.16464943278E+02 -0.12297498380E+02 -0.12133519621E+02  0.23865144499E+02  0.00000000000E+00 0.  1.
</event>
<event>
 7    1  0.1221195E-011  0.5930195E+02  0.7816164E-02  0.1266605E+00
        -11   -1    0    0    0    0  0.00000000000E+00  0.00000000000E+00  0.45593999997E+02  0.45594000000E+02  0.51100000000E-03 0.  1.
         11   -1    0    0    0    0 -0.00000000000E+00 -0.00000000000E+00 -0.45593999997E+02  0.45594000000E+02  0.51100000000E-03 0. -1.
    9900012    2    1    2    0    0  0.21440144882E+02 -0.46165964807E+01 -0.23145784335E+02  0.59301951199E+02  0.50000013079E+02 0.  0.
        -12    1    1    2    0    0 -0.21440144882E+02  0.46165964807E+01  0.23145784335E+02  0.31886048801E+02  0.00000000000E+00 0.  1.
         11    1    3    3    0    0  0.66763080184E+01  0.18646112703E+02  0.41170809534E+00  0.19809596450E+02  0.51100000000E-03 0. -1.
        -11    1    3    3    0    0  0.10613098488E+02 -0.39276400381E+01 -0.49957685283E+01  0.12370202878E+02  0.51100000000E-03 0.  1.
        -12    1    3    3    0    0  0.41507383757E+01 -0.19335069146E+02 -0.18561723902E+02  0.27122151872E+02  0.00000000000E+00 0.  1.
</event>
<event>
 7    1  0.1221195E-011  0.5930195E+02  0.7816164E-02  0.1266605E+00
        -11   -1    0    0    0    0  0.00000000000E+00  0.00000000000E+00  0.45593999997E+02  0.45594000000E+02  0.51100000000E-03 0.  1.
         11   -1    0    0    0    0 -0.00000000000E+00 -0.00000000000E+00 -0.45593999997E+02  0.45594000000E+02  0.51100000000E-03 0. -1.
    9900012    2    1    2    0    0 -0.79071398040E+01 -0.27128879559E+02  0.14772303315E+02  0.59301954287E+02  0.50000018711E+02 0.  0.
        -12    1    1    2    0    0  0.79071398040E+01  0.27128879559E+02 -0.14772303315E+02  0.31886045713E+02  0.00000000000E+00 0.  1.
         11    1    3    3    0    0  0.41653383506E+00 -0.86119318375E+01  0.11068936060E+02  0.14030688371E+02  0.51100000000E-03 0.  1.
        -11    1    3    3    0    0 -0.22079045204E+02 -0.48827789510E+01  0.10250064622E+02  0.24827194615E+02  0.51100000000E-03 0. -1.
         12    1    3    3    0    0  0.13755371565E+02 -0.13634168770E+02 -0.65466973672E+01  0.20444071301E+02  0.00000000000E+00 0. -1.
</event>
<event>
 7    1  0.1221195E-011  0.5930207E+02  0.7816164E-02  0.1266604E+00
        -11   -1    0    0    0    0  0.00000000000E+00  0.00000000000E+00  0.45593999997E+02  0.45594000000E+02  0.51100000000E-03 0.  1.
         11   -1    0    0    0    0 -0.00000000000E+00 -0.00000000000E+00 -0.45593999997E+02  0.45594000000E+02  0.51100000000E-03 0. -1.
    9900012    2    1    2    0    0 -0.23751762484E+02  0.86105766027E+01  0.19453135922E+02  0.59302066616E+02  0.50000223572E+02 0.  0.
        -12    1    1    2    0    0  0.23751762484E+02 -0.86105766027E+01 -0.19453135922E+02  0.31885933384E+02  0.00000000000E+00 0.  1.
         11    1    3    3    0    0 -0.21701487490E+02 -0.47273589681E+01 -0.53262916093E+01  0.22840137142E+02  0.51100000000E-03 0. -1.
        -11    1    3    3    0    0  0.35832558944E+01  0.95616909555E+01 -0.56410189810E+00  0.10226625443E+02  0.51100000000E-03 0.  1.
        -12    1    3    3    0    0 -0.56335308884E+01  0.37762446153E+01  0.25343529430E+02  0.26235304031E+02  0.00000000000E+00 0.  1.
</event>
<event>
 7    1  0.1221195E-011  0.5930204E+02  0.7816164E-02  0.1266604E+00
        -11   -1    0    0    0    0  0.00000000000E+00  0.00000000000E+00  0.45593999997E+02  0.45594000000E+02  0.51100000000E-03 0.  1.
         11   -1    0    0    0    0 -0.00000000000E+00 -0.00000000000E+00 -0.45593999997E+02  0.45594000000E+02  0.51100000000E-03 0. -1.
    9900012    2    1    2    0    0  0.40808108511E+01 -0.23688604074E+02 -0.20950207421E+02  0.59302044296E+02  0.50000182865E+02 0.  0.
        -12    1    1    2    0    0 -0.40808108511E+01  0.23688604074E+02  0.20950207421E+02  0.31885955704E+02  0.00000000000E+00 0.  1.
         11    1    3    3    0    0  0.15027811082E+01  0.13845324324E+02 -0.72082721927E+01  0.15681535160E+02  0.51100000000E-03 0. -1.
        -11    1    3    3    0    0  0.52679975446E+01 -0.33094782718E+01  0.92308763516E+00  0.62893986680E+01  0.51100000000E-03 0.  1.
        -12    1    3    3    0    0 -0.26899678017E+01 -0.34224450126E+02 -0.14665022864E+02  0.37331110468E+02  0.00000000000E+00 0.  1.
</event>
<event>
 7    1  0.1221195E-011  0.5930197E+02  0.7816164E-02  0.1266605E+00
        -11   -1    0    0    0    0  0.00000000000E+00  0.00000000000E+00  0.45593999997E+02  0.45594000000E+02  0.51100000000E-03 0.  1.
         11   -1    0    0    0    0 -0.00000000000E+00 -0.00000000000E+00 -0.45593999997E+02  0.45594000000E+02  0.51100000000E-03 0. -1.
    9900012    2    1    2    0    0  0.18589218569E+02 -0.38379236236E+01 -0.25620899476E+02  0.59301965522E+02  0.50000039200E+02 0.  0.
        -12    1    1    2    0    0 -0.18589218569E+02  0.38379236236E+01  0.25620899476E+02  0.31886034478E+02  0.00000000000E+00 0.  1.
         11    1    3    3    0    0 -0.40985828099E+01 -0.30881364762E+01 -0.24695106768E+02  0.25222673659E+02  0.51100000000E-03 0. -1.
        -11    1    3    3    0    0  0.69846162179E+01  0.18416431197E+01 -0.12474669668E+02  0.14415057983E+02  0.51100000000E-03 0.  1.
        -12    1    3    3    0    0  0.15703185161E+02 -0.25914302672E+01  0.11548876959E+02  0.19664233879E+02  0.00000000000E+00 0.  1.
</event>
<event>
 7    1  0.1221195E-011  0.5930196E+02  0.7816164E-02  0.1266605E+00
        -11   -1    0    0    0    0  0.00000000000E+00  0.00000000000E+00  0.45593999997E+02  0.45594000000E+02  0.51100000000E-03 0.  1.
         11   -1    0    0    0    0 -0.00000000000E+00 -0.00000000000E+00 -0.45593999997E+02  0.45594000000E+02  0.51100000000E-03 0. -1.
    9900012    2    1    2    0    0  0.24760283641E+02 -0.13132684870E+02  0.15204611768E+02  0.59301964234E+02  0.50000036851E+02 0.  0.
        -12    1    1    2    0    0 -0.24760283641E+02  0.13132684870E+02 -0.15204611768E+02  0.31886035766E+02  0.00000000000E+00 0.  1.
         11    1    3    3    0    0 -0.78645683415E+01 -0.33353887048E+01 -0.16547033469E+01  0.87013962349E+01  0.51100000000E-03 0. -1.
        -11    1    3    3    0    0  0.24599771107E+02 -0.76081859218E+01 -0.58587140594E+01  0.26407532301E+02  0.51100000000E-03 0.  1.
        -12    1    3    3    0    0  0.80250808756E+01 -0.21891102439E+01  0.22718029174E+02  0.24193035698E+02  0.00000000000E+00 0.  1.
</event>
<event>
 7    1  0.1221195E-011  0.5930194E+02  0.7816164E-02  0.1266605E+00
        -11   -1    0    0    0    0  0.00000000000E+00  0.00000000000E+00  0.45593999997E+02  0.45594000000E+02  0.51100000000E-03 0. -1.
         11   -1    0    0    0    0 -0.00000000000E+00 -0.00000000000E+00 -0.45593999997E+02  0.45594000000E+02  0.51100000000E-03 0.  1.
    9900012    2    1    2    0    0  0.15998629816E+02  0.27386547391E+02  0.32774101368E+01  0.59301944251E+02  0.50000000408E+02 0.  0.
        -12    1    1    2    0    0 -0.15998629816E+02 -0.27386547391E+02 -0.32774101368E+01  0.31886055749E+02  0.00000000000E+00 0.  1.
         11    1    3    3    0    0  0.30243996730E+01  0.51747244074E+01  0.18976300535E+02  0.19900370558E+02  0.51100000000E-03 0. -1.
        -11    1    3    3    0    0 -0.39567750570E+01  0.18143091973E+02 -0.62693084311E+01  0.19599287836E+02  0.51100000000E-03 0.  1.
        -12    1    3    3    0    0  0.16931005200E+02  0.40687310108E+01 -0.94295819673E+01  0.19802285858E+02  0.00000000000E+00 0.  1.
</event>
<event>
 7    1  0.1221195E-011  0.5930194E+02  0.7816164E-02  0.1266605E+00
        -11   -1    0    0    0    0  0.00000000000E+00  0.00000000000E+00  0.45593999997E+02  0.45594000000E+02  0.51100000000E-03 0.  1.
         11   -1    0    0    0    0 -0.00000000000E+00 -0.00000000000E+00 -0.45593999997E+02  0.45594000000E+02  0.51100000000E-03 0. -1.
    9900012    2    1    2    0    0  0.17407837792E+02  0.12649252881E+02 -0.23530494641E+02  0.59301943594E+02  0.49999999210E+02 0.  0.
        -12    1    1    2    0    0 -0.17407837792E+02 -0.12649252881E+02  0.23530494641E+02  0.31886056406E+02  0.00000000000E+00 0.  1.
         11    1    3    3    0    0  0.69760029698E+01  0.17183447018E+02 -0.30229472201E+02  0.35464862310E+02  0.51100000000E-03 0. -1.
        -11    1    3    3    0    0 -0.49530153838E+01  0.14582733358E+01 -0.15357284689E+01  0.53867786947E+01  0.51100000000E-03 0.  1.
        -12    1    3    3    0    0  0.15384850206E+02 -0.59924674719E+01  0.82347060293E+01  0.18450302590E+02  0.00000000000E+00 0.  1.
</event>
<event>
 7    1  0.1221195E-011  0.5930193E+02  0.7816164E-02  0.1266605E+00
        -11   -1    0    0    0    0  0.00000000000E+00  0.00000000000E+00  0.45593999997E+02  0.45594000000E+02  0.51100000000E-03 0.  1.
         11   -1    0    0    0    0 -0.00000000000E+00 -0.00000000000E+00 -0.45593999997E+02  0.45594000000E+02  0.51100000000E-03 0. -1.
    9900012    2    1    2    0    0 -0.15707940333E+02  0.10397303253E+01 -0.27729062149E+02  0.59301932254E+02  0.49999978527E+02 0.  0.
        -12    1    1    2    0    0  0.15707940333E+02 -0.10397303253E+01  0.27729062149E+02  0.31886067746E+02  0.00000000000E+00 0.  1.
         11    1    3    3    0    0 -0.27779005420E+01  0.22709567879E+01 -0.14306675271E+02  0.14749743514E+02  0.51100000000E-03 0. -1.
        -11    1    3    3    0    0  0.88024512543E+01  0.12348087576E+02 -0.11156237217E+02  0.18826046955E+02  0.51100000000E-03 0.  1.
         12    1    3    3    0    0 -0.21732491046E+02 -0.13579314039E+02 -0.22661496610E+01  0.25726141784E+02  0.00000000000E+00 0. -1.
</event>
<event>
 7    1  0.1221195E-011  0.5930190E+02  0.7816164E-02  0.1266605E+00
        -11   -1    0    0    0    0  0.00000000000E+00  0.00000000000E+00  0.45593999997E+02  0.45594000000E+02  0.51100000000E-03 0. -1.
         11   -1    0    0    0    0 -0.00000000000E+00 -0.00000000000E+00 -0.45593999997E+02  0.45594000000E+02  0.51100000000E-03 0.  1.
    9900012    2    1    2    0    0 -0.14595628013E+02 -0.23578002795E+02  0.15740667315E+02  0.59301903023E+02  0.49999925218E+02 0.  0.
        -12    1    1    2    0    0  0.14595628013E+02  0.23578002795E+02 -0.15740667315E+02  0.31886096977E+02  0.00000000000E+00 0.  1.
         11    1    3    3    0    0 -0.67690929745E+01 -0.16825788593E+02  0.19077572913E+02  0.26322643674E+02  0.51100000000E-03 0. -1.
        -11    1    3    3    0    0 -0.20744379432E+01  0.87143805187E+01  0.87517933722E+01  0.12523482267E+02  0.51100000000E-03 0.  1.
        -12    1    3    3    0    0 -0.57520970950E+01 -0.15466594721E+02 -0.12088698970E+02  0.20455777082E+02  0.00000000000E+00 0.  1.
</event>
<event>
 7    1  0.1221195E-011  0.5930194E+02  0.7816164E-02  0.1266605E+00
        -11   -1    0    0    0    0  0.00000000000E+00  0.00000000000E+00  0.45593999997E+02  0.45594000000E+02  0.51100000000E-03 0. -1.
         11   -1    0    0    0    0 -0.00000000000E+00 -0.00000000000E+00 -0.45593999997E+02  0.45594000000E+02  0.51100000000E-03 0.  1.
    9900012    2    1    2    0    0  0.22944824317E+02 -0.80710191697E+00  0.22127004292E+02  0.59301941991E+02  0.49999996285E+02 0.  0.
        -12    1    1    2    0    0 -0.22944824317E+02  0.80710191697E+00 -0.22127004292E+02  0.31886058009E+02  0.00000000000E+00 0.  1.
         11    1    3    3    0    0 -0.55693479402E+01 -0.23246347320E+00 -0.11467992015E+02  0.12750941803E+02  0.51100000000E-03 0. -1.
        -11    1    3    3    0    0  0.13852132322E+02  0.14647057458E+01  0.58581063331E+01  0.15111066900E+02  0.51100000000E-03 0.  1.
         12    1    3    3    0    0  0.14662039935E+02 -0.20393441896E+01  0.27736889973E+02  0.31439933288E+02  0.00000000000E+00 0. -1.
</event>
<event>
 7    1  0.1221195E-011  0.5930195E+02  0.7816164E-02  0.1266605E+00
        -11   -1    0    0    0    0  0.00000000000E+00  0.00000000000E+00  0.45593999997E+02  0.45594000000E+02  0.51100000000E-03 0. -1.
         11   -1    0    0    0    0 -0.00000000000E+00 -0.00000000000E+00 -0.45593999997E+02  0.45594000000E+02  0.51100000000E-03 0.  1.
    9900012    2    1    2    0    0 -0.30267363832E+02  0.73925678879E+01 -0.67791474681E+01  0.59301949543E+02  0.50000010059E+02 0.  0.
        -12    1    1    2    0    0  0.30267363832E+02 -0.73925678879E+01  0.67791474681E+01  0.31886050457E+02  0.00000000000E+00 0.  1.
         11    1    3    3    0    0 -0.90519675687E+01  0.96080067344E+01 -0.19077868020E+02  0.23199503416E+02  0.51100000000E-03 0.  1.
        -11    1    3    3    0    0 -0.25614723683E+02 -0.13003822430E+01  0.30608833078E+01  0.25829712933E+02  0.51100000000E-03 0. -1.
        -12    1    3    3    0    0  0.43993274190E+01 -0.91505660349E+00  0.92378372446E+01  0.10272733195E+02  0.00000000000E+00 0.  1.
</event>
<event>
 7    1  0.1221195E-011  0.5930195E+02  0.7816164E-02  0.1266605E+00
        -11   -1    0    0    0    0  0.00000000000E+00  0.00000000000E+00  0.45593999997E+02  0.45594000000E+02  0.51100000000E-03 0. -1.
         11   -1    0    0    0    0 -0.00000000000E+00 -0.00000000000E+00 -0.45593999997E+02  0.45594000000E+02  0.51100000000E-03 0.  1.
    9900012    2    1    2    0    0 -0.13833399301E+02 -0.28699831094E+02  0.12950667329E+01  0.59301946012E+02  0.50000003619E+02 0.  0.
        -12    1    1    2    0    0  0.13833399301E+02  0.28699831094E+02 -0.12950667329E+01  0.31886053988E+02  0.00000000000E+00 0.  1.
         11    1    3    3    0    0 -0.29922148613E+01  0.21351452131E+01  0.10429684855E+02  0.11058504478E+02  0.51100000000E-03 0.  1.
        -11    1    3    3    0    0 -0.12177336273E+02 -0.12987317850E+02  0.11294169006E+02  0.21083552770E+02  0.51100000000E-03 0. -1.
        -12    1    3    3    0    0  0.13361518330E+01 -0.17847658458E+02 -0.20428787128E+02  0.27159888764E+02  0.00000000000E+00 0.  1.
</event>
<event>
 7    1  0.1221195E-011  0.5930197E+02  0.7816164E-02  0.1266605E+00
        -11   -1    0    0    0    0  0.00000000000E+00  0.00000000000E+00  0.45593999997E+02  0.45594000000E+02  0.51100000000E-03 0.  1.
         11   -1    0    0    0    0 -0.00000000000E+00 -0.00000000000E+00 -0.45593999997E+02  0.45594000000E+02  0.51100000000E-03 0. -1.
    9900012    2    1    2    0    0  0.15331004063E+02  0.88864525153E+01 -0.26508684795E+02  0.59301967110E+02  0.50000042097E+02 0.  0.
        -12    1    1    2    0    0 -0.15331004063E+02 -0.88864525153E+01  0.26508684795E+02  0.31886032890E+02  0.00000000000E+00 0.  1.
         11    1    3    3    0    0 -0.31106335889E+01  0.39350453587E+01  0.10619606438E+02  0.11744644076E+02  0.51100000000E-03 0. -1.
        -11    1    3    3    0    0  0.59764416771E+01  0.48487740303E+01  0.70026363543E+00  0.77277962018E+01  0.51100000000E-03 0.  1.
         12    1    3    3    0    0  0.12465195975E+02  0.10263312629E+00 -0.37828554869E+02  0.39829526833E+02  0.00000000000E+00 0. -1.
</event>
<event>
 7    1  0.1221195E-011  0.5930193E+02  0.7816164E-02  0.1266605E+00
        -11   -1    0    0    0    0  0.00000000000E+00  0.00000000000E+00  0.45593999997E+02  0.45594000000E+02  0.51100000000E-03 0. -1.
         11   -1    0    0    0    0 -0.00000000000E+00 -0.00000000000E+00 -0.45593999997E+02  0.45594000000E+02  0.51100000000E-03 0.  1.
    9900012    2    1    2    0    0 -0.22675524087E+02  0.17844928255E+02  0.13568372696E+02  0.59301927889E+02  0.49999970567E+02 0.  0.
        -12    1    1    2    0    0  0.22675524087E+02 -0.17844928255E+02 -0.13568372696E+02  0.31886072111E+02  0.00000000000E+00 0.  1.
         11    1    3    3    0    0  0.32929598902E+01 -0.27262704053E-01  0.16413201717E+02  0.16740296263E+02  0.51100000000E-03 0. -1.
        -11    1    3    3    0    0  0.50591981433E+01  0.87012819429E+01  0.17202132169E+00  0.10066647153E+02  0.51100000000E-03 0.  1.
         12    1    3    3    0    0 -0.31027682120E+02  0.91709090161E+01 -0.30168503431E+01  0.32494984474E+02  0.00000000000E+00 0. -1.
</event>
<event>
 7    1  0.1221195E-011  0.5930191E+02  0.7816164E-02  0.1266605E+00
        -11   -1    0    0    0    0  0.00000000000E+00  0.00000000000E+00  0.45593999997E+02  0.45594000000E+02  0.51100000000E-03 0. -1.
         11   -1    0    0    0    0 -0.00000000000E+00 -0.00000000000E+00 -0.45593999997E+02  0.45594000000E+02  0.51100000000E-03 0.  1.
    9900012    2    1    2    0    0  0.11348209109E+02  0.15344486133E+02  0.25543836256E+02  0.59301910943E+02  0.49999939662E+02 0.  0.
        -12    1    1    2    0    0 -0.11348209109E+02 -0.15344486133E+02 -0.25543836256E+02  0.31886089057E+02  0.00000000000E+00 0.  1.
         11    1    3    3    0    0  0.11976799113E+02  0.11471305442E+02  0.90038823217E+01  0.18870730316E+02  0.51100000000E-03 0. -1.
        -11    1    3    3    0    0 -0.51714237408E+01  0.32164587886E+01 -0.10966674060E+02  0.12544208658E+02  0.51100000000E-03 0.  1.
        -12    1    3    3    0    0  0.45428337375E+01  0.65672190294E+00  0.27506627994E+02  0.27886971970E+02  0.00000000000E+00 0.  1.
</event>
<event>
 7    1  0.1221195E-011  0.5930196E+02  0.7816164E-02  0.1266605E+00
        -11   -1    0    0    0    0  0.00000000000E+00  0.00000000000E+00  0.45593999997E+02  0.45594000000E+02  0.51100000000E-03 0.  1.
         11   -1    0    0    0    0 -0.00000000000E+00 -0.00000000000E+00 -0.45593999997E+02  0.45594000000E+02  0.51100000000E-03 0. -1.
    9900012    2    1    2    0    0 -0.28579031077E+02  0.97437483482E+01 -0.10247808969E+02  0.59301964846E+02  0.50000037967E+02 0.  0.
        -12    1    1    2    0    0  0.28579031077E+02 -0.97437483482E+01  0.10247808969E+02  0.31886035154E+02  0.00000000000E+00 0.  1.
         11    1    3    3    0    0  0.28205068717E+01 -0.29538027930E+01 -0.45156046962E+01  0.60885873556E+01  0.51100000000E-03 0. -1.
        -11    1    3    3    0    0 -0.24011421516E+02 -0.12199317709E+02 -0.30866906253E+01  0.27109027557E+02  0.51100000000E-03 0.  1.
         12    1    3    3    0    0 -0.73881164329E+01  0.24896868850E+02 -0.26455136475E+01  0.26104349933E+02  0.00000000000E+00 0. -1.
</event>
<event>
 7    1  0.1221195E-011  0.5930195E+02  0.7816164E-02  0.1266605E+00
        -11   -1    0    0    0    0  0.00000000000E+00  0.00000000000E+00  0.45593999997E+02  0.45594000000E+02  0.51100000000E-03 0.  1.
         11   -1    0    0    0    0 -0.00000000000E+00 -0.00000000000E+00 -0.45593999997E+02  0.45594000000E+02  0.51100000000E-03 0. -1.
    9900012    2    1    2    0    0 -0.40964237725E+01 -0.29642879794E+02 -0.11010878195E+02  0.59301945857E+02  0.50000003336E+02 0.  0.
        -12    1    1    2    0    0  0.40964237725E+01  0.29642879794E+02  0.11010878195E+02  0.31886054143E+02  0.00000000000E+00 0.  1.
         11    1    3    3    0    0  0.92743424355E+01 -0.31971674175E+01 -0.78559433755E+01  0.12567861938E+02  0.51100000000E-03 0. -1.
        -11    1    3    3    0    0 -0.12989778525E+02 -0.61740188478E+01 -0.16935818168E+02  0.22218793670E+02  0.51100000000E-03 0.  1.
        -12    1    3    3    0    0 -0.38098768256E+00 -0.20271693528E+02  0.13780883349E+02  0.24515290249E+02  0.00000000000E+00 0.  1.
</event>
<event>
 7    1  0.1221195E-011  0.5930194E+02  0.7816164E-02  0.1266605E+00
        -11   -1    0    0    0    0  0.00000000000E+00  0.00000000000E+00  0.45593999997E+02  0.45594000000E+02  0.51100000000E-03 0.  1.
         11   -1    0    0    0    0 -0.00000000000E+00 -0.00000000000E+00 -0.45593999997E+02  0.45594000000E+02  0.51100000000E-03 0. -1.
    9900012    2    1    2    0    0  0.26088809567E+02  0.13575964958E+02  0.12320224378E+02  0.59301941324E+02  0.49999995070E+02 0.  0.
        -12    1    1    2    0    0 -0.26088809567E+02 -0.13575964958E+02 -0.12320224378E+02  0.31886058676E+02  0.00000000000E+00 0.  1.
         11    1    3    3    0    0  0.40390211410E+01 -0.93078126588E+01  0.92254144637E+01  0.13713400036E+02  0.51100000000E-03 0.  1.
        -11    1    3    3    0    0  0.19053089247E+02 -0.27380194439E+01 -0.17964800911E+01  0.19332467543E+02  0.51100000000E-03 0. -1.
         12    1    3    3    0    0  0.29966991786E+01  0.25621797061E+02  0.48912900055E+01  0.26256073745E+02  0.00000000000E+00 0. -1.
</event>
<event>
 7    1  0.1221195E-011  0.5930195E+02  0.7816164E-02  0.1266605E+00
        -11   -1    0    0    0    0  0.00000000000E+00  0.00000000000E+00  0.45593999997E+02  0.45594000000E+02  0.51100000000E-03 0.  1.
         11   -1    0    0    0    0 -0.00000000000E+00 -0.00000000000E+00 -0.45593999997E+02  0.45594000000E+02  0.51100000000E-03 0. -1.
    9900012    2    1    2    0    0  0.87411873171E+01  0.83881045383E+01 -0.29494945028E+02  0.59301946063E+02  0.50000003712E+02 0.  0.
        -12    1    1    2    0    0 -0.87411873171E+01 -0.83881045383E+01  0.29494945028E+02  0.31886053937E+02  0.00000000000E+00 0.  1.
         11    1    3    3    0    0  0.56344148832E+00 -0.48592593128E+01 -0.24564892225E+02  0.25047231337E+02  0.51100000000E-03 0. -1.
        -11    1    3    3    0    0 -0.95990592693E+01 -0.38702579272E+00 -0.68052656351E+01  0.11772993181E+02  0.51100000000E-03 0.  1.
         12    1    3    3    0    0  0.17776805098E+02  0.13634389644E+02  0.18752128321E+01  0.22481721545E+02  0.00000000000E+00 0. -1.
</event>
<event>
 7    1  0.1221195E-011  0.5930194E+02  0.7816164E-02  0.1266605E+00
        -11   -1    0    0    0    0  0.00000000000E+00  0.00000000000E+00  0.45593999997E+02  0.45594000000E+02  0.51100000000E-03 0. -1.
         11   -1    0    0    0    0 -0.00000000000E+00 -0.00000000000E+00 -0.45593999997E+02  0.45594000000E+02  0.51100000000E-03 0.  1.
    9900012    2    1    2    0    0  0.56255693737E+01  0.26692453617E+02  0.16510206020E+02  0.59301936999E+02  0.49999987181E+02 0.  0.
        -12    1    1    2    0    0 -0.56255693737E+01 -0.26692453617E+02 -0.16510206020E+02  0.31886063001E+02  0.00000000000E+00 0.  1.
         11    1    3    3    0    0  0.37454809945E+01  0.12546271630E+02 -0.88087979613E+01  0.15780763019E+02  0.51100000000E-03 0. -1.
        -11    1    3    3    0    0 -0.53464904826E+01 -0.72342233030E+01  0.17428251942E+02  0.19612825225E+02  0.51100000000E-03 0.  1.
         12    1    3    3    0    0  0.72265788617E+01  0.21380405291E+02  0.78907520387E+01  0.23908348755E+02  0.00000000000E+00 0. -1.
</event>
<event>
 7    1  0.1221195E-011  0.5930195E+02  0.7816164E-02  0.1266605E+00
        -11   -1    0    0    0    0  0.00000000000E+00  0.00000000000E+00  0.45593999997E+02  0.45594000000E+02  0.51100000000E-03 0. -1.
         11   -1    0    0    0    0 -0.00000000000E+00 -0.00000000000E+00 -0.45593999997E+02  0.45594000000E+02  0.51100000000E-03 0.  1.
    9900012    2    1    2    0    0 -0.22675612494E+02  0.17211250038E+02 -0.14363487217E+02  0.59301948270E+02  0.50000007738E+02 0.  0.
        -12    1    1    2    0    0  0.22675612494E+02 -0.17211250038E+02  0.14363487217E+02  0.31886051730E+02  0.00000000000E+00 0.  1.
         11    1    3    3    0    0 -0.15066223955E+02  0.12491584570E+02 -0.30372892537E+00  0.19573529085E+02  0.51100000000E-03 0. -1.
        -11    1    3    3    0    0 -0.17669895296E+02  0.12868605221E+02 -0.15360454432E+02  0.26716469841E+02  0.51100000000E-03 0.  1.
         12    1    3    3    0    0  0.10060506756E+02 -0.81489397532E+01  0.13006961409E+01  0.13011949345E+02  0.00000000000E+00 0. -1.
</event>
<event>
 7    1  0.1221195E-011  0.5930191E+02  0.7816164E-02  0.1266605E+00
        -11   -1    0    0    0    0  0.00000000000E+00  0.00000000000E+00  0.45593999997E+02  0.45594000000E+02  0.51100000000E-03 0.  1.
         11   -1    0    0    0    0 -0.00000000000E+00 -0.00000000000E+00 -0.45593999997E+02  0.45594000000E+02  0.51100000000E-03 0. -1.
    9900012    2    1    2    0    0 -0.27004170593E+02 -0.12262808913E+02 -0.11709857756E+02  0.59301913998E+02  0.49999945233E+02 0.  0.
        -12    1    1    2    0    0  0.27004170593E+02  0.12262808913E+02  0.11709857756E+02  0.31886086002E+02  0.00000000000E+00 0.  1.
         11    1    3    3    0    0 -0.20288410148E+02 -0.10118882666E+02 -0.16608471810E+02  0.28104318331E+02  0.51100000000E-03 0. -1.
        -11    1    3    3    0    0 -0.99363397437E+01 -0.14738568288E+02  0.20883127674E+01  0.17897410236E+02  0.51100000000E-03 0.  1.
        -12    1    3    3    0    0  0.32205792982E+01  0.12594642041E+02  0.28103012867E+01  0.13300185430E+02  0.00000000000E+00 0.  1.
</event>
<event>
 7    1  0.1221195E-011  0.5930195E+02  0.7816164E-02  0.1266605E+00
        -11   -1    0    0    0    0  0.00000000000E+00  0.00000000000E+00  0.45593999997E+02  0.45594000000E+02  0.51100000000E-03 0.  1.
         11   -1    0    0    0    0 -0.00000000000E+00 -0.00000000000E+00 -0.45593999997E+02  0.45594000000E+02  0.51100000000E-03 0. -1.
    9900012    2    1    2    0    0 -0.12297308569E+02  0.49916843434E+01 -0.28992748303E+02  0.59301950311E+02  0.50000011458E+02 0.  0.
        -12    1    1    2    0    0  0.12297308569E+02 -0.49916843434E+01  0.28992748303E+02  0.31886049689E+02  0.00000000000E+00 0.  1.
         11    1    3    3    0    0 -0.15434351464E+02  0.87909333468E+01 -0.46341702853E+01  0.18356885595E+02  0.51100000000E-03 0. -1.
        -11    1    3    3    0    0 -0.14653482375E+02 -0.35031753495E+01 -0.12317918480E+02  0.19460932639E+02  0.51100000000E-03 0.  1.
        -12    1    3    3    0    0  0.17790525270E+02 -0.29607365387E+00 -0.12040659537E+02  0.21484132077E+02  0.00000000000E+00 0.  1.
</event>
<event>
 7    1  0.1221195E-011  0.5930198E+02  0.7816164E-02  0.1266605E+00
        -11   -1    0    0    0    0  0.00000000000E+00  0.00000000000E+00  0.45593999997E+02  0.45594000000E+02  0.51100000000E-03 0. -1.
         11   -1    0    0    0    0 -0.00000000000E+00 -0.00000000000E+00 -0.45593999997E+02  0.45594000000E+02  0.51100000000E-03 0.  1.
    9900012    2    1    2    0    0 -0.27895399466E+01 -0.94658108516E+01  0.30320545374E+02  0.59301975162E+02  0.50000056781E+02 0.  0.
        -12    1    1    2    0    0  0.27895399466E+01  0.94658108516E+01 -0.30320545374E+02  0.31886024838E+02  0.00000000000E+00 0.  1.
         11    1    3    3    0    0  0.28759982107E+00  0.94992642773E+00 -0.14972186077E+01  0.17963122489E+01  0.51100000000E-03 0. -1.
        -11    1    3    3    0    0  0.68100350122E+01 -0.27378203194E+02  0.20111534509E+02  0.34647025956E+02  0.51100000000E-03 0.  1.
         12    1    3    3    0    0 -0.98871747798E+01  0.16962465915E+02  0.11706229473E+02  0.22858636957E+02  0.00000000000E+00 0. -1.
</event>
<event>
 7    1  0.1221195E-011  0.5930195E+02  0.7816164E-02  0.1266605E+00
        -11   -1    0    0    0    0  0.00000000000E+00  0.00000000000E+00  0.45593999997E+02  0.45594000000E+02  0.51100000000E-03 0. -1.
         11   -1    0    0    0    0 -0.00000000000E+00 -0.00000000000E+00 -0.45593999997E+02  0.45594000000E+02  0.51100000000E-03 0.  1.
    9900012    2    1    2    0    0 -0.54716489727E+01  0.10800634219E+02  0.29497926443E+02  0.59301948090E+02  0.50000007408E+02 0.  0.
        -12    1    1    2    0    0  0.54716489727E+01 -0.10800634219E+02 -0.29497926443E+02  0.31886051910E+02  0.00000000000E+00 0.  1.
         11    1    3    3    0    0  0.89618158088E+01 -0.53009402142E+01  0.67342044334E+01  0.12400145941E+02  0.51100000000E-03 0. -1.
        -11    1    3    3    0    0  0.82495856082E+01 -0.35521058268E+01  0.12059888629E+02  0.15037088565E+02  0.51100000000E-03 0.  1.
        -12    1    3    3    0    0 -0.22683050390E+02  0.19653680260E+02  0.10703833380E+02  0.31864713584E+02  0.00000000000E+00 0.  1.
</event>
<event>
 7    1  0.1221195E-011  0.5930193E+02  0.7816164E-02  0.1266605E+00
        -11   -1    0    0    0    0  0.00000000000E+00  0.00000000000E+00  0.45593999997E+02  0.45594000000E+02  0.51100000000E-03 0.  1.
         11   -1    0    0    0    0 -0.00000000000E+00 -0.00000000000E+00 -0.45593999997E+02  0.45594000000E+02  0.51100000000E-03 0. -1.
    9900012    2    1    2    0    0  0.13267102382E+02 -0.23361477858E+02 -0.17174007206E+02  0.59301934441E+02  0.49999982516E+02 0.  0.
        -12    1    1    2    0    0 -0.13267102382E+02  0.23361477858E+02  0.17174007206E+02  0.31886065559E+02  0.00000000000E+00 0.  1.
         11    1    3    3    0    0  0.12970467532E+02 -0.22544466419E+02 -0.23160433044E+02  0.34826594051E+02  0.51100000000E-03 0. -1.
        -11    1    3    3    0    0  0.11265615824E+02 -0.32141535712E+01 -0.75851098011E-01  0.11715401689E+02  0.51100000000E-03 0.  1.
         12    1    3    3    0    0 -0.10968980974E+02  0.23971421323E+01  0.60622769365E+01  0.12759938701E+02  0.00000000000E+00 0. -1.
</event>
<event>
 7    1  0.1221195E-011  0.5930185E+02  0.7816164E-02  0.1266605E+00
        -11   -1    0    0    0    0  0.00000000000E+00  0.00000000000E+00  0.45593999997E+02  0.45594000000E+02  0.51100000000E-03 0.  1.
         11   -1    0    0    0    0 -0.00000000000E+00 -0.00000000000E+00 -0.45593999997E+02  0.45594000000E+02  0.51100000000E-03 0. -1.
    9900012    2    1    2    0    0 -0.23710512711E+00  0.57809830236E+01 -0.31356826602E+02  0.59301850058E+02  0.49999828622E+02 0.  0.
        -12    1    1    2    0    0  0.23710512711E+00 -0.57809830236E+01  0.31356826602E+02  0.31886149942E+02  0.00000000000E+00 0.  1.
         11    1    3    3    0    0 -0.15072645947E+02  0.14118861765E+02 -0.29236254795E+02  0.35795048653E+02  0.51100000000E-03 0. -1.
        -11    1    3    3    0    0 -0.27201779391E+01  0.11459395089E+01  0.13633324792E+01  0.32513414291E+01  0.51100000000E-03 0.  1.
         12    1    3    3    0    0  0.17555718759E+02 -0.94838182503E+01 -0.34839042861E+01  0.20255459976E+02  0.00000000000E+00 0. -1.
</event>
<event>
 7    1  0.1221195E-011  0.5930171E+02  0.7816164E-02  0.1266606E+00
        -11   -1    0    0    0    0  0.00000000000E+00  0.00000000000E+00  0.45593999997E+02  0.45594000000E+02  0.51100000000E-03 0.  1.
         11   -1    0    0    0    0 -0.00000000000E+00 -0.00000000000E+00 -0.45593999997E+02  0.45594000000E+02  0.51100000000E-03 0. -1.
    9900012    2    1    2    0    0  0.46223082115E+01 -0.50451682669E+01 -0.31143476242E+02  0.59301708769E+02  0.49999570942E+02 0.  0.
        -12    1    1    2    0    0 -0.46223082115E+01  0.50451682669E+01  0.31143476242E+02  0.31886291231E+02  0.00000000000E+00 0.  1.
         11    1    3    3    0    0  0.27378847267E+01  0.75239193312E+01 -0.24529293572E+02  0.25802938171E+02  0.51100000000E-03 0. -1.
        -11    1    3    3    0    0 -0.39651419702E+01 -0.17064183365E+02 -0.14470049745E+02  0.22722038743E+02  0.51100000000E-03 0.  1.
        -12    1    3    3    0    0  0.58495654550E+01  0.44950957669E+01  0.78558670748E+01  0.10776731854E+02  0.00000000000E+00 0.  1.
</event>
<event>
 7    1  0.1221195E-011  0.5930194E+02  0.7816164E-02  0.1266605E+00
        -11   -1    0    0    0    0  0.00000000000E+00  0.00000000000E+00  0.45593999997E+02  0.45594000000E+02  0.51100000000E-03 0.  1.
         11   -1    0    0    0    0 -0.00000000000E+00 -0.00000000000E+00 -0.45593999997E+02  0.45594000000E+02  0.51100000000E-03 0. -1.
    9900012    2    1    2    0    0  0.69749896798E+01 -0.23593879712E+02 -0.20282981632E+02  0.59301937453E+02  0.49999988009E+02 0.  0.
        -12    1    1    2    0    0 -0.69749896798E+01  0.23593879712E+02  0.20282981632E+02  0.31886062547E+02  0.00000000000E+00 0.  1.
         11    1    3    3    0    0 -0.14199114782E+02 -0.14393579562E+02  0.35791315478E+01  0.20532904716E+02  0.51100000000E-03 0. -1.
        -11    1    3    3    0    0  0.42976330541E+01 -0.15898384038E+01 -0.19115614511E+02  0.19657160385E+02  0.51100000000E-03 0.  1.
         12    1    3    3    0    0  0.16876471407E+02 -0.76104617461E+01 -0.47464986684E+01  0.19111872351E+02  0.00000000000E+00 0. -1.
</event>
<event>
 7    1  0.1221195E-011  0.5930194E+02  0.7816164E-02  0.1266605E+00
        -11   -1    0    0    0    0  0.00000000000E+00  0.00000000000E+00  0.45593999997E+02  0.45594000000E+02  0.51100000000E-03 0.  1.
         11   -1    0    0    0    0 -0.00000000000E+00 -0.00000000000E+00 -0.45593999997E+02  0.45594000000E+02  0.51100000000E-03 0. -1.
    9900012    2    1    2    0    0 -0.31552060416E+02  0.28225917363E+01 -0.36361376179E+01  0.59301936628E+02  0.49999986504E+02 0.  0.
        -12    1    1    2    0    0  0.31552060416E+02 -0.28225917363E+01  0.36361376179E+01  0.31886063372E+02  0.00000000000E+00 0.  1.
         11    1    3    3    0    0 -0.96515126437E+01  0.83557192802E+01 -0.21936650283E+02  0.25380826758E+02  0.51100000000E-03 0. -1.
        -11    1    3    3    0    0 -0.13696953310E+02 -0.55762764898E+01  0.10578532905E+01  0.14826342884E+02  0.51100000000E-03 0.  1.
        -12    1    3    3    0    0 -0.82035944620E+01  0.43148945953E-01  0.17242659375E+02  0.19094766986E+02  0.00000000000E+00 0.  1.
</event>
<event>
 7    1  0.1221195E-011  0.5930192E+02  0.7816164E-02  0.1266605E+00
        -11   -1    0    0    0    0  0.00000000000E+00  0.00000000000E+00  0.45593999997E+02  0.45594000000E+02  0.51100000000E-03 0. -1.
         11   -1    0    0    0    0 -0.00000000000E+00 -0.00000000000E+00 -0.45593999997E+02  0.45594000000E+02  0.51100000000E-03 0.  1.
    9900012    2    1    2    0    0  0.50380405259E+01  0.22640883505E+02  0.21879917643E+02  0.59301917545E+02  0.49999951702E+02 0.  0.
        -12    1    1    2    0    0 -0.50380405259E+01 -0.22640883505E+02 -0.21879917643E+02  0.31886082455E+02  0.00000000000E+00 0.  1.
         11    1    3    3    0    0 -0.98727827749E+01 -0.10195392956E+01  0.94660018061E+01  0.13715556516E+02  0.51100000000E-03 0. -1.
        -11    1    3    3    0    0  0.41159272061E+01  0.20313769324E+02 -0.80290154331E+01  0.22227351844E+02  0.51100000000E-03 0.  1.
         12    1    3    3    0    0  0.10794896095E+02  0.33466534768E+01  0.20442931270E+02  0.23359009185E+02  0.00000000000E+00 0. -1.
</event>
<event>
 7    1  0.1221195E-011  0.5930203E+02  0.7816164E-02  0.1266604E+00
        -11   -1    0    0    0    0  0.00000000000E+00  0.00000000000E+00  0.45593999997E+02  0.45594000000E+02  0.51100000000E-03 0.  1.
         11   -1    0    0    0    0 -0.00000000000E+00 -0.00000000000E+00 -0.45593999997E+02  0.45594000000E+02  0.51100000000E-03 0. -1.
    9900012    2    1    2    0    0 -0.90106014627E+01 -0.94540093354E+01 -0.29088588509E+02  0.59302027964E+02  0.50000153080E+02 0.  0.
        -12    1    1    2    0    0  0.90106014627E+01  0.94540093354E+01  0.29088588509E+02  0.31885972036E+02  0.00000000000E+00 0.  1.
         11    1    3    3    0    0  0.66055234505E+01 -0.30003025142E+01 -0.11464157502E+02  0.13566932694E+02  0.51100000000E-03 0. -1.
        -11    1    3    3    0    0  0.10481899897E+02  0.55798000989E+01  0.27555254372E+00  0.11877723859E+02  0.51100000000E-03 0.  1.
         12    1    3    3    0    0 -0.26098024811E+02 -0.12033506920E+02 -0.17899983551E+02  0.33857371412E+02  0.00000000000E+00 0. -1.
</event>
<event>
 7    1  0.1221195E-011  0.5930191E+02  0.7816164E-02  0.1266605E+00
        -11   -1    0    0    0    0  0.00000000000E+00  0.00000000000E+00  0.45593999997E+02  0.45594000000E+02  0.51100000000E-03 0.  1.
         11   -1    0    0    0    0 -0.00000000000E+00 -0.00000000000E+00 -0.45593999997E+02  0.45594000000E+02  0.51100000000E-03 0. -1.
    9900012    2    1    2    0    0 -0.72257668560E+01  0.31010496754E+02  0.16912046937E+01  0.59301909163E+02  0.49999936414E+02 0.  0.
        -12    1    1    2    0    0  0.72257668560E+01 -0.31010496754E+02 -0.16912046937E+01  0.31886090837E+02  0.00000000000E+00 0.  1.
         11    1    3    3    0    0  0.73289001461E+01  0.11570043836E+02 -0.10129130740E+02  0.17034611282E+02  0.51100000000E-03 0. -1.
        -11    1    3    3    0    0 -0.68167489591E+01  0.14521842425E+02 -0.97891717125E+01  0.18793080026E+02  0.51100000000E-03 0.  1.
        -12    1    3    3    0    0 -0.77379180430E+01  0.49186104925E+01  0.21609507146E+02  0.23474217855E+02  0.00000000000E+00 0.  1.
</event>
<event>
 7    1  0.1221195E-011  0.5930197E+02  0.7816164E-02  0.1266605E+00
        -11   -1    0    0    0    0  0.00000000000E+00  0.00000000000E+00  0.45593999997E+02  0.45594000000E+02  0.51100000000E-03 0. -1.
         11   -1    0    0    0    0 -0.00000000000E+00 -0.00000000000E+00 -0.45593999997E+02  0.45594000000E+02  0.51100000000E-03 0.  1.
    9900012    2    1    2    0    0 -0.15625990705E+02 -0.27628318563E+02  0.30369498574E+01  0.59301974274E+02  0.50000055162E+02 0.  0.
        -12    1    1    2    0    0  0.15625990705E+02  0.27628318563E+02 -0.30369498574E+01  0.31886025726E+02  0.00000000000E+00 0.  1.
         11    1    3    3    0    0 -0.10311689796E+02 -0.13135930934E+02  0.35087672549E+01  0.17064438926E+02  0.51100000000E-03 0. -1.
        -11    1    3    3    0    0  0.85358466694E+01 -0.23721940369E+02 -0.30522766051E+01  0.25395029553E+02  0.51100000000E-03 0.  1.
        -12    1    3    3    0    0 -0.13850147579E+02  0.92295527402E+01  0.25804592076E+01  0.16842505795E+02  0.00000000000E+00 0.  1.
</event>
<event>
 7    1  0.1221195E-011  0.5930192E+02  0.7816164E-02  0.1266605E+00
        -11   -1    0    0    0    0  0.00000000000E+00  0.00000000000E+00  0.45593999997E+02  0.45594000000E+02  0.51100000000E-03 0. -1.
         11   -1    0    0    0    0 -0.00000000000E+00 -0.00000000000E+00 -0.45593999997E+02  0.45594000000E+02  0.51100000000E-03 0.  1.
    9900012    2    1    2    0    0  0.13624674766E+02  0.26302764896E+02  0.11800642829E+02  0.59301915655E+02  0.49999948256E+02 0.  0.
        -12    1    1    2    0    0 -0.13624674766E+02 -0.26302764896E+02 -0.11800642829E+02  0.31886084345E+02  0.00000000000E+00 0.  1.
         11    1    3    3    0    0  0.80404422801E+01  0.29953054892E+01 -0.15553697381E+02  0.17763391273E+02  0.51100000000E-03 0. -1.
        -11    1    3    3    0    0  0.12521984153E+02  0.18693084421E+02  0.16736795984E+02  0.28041965558E+02  0.51100000000E-03 0.  1.
        -12    1    3    3    0    0 -0.69377516680E+01  0.46143749863E+01  0.10617544226E+02  0.13496558825E+02  0.00000000000E+00 0.  1.
</event>
<event>
 7    1  0.1221195E-011  0.5930198E+02  0.7816164E-02  0.1266605E+00
        -11   -1    0    0    0    0  0.00000000000E+00  0.00000000000E+00  0.45593999997E+02  0.45594000000E+02  0.51100000000E-03 0.  1.
         11   -1    0    0    0    0 -0.00000000000E+00 -0.00000000000E+00 -0.45593999997E+02  0.45594000000E+02  0.51100000000E-03 0. -1.
    9900012    2    1    2    0    0 -0.10391687262E+02  0.24479398301E+02 -0.17592324060E+02  0.59301984709E+02  0.50000074192E+02 0.  0.
        -12    1    1    2    0    0  0.10391687262E+02 -0.24479398301E+02  0.17592324060E+02  0.31886015291E+02  0.00000000000E+00 0.  1.
         11    1    3    3    0    0  0.82448287782E+01  0.14205534540E+02 -0.14356081101E+02  0.21814478632E+02  0.51100000000E-03 0. -1.
        -11    1    3    3    0    0 -0.54790586393E+01  0.19939670058E+02 -0.43205557591E+01  0.21125286457E+02  0.51100000000E-03 0.  1.
        -12    1    3    3    0    0 -0.13157457400E+02 -0.96658062973E+01  0.10843127992E+01  0.16362219619E+02  0.00000000000E+00 0.  1.
</event>
<event>
 7    1  0.1221195E-011  0.5930189E+02  0.7816164E-02  0.1266605E+00
        -11   -1    0    0    0    0  0.00000000000E+00  0.00000000000E+00  0.45593999997E+02  0.45594000000E+02  0.51100000000E-03 0.  1.
         11   -1    0    0    0    0 -0.00000000000E+00 -0.00000000000E+00 -0.45593999997E+02  0.45594000000E+02  0.51100000000E-03 0. -1.
    9900012    2    1    2    0    0  0.21292904143E+01  0.29717320613E+02 -0.11360954362E+02  0.59301885372E+02  0.49999893025E+02 0.  0.
        -12    1    1    2    0    0 -0.21292904143E+01 -0.29717320613E+02  0.11360954362E+02  0.31886114628E+02  0.00000000000E+00 0.  1.
         11    1    3    3    0    0  0.53348013928E+01  0.81646484162E+01  0.63488436400E+01  0.11637414038E+02  0.51100000000E-03 0. -1.
        -11    1    3    3    0    0 -0.10930143244E+02  0.20710638503E+02  0.47532398608E+01  0.23895436133E+02  0.51100000000E-03 0.  1.
        -12    1    3    3    0    0  0.77246322650E+01  0.84203369340E+00 -0.22463037863E+02  0.23769035201E+02  0.00000000000E+00 0.  1.
</event>
<event>
 7    1  0.1221195E-011  0.5930194E+02  0.7816164E-02  0.1266605E+00
        -11   -1    0    0    0    0  0.00000000000E+00  0.00000000000E+00  0.45593999997E+02  0.45594000000E+02  0.51100000000E-03 0.  1.
         11   -1    0    0    0    0 -0.00000000000E+00 -0.00000000000E+00 -0.45593999997E+02  0.45594000000E+02  0.51100000000E-03 0. -1.
    9900012    2    1    2    0    0 -0.10666128136E+02 -0.26781796196E+02 -0.13626815312E+02  0.59301937332E+02  0.49999987789E+02 0.  0.
        -12    1    1    2    0    0  0.10666128136E+02  0.26781796196E+02  0.13626815312E+02  0.31886062668E+02  0.00000000000E+00 0.  1.
         11    1    3    3    0    0  0.37995923353E+01 -0.43046860463E+01 -0.25686416768E+02  0.26320319726E+02  0.51100000000E-03 0. -1.
        -11    1    3    3    0    0 -0.69603326033E+01 -0.19171105431E+02  0.27585833770E+01  0.20581236501E+02  0.51100000000E-03 0.  1.
        -12    1    3    3    0    0 -0.75053878678E+01 -0.33060047184E+01  0.93010180785E+01  0.12400381105E+02  0.00000000000E+00 0.  1.
</event>
<event>
 7    1  0.1221195E-011  0.5930195E+02  0.7816164E-02  0.1266605E+00
        -11   -1    0    0    0    0  0.00000000000E+00  0.00000000000E+00  0.45593999997E+02  0.45594000000E+02  0.51100000000E-03 0.  1.
         11   -1    0    0    0    0 -0.00000000000E+00 -0.00000000000E+00 -0.45593999997E+02  0.45594000000E+02  0.51100000000E-03 0. -1.
    9900012    2    1    2    0    0 -0.52016449011E+01 -0.37346177311E+01 -0.31236446342E+02  0.59301951964E+02  0.50000014475E+02 0.  0.
        -12    1    1    2    0    0  0.52016449011E+01  0.37346177311E+01  0.31236446342E+02  0.31886048036E+02  0.00000000000E+00 0.  1.
         11    1    3    3    0    0  0.86875212314E+01  0.27806317113E+01 -0.53831006611E+01  0.10591634003E+02  0.51100000000E-03 0. -1.
        -11    1    3    3    0    0 -0.37321831631E+01 -0.38165025202E+01  0.10006993688E+02  0.11341728510E+02  0.51100000000E-03 0.  1.
         12    1    3    3    0    0 -0.10156982969E+02 -0.26987469221E+01 -0.35860339369E+02  0.37368589452E+02  0.00000000000E+00 0. -1.
</event>
<event>
 7    1  0.1221195E-011  0.5930207E+02  0.7816164E-02  0.1266604E+00
        -11   -1    0    0    0    0  0.00000000000E+00  0.00000000000E+00  0.45593999997E+02  0.45594000000E+02  0.51100000000E-03 0. -1.
         11   -1    0    0    0    0 -0.00000000000E+00 -0.00000000000E+00 -0.45593999997E+02  0.45594000000E+02  0.51100000000E-03 0.  1.
    9900012    2    1    2    0    0 -0.15250339289E+02  0.27151293559E+02  0.68517922398E+01  0.59302068192E+02  0.50000226446E+02 0.  0.
        -12    1    1    2    0    0  0.15250339289E+02 -0.27151293559E+02 -0.68517922398E+01  0.31885931808E+02  0.00000000000E+00 0.  1.
         11    1    3    3    0    0  0.74597523158E+01  0.71531017143E+01  0.60180589756E+01  0.11959590413E+02  0.51100000000E-03 0. -1.
        -11    1    3    3    0    0  0.35566987798E+01 -0.68363088762E+01  0.55504353611E+01  0.94969762672E+01  0.51100000000E-03 0.  1.
        -12    1    3    3    0    0 -0.26266790384E+02  0.26834500721E+02 -0.47167020969E+01  0.37845501512E+02  0.00000000000E+00 0.  1.
</event>
<event>
 7    1  0.1221195E-011  0.5930195E+02  0.7816164E-02  0.1266605E+00
        -11   -1    0    0    0    0  0.00000000000E+00  0.00000000000E+00  0.45593999997E+02  0.45594000000E+02  0.51100000000E-03 0.  1.
         11   -1    0    0    0    0 -0.00000000000E+00 -0.00000000000E+00 -0.45593999997E+02  0.45594000000E+02  0.51100000000E-03 0. -1.
    9900012    2    1    2    0    0  0.18349413633E+02  0.14324988666E+02 -0.21790220728E+02  0.59301952890E+02  0.50000016162E+02 0.  0.
        -12    1    1    2    0    0 -0.18349413633E+02 -0.14324988666E+02  0.21790220728E+02  0.31886047110E+02  0.00000000000E+00 0.  1.
         11    1    3    3    0    0 -0.13685167882E+01  0.85928389106E+01 -0.20130659991E+02  0.21930645013E+02  0.51100000000E-03 0. -1.
        -11    1    3    3    0    0  0.24534753274E+00 -0.90179743288E+01 -0.80827002194E+01  0.12112559577E+02  0.51100000000E-03 0.  1.
        -12    1    3    3    0    0  0.19472582889E+02  0.14750124084E+02  0.64231394828E+01  0.25258748300E+02  0.00000000000E+00 0.  1.
</event>
<event>
 7    1  0.1221195E-011  0.5930191E+02  0.7816164E-02  0.1266605E+00
        -11   -1    0    0    0    0  0.00000000000E+00  0.00000000000E+00  0.45593999997E+02  0.45594000000E+02  0.51100000000E-03 0.  1.
         11   -1    0    0    0    0 -0.00000000000E+00 -0.00000000000E+00 -0.45593999997E+02  0.45594000000E+02  0.51100000000E-03 0. -1.
    9900012    2    1    2    0    0  0.42287105356E+01 -0.22698101355E+01 -0.31522828578E+02  0.59301909734E+02  0.49999937457E+02 0.  0.
        -12    1    1    2    0    0 -0.42287105356E+01  0.22698101355E+01  0.31522828578E+02  0.31886090266E+02  0.00000000000E+00 0.  1.
         11    1    3    3    0    0  0.89145399354E+01  0.14104672008E+02 -0.19500314426E+02  0.25664626584E+02  0.51100000000E-03 0. -1.
        -11    1    3    3    0    0 -0.95018257525E+01  0.37225380927E+01 -0.69837370802E+01  0.12365862944E+02  0.51100000000E-03 0.  1.
         12    1    3    3    0    0  0.48159963527E+01 -0.20097020236E+02 -0.50387770719E+01  0.21271420207E+02  0.00000000000E+00 0. -1.
</event>
<event>
 7    1  0.1221195E-011  0.5930204E+02  0.7816164E-02  0.1266604E+00
        -11   -1    0    0    0    0  0.00000000000E+00  0.00000000000E+00  0.45593999997E+02  0.45594000000E+02  0.51100000000E-03 0.  1.
         11   -1    0    0    0    0 -0.00000000000E+00 -0.00000000000E+00 -0.45593999997E+02  0.45594000000E+02  0.51100000000E-03 0. -1.
    9900012    2    1    2    0    0 -0.14916262963E+02 -0.28159380521E+02 -0.11264211449E+01  0.59302040132E+02  0.50000175271E+02 0.  0.
        -12    1    1    2    0    0  0.14916262963E+02  0.28159380521E+02  0.11264211449E+01  0.31885959868E+02  0.00000000000E+00 0.  1.
         11    1    3    3    0    0 -0.11336103076E+02 -0.83136037483E+01 -0.10723313366E+02  0.17680856598E+02  0.51100000000E-03 0. -1.
        -11    1    3    3    0    0 -0.48659091027E+01  0.43721129496E+01 -0.89530456653E+01  0.11088258203E+02  0.51100000000E-03 0.  1.
        -12    1    3    3    0    0  0.12857492153E+01 -0.24217889722E+02  0.18549937886E+02  0.30532925330E+02  0.00000000000E+00 0.  1.
</event>
<event>
 7    1  0.1221195E-011  0.5930195E+02  0.7816164E-02  0.1266605E+00
        -11   -1    0    0    0    0  0.00000000000E+00  0.00000000000E+00  0.45593999997E+02  0.45594000000E+02  0.51100000000E-03 0. -1.
         11   -1    0    0    0    0 -0.00000000000E+00 -0.00000000000E+00 -0.45593999997E+02  0.45594000000E+02  0.51100000000E-03 0.  1.
    9900012    2    1    2    0    0 -0.32528073808E+01 -0.12729125693E+02  0.29053550740E+02  0.59301949643E+02  0.50000010242E+02 0.  0.
        -12    1    1    2    0    0  0.32528073808E+01  0.12729125693E+02 -0.29053550740E+02  0.31886050357E+02  0.00000000000E+00 0.  1.
         11    1    3    3    0    0 -0.11953546513E+01 -0.22203458607E+02  0.19296386919E+02  0.29441008733E+02  0.51100000000E-03 0. -1.
        -11    1    3    3    0    0  0.12893177453E+01 -0.59898700805E+01 -0.52387881758E+01  0.80613761630E+01  0.51100000000E-03 0.  1.
        -12    1    3    3    0    0 -0.33467704749E+01  0.15464202995E+02  0.14995951997E+02  0.21799564747E+02  0.00000000000E+00 0.  1.
</event>
<event>
 7    1  0.1221195E-011  0.5930192E+02  0.7816164E-02  0.1266605E+00
        -11   -1    0    0    0    0  0.00000000000E+00  0.00000000000E+00  0.45593999997E+02  0.45594000000E+02  0.51100000000E-03 0. -1.
         11   -1    0    0    0    0 -0.00000000000E+00 -0.00000000000E+00 -0.45593999997E+02  0.45594000000E+02  0.51100000000E-03 0.  1.
    9900012    2    1    2    0    0 -0.31813210952E+02 -0.14326284161E+01  0.16090773064E+01  0.59301922395E+02  0.49999960546E+02 0.  0.
        -12    1    1    2    0    0  0.31813210952E+02  0.14326284161E+01 -0.16090773064E+01  0.31886077605E+02  0.00000000000E+00 0.  1.
         11    1    3    3    0    0 -0.19768606989E+02 -0.41834166450E+01  0.15722796422E+02  0.25602834311E+02  0.51100000000E-03 0. -1.
        -11    1    3    3    0    0 -0.12713034528E+02 -0.10971200174E+02 -0.88961117268E+01  0.19003401914E+02  0.51100000000E-03 0.  1.
         12    1    3    3    0    0  0.66843056533E+00  0.13721988403E+02 -0.52176073892E+01  0.14695686170E+02  0.00000000000E+00 0. -1.
</event>
<event>
 7    1  0.1221195E-011  0.5930190E+02  0.7816164E-02  0.1266605E+00
        -11   -1    0    0    0    0  0.00000000000E+00  0.00000000000E+00  0.45593999997E+02  0.45594000000E+02  0.51100000000E-03 0. -1.
         11   -1    0    0    0    0 -0.00000000000E+00 -0.00000000000E+00 -0.45593999997E+02  0.45594000000E+02  0.51100000000E-03 0.  1.
    9900012    2    1    2    0    0 -0.17638542775E+02  0.18664316785E+02  0.18901025559E+02  0.59301895198E+02  0.49999910946E+02 0.  0.
        -12    1    1    2    0    0  0.17638542775E+02 -0.18664316785E+02 -0.18901025559E+02  0.31886104802E+02  0.00000000000E+00 0.  1.
         11    1    3    3    0    0 -0.53093180694E+01 -0.54790736170E+01  0.21245763576E+02  0.22574135116E+02  0.51100000000E-03 0. -1.
        -11    1    3    3    0    0 -0.52603487063E+01 -0.20233426178E+01 -0.72497130149E+01  0.91827840506E+01  0.51100000000E-03 0.  1.
         12    1    3    3    0    0 -0.70688759989E+01  0.26166733020E+02  0.49049749975E+01  0.27544976031E+02  0.00000000000E+00 0. -1.
</event>
<event>
 7    1  0.1221195E-011  0.5930198E+02  0.7816164E-02  0.1266605E+00
        -11   -1    0    0    0    0  0.00000000000E+00  0.00000000000E+00  0.45593999997E+02  0.45594000000E+02  0.51100000000E-03 0. -1.
         11   -1    0    0    0    0 -0.00000000000E+00 -0.00000000000E+00 -0.45593999997E+02  0.45594000000E+02  0.51100000000E-03 0.  1.
    9900012    2    1    2    0    0  0.30480830120E+02  0.93485064358E+01 -0.49289642711E+00  0.59301976035E+02  0.50000058374E+02 0.  0.
        -12    1    1    2    0    0 -0.30480830120E+02 -0.93485064358E+01  0.49289642711E+00  0.31886023965E+02  0.00000000000E+00 0.  1.
         11    1    3    3    0    0 -0.31456124664E+01 -0.10653910354E+01  0.36179810415E+01  0.49111834546E+01  0.51100000000E-03 0. -1.
        -11    1    3    3    0    0 -0.21210119581E+01 -0.67401698639E+01 -0.12035450712E+02  0.13956384045E+02  0.51100000000E-03 0.  1.
        -12    1    3    3    0    0  0.35747454545E+02  0.17154067335E+02  0.79245732429E+01  0.40434408536E+02  0.00000000000E+00 0.  1.
</event>
<event>
 7    1  0.1221195E-011  0.5930193E+02  0.7816164E-02  0.1266605E+00
        -11   -1    0    0    0    0  0.00000000000E+00  0.00000000000E+00  0.45593999997E+02  0.45594000000E+02  0.51100000000E-03 0.  1.
         11   -1    0    0    0    0 -0.00000000000E+00 -0.00000000000E+00 -0.45593999997E+02  0.45594000000E+02  0.51100000000E-03 0. -1.
    9900012    2    1    2    0    0 -0.26811250637E+02  0.15543390666E+02 -0.75021072158E+01  0.59301925190E+02  0.49999965644E+02 0.  0.
        -12    1    1    2    0    0  0.26811250637E+02 -0.15543390666E+02  0.75021072158E+01  0.31886074810E+02  0.00000000000E+00 0.  1.
         11    1    3    3    0    0 -0.46398328080E+00  0.36633910044E+01  0.22641991436E+01  0.43315484713E+01  0.51100000000E-03 0. -1.
        -11    1    3    3    0    0 -0.23187166420E+02 -0.10175805649E+02  0.79108672849E+01  0.26528730250E+02  0.51100000000E-03 0.  1.
         12    1    3    3    0    0 -0.31601009363E+01  0.22055805310E+02 -0.17677173644E+02  0.28441646469E+02  0.00000000000E+00 0. -1.
</event>
<event>
 7    1  0.1221195E-011  0.5930195E+02  0.7816164E-02  0.1266605E+00
        -11   -1    0    0    0    0  0.00000000000E+00  0.00000000000E+00  0.45593999997E+02  0.45594000000E+02  0.51100000000E-03 0.  1.
         11   -1    0    0    0    0 -0.00000000000E+00 -0.00000000000E+00 -0.45593999997E+02  0.45594000000E+02  0.51100000000E-03 0. -1.
    9900012    2    1    2    0    0 -0.13898769192E+02 -0.23911543402E+02  0.15867649584E+02  0.59301952953E+02  0.50000016278E+02 0.  0.
        -12    1    1    2    0    0  0.13898769192E+02  0.23911543402E+02 -0.15867649584E+02  0.31886047047E+02  0.00000000000E+00 0.  1.
         11    1    3    3    0    0 -0.30871651438E+01 -0.65008501963E+01 -0.14469706301E+02  0.16160570615E+02  0.51100000000E-03 0. -1.
        -11    1    3    3    0    0 -0.49381051868E+01 -0.10497606849E+02  0.13045590776E+00  0.11601795180E+02  0.51100000000E-03 0.  1.
        -12    1    3    3    0    0 -0.58734988619E+01 -0.69130863572E+01  0.30206899978E+02  0.31539587158E+02  0.00000000000E+00 0.  1.
</event>
<event>
 7    1  0.1221195E-011  0.5930202E+02  0.7816164E-02  0.1266604E+00
        -11   -1    0    0    0    0  0.00000000000E+00  0.00000000000E+00  0.45593999997E+02  0.45594000000E+02  0.51100000000E-03 0.  1.
         11   -1    0    0    0    0 -0.00000000000E+00 -0.00000000000E+00 -0.45593999997E+02  0.45594000000E+02  0.51100000000E-03 0. -1.
    9900012    2    1    2    0    0  0.14082812916E+02  0.19021970765E+02 -0.21367136327E+02  0.59302023360E+02  0.50000144683E+02 0.  0.
        -12    1    1    2    0    0 -0.14082812916E+02 -0.19021970765E+02  0.21367136327E+02  0.31885976640E+02  0.00000000000E+00 0.  1.
         11    1    3    3    0    0  0.66169044910E+00  0.90577214038E+01 -0.32376907271E+01  0.96417214638E+01  0.51100000000E-03 0.  1.
        -11    1    3    3    0    0  0.10206861699E+02 -0.16297943711E+02 -0.11416584551E+02  0.22363841307E+02  0.51100000000E-03 0. -1.
         12    1    3    3    0    0  0.32142607681E+01  0.26262193072E+02 -0.67128610496E+01  0.27296460589E+02  0.00000000000E+00 0. -1.
</event>
