<event>
 7    1  0.3980989E-008  0.4614232E+02  0.7816164E-02  0.1320468E+00
        -11   -1    0    0    0    0  0.00000000000E+00  0.00000000000E+00  0.45593999997E+02  0.45594000000E+02  0.51100000000E-03 0.  1.
         11   -1    0    0    0    0 -0.00000000000E+00 -0.00000000000E+00 -0.45593999997E+02  0.45594000000E+02  0.51100000000E-03 0. -1.
    9900012    2    1    2    0    0  0.27536723712E+02  0.21839917877E+02 -0.28175524423E+02  0.46142319384E+02  0.10000014802E+02 0.  0.
        -12    1    1    2    0    0 -0.27536723712E+02 -0.21839917877E+02  0.28175524423E+02  0.45045680616E+02  0.00000000000E+00 0.  1.
         11    1    3    3    0    0  0.65223336652E+01  0.46656008977E+01 -0.96486729781E+01  0.12546137201E+02  0.51100000000E-03 0. -1.
        -11    1    3    3    0    0  0.22822885669E+00  0.47995417271E+00  0.58722072854E+00  0.79200559599E+00  0.51100000000E-03 0.  1.
         12    1    3    3    0    0  0.20786161190E+02  0.16694362806E+02 -0.19114072173E+02  0.32804176587E+02  0.00000000000E+00 0. -1.
</event>
<event>
 7    1  0.3980989E-008  0.4614232E+02  0.7816164E-02  0.1320468E+00
        -11   -1    0    0    0    0  0.00000000000E+00  0.00000000000E+00  0.45593999997E+02  0.45594000000E+02  0.51100000000E-03 0.  1.
         11   -1    0    0    0    0 -0.00000000000E+00 -0.00000000000E+00 -0.45593999997E+02  0.45594000000E+02  0.51100000000E-03 0. -1.
    9900012    2    1    2    0    0  0.23361500698E+01 -0.76023739916E+01 -0.44338017533E+02  0.46142317785E+02  0.10000000214E+02 0.  0.
        -12    1    1    2    0    0 -0.23361500698E+01  0.76023739916E+01  0.44338017533E+02  0.45045682215E+02  0.00000000000E+00 0.  1.
         11    1    3    3    0    0 -0.15269126788E+01 -0.62488595531E+01 -0.19372384883E+02  0.20412471785E+02  0.51100000000E-03 0. -1.
        -11    1    3    3    0    0 -0.58371281265E+00  0.97546596501E+00 -0.33004549848E+01  0.34907388708E+01  0.51100000000E-03 0.  1.
         12    1    3    3    0    0  0.44467755612E+01 -0.23289804034E+01 -0.21665177665E+02  0.22239107129E+02  0.00000000000E+00 0. -1.
</event>
<event>
 7    1  0.3980989E-008  0.4614232E+02  0.7816164E-02  0.1320468E+00
        -11   -1    0    0    0    0  0.00000000000E+00  0.00000000000E+00  0.45593999997E+02  0.45594000000E+02  0.51100000000E-03 0.  1.
         11   -1    0    0    0    0 -0.00000000000E+00 -0.00000000000E+00 -0.45593999997E+02  0.45594000000E+02  0.51100000000E-03 0. -1.
    9900012    2    1    2    0    0 -0.22312238028E+02 -0.36248950807E+02 -0.14740798998E+02  0.46142317016E+02  0.99999932068E+01 0.  0.
        -12    1    1    2    0    0  0.22312238028E+02  0.36248950807E+02  0.14740798998E+02  0.45045682984E+02  0.00000000000E+00 0.  1.
         11    1    3    3    0    0 -0.12549075182E+02 -0.14472590625E+02 -0.33871127110E+01  0.19452704185E+02  0.51100000000E-03 0. -1.
        -11    1    3    3    0    0 -0.56840637534E+00 -0.32434044086E+01 -0.27236412648E+01  0.42732867872E+01  0.51100000000E-03 0.  1.
         12    1    3    3    0    0 -0.91947564705E+01 -0.18532955773E+02 -0.86300450219E+01  0.22416326044E+02  0.00000000000E+00 0. -1.
</event>
<event>
 7    1  0.3980989E-008  0.4614232E+02  0.7816164E-02  0.1320468E+00
        -11   -1    0    0    0    0  0.00000000000E+00  0.00000000000E+00  0.45593999997E+02  0.45594000000E+02  0.51100000000E-03 0.  1.
         11   -1    0    0    0    0 -0.00000000000E+00 -0.00000000000E+00 -0.45593999997E+02  0.45594000000E+02  0.51100000000E-03 0. -1.
    9900012    2    1    2    0    0 -0.57630206371E+01  0.98710363674E+01 -0.43571362503E+02  0.46142318784E+02  0.10000009327E+02 0.  0.
        -12    1    1    2    0    0  0.57630206371E+01 -0.98710363674E+01  0.43571362503E+02  0.45045681216E+02  0.00000000000E+00 0.  1.
         11    1    3    3    0    0  0.51347500642E+00  0.23374238746E+01 -0.54399447476E+01  0.59430805202E+01  0.51100000000E-03 0. -1.
        -11    1    3    3    0    0  0.39505602221E+00 -0.32849392798E+00  0.16446861038E+00  0.53946983819E+00  0.51100000000E-03 0.  1.
         12    1    3    3    0    0 -0.66715516657E+01  0.78621064208E+01 -0.38295886366E+02  0.39659768425E+02  0.00000000000E+00 0. -1.
</event>
<event>
 7    1  0.3980989E-008  0.4614232E+02  0.7816164E-02  0.1320468E+00
        -11   -1    0    0    0    0  0.00000000000E+00  0.00000000000E+00  0.45593999997E+02  0.45594000000E+02  0.51100000000E-03 0.  1.
         11   -1    0    0    0    0 -0.00000000000E+00 -0.00000000000E+00 -0.45593999997E+02  0.45594000000E+02  0.51100000000E-03 0. -1.
    9900012    2    1    2    0    0 -0.21198805242E+02  0.37495849472E+02 -0.13182772836E+02  0.46142316845E+02  0.99999916420E+01 0.  0.
        -12    1    1    2    0    0  0.21198805242E+02 -0.37495849472E+02  0.13182772836E+02  0.45045683155E+02  0.00000000000E+00 0.  1.
         11    1    3    3    0    0 -0.17802614050E+02  0.25046605293E+02 -0.66638405874E+01  0.31443159437E+02  0.51100000000E-03 0. -1.
        -11    1    3    3    0    0 -0.35765991309E+01  0.86678276769E+01 -0.49264823266E+01  0.10592144559E+02  0.51100000000E-03 0.  1.
         12    1    3    3    0    0  0.18040793985E+00  0.37814165017E+01 -0.15924499223E+01  0.41070128486E+01  0.00000000000E+00 0. -1.
</event>
<event>
 7    1  0.3980989E-008  0.4614232E+02  0.7816164E-02  0.1320468E+00
        -11   -1    0    0    0    0  0.00000000000E+00  0.00000000000E+00  0.45593999997E+02  0.45594000000E+02  0.51100000000E-03 0.  1.
         11   -1    0    0    0    0 -0.00000000000E+00 -0.00000000000E+00 -0.45593999997E+02  0.45594000000E+02  0.51100000000E-03 0. -1.
    9900012    2    1    2    0    0  0.60057975637E+01  0.40660907795E+02 -0.18431887237E+02  0.46142317696E+02  0.99999994104E+01 0.  0.
        -12    1    1    2    0    0 -0.60057975637E+01 -0.40660907795E+02  0.18431887237E+02  0.45045682304E+02  0.00000000000E+00 0.  1.
         11    1    3    3    0    0  0.19205067877E+01  0.64135594284E+01 -0.48739165836E+01  0.82811324098E+01  0.51100000000E-03 0.  1.
        -11    1    3    3    0    0  0.62601809315E+01  0.25536950710E+02 -0.89856671156E+01  0.27786110390E+02  0.51100000000E-03 0. -1.
        -12    1    3    3    0    0 -0.21748901555E+01  0.87103976566E+01 -0.45723035383E+01  0.10075074897E+02  0.00000000000E+00 0.  1.
</event>
<event>
 7    1  0.3980989E-008  0.4614232E+02  0.7816164E-02  0.1320468E+00
        -11   -1    0    0    0    0  0.00000000000E+00  0.00000000000E+00  0.45593999997E+02  0.45594000000E+02  0.51100000000E-03 0. -1.
         11   -1    0    0    0    0 -0.00000000000E+00 -0.00000000000E+00 -0.45593999997E+02  0.45594000000E+02  0.51100000000E-03 0.  1.
    9900012    2    1    2    0    0  0.35980620549E+02  0.25109342630E+02 -0.10199477742E+02  0.46142317759E+02  0.99999999765E+01 0.  0.
        -12    1    1    2    0    0 -0.35980620549E+02 -0.25109342630E+02  0.10199477742E+02  0.45045682241E+02  0.00000000000E+00 0.  1.
         11    1    3    3    0    0  0.24879460402E+02  0.18275429079E+02 -0.47019355210E+01  0.31226383970E+02  0.51100000000E-03 0. -1.
        -11    1    3    3    0    0  0.41599281833E+01  0.84408784353E-01 -0.12595687595E+01  0.43472567275E+01  0.51100000000E-03 0.  1.
         12    1    3    3    0    0  0.69412319632E+01  0.67495047668E+01 -0.42379734617E+01  0.10568677061E+02  0.00000000000E+00 0. -1.
</event>
<event>
 7    1  0.3980989E-008  0.4614232E+02  0.7816164E-02  0.1320468E+00
        -11   -1    0    0    0    0  0.00000000000E+00  0.00000000000E+00  0.45593999997E+02  0.45594000000E+02  0.51100000000E-03 0.  1.
         11   -1    0    0    0    0 -0.00000000000E+00 -0.00000000000E+00 -0.45593999997E+02  0.45594000000E+02  0.51100000000E-03 0. -1.
    9900012    2    1    2    0    0 -0.19875136611E+02  0.13606399133E+02 -0.38065185153E+02  0.46142317927E+02  0.10000001512E+02 0.  0.
        -12    1    1    2    0    0  0.19875136611E+02 -0.13606399133E+02  0.38065185153E+02  0.45045682073E+02  0.00000000000E+00 0.  1.
         11    1    3    3    0    0 -0.10191097505E+02  0.30836431035E+01 -0.18354045385E+02  0.21218819605E+02  0.51100000000E-03 0. -1.
        -11    1    3    3    0    0 -0.20362876941E+01  0.37313440703E+01 -0.25833332503E+01  0.49742343217E+01  0.51100000000E-03 0.  1.
         12    1    3    3    0    0 -0.76477514117E+01  0.67914119593E+01 -0.17127806518E+02  0.19949264001E+02  0.00000000000E+00 0. -1.
</event>
<event>
 7    1  0.3980989E-008  0.4614232E+02  0.7816164E-02  0.1320468E+00
        -11   -1    0    0    0    0  0.00000000000E+00  0.00000000000E+00  0.45593999997E+02  0.45594000000E+02  0.51100000000E-03 0.  1.
         11   -1    0    0    0    0 -0.00000000000E+00 -0.00000000000E+00 -0.45593999997E+02  0.45594000000E+02  0.51100000000E-03 0. -1.
    9900012    2    1    2    0    0 -0.39806804712E+02  0.16274670570E+02 -0.13403995357E+02  0.46142315467E+02  0.99999790760E+01 0.  0.
        -12    1    1    2    0    0  0.39806804712E+02 -0.16274670570E+02  0.13403995357E+02  0.45045684533E+02  0.00000000000E+00 0.  1.
         11    1    3    3    0    0 -0.31202687485E+02  0.16005959639E+02 -0.89378684156E+01  0.36189555707E+02  0.51100000000E-03 0. -1.
        -11    1    3    3    0    0 -0.49774402855E+01  0.36616725418E+00 -0.13500363984E+01  0.51702600313E+01  0.51100000000E-03 0.  1.
         12    1    3    3    0    0 -0.36266769422E+01 -0.97456322446E-01 -0.31160905427E+01  0.47824997280E+01  0.00000000000E+00 0. -1.
</event>
<event>
 7    1  0.3980989E-008  0.4614232E+02  0.7816164E-02  0.1320468E+00
        -11   -1    0    0    0    0  0.00000000000E+00  0.00000000000E+00  0.45593999997E+02  0.45594000000E+02  0.51100000000E-03 0.  1.
         11   -1    0    0    0    0 -0.00000000000E+00 -0.00000000000E+00 -0.45593999997E+02  0.45594000000E+02  0.51100000000E-03 0. -1.
    9900012    2    1    2    0    0  0.41786467361E+02  0.15210081806E+02 -0.71873548782E+01  0.46142317486E+02  0.99999974871E+01 0.  0.
        -12    1    1    2    0    0 -0.41786467361E+02 -0.15210081806E+02  0.71873548782E+01  0.45045682514E+02  0.00000000000E+00 0.  1.
         11    1    3    3    0    0  0.21784106238E+02  0.67641899495E+01 -0.10309017237E+01  0.22833403357E+02  0.51100000000E-03 0. -1.
        -11    1    3    3    0    0  0.75774701534E+01  0.26692242320E+00 -0.15740837925E+01  0.77438389416E+01  0.51100000000E-03 0.  1.
         12    1    3    3    0    0  0.12424890970E+02  0.81789694330E+01 -0.45823693619E+01  0.15565075187E+02  0.00000000000E+00 0. -1.
</event>
<event>
 7    1  0.3980989E-008  0.4614232E+02  0.7816164E-02  0.1320468E+00
        -11   -1    0    0    0    0  0.00000000000E+00  0.00000000000E+00  0.45593999997E+02  0.45594000000E+02  0.51100000000E-03 0. -1.
         11   -1    0    0    0    0 -0.00000000000E+00 -0.00000000000E+00 -0.45593999997E+02  0.45594000000E+02  0.51100000000E-03 0.  1.
    9900012    2    1    2    0    0  0.33359150122E+02  0.20007998710E+02  0.22714765367E+02  0.46142317910E+02  0.10000001361E+02 0.  0.
        -12    1    1    2    0    0 -0.33359150122E+02 -0.20007998710E+02 -0.22714765367E+02  0.45045682090E+02  0.00000000000E+00 0.  1.
         11    1    3    3    0    0  0.14704176541E+02  0.74382889697E+01  0.43768268937E+01  0.17049855262E+02  0.51100000000E-03 0. -1.
        -11    1    3    3    0    0  0.10428974228E+01  0.91074497001E+00  0.17758653236E+01  0.22518413229E+01  0.51100000000E-03 0.  1.
        -12    1    3    3    0    0  0.17612076159E+02  0.11658964770E+02  0.16562073149E+02  0.26840621325E+02  0.00000000000E+00 0.  1.
</event>
<event>
 7    1  0.3980989E-008  0.4614232E+02  0.7816164E-02  0.1320468E+00
        -11   -1    0    0    0    0  0.00000000000E+00  0.00000000000E+00  0.45593999997E+02  0.45594000000E+02  0.51100000000E-03 0.  1.
         11   -1    0    0    0    0 -0.00000000000E+00 -0.00000000000E+00 -0.45593999997E+02  0.45594000000E+02  0.51100000000E-03 0. -1.
    9900012    2    1    2    0    0  0.42017064523E+02 -0.10751142106E+02 -0.12169332778E+02  0.46142318431E+02  0.10000006110E+02 0.  0.
        -12    1    1    2    0    0 -0.42017064523E+02  0.10751142106E+02  0.12169332778E+02  0.45045681569E+02  0.00000000000E+00 0.  1.
         11    1    3    3    0    0  0.16542398504E+02 -0.52913918737E+01 -0.11873755399E+01  0.17408608134E+02  0.51100000000E-03 0. -1.
        -11    1    3    3    0    0  0.31333427762E+00  0.24225467479E+00 -0.99132750215E+00  0.10675186999E+01  0.51100000000E-03 0.  1.
        -12    1    3    3    0    0  0.25161331741E+02 -0.57020049076E+01 -0.99906297364E+01  0.27666191597E+02  0.00000000000E+00 0.  1.
</event>
<event>
 7    1  0.3980989E-008  0.4614232E+02  0.7816164E-02  0.1320468E+00
        -11   -1    0    0    0    0  0.00000000000E+00  0.00000000000E+00  0.45593999997E+02  0.45594000000E+02  0.51100000000E-03 0.  1.
         11   -1    0    0    0    0 -0.00000000000E+00 -0.00000000000E+00 -0.45593999997E+02  0.45594000000E+02  0.51100000000E-03 0. -1.
    9900012    2    1    2    0    0 -0.17415165782E+02  0.39016756597E+02 -0.14265979752E+02  0.46142317934E+02  0.10000001574E+02 0.  0.
        -12    1    1    2    0    0  0.17415165782E+02 -0.39016756597E+02  0.14265979752E+02  0.45045682066E+02  0.00000000000E+00 0.  1.
         11    1    3    3    0    0 -0.10210633412E+02  0.16781812170E+02 -0.90768734387E+01  0.21639683132E+02  0.51100000000E-03 0. -1.
        -11    1    3    3    0    0 -0.49620163030E+01  0.98503561318E+01 -0.44548857910E+01  0.11895256592E+02  0.51100000000E-03 0.  1.
        -12    1    3    3    0    0 -0.22425160674E+01  0.12384588295E+02 -0.73422052231E+00  0.12607378210E+02  0.00000000000E+00 0.  1.
</event>
<event>
 7    1  0.3980989E-008  0.4614232E+02  0.7816164E-02  0.1320468E+00
        -11   -1    0    0    0    0  0.00000000000E+00  0.00000000000E+00  0.45593999997E+02  0.45594000000E+02  0.51100000000E-03 0.  1.
         11   -1    0    0    0    0 -0.00000000000E+00 -0.00000000000E+00 -0.45593999997E+02  0.45594000000E+02  0.51100000000E-03 0. -1.
    9900012    2    1    2    0    0 -0.22255625180E+02 -0.29492486901E+02 -0.25768082091E+02  0.46142315518E+02  0.99999795471E+01 0.  0.
        -12    1    1    2    0    0  0.22255625180E+02  0.29492486901E+02  0.25768082091E+02  0.45045684482E+02  0.00000000000E+00 0.  1.
         11    1    3    3    0    0 -0.42131715775E+00 -0.55094678499E+00  0.73937403934E-01  0.69750807029E+00  0.51100000000E-03 0. -1.
        -11    1    3    3    0    0 -0.15535493727E+02 -0.18530714113E+02 -0.11936009152E+02  0.26966780409E+02  0.51100000000E-03 0.  1.
         12    1    3    3    0    0 -0.62988142957E+01 -0.10410826003E+02 -0.13906010343E+02  0.18478027039E+02  0.00000000000E+00 0. -1.
</event>
<event>
 7    1  0.3980989E-008  0.4614232E+02  0.7816164E-02  0.1320468E+00
        -11   -1    0    0    0    0  0.00000000000E+00  0.00000000000E+00  0.45593999997E+02  0.45594000000E+02  0.51100000000E-03 0.  1.
         11   -1    0    0    0    0 -0.00000000000E+00 -0.00000000000E+00 -0.45593999997E+02  0.45594000000E+02  0.51100000000E-03 0. -1.
    9900012    2    1    2    0    0 -0.21732596285E+02 -0.23436477744E+01 -0.39386737260E+02  0.46142317652E+02  0.99999990042E+01 0.  0.
        -12    1    1    2    0    0  0.21732596285E+02  0.23436477744E+01  0.39386737260E+02  0.45045682348E+02  0.00000000000E+00 0.  1.
         11    1    3    3    0    0 -0.18521279732E+02 -0.27230101427E+01 -0.27832445443E+02  0.33542474666E+02  0.51100000000E-03 0. -1.
        -11    1    3    3    0    0 -0.12873011223E+01 -0.52449485152E+00 -0.73249035260E+00  0.15712356305E+01  0.51100000000E-03 0.  1.
        -12    1    3    3    0    0 -0.19240154314E+01  0.90385721987E+00 -0.10821801465E+02  0.11028607355E+02  0.00000000000E+00 0.  1.
</event>
<event>
 7    1  0.3980989E-008  0.4614232E+02  0.7816164E-02  0.1320468E+00
        -11   -1    0    0    0    0  0.00000000000E+00  0.00000000000E+00  0.45593999997E+02  0.45594000000E+02  0.51100000000E-03 0.  1.
         11   -1    0    0    0    0 -0.00000000000E+00 -0.00000000000E+00 -0.45593999997E+02  0.45594000000E+02  0.51100000000E-03 0. -1.
    9900012    2    1    2    0    0  0.40317692908E+01 -0.15983554954E+02 -0.41921166680E+02  0.46142318649E+02  0.10000008096E+02 0.  0.
        -12    1    1    2    0    0 -0.40317692908E+01  0.15983554954E+02  0.41921166680E+02  0.45045681351E+02  0.00000000000E+00 0.  1.
         11    1    3    3    0    0 -0.61026800966E+00 -0.89450906465E+01 -0.21306648696E+02  0.23116235694E+02  0.51100000000E-03 0. -1.
        -11    1    3    3    0    0 -0.62019271745E+00  0.40814930602E+00 -0.38457284814E+00  0.83613479741E+00  0.51100000000E-03 0.  1.
        -12    1    3    3    0    0  0.52622300179E+01 -0.74466136130E+01 -0.20229945136E+02  0.22189948158E+02  0.00000000000E+00 0.  1.
</event>
<event>
 7    1  0.3980989E-008  0.4614232E+02  0.7816164E-02  0.1320468E+00
        -11   -1    0    0    0    0  0.00000000000E+00  0.00000000000E+00  0.45593999997E+02  0.45594000000E+02  0.51100000000E-03 0.  1.
         11   -1    0    0    0    0 -0.00000000000E+00 -0.00000000000E+00 -0.45593999997E+02  0.45594000000E+02  0.51100000000E-03 0. -1.
    9900012    2    1    2    0    0 -0.36474930960E+02 -0.54744486967E+01 -0.25859683301E+02  0.46142318770E+02  0.10000009197E+02 0.  0.
        -12    1    1    2    0    0  0.36474930960E+02  0.54744486967E+01  0.25859683301E+02  0.45045681230E+02  0.00000000000E+00 0.  1.
         11    1    3    3    0    0 -0.23465193483E+01 -0.20681312964E+01 -0.22882112200E+01  0.38754652572E+01  0.51100000000E-03 0. -1.
        -11    1    3    3    0    0 -0.17308772563E+02 -0.43433565054E+01 -0.89660517597E+01  0.19971190195E+02  0.51100000000E-03 0.  1.
        -12    1    3    3    0    0 -0.16819639048E+02  0.93703910513E+00 -0.14605420321E+02  0.22295663317E+02  0.00000000000E+00 0.  1.
</event>
<event>
 7    1  0.3980989E-008  0.4614232E+02  0.7816164E-02  0.1320468E+00
        -11   -1    0    0    0    0  0.00000000000E+00  0.00000000000E+00  0.45593999997E+02  0.45594000000E+02  0.51100000000E-03 0.  1.
         11   -1    0    0    0    0 -0.00000000000E+00 -0.00000000000E+00 -0.45593999997E+02  0.45594000000E+02  0.51100000000E-03 0. -1.
    9900012    2    1    2    0    0 -0.55524132953E+00  0.11379328842E+02 -0.43581145184E+02  0.46142316151E+02  0.99999853214E+01 0.  0.
        -12    1    1    2    0    0  0.55524132953E+00 -0.11379328842E+02  0.43581145184E+02  0.45045683849E+02  0.00000000000E+00 0.  1.
         11    1    3    3    0    0 -0.17783171011E+00 -0.10247061603E+01 -0.54863914774E+01  0.55840969312E+01  0.51100000000E-03 0.  1.
        -11    1    3    3    0    0 -0.61089217163E+00  0.29683115867E+00 -0.92472926356E+01  0.92722014286E+01  0.51100000000E-03 0. -1.
         12    1    3    3    0    0  0.23348255221E+00  0.12107203843E+02 -0.28847461071E+02  0.31286017792E+02  0.00000000000E+00 0. -1.
</event>
<event>
 7    1  0.3980989E-008  0.4614232E+02  0.7816164E-02  0.1320468E+00
        -11   -1    0    0    0    0  0.00000000000E+00  0.00000000000E+00  0.45593999997E+02  0.45594000000E+02  0.51100000000E-03 0.  1.
         11   -1    0    0    0    0 -0.00000000000E+00 -0.00000000000E+00 -0.45593999997E+02  0.45594000000E+02  0.51100000000E-03 0. -1.
    9900012    2    1    2    0    0 -0.34361157246E+02  0.11910515394E+02 -0.26581269796E+02  0.46142318651E+02  0.10000008113E+02 0.  0.
        -12    1    1    2    0    0  0.34361157246E+02 -0.11910515394E+02  0.26581269796E+02  0.45045681349E+02  0.00000000000E+00 0.  1.
         11    1    3    3    0    0 -0.71308886716E+01  0.40655074996E+01 -0.46567953020E+01  0.94373548848E+01  0.51100000000E-03 0. -1.
        -11    1    3    3    0    0 -0.16991669016E+02  0.59058264621E+01 -0.90356099723E+01  0.20130520360E+02  0.51100000000E-03 0.  1.
         12    1    3    3    0    0 -0.10238599559E+02  0.19391814322E+01 -0.12888864522E+02  0.16574443406E+02  0.00000000000E+00 0. -1.
</event>
<event>
 7    1  0.3980989E-008  0.4614232E+02  0.7816164E-02  0.1320468E+00
        -11   -1    0    0    0    0  0.00000000000E+00  0.00000000000E+00  0.45593999997E+02  0.45594000000E+02  0.51100000000E-03 0. -1.
         11   -1    0    0    0    0 -0.00000000000E+00 -0.00000000000E+00 -0.45593999997E+02  0.45594000000E+02  0.51100000000E-03 0.  1.
    9900012    2    1    2    0    0 -0.34503491594E+02  0.79479175211E+01  0.27846960316E+02  0.46142317366E+02  0.99999964004E+01 0.  0.
        -12    1    1    2    0    0  0.34503491594E+02 -0.79479175211E+01 -0.27846960316E+02  0.45045682634E+02  0.00000000000E+00 0.  1.
         11    1    3    3    0    0 -0.29928605119E+02  0.67320297395E+01  0.21092278323E+02  0.37228024846E+02  0.51100000000E-03 0. -1.
        -11    1    3    3    0    0 -0.56926084124E+00  0.16826192366E+01  0.18525622254E+01  0.25665643301E+01  0.51100000000E-03 0.  1.
         12    1    3    3    0    0 -0.40056256335E+01 -0.46673145490E+00  0.49021197674E+01  0.63477281905E+01  0.00000000000E+00 0. -1.
</event>
<event>
 7    1  0.3980989E-008  0.4614232E+02  0.7816164E-02  0.1320468E+00
        -11   -1    0    0    0    0  0.00000000000E+00  0.00000000000E+00  0.45593999997E+02  0.45594000000E+02  0.51100000000E-03 0. -1.
         11   -1    0    0    0    0 -0.00000000000E+00 -0.00000000000E+00 -0.45593999997E+02  0.45594000000E+02  0.51100000000E-03 0.  1.
    9900012    2    1    2    0    0 -0.14721925138E+02 -0.30091513534E+02  0.30114433604E+02  0.46142318988E+02  0.10000011185E+02 0.  0.
        -12    1    1    2    0    0  0.14721925138E+02  0.30091513534E+02 -0.30114433604E+02  0.45045681012E+02  0.00000000000E+00 0.  1.
         11    1    3    3    0    0 -0.24575321439E+01 -0.66743816033E+01  0.18841130883E+01  0.73577657217E+01  0.51100000000E-03 0. -1.
        -11    1    3    3    0    0 -0.23042684481E+01 -0.44820111034E+01  0.71637207029E+01  0.87588224769E+01  0.51100000000E-03 0.  1.
         12    1    3    3    0    0 -0.99601245463E+01 -0.18935120827E+02  0.21066599813E+02  0.30025730789E+02  0.00000000000E+00 0. -1.
</event>
<event>
 7    1  0.3980989E-008  0.4614232E+02  0.7816164E-02  0.1320468E+00
        -11   -1    0    0    0    0  0.00000000000E+00  0.00000000000E+00  0.45593999997E+02  0.45594000000E+02  0.51100000000E-03 0.  1.
         11   -1    0    0    0    0 -0.00000000000E+00 -0.00000000000E+00 -0.45593999997E+02  0.45594000000E+02  0.51100000000E-03 0. -1.
    9900012    2    1    2    0    0  0.32879587965E+02  0.60526355098E+01 -0.30189596500E+02  0.46142318318E+02  0.10000005082E+02 0.  0.
        -12    1    1    2    0    0 -0.32879587965E+02 -0.60526355098E+01  0.30189596500E+02  0.45045681682E+02  0.00000000000E+00 0.  1.
         11    1    3    3    0    0  0.90240288849E+01  0.22332786733E+01 -0.12914204454E+02  0.15912174832E+02  0.51100000000E-03 0. -1.
        -11    1    3    3    0    0  0.15353902330E+02  0.51667436897E+01 -0.11263397530E+02  0.19730729366E+02  0.51100000000E-03 0.  1.
        -12    1    3    3    0    0  0.85016567500E+01 -0.13473868532E+01 -0.60119945158E+01  0.10499414121E+02  0.00000000000E+00 0.  1.
</event>
<event>
 7    1  0.3980989E-008  0.4614232E+02  0.7816164E-02  0.1320468E+00
        -11   -1    0    0    0    0  0.00000000000E+00  0.00000000000E+00  0.45593999997E+02  0.45594000000E+02  0.51100000000E-03 0.  1.
         11   -1    0    0    0    0 -0.00000000000E+00 -0.00000000000E+00 -0.45593999997E+02  0.45594000000E+02  0.51100000000E-03 0. -1.
    9900012    2    1    2    0    0 -0.21261270011E+02 -0.31370333187E+02 -0.24351058652E+02  0.46142318029E+02  0.10000002443E+02 0.  0.
        -12    1    1    2    0    0  0.21261270011E+02  0.31370333187E+02  0.24351058652E+02  0.45045681971E+02  0.00000000000E+00 0.  1.
         11    1    3    3    0    0 -0.79204603678E+00 -0.48838450032E+01 -0.48405031324E+01  0.69216869169E+01  0.51100000000E-03 0. -1.
        -11    1    3    3    0    0 -0.15645505746E+02 -0.17367294438E+02 -0.10940372746E+02  0.25808845814E+02  0.51100000000E-03 0.  1.
         12    1    3    3    0    0 -0.48237182283E+01 -0.91191937453E+01 -0.85701827741E+01  0.13411785298E+02  0.00000000000E+00 0. -1.
</event>
<event>
 7    1  0.3980989E-008  0.4614233E+02  0.7816164E-02  0.1320468E+00
        -11   -1    0    0    0    0  0.00000000000E+00  0.00000000000E+00  0.45593999997E+02  0.45594000000E+02  0.51100000000E-03 0.  1.
         11   -1    0    0    0    0 -0.00000000000E+00 -0.00000000000E+00 -0.45593999997E+02  0.45594000000E+02  0.51100000000E-03 0. -1.
    9900012    2    1    2    0    0 -0.22960068315E+02 -0.97270942376E+01 -0.37514420073E+02  0.46142325260E+02  0.10000068384E+02 0.  0.
        -12    1    1    2    0    0  0.22960068315E+02  0.97270942376E+01  0.37514420073E+02  0.45045674740E+02  0.00000000000E+00 0.  1.
         11    1    3    3    0    0 -0.59670860006E+01 -0.53362859576E+01 -0.13689382674E+02  0.15858160720E+02  0.51100000000E-03 0. -1.
        -11    1    3    3    0    0 -0.10709276075E+01  0.10348553645E+01 -0.59559367151E+00  0.16039151002E+01  0.51100000000E-03 0.  1.
         12    1    3    3    0    0 -0.15922054707E+02 -0.54256636445E+01 -0.23229443727E+02  0.28680249440E+02  0.00000000000E+00 0. -1.
</event>
<event>
 7    1  0.3980989E-008  0.4614232E+02  0.7816164E-02  0.1320468E+00
        -11   -1    0    0    0    0  0.00000000000E+00  0.00000000000E+00  0.45593999997E+02  0.45594000000E+02  0.51100000000E-03 0. -1.
         11   -1    0    0    0    0 -0.00000000000E+00 -0.00000000000E+00 -0.45593999997E+02  0.45594000000E+02  0.51100000000E-03 0.  1.
    9900012    2    1    2    0    0 -0.41858877715E+02 -0.99784637081E-01  0.16641456302E+02  0.46142315763E+02  0.99999817819E+01 0.  0.
        -12    1    1    2    0    0  0.41858877715E+02  0.99784637081E-01 -0.16641456302E+02  0.45045684237E+02  0.00000000000E+00 0.  1.
         11    1    3    3    0    0 -0.94290372683E+01 -0.35064763963E+00  0.36730005158E+01  0.10125247188E+02  0.51100000000E-03 0. -1.
        -11    1    3    3    0    0 -0.29595214270E+02 -0.91616344890E+00  0.88902985879E+01  0.30915262774E+02  0.51100000000E-03 0.  1.
        -12    1    3    3    0    0 -0.28346261769E+01  0.11670264515E+01  0.40781571980E+01  0.51018058011E+01  0.00000000000E+00 0.  1.
</event>
<event>
 7    1  0.3980989E-008  0.4614232E+02  0.7816164E-02  0.1320468E+00
        -11   -1    0    0    0    0  0.00000000000E+00  0.00000000000E+00  0.45593999997E+02  0.45594000000E+02  0.51100000000E-03 0.  1.
         11   -1    0    0    0    0 -0.00000000000E+00 -0.00000000000E+00 -0.45593999997E+02  0.45594000000E+02  0.51100000000E-03 0. -1.
    9900012    2    1    2    0    0  0.20243190057E+02  0.28637184136E+02 -0.28270805610E+02  0.46142317535E+02  0.99999979338E+01 0.  0.
        -12    1    1    2    0    0 -0.20243190057E+02 -0.28637184136E+02  0.28270805610E+02  0.45045682465E+02  0.00000000000E+00 0.  1.
         11    1    3    3    0    0  0.70065752199E+01  0.52738155339E+01 -0.50603131044E+01  0.10124820767E+02  0.51100000000E-03 0.  1.
        -11    1    3    3    0    0  0.59766966467E+01  0.10612404687E+02 -0.65945938709E+01  0.13850368393E+02  0.51100000000E-03 0. -1.
        -12    1    3    3    0    0  0.72599181908E+01  0.12750963916E+02 -0.16615898635E+02  0.22167128374E+02  0.00000000000E+00 0.  1.
</event>
<event>
 7    1  0.3980989E-008  0.4614232E+02  0.7816164E-02  0.1320468E+00
        -11   -1    0    0    0    0  0.00000000000E+00  0.00000000000E+00  0.45593999997E+02  0.45594000000E+02  0.51100000000E-03 0. -1.
         11   -1    0    0    0    0 -0.00000000000E+00 -0.00000000000E+00 -0.45593999997E+02  0.45594000000E+02  0.51100000000E-03 0.  1.
    9900012    2    1    2    0    0  0.23369406896E+01  0.36282652983E+01  0.44838460591E+02  0.46142321528E+02  0.10000034347E+02 0.  0.
        -12    1    1    2    0    0 -0.23369406896E+01 -0.36282652983E+01 -0.44838460591E+02  0.45045678472E+02  0.00000000000E+00 0.  1.
         11    1    3    3    0    0 -0.74702782540E+00 -0.92262888241E+00  0.80231931467E+01  0.81105439495E+01  0.51100000000E-03 0.  1.
        -11    1    3    3    0    0  0.15103254908E+01 -0.54262017315E+00  0.25205406047E+02  0.25256444999E+02  0.51100000000E-03 0. -1.
         12    1    3    3    0    0  0.15736430242E+01  0.50935143539E+01  0.11609861397E+02  0.12775332579E+02  0.00000000000E+00 0. -1.
</event>
<event>
 7    1  0.3980989E-008  0.4614232E+02  0.7816164E-02  0.1320468E+00
        -11   -1    0    0    0    0  0.00000000000E+00  0.00000000000E+00  0.45593999997E+02  0.45594000000E+02  0.51100000000E-03 0.  1.
         11   -1    0    0    0    0 -0.00000000000E+00 -0.00000000000E+00 -0.45593999997E+02  0.45594000000E+02  0.51100000000E-03 0. -1.
    9900012    2    1    2    0    0 -0.24675118772E+02  0.88885883576E+01 -0.36623012007E+02  0.46142317656E+02  0.99999990398E+01 0.  0.
        -12    1    1    2    0    0  0.24675118772E+02 -0.88885883576E+01  0.36623012007E+02  0.45045682344E+02  0.00000000000E+00 0.  1.
         11    1    3    3    0    0 -0.18396982864E+01  0.14026821349E+01 -0.12927766823E+01  0.26501469333E+01  0.51100000000E-03 0. -1.
        -11    1    3    3    0    0 -0.13204899303E+02  0.25687467112E+01 -0.13127342626E+02  0.18796141890E+02  0.51100000000E-03 0.  1.
         12    1    3    3    0    0 -0.96305211822E+01  0.49171595114E+01 -0.22202892699E+02  0.24696028832E+02  0.00000000000E+00 0. -1.
</event>
<event>
 7    1  0.3980989E-008  0.4614232E+02  0.7816164E-02  0.1320468E+00
        -11   -1    0    0    0    0  0.00000000000E+00  0.00000000000E+00  0.45593999997E+02  0.45594000000E+02  0.51100000000E-03 0. -1.
         11   -1    0    0    0    0 -0.00000000000E+00 -0.00000000000E+00 -0.45593999997E+02  0.45594000000E+02  0.51100000000E-03 0.  1.
    9900012    2    1    2    0    0 -0.32168301261E+02 -0.91841988506E+01  0.30165615380E+02  0.46142318012E+02  0.10000002283E+02 0.  0.
        -12    1    1    2    0    0  0.32168301261E+02  0.91841988506E+01 -0.30165615380E+02  0.45045681988E+02  0.00000000000E+00 0.  1.
         11    1    3    3    0    0 -0.19321533633E+02 -0.29647236449E+01  0.13348068685E+02  0.23670280651E+02  0.51100000000E-03 0. -1.
        -11    1    3    3    0    0 -0.71537528803E+01 -0.19448639145E+01  0.60747362748E+01  0.95844194914E+01  0.51100000000E-03 0.  1.
        -12    1    3    3    0    0 -0.56930147479E+01 -0.42746112911E+01  0.10742810421E+02  0.12887617870E+02  0.00000000000E+00 0.  1.
</event>
<event>
 7    1  0.3980989E-008  0.4614232E+02  0.7816164E-02  0.1320468E+00
        -11   -1    0    0    0    0  0.00000000000E+00  0.00000000000E+00  0.45593999997E+02  0.45594000000E+02  0.51100000000E-03 0. -1.
         11   -1    0    0    0    0 -0.00000000000E+00 -0.00000000000E+00 -0.45593999997E+02  0.45594000000E+02  0.51100000000E-03 0.  1.
    9900012    2    1    2    0    0  0.18739750203E+02 -0.36806665077E+02  0.17977893325E+02  0.46142317852E+02  0.10000000832E+02 0.  0.
        -12    1    1    2    0    0 -0.18739750203E+02  0.36806665077E+02 -0.17977893325E+02  0.45045682148E+02  0.00000000000E+00 0.  1.
         11    1    3    3    0    0  0.97190943610E+01 -0.11981646978E+02  0.40831806498E+01  0.15959104736E+02  0.51100000000E-03 0. -1.
        -11    1    3    3    0    0 -0.49346256856E-01  0.18036920656E+00  0.16455981810E+00  0.24909495899E+00  0.51100000000E-03 0.  1.
         12    1    3    3    0    0  0.90700020991E+01 -0.25005387306E+02  0.13730152857E+02  0.29934118157E+02  0.00000000000E+00 0. -1.
</event>
<event>
 7    1  0.3980989E-008  0.4614232E+02  0.7816164E-02  0.1320468E+00
        -11   -1    0    0    0    0  0.00000000000E+00  0.00000000000E+00  0.45593999997E+02  0.45594000000E+02  0.51100000000E-03 0.  1.
         11   -1    0    0    0    0 -0.00000000000E+00 -0.00000000000E+00 -0.45593999997E+02  0.45594000000E+02  0.51100000000E-03 0. -1.
    9900012    2    1    2    0    0  0.23891360313E+02 -0.28289779204E+02 -0.25651599520E+02  0.46142320263E+02  0.10000022817E+02 0.  0.
        -12    1    1    2    0    0 -0.23891360313E+02  0.28289779204E+02  0.25651599520E+02  0.45045679737E+02  0.00000000000E+00 0.  1.
         11    1    3    3    0    0  0.15497461460E+02 -0.17240573818E+02 -0.14673667969E+02  0.27435838409E+02  0.51100000000E-03 0. -1.
        -11    1    3    3    0    0  0.76478584157E+01 -0.11547784351E+02 -0.11164380648E+02  0.17790010041E+02  0.51100000000E-03 0.  1.
         12    1    3    3    0    0  0.74604043729E+00  0.49857896470E+00  0.18644909719E+00  0.91647181296E+00  0.00000000000E+00 0. -1.
</event>
<event>
 7    1  0.3980989E-008  0.4614232E+02  0.7816164E-02  0.1320468E+00
        -11   -1    0    0    0    0  0.00000000000E+00  0.00000000000E+00  0.45593999997E+02  0.45594000000E+02  0.51100000000E-03 0.  1.
         11   -1    0    0    0    0 -0.00000000000E+00 -0.00000000000E+00 -0.45593999997E+02  0.45594000000E+02  0.51100000000E-03 0. -1.
    9900012    2    1    2    0    0 -0.13024663344E+02  0.17892297152E+01 -0.43084452033E+02  0.46142320905E+02  0.10000028665E+02 0.  0.
        -12    1    1    2    0    0  0.13024663344E+02 -0.17892297152E+01  0.43084452033E+02  0.45045679095E+02  0.00000000000E+00 0.  1.
         11    1    3    3    0    0 -0.27793384858E+01 -0.15999445875E+01 -0.70060336116E+01  0.77051315582E+01  0.51100000000E-03 0.  1.
        -11    1    3    3    0    0 -0.96816423895E+01  0.14637173430E+01 -0.34562132827E+02  0.35922384298E+02  0.51100000000E-03 0. -1.
         12    1    3    3    0    0 -0.56368246897E+00  0.19254569597E+01 -0.15162855940E+01  0.25148050486E+01  0.00000000000E+00 0. -1.
</event>
<event>
 7    1  0.3980989E-008  0.4614232E+02  0.7816164E-02  0.1320468E+00
        -11   -1    0    0    0    0  0.00000000000E+00  0.00000000000E+00  0.45593999997E+02  0.45594000000E+02  0.51100000000E-03 0. -1.
         11   -1    0    0    0    0 -0.00000000000E+00 -0.00000000000E+00 -0.45593999997E+02  0.45594000000E+02  0.51100000000E-03 0.  1.
    9900012    2    1    2    0    0 -0.23480101861E+02 -0.31510720288E+02 -0.22019827332E+02  0.46142317941E+02  0.10000001636E+02 0.  0.
        -12    1    1    2    0    0  0.23480101861E+02  0.31510720288E+02  0.22019827332E+02  0.45045682059E+02  0.00000000000E+00 0.  1.
         11    1    3    3    0    0 -0.88452786642E+01 -0.14195063440E+02 -0.91009194805E+01  0.19041153231E+02  0.51100000000E-03 0. -1.
        -11    1    3    3    0    0 -0.63289526971E+01 -0.25139282367E+01 -0.44273679816E+01  0.81226267258E+01  0.51100000000E-03 0.  1.
        -12    1    3    3    0    0 -0.83058704996E+01 -0.14801728611E+02 -0.84915398699E+01  0.18978537984E+02  0.00000000000E+00 0.  1.
</event>
<event>
 7    1  0.3980989E-008  0.4614232E+02  0.7816164E-02  0.1320468E+00
        -11   -1    0    0    0    0  0.00000000000E+00  0.00000000000E+00  0.45593999997E+02  0.45594000000E+02  0.51100000000E-03 0.  1.
         11   -1    0    0    0    0 -0.00000000000E+00 -0.00000000000E+00 -0.45593999997E+02  0.45594000000E+02  0.51100000000E-03 0. -1.
    9900012    2    1    2    0    0  0.43897424894E+02 -0.10073978805E+02  0.80276587635E+00  0.46142318805E+02  0.10000009518E+02 0.  0.
        -12    1    1    2    0    0 -0.43897424894E+02  0.10073978805E+02 -0.80276587635E+00  0.45045681195E+02  0.00000000000E+00 0.  1.
         11    1    3    3    0    0  0.14110545109E+02 -0.43520931590E+01 -0.38448436118E+00  0.14771459867E+02  0.51100000000E-03 0. -1.
        -11    1    3    3    0    0  0.18124450462E+02 -0.58972892283E+01  0.37591665077E+01  0.19426915810E+02  0.51100000000E-03 0.  1.
        -12    1    3    3    0    0  0.11662429323E+02  0.17540358224E+00 -0.25719162701E+01  0.11943943127E+02  0.00000000000E+00 0.  1.
</event>
<event>
 7    1  0.3980989E-008  0.4614232E+02  0.7816164E-02  0.1320468E+00
        -11   -1    0    0    0    0  0.00000000000E+00  0.00000000000E+00  0.45593999997E+02  0.45594000000E+02  0.51100000000E-03 0. -1.
         11   -1    0    0    0    0 -0.00000000000E+00 -0.00000000000E+00 -0.45593999997E+02  0.45594000000E+02  0.51100000000E-03 0.  1.
    9900012    2    1    2    0    0  0.41225439793E+01 -0.44395036511E+02 -0.64186432082E+01  0.46142316341E+02  0.99999870479E+01 0.  0.
        -12    1    1    2    0    0 -0.41225439793E+01  0.44395036511E+02  0.64186432082E+01  0.45045683659E+02  0.00000000000E+00 0.  1.
         11    1    3    3    0    0  0.19868012404E-01 -0.16774381962E+02 -0.37636555852E+01  0.17191433581E+02  0.51100000000E-03 0. -1.
        -11    1    3    3    0    0  0.20310393395E+01 -0.24575359090E+02 -0.40938622669E+01  0.24996661851E+02  0.51100000000E-03 0.  1.
        -12    1    3    3    0    0  0.20716366274E+01 -0.30452954595E+01  0.14388746439E+01  0.39542209084E+01  0.00000000000E+00 0.  1.
</event>
<event>
 7    1  0.3980989E-008  0.4614232E+02  0.7816164E-02  0.1320468E+00
        -11   -1    0    0    0    0  0.00000000000E+00  0.00000000000E+00  0.45593999997E+02  0.45594000000E+02  0.51100000000E-03 0.  1.
         11   -1    0    0    0    0 -0.00000000000E+00 -0.00000000000E+00 -0.45593999997E+02  0.45594000000E+02  0.51100000000E-03 0. -1.
    9900012    2    1    2    0    0  0.67338645864E+01  0.14256920132E+02 -0.42196076481E+02  0.46142316808E+02  0.99999913068E+01 0.  0.
        -12    1    1    2    0    0 -0.67338645864E+01 -0.14256920132E+02  0.42196076481E+02  0.45045683192E+02  0.00000000000E+00 0.  1.
         11    1    3    3    0    0  0.52650956441E+01  0.11676755992E+02 -0.24485721822E+02  0.27633646811E+02  0.51100000000E-03 0.  1.
        -11    1    3    3    0    0  0.37850692632E+00  0.24996386754E+01 -0.17039475190E+02  0.17226002903E+02  0.51100000000E-03 0. -1.
        -12    1    3    3    0    0  0.10902620159E+01  0.80525464327E-01 -0.67087946829E+00  0.12826670943E+01  0.00000000000E+00 0.  1.
</event>
<event>
 7    1  0.3980989E-008  0.4614232E+02  0.7816164E-02  0.1320468E+00
        -11   -1    0    0    0    0  0.00000000000E+00  0.00000000000E+00  0.45593999997E+02  0.45594000000E+02  0.51100000000E-03 0. -1.
         11   -1    0    0    0    0 -0.00000000000E+00 -0.00000000000E+00 -0.45593999997E+02  0.45594000000E+02  0.51100000000E-03 0.  1.
    9900012    2    1    2    0    0 -0.60561272370E+01 -0.44436802996E+02  0.42198815942E+01  0.46142317207E+02  0.99999949502E+01 0.  0.
        -12    1    1    2    0    0  0.60561272370E+01  0.44436802996E+02 -0.42198815942E+01  0.45045682793E+02  0.00000000000E+00 0.  1.
         11    1    3    3    0    0  0.10030156642E+01 -0.21429035086E+01 -0.30454811669E-02  0.23660273468E+01  0.51100000000E-03 0. -1.
        -11    1    3    3    0    0 -0.22412375710E+00 -0.23535096043E+02  0.35267846641E+01  0.23798932488E+02  0.51100000000E-03 0.  1.
         12    1    3    3    0    0 -0.68350191441E+01 -0.18758803444E+02  0.69614241129E+00  0.19977357373E+02  0.00000000000E+00 0. -1.
</event>
<event>
 7    1  0.3980989E-008  0.4614232E+02  0.7816164E-02  0.1320468E+00
        -11   -1    0    0    0    0  0.00000000000E+00  0.00000000000E+00  0.45593999997E+02  0.45594000000E+02  0.51100000000E-03 0.  1.
         11   -1    0    0    0    0 -0.00000000000E+00 -0.00000000000E+00 -0.45593999997E+02  0.45594000000E+02  0.51100000000E-03 0. -1.
    9900012    2    1    2    0    0 -0.25525453212E+02 -0.12221580877E+02 -0.35045650990E+02  0.46142318141E+02  0.10000003462E+02 0.  0.
        -12    1    1    2    0    0  0.25525453212E+02  0.12221580877E+02  0.35045650990E+02  0.45045681859E+02  0.00000000000E+00 0.  1.
         11    1    3    3    0    0 -0.78195070943E+01 -0.26185839675E+01 -0.81951789810E+01  0.11625946498E+02  0.51100000000E-03 0. -1.
        -11    1    3    3    0    0 -0.74023066586E+01 -0.57896226596E+01 -0.66201264145E+01  0.11495214153E+02  0.51100000000E-03 0.  1.
         12    1    3    3    0    0 -0.10303639459E+02 -0.38133742496E+01 -0.20230345595E+02  0.23021157490E+02  0.00000000000E+00 0. -1.
</event>
<event>
 7    1  0.3980989E-008  0.4614232E+02  0.7816164E-02  0.1320468E+00
        -11   -1    0    0    0    0  0.00000000000E+00  0.00000000000E+00  0.45593999997E+02  0.45594000000E+02  0.51100000000E-03 0.  1.
         11   -1    0    0    0    0 -0.00000000000E+00 -0.00000000000E+00 -0.45593999997E+02  0.45594000000E+02  0.51100000000E-03 0. -1.
    9900012    2    1    2    0    0  0.39616544821E+01 -0.42454468263E+02 -0.14527111607E+02  0.46142317039E+02  0.99999934197E+01 0.  0.
        -12    1    1    2    0    0 -0.39616544821E+01  0.42454468263E+02  0.14527111607E+02  0.45045682961E+02  0.00000000000E+00 0.  1.
         11    1    3    3    0    0  0.54705687983E+01 -0.21382439225E+02 -0.93952282151E+01  0.23987624803E+02  0.51100000000E-03 0. -1.
        -11    1    3    3    0    0 -0.27942057225E+01 -0.17327505887E+02 -0.47162485745E+01  0.18173966182E+02  0.51100000000E-03 0.  1.
        -12    1    3    3    0    0  0.12852914064E+01 -0.37445231509E+01 -0.41563481692E+00  0.39807260554E+01  0.00000000000E+00 0.  1.
</event>
<event>
 7    1  0.3980989E-008  0.4614232E+02  0.7816164E-02  0.1320468E+00
        -11   -1    0    0    0    0  0.00000000000E+00  0.00000000000E+00  0.45593999997E+02  0.45594000000E+02  0.51100000000E-03 0. -1.
         11   -1    0    0    0    0 -0.00000000000E+00 -0.00000000000E+00 -0.45593999997E+02  0.45594000000E+02  0.51100000000E-03 0.  1.
    9900012    2    1    2    0    0  0.30786173288E+02 -0.30564879193E+02  0.12129025211E+02  0.46142316984E+02  0.99999929154E+01 0.  0.
        -12    1    1    2    0    0 -0.30786173288E+02  0.30564879193E+02 -0.12129025211E+02  0.45045683016E+02  0.00000000000E+00 0.  1.
         11    1    3    3    0    0  0.15256049971E+01 -0.26011624142E+01  0.27596424918E+01  0.40876819172E+01  0.51100000000E-03 0.  1.
        -11    1    3    3    0    0  0.18794194228E+02 -0.14562411773E+02  0.33195434317E+01  0.24006352122E+02  0.51100000000E-03 0. -1.
         12    1    3    3    0    0  0.10466374063E+02 -0.13401305006E+02  0.60498392872E+01  0.18048282945E+02  0.00000000000E+00 0. -1.
</event>
<event>
 7    1  0.3980989E-008  0.4614232E+02  0.7816164E-02  0.1320468E+00
        -11   -1    0    0    0    0  0.00000000000E+00  0.00000000000E+00  0.45593999997E+02  0.45594000000E+02  0.51100000000E-03 0.  1.
         11   -1    0    0    0    0 -0.00000000000E+00 -0.00000000000E+00 -0.45593999997E+02  0.45594000000E+02  0.51100000000E-03 0. -1.
    9900012    2    1    2    0    0  0.14056116153E+02  0.33984514059E+02 -0.26011376716E+02  0.46142319677E+02  0.10000017469E+02 0.  0.
        -12    1    1    2    0    0 -0.14056116153E+02 -0.33984514059E+02  0.26011376716E+02  0.45045680323E+02  0.00000000000E+00 0.  1.
         11    1    3    3    0    0  0.20392733534E+01  0.11395095875E+02 -0.11023697775E+02  0.15985266926E+02  0.51100000000E-03 0. -1.
        -11    1    3    3    0    0  0.87953241431E+01  0.18805432202E+02 -0.14132749902E+02  0.25114470473E+02  0.51100000000E-03 0.  1.
         12    1    3    3    0    0  0.32215186569E+01  0.37839859823E+01 -0.85492903935E+00  0.50425822783E+01  0.00000000000E+00 0. -1.
</event>
<event>
 7    1  0.3980989E-008  0.4614232E+02  0.7816164E-02  0.1320468E+00
        -11   -1    0    0    0    0  0.00000000000E+00  0.00000000000E+00  0.45593999997E+02  0.45594000000E+02  0.51100000000E-03 0.  1.
         11   -1    0    0    0    0 -0.00000000000E+00 -0.00000000000E+00 -0.45593999997E+02  0.45594000000E+02  0.51100000000E-03 0. -1.
    9900012    2    1    2    0    0  0.85496666959E+00  0.31426571751E+02 -0.32260705993E+02  0.46142317286E+02  0.99999956634E+01 0.  0.
        -12    1    1    2    0    0 -0.85496666959E+00 -0.31426571751E+02  0.32260705993E+02  0.45045682714E+02  0.00000000000E+00 0.  1.
         11    1    3    3    0    0 -0.20716421553E+01  0.13625834919E+01 -0.43349796284E+01  0.49940348048E+01  0.51100000000E-03 0.  1.
        -11    1    3    3    0    0  0.14052203421E+01  0.16163409653E+02 -0.14385251698E+02  0.21683309767E+02  0.51100000000E-03 0. -1.
        -12    1    3    3    0    0  0.15213884828E+01  0.13900578606E+02 -0.13540474668E+02  0.19464972713E+02  0.00000000000E+00 0.  1.
</event>
<event>
 7    1  0.3980989E-008  0.4614232E+02  0.7816164E-02  0.1320468E+00
        -11   -1    0    0    0    0  0.00000000000E+00  0.00000000000E+00  0.45593999997E+02  0.45594000000E+02  0.51100000000E-03 0.  1.
         11   -1    0    0    0    0 -0.00000000000E+00 -0.00000000000E+00 -0.45593999997E+02  0.45594000000E+02  0.51100000000E-03 0. -1.
    9900012    2    1    2    0    0  0.21657796506E+02  0.23074650532E+02 -0.32056415813E+02  0.46142318282E+02  0.10000004748E+02 0.  0.
        -12    1    1    2    0    0 -0.21657796506E+02 -0.23074650532E+02  0.32056415813E+02  0.45045681718E+02  0.00000000000E+00 0.  1.
         11    1    3    3    0    0  0.92051944962E+00 -0.63834159412E+00 -0.19057493229E+01  0.22105919548E+01  0.51100000000E-03 0. -1.
        -11    1    3    3    0    0  0.39627851272E+01  0.58295778291E+01 -0.97733556862E+01  0.12050150425E+02  0.51100000000E-03 0.  1.
         12    1    3    3    0    0  0.16774491929E+02  0.17883414297E+02 -0.20377310804E+02  0.31881575902E+02  0.00000000000E+00 0. -1.
</event>
<event>
 7    1  0.3980989E-008  0.4614232E+02  0.7816164E-02  0.1320468E+00
        -11   -1    0    0    0    0  0.00000000000E+00  0.00000000000E+00  0.45593999997E+02  0.45594000000E+02  0.51100000000E-03 0.  1.
         11   -1    0    0    0    0 -0.00000000000E+00 -0.00000000000E+00 -0.45593999997E+02  0.45594000000E+02  0.51100000000E-03 0. -1.
    9900012    2    1    2    0    0  0.18723257298E+02 -0.23615665345E+00 -0.40969469595E+02  0.46142316825E+02  0.99999914643E+01 0.  0.
        -12    1    1    2    0    0 -0.18723257298E+02  0.23615665345E+00  0.40969469595E+02  0.45045683175E+02  0.00000000000E+00 0.  1.
         11    1    3    3    0    0  0.12703051509E+02 -0.17288936528E+01 -0.29815140001E+02  0.32454570779E+02  0.51100000000E-03 0. -1.
        -11    1    3    3    0    0 -0.66369444692E+00  0.58760369565E+00 -0.28760560573E+01  0.30095626140E+01  0.51100000000E-03 0.  1.
         12    1    3    3    0    0  0.66839002361E+01  0.90513330367E+00 -0.82782735363E+01  0.10678183432E+02  0.00000000000E+00 0. -1.
</event>
<event>
 7    1  0.3980989E-008  0.4614232E+02  0.7816164E-02  0.1320468E+00
        -11   -1    0    0    0    0  0.00000000000E+00  0.00000000000E+00  0.45593999997E+02  0.45594000000E+02  0.51100000000E-03 0.  1.
         11   -1    0    0    0    0 -0.00000000000E+00 -0.00000000000E+00 -0.45593999997E+02  0.45594000000E+02  0.51100000000E-03 0. -1.
    9900012    2    1    2    0    0  0.31219585233E+02  0.63237439199E+01 -0.31850607383E+02  0.46142318409E+02  0.10000005909E+02 0.  0.
        -12    1    1    2    0    0 -0.31219585233E+02 -0.63237439199E+01  0.31850607383E+02  0.45045681591E+02  0.00000000000E+00 0.  1.
         11    1    3    3    0    0  0.10097975064E+02  0.39361404812E+01 -0.60782797737E+01  0.12426093012E+02  0.51100000000E-03 0. -1.
        -11    1    3    3    0    0  0.57244881333E+01  0.20361597752E+01 -0.97808684490E+01  0.11514386605E+02  0.51100000000E-03 0.  1.
         12    1    3    3    0    0  0.15397122036E+02  0.35144366355E+00 -0.15991459160E+02  0.22201838792E+02  0.00000000000E+00 0. -1.
</event>
<event>
 7    1  0.3980989E-008  0.4614232E+02  0.7816164E-02  0.1320468E+00
        -11   -1    0    0    0    0  0.00000000000E+00  0.00000000000E+00  0.45593999997E+02  0.45594000000E+02  0.51100000000E-03 0.  1.
         11   -1    0    0    0    0 -0.00000000000E+00 -0.00000000000E+00 -0.45593999997E+02  0.45594000000E+02  0.51100000000E-03 0. -1.
    9900012    2    1    2    0    0  0.70452528541E+01 -0.43872530709E+02  0.73945206648E+01  0.46142317916E+02  0.10000001410E+02 0.  0.
        -12    1    1    2    0    0 -0.70452528541E+01  0.43872530709E+02 -0.73945206648E+01  0.45045682084E+02  0.00000000000E+00 0.  1.
         11    1    3    3    0    0  0.49393466018E+01 -0.21043637070E+02  0.24857922410E+01  0.21758009314E+02  0.51100000000E-03 0. -1.
        -11    1    3    3    0    0  0.16235893458E+01 -0.63546370666E+01 -0.14530310962E+01  0.67177938521E+01  0.51100000000E-03 0.  1.
        -12    1    3    3    0    0  0.48231690646E+00 -0.16474256572E+02  0.63617595200E+01  0.17666514749E+02  0.00000000000E+00 0.  1.
</event>
<event>
 7    1  0.3980989E-008  0.4614232E+02  0.7816164E-02  0.1320468E+00
        -11   -1    0    0    0    0  0.00000000000E+00  0.00000000000E+00  0.45593999997E+02  0.45594000000E+02  0.51100000000E-03 0. -1.
         11   -1    0    0    0    0 -0.00000000000E+00 -0.00000000000E+00 -0.45593999997E+02  0.45594000000E+02  0.51100000000E-03 0.  1.
    9900012    2    1    2    0    0 -0.35905207257E+02 -0.16832787489E+02  0.21367893395E+02  0.46142317510E+02  0.99999977115E+01 0.  0.
        -12    1    1    2    0    0  0.35905207257E+02  0.16832787489E+02 -0.21367893395E+02  0.45045682490E+02  0.00000000000E+00 0.  1.
         11    1    3    3    0    0 -0.12440473489E+02 -0.66112061803E+01  0.10836258449E+02  0.17773517526E+02  0.51100000000E-03 0. -1.
        -11    1    3    3    0    0 -0.21542576994E+02 -0.10984217571E+02  0.10315407403E+02  0.26289604206E+02  0.51100000000E-03 0.  1.
         12    1    3    3    0    0 -0.19221567744E+01  0.76263626212E+00  0.21622754261E+00  0.20791957781E+01  0.00000000000E+00 0. -1.
</event>
<event>
 7    1  0.3980989E-008  0.4614231E+02  0.7816164E-02  0.1320468E+00
        -11   -1    0    0    0    0  0.00000000000E+00  0.00000000000E+00  0.45593999997E+02  0.45594000000E+02  0.51100000000E-03 0.  1.
         11   -1    0    0    0    0 -0.00000000000E+00 -0.00000000000E+00 -0.45593999997E+02  0.45594000000E+02  0.51100000000E-03 0. -1.
    9900012    2    1    2    0    0  0.51425767323E+01  0.24785668031E+02 -0.37260414059E+02  0.46142313292E+02  0.99999592469E+01 0.  0.
        -12    1    1    2    0    0 -0.51425767323E+01 -0.24785668031E+02  0.37260414059E+02  0.45045686708E+02  0.00000000000E+00 0.  1.
         11    1    3    3    0    0  0.80308775407E+00  0.20011561307E+01 -0.13118474851E+01  0.25239888838E+01  0.51100000000E-03 0. -1.
        -11    1    3    3    0    0  0.21793876066E+01  0.57201312748E+00 -0.47722635618E+01  0.52774453216E+01  0.51100000000E-03 0.  1.
        -12    1    3    3    0    0  0.21601013716E+01  0.22212498773E+02 -0.31176303012E+02  0.38340879087E+02  0.00000000000E+00 0.  1.
</event>
<event>
 7    1  0.3980989E-008  0.4614232E+02  0.7816164E-02  0.1320468E+00
        -11   -1    0    0    0    0  0.00000000000E+00  0.00000000000E+00  0.45593999997E+02  0.45594000000E+02  0.51100000000E-03 0.  1.
         11   -1    0    0    0    0 -0.00000000000E+00 -0.00000000000E+00 -0.45593999997E+02  0.45594000000E+02  0.51100000000E-03 0. -1.
    9900012    2    1    2    0    0  0.34023273888E+02 -0.23992738324E+02  0.17201126820E+02  0.46142318495E+02  0.10000006692E+02 0.  0.
        -12    1    1    2    0    0 -0.34023273888E+02  0.23992738324E+02 -0.17201126820E+02  0.45045681505E+02  0.00000000000E+00 0.  1.
         11    1    3    3    0    0  0.10584519155E+02 -0.44023543552E+01  0.63244858764E+01  0.13092436422E+02  0.51100000000E-03 0.  1.
        -11    1    3    3    0    0  0.16425108167E+02 -0.10868789165E+02  0.91810818152E+01  0.21730324889E+02  0.51100000000E-03 0. -1.
        -12    1    3    3    0    0  0.70136465661E+01 -0.87215948038E+01  0.16955591288E+01  0.11319557184E+02  0.00000000000E+00 0.  1.
</event>
<event>
 7    1  0.3980989E-008  0.4614232E+02  0.7816164E-02  0.1320468E+00
        -11   -1    0    0    0    0  0.00000000000E+00  0.00000000000E+00  0.45593999997E+02  0.45594000000E+02  0.51100000000E-03 0. -1.
         11   -1    0    0    0    0 -0.00000000000E+00 -0.00000000000E+00 -0.45593999997E+02  0.45594000000E+02  0.51100000000E-03 0.  1.
    9900012    2    1    2    0    0 -0.35899928394E+02 -0.80402187933E+01  0.25993531323E+02  0.46142315993E+02  0.99999838803E+01 0.  0.
        -12    1    1    2    0    0  0.35899928394E+02  0.80402187933E+01 -0.25993531323E+02  0.45045684007E+02  0.00000000000E+00 0.  1.
         11    1    3    3    0    0 -0.54610296326E+01 -0.26437206194E+01  0.52057635593E+01  0.79945029776E+01  0.51100000000E-03 0. -1.
        -11    1    3    3    0    0 -0.27621462537E+01 -0.13759042596E+01 -0.32957228283E+00  0.31034146692E+01  0.51100000000E-03 0.  1.
         12    1    3    3    0    0 -0.27676752508E+02 -0.40205939143E+01  0.21117340047E+02  0.35044398347E+02  0.00000000000E+00 0. -1.
</event>
<event>
 7    1  0.3980989E-008  0.4614232E+02  0.7816164E-02  0.1320468E+00
        -11   -1    0    0    0    0  0.00000000000E+00  0.00000000000E+00  0.45593999997E+02  0.45594000000E+02  0.51100000000E-03 0.  1.
         11   -1    0    0    0    0 -0.00000000000E+00 -0.00000000000E+00 -0.45593999997E+02  0.45594000000E+02  0.51100000000E-03 0. -1.
    9900012    2    1    2    0    0  0.26574393230E+02  0.12741240640E+02 -0.34067229474E+02  0.46142315272E+02  0.99999772995E+01 0.  0.
        -12    1    1    2    0    0 -0.26574393230E+02 -0.12741240640E+02  0.34067229474E+02  0.45045684728E+02  0.00000000000E+00 0.  1.
         11    1    3    3    0    0  0.76313588402E+01  0.62448837052E+01 -0.11280195886E+02  0.14982624260E+02  0.51100000000E-03 0. -1.
        -11    1    3    3    0    0  0.91626340665E+01  0.63213816444E+01 -0.93391793617E+01  0.14530450796E+02  0.51100000000E-03 0.  1.
        -12    1    3    3    0    0  0.97804003236E+01  0.17497529074E+00 -0.13447854226E+02  0.16629240215E+02  0.00000000000E+00 0.  1.
</event>
<event>
 7    1  0.3980989E-008  0.4614232E+02  0.7816164E-02  0.1320468E+00
        -11   -1    0    0    0    0  0.00000000000E+00  0.00000000000E+00  0.45593999997E+02  0.45594000000E+02  0.51100000000E-03 0.  1.
         11   -1    0    0    0    0 -0.00000000000E+00 -0.00000000000E+00 -0.45593999997E+02  0.45594000000E+02  0.51100000000E-03 0. -1.
    9900012    2    1    2    0    0  0.98044609652E+01  0.10946923630E+02 -0.42581106188E+02  0.46142321007E+02  0.10000029600E+02 0.  0.
        -12    1    1    2    0    0 -0.98044609652E+01 -0.10946923630E+02  0.42581106188E+02  0.45045678993E+02  0.00000000000E+00 0.  1.
         11    1    3    3    0    0  0.15850176888E+01  0.39385765285E+01 -0.59966749739E+01  0.73474333715E+01  0.51100000000E-03 0. -1.
        -11    1    3    3    0    0  0.16015950232E+01  0.13732767294E+01 -0.13511800440E+01  0.25053309894E+01  0.51100000000E-03 0.  1.
        -12    1    3    3    0    0  0.66178482532E+01  0.56350703720E+01 -0.35233251170E+02  0.36289556646E+02  0.00000000000E+00 0.  1.
</event>
<event>
 7    1  0.3980989E-008  0.4614232E+02  0.7816164E-02  0.1320468E+00
        -11   -1    0    0    0    0  0.00000000000E+00  0.00000000000E+00  0.45593999997E+02  0.45594000000E+02  0.51100000000E-03 0.  1.
         11   -1    0    0    0    0 -0.00000000000E+00 -0.00000000000E+00 -0.45593999997E+02  0.45594000000E+02  0.51100000000E-03 0. -1.
    9900012    2    1    2    0    0  0.57291807735E+01  0.43644579352E+02 -0.95624585615E+01  0.46142318377E+02  0.10000005618E+02 0.  0.
        -12    1    1    2    0    0 -0.57291807735E+01 -0.43644579352E+02  0.95624585615E+01  0.45045681623E+02  0.00000000000E+00 0.  1.
         11    1    3    3    0    0  0.60575733092E+01  0.17300547914E+02 -0.13945797563E+01  0.18383362191E+02  0.51100000000E-03 0. -1.
        -11    1    3    3    0    0 -0.87992851770E+00  0.84811365931E+01 -0.39468787946E+01  0.93958397489E+01  0.51100000000E-03 0.  1.
         12    1    3    3    0    0  0.55153598199E+00  0.17862894845E+02 -0.42210000107E+01  0.18363116437E+02  0.00000000000E+00 0. -1.
</event>
<event>
 7    1  0.3980989E-008  0.4614232E+02  0.7816164E-02  0.1320468E+00
        -11   -1    0    0    0    0  0.00000000000E+00  0.00000000000E+00  0.45593999997E+02  0.45594000000E+02  0.51100000000E-03 0.  1.
         11   -1    0    0    0    0 -0.00000000000E+00 -0.00000000000E+00 -0.45593999997E+02  0.45594000000E+02  0.51100000000E-03 0. -1.
    9900012    2    1    2    0    0  0.85705015061E+01 -0.28246224014E+02 -0.34026618890E+02  0.46142318074E+02  0.10000002851E+02 0.  0.
        -12    1    1    2    0    0 -0.85705015061E+01  0.28246224014E+02  0.34026618890E+02  0.45045681926E+02  0.00000000000E+00 0.  1.
         11    1    3    3    0    0  0.23788625832E+01 -0.61916801775E+01 -0.91626526528E+01  0.11311502752E+02  0.51100000000E-03 0. -1.
        -11    1    3    3    0    0  0.78063781516E+01 -0.20243559318E+02 -0.20563636133E+02  0.29893216036E+02  0.51100000000E-03 0.  1.
        -12    1    3    3    0    0 -0.16147392287E+01 -0.18109845188E+01 -0.43003301042E+01  0.49375992860E+01  0.00000000000E+00 0.  1.
</event>
<event>
 7    1  0.3980989E-008  0.4614232E+02  0.7816164E-02  0.1320468E+00
        -11   -1    0    0    0    0  0.00000000000E+00  0.00000000000E+00  0.45593999997E+02  0.45594000000E+02  0.51100000000E-03 0.  1.
         11   -1    0    0    0    0 -0.00000000000E+00 -0.00000000000E+00 -0.45593999997E+02  0.45594000000E+02  0.51100000000E-03 0. -1.
    9900012    2    1    2    0    0 -0.31383394375E+02  0.50632791464E+00  0.32310055339E+02  0.46142317783E+02  0.10000000196E+02 0.  0.
        -12    1    1    2    0    0  0.31383394375E+02 -0.50632791464E+00 -0.32310055339E+02  0.45045682217E+02  0.00000000000E+00 0.  1.
         11    1    3    3    0    0 -0.10663011283E+02 -0.16958235616E+01  0.17196232741E+02  0.20304828192E+02  0.51100000000E-03 0.  1.
        -11    1    3    3    0    0 -0.37439598578E+01  0.10713211016E+01  0.35150718711E+01  0.52460170453E+01  0.51100000000E-03 0. -1.
        -12    1    3    3    0    0 -0.16976423234E+02  0.11308303747E+01  0.11598750727E+02  0.20591472545E+02  0.00000000000E+00 0.  1.
</event>
<event>
 7    1  0.3980989E-008  0.4614232E+02  0.7816164E-02  0.1320468E+00
        -11   -1    0    0    0    0  0.00000000000E+00  0.00000000000E+00  0.45593999997E+02  0.45594000000E+02  0.51100000000E-03 0. -1.
         11   -1    0    0    0    0 -0.00000000000E+00 -0.00000000000E+00 -0.45593999997E+02  0.45594000000E+02  0.51100000000E-03 0.  1.
    9900012    2    1    2    0    0 -0.82692555228E+01  0.80745081587E+01  0.43537744511E+02  0.46142318009E+02  0.10000002260E+02 0.  0.
        -12    1    1    2    0    0  0.82692555228E+01 -0.80745081587E+01 -0.43537744511E+02  0.45045681991E+02  0.00000000000E+00 0.  1.
         11    1    3    3    0    0 -0.20629478893E+01  0.65470078213E+01  0.23697383456E+02  0.24671543290E+02  0.51100000000E-03 0. -1.
        -11    1    3    3    0    0 -0.86919176136E+00  0.23231855537E+01  0.93564743846E+01  0.96796848402E+01  0.51100000000E-03 0.  1.
        -12    1    3    3    0    0 -0.53371158721E+01 -0.79568521637E+00  0.10483886671E+02  0.11791089879E+02  0.00000000000E+00 0.  1.
</event>
<event>
 7    1  0.3980989E-008  0.4614232E+02  0.7816164E-02  0.1320468E+00
        -11   -1    0    0    0    0  0.00000000000E+00  0.00000000000E+00  0.45593999997E+02  0.45594000000E+02  0.51100000000E-03 0.  1.
         11   -1    0    0    0    0 -0.00000000000E+00 -0.00000000000E+00 -0.45593999997E+02  0.45594000000E+02  0.51100000000E-03 0. -1.
    9900012    2    1    2    0    0 -0.34324277068E+02 -0.28976712962E+02  0.33626865790E+01  0.46142317062E+02  0.99999936293E+01 0.  0.
        -12    1    1    2    0    0  0.34324277068E+02  0.28976712962E+02 -0.33626865790E+01  0.45045682938E+02  0.00000000000E+00 0.  1.
         11    1    3    3    0    0 -0.24695719383E+01 -0.28313236661E+01  0.23902488294E+01  0.44529169079E+01  0.51100000000E-03 0.  1.
        -11    1    3    3    0    0 -0.24206930146E+02 -0.16431906918E+02  0.16880982290E+01  0.29305847675E+02  0.51100000000E-03 0. -1.
         12    1    3    3    0    0 -0.76477749836E+01 -0.97134823779E+01 -0.71566047940E+00  0.12383552480E+02  0.00000000000E+00 0. -1.
</event>
<event>
 7    1  0.3980989E-008  0.4614232E+02  0.7816164E-02  0.1320468E+00
        -11   -1    0    0    0    0  0.00000000000E+00  0.00000000000E+00  0.45593999997E+02  0.45594000000E+02  0.51100000000E-03 0.  1.
         11   -1    0    0    0    0 -0.00000000000E+00 -0.00000000000E+00 -0.45593999997E+02  0.45594000000E+02  0.51100000000E-03 0. -1.
    9900012    2    1    2    0    0 -0.72729994294E+00 -0.27898663829E+02 -0.35358861379E+02  0.46142317779E+02  0.10000000166E+02 0.  0.
        -12    1    1    2    0    0  0.72729994294E+00  0.27898663829E+02  0.35358861379E+02  0.45045682221E+02  0.00000000000E+00 0.  1.
         11    1    3    3    0    0 -0.32144554171E+01 -0.17829994716E+02 -0.27337165727E+02  0.32795762919E+02  0.51100000000E-03 0. -1.
        -11    1    3    3    0    0  0.80237131792E+00 -0.73923099843E+00 -0.14351244731E+01  0.18027325690E+01  0.51100000000E-03 0.  1.
         12    1    3    3    0    0  0.16847841562E+01 -0.93294381146E+01 -0.65865711795E+01  0.11543822291E+02  0.00000000000E+00 0. -1.
</event>
<event>
 7    1  0.3980989E-008  0.4614232E+02  0.7816164E-02  0.1320468E+00
        -11   -1    0    0    0    0  0.00000000000E+00  0.00000000000E+00  0.45593999997E+02  0.45594000000E+02  0.51100000000E-03 0.  1.
         11   -1    0    0    0    0 -0.00000000000E+00 -0.00000000000E+00 -0.45593999997E+02  0.45594000000E+02  0.51100000000E-03 0. -1.
    9900012    2    1    2    0    0  0.15653582399E+02  0.37644313070E+02 -0.19156841004E+02  0.46142317569E+02  0.99999982445E+01 0.  0.
        -12    1    1    2    0    0 -0.15653582399E+02 -0.37644313070E+02  0.19156841004E+02  0.45045682431E+02  0.00000000000E+00 0.  1.
         11    1    3    3    0    0  0.43241630889E+01  0.48015975971E+01 -0.13862795872E+01  0.66087440001E+01  0.51100000000E-03 0. -1.
        -11    1    3    3    0    0  0.13151588043E+01  0.12029820841E+02 -0.76502213168E+01  0.14316847370E+02  0.51100000000E-03 0.  1.
         12    1    3    3    0    0  0.10014260506E+02  0.20812894632E+02 -0.10120340100E+02  0.25216726199E+02  0.00000000000E+00 0. -1.
</event>
<event>
 7    1  0.3980989E-008  0.4614232E+02  0.7816164E-02  0.1320468E+00
        -11   -1    0    0    0    0  0.00000000000E+00  0.00000000000E+00  0.45593999997E+02  0.45594000000E+02  0.51100000000E-03 0. -1.
         11   -1    0    0    0    0 -0.00000000000E+00 -0.00000000000E+00 -0.45593999997E+02  0.45594000000E+02  0.51100000000E-03 0.  1.
    9900012    2    1    2    0    0 -0.34380327140E+02  0.12510055358E+02  0.26279365757E+02  0.46142318255E+02  0.10000004502E+02 0.  0.
        -12    1    1    2    0    0  0.34380327140E+02 -0.12510055358E+02 -0.26279365757E+02  0.45045681745E+02  0.00000000000E+00 0.  1.
         11    1    3    3    0    0 -0.10736372348E+02  0.24687590725E+01  0.55225116180E+01  0.12323254334E+02  0.51100000000E-03 0.  1.
        -11    1    3    3    0    0 -0.14329356227E+02  0.65061487243E+01  0.80635339836E+01  0.17682788289E+02  0.51100000000E-03 0. -1.
         12    1    3    3    0    0 -0.93145985648E+01  0.35351475617E+01  0.12693320155E+02  0.16136275632E+02  0.00000000000E+00 0. -1.
</event>
<event>
 7    1  0.3980989E-008  0.4614232E+02  0.7816164E-02  0.1320468E+00
        -11   -1    0    0    0    0  0.00000000000E+00  0.00000000000E+00  0.45593999997E+02  0.45594000000E+02  0.51100000000E-03 0. -1.
         11   -1    0    0    0    0 -0.00000000000E+00 -0.00000000000E+00 -0.45593999997E+02  0.45594000000E+02  0.51100000000E-03 0.  1.
    9900012    2    1    2    0    0  0.16726898060E+02  0.36745826149E+01  0.41663194598E+02  0.46142318074E+02  0.10000002852E+02 0.  0.
        -12    1    1    2    0    0 -0.16726898060E+02 -0.36745826149E+01 -0.41663194598E+02  0.45045681926E+02  0.00000000000E+00 0.  1.
         11    1    3    3    0    0  0.61500579136E+01  0.25376502653E+00  0.20346976936E+02  0.21257635799E+02  0.51100000000E-03 0. -1.
        -11    1    3    3    0    0  0.23212310262E+01 -0.13512455668E+01  0.84733001319E+01  0.88888015753E+01  0.51100000000E-03 0.  1.
        -12    1    3    3    0    0  0.82556091199E+01  0.47720631552E+01  0.12842917530E+02  0.15995880700E+02  0.00000000000E+00 0.  1.
</event>
<event>
 7    1  0.3980989E-008  0.4614232E+02  0.7816164E-02  0.1320468E+00
        -11   -1    0    0    0    0  0.00000000000E+00  0.00000000000E+00  0.45593999997E+02  0.45594000000E+02  0.51100000000E-03 0.  1.
         11   -1    0    0    0    0 -0.00000000000E+00 -0.00000000000E+00 -0.45593999997E+02  0.45594000000E+02  0.51100000000E-03 0. -1.
    9900012    2    1    2    0    0  0.32293178592E+02 -0.18169165622E+02 -0.25615340273E+02  0.46142316297E+02  0.99999866494E+01 0.  0.
        -12    1    1    2    0    0 -0.32293178592E+02  0.18169165622E+02  0.25615340273E+02  0.45045683703E+02  0.00000000000E+00 0.  1.
         11    1    3    3    0    0  0.70437749327E+01 -0.41296334298E+01 -0.38257378943E+01  0.90169234368E+01  0.51100000000E-03 0. -1.
        -11    1    3    3    0    0  0.11111172318E+02 -0.36204099260E+01 -0.13018842238E+02  0.17494449743E+02  0.51100000000E-03 0.  1.
        -12    1    3    3    0    0  0.14138231341E+02 -0.10419122266E+02 -0.87707601409E+01  0.19630943118E+02  0.00000000000E+00 0.  1.
</event>
<event>
 7    1  0.3980989E-008  0.4614232E+02  0.7816164E-02  0.1320468E+00
        -11   -1    0    0    0    0  0.00000000000E+00  0.00000000000E+00  0.45593999997E+02  0.45594000000E+02  0.51100000000E-03 0. -1.
         11   -1    0    0    0    0 -0.00000000000E+00 -0.00000000000E+00 -0.45593999997E+02  0.45594000000E+02  0.51100000000E-03 0.  1.
    9900012    2    1    2    0    0  0.33889934221E+02 -0.26576410755E+02  0.13201523377E+02  0.46142317969E+02  0.10000001897E+02 0.  0.
        -12    1    1    2    0    0 -0.33889934221E+02  0.26576410755E+02 -0.13201523377E+02  0.45045682031E+02  0.00000000000E+00 0.  1.
         11    1    3    3    0    0  0.10112455886E+02 -0.11815539481E+02  0.65940349512E+01  0.16892306961E+02  0.51100000000E-03 0. -1.
        -11    1    3    3    0    0 -0.82978716192E-01  0.17514152573E+00  0.36976439628E+00  0.41747573733E+00  0.51100000000E-03 0.  1.
        -12    1    3    3    0    0  0.23860457052E+02 -0.14936012800E+02  0.62377240294E+01  0.28832535271E+02  0.00000000000E+00 0.  1.
</event>
<event>
 7    1  0.3980989E-008  0.4614231E+02  0.7816164E-02  0.1320468E+00
        -11   -1    0    0    0    0  0.00000000000E+00  0.00000000000E+00  0.45593999997E+02  0.45594000000E+02  0.51100000000E-03 0. -1.
         11   -1    0    0    0    0 -0.00000000000E+00 -0.00000000000E+00 -0.45593999997E+02  0.45594000000E+02  0.51100000000E-03 0.  1.
    9900012    2    1    2    0    0  0.15266381824E+02  0.42173628622E+02  0.41757096520E+01  0.46142313011E+02  0.99999566880E+01 0.  0.
        -12    1    1    2    0    0 -0.15266381824E+02 -0.42173628622E+02 -0.41757096520E+01  0.45045686989E+02  0.00000000000E+00 0.  1.
         11    1    3    3    0    0  0.38672431983E+00  0.95890046162E+01 -0.62947221164E+00  0.96174217312E+01  0.51100000000E-03 0.  1.
        -11    1    3    3    0    0  0.52316134997E+01  0.14853002946E+02  0.43337562305E+01  0.16332878486E+02  0.51100000000E-03 0. -1.
         12    1    3    3    0    0  0.96480440048E+01  0.17731621060E+02  0.47142563315E+00  0.20192012794E+02  0.00000000000E+00 0. -1.
</event>
<event>
 7    1  0.3980989E-008  0.4614231E+02  0.7816164E-02  0.1320468E+00
        -11   -1    0    0    0    0  0.00000000000E+00  0.00000000000E+00  0.45593999997E+02  0.45594000000E+02  0.51100000000E-03 0.  1.
         11   -1    0    0    0    0 -0.00000000000E+00 -0.00000000000E+00 -0.45593999997E+02  0.45594000000E+02  0.51100000000E-03 0. -1.
    9900012    2    1    2    0    0  0.98206326672E+01  0.38071104666E+02 -0.21983185489E+02  0.46142308966E+02  0.99999197979E+01 0.  0.
        -12    1    1    2    0    0 -0.98206326672E+01 -0.38071104666E+02  0.21983185489E+02  0.45045691034E+02  0.00000000000E+00 0.  1.
         11    1    3    3    0    0  0.95996534635E+01  0.27826265228E+02 -0.17256156926E+02  0.34120805021E+02  0.51100000000E-03 0. -1.
        -11    1    3    3    0    0  0.81847047592E+00  0.22459386488E+01  0.50712248006E+00  0.24436259544E+01  0.51100000000E-03 0.  1.
        -12    1    3    3    0    0 -0.59749127224E+00  0.79989007898E+01 -0.52341510432E+01  0.95778779909E+01  0.00000000000E+00 0.  1.
</event>
<event>
 7    1  0.3980989E-008  0.4614232E+02  0.7816164E-02  0.1320468E+00
        -11   -1    0    0    0    0  0.00000000000E+00  0.00000000000E+00  0.45593999997E+02  0.45594000000E+02  0.51100000000E-03 0.  1.
         11   -1    0    0    0    0 -0.00000000000E+00 -0.00000000000E+00 -0.45593999997E+02  0.45594000000E+02  0.51100000000E-03 0. -1.
    9900012    2    1    2    0    0  0.19589907823E+02 -0.19670679422E+02 -0.35474122473E+02  0.46142317825E+02  0.10000000578E+02 0.  0.
        -12    1    1    2    0    0 -0.19589907823E+02  0.19670679422E+02  0.35474122473E+02  0.45045682175E+02  0.00000000000E+00 0.  1.
         11    1    3    3    0    0  0.69888128096E+01 -0.45894055457E+01 -0.12616799329E+02  0.15135711854E+02  0.51100000000E-03 0. -1.
        -11    1    3    3    0    0  0.15599903641E+01 -0.72363734892E+01 -0.83781270387E+01  0.11179967985E+02  0.51100000000E-03 0.  1.
        -12    1    3    3    0    0  0.11041104649E+02 -0.78449003867E+01 -0.14479196105E+02  0.19826637985E+02  0.00000000000E+00 0.  1.
</event>
<event>
 7    1  0.3980989E-008  0.4614232E+02  0.7816164E-02  0.1320468E+00
        -11   -1    0    0    0    0  0.00000000000E+00  0.00000000000E+00  0.45593999997E+02  0.45594000000E+02  0.51100000000E-03 0.  1.
         11   -1    0    0    0    0 -0.00000000000E+00 -0.00000000000E+00 -0.45593999997E+02  0.45594000000E+02  0.51100000000E-03 0. -1.
    9900012    2    1    2    0    0  0.33859680961E-01 -0.39882946238E+02 -0.20939498555E+02  0.46142321552E+02  0.10000034568E+02 0.  0.
        -12    1    1    2    0    0 -0.33859680961E-01  0.39882946238E+02  0.20939498555E+02  0.45045678448E+02  0.00000000000E+00 0.  1.
         11    1    3    3    0    0 -0.25080376685E+01 -0.22980125711E+02 -0.88880767931E+01  0.24766395377E+02  0.51100000000E-03 0. -1.
        -11    1    3    3    0    0 -0.36888543620E+00 -0.10837281168E+02 -0.64142959773E+01  0.12598648052E+02  0.51100000000E-03 0.  1.
        -12    1    3    3    0    0  0.29107827857E+01 -0.60655393589E+01 -0.56371257846E+01  0.87772781231E+01  0.00000000000E+00 0.  1.
</event>
<event>
 7    1  0.3980989E-008  0.4614232E+02  0.7816164E-02  0.1320468E+00
        -11   -1    0    0    0    0  0.00000000000E+00  0.00000000000E+00  0.45593999997E+02  0.45594000000E+02  0.51100000000E-03 0. -1.
         11   -1    0    0    0    0 -0.00000000000E+00 -0.00000000000E+00 -0.45593999997E+02  0.45594000000E+02  0.51100000000E-03 0.  1.
    9900012    2    1    2    0    0  0.16928411350E+02  0.22777875968E+02  0.34981577378E+02  0.46142317628E+02  0.99999987904E+01 0.  0.
        -12    1    1    2    0    0 -0.16928411350E+02 -0.22777875968E+02 -0.34981577378E+02  0.45045682372E+02  0.00000000000E+00 0.  1.
         11    1    3    3    0    0  0.30023546063E+01  0.48998050799E+01  0.76873023659E+01  0.95977518685E+01  0.51100000000E-03 0. -1.
        -11    1    3    3    0    0 -0.16769775872E+00  0.76343057028E+00  0.51503016968E+01  0.52092760153E+01  0.51100000000E-03 0.  1.
        -12    1    3    3    0    0  0.14093754503E+02  0.17114640318E+02  0.22143973315E+02  0.31335289745E+02  0.00000000000E+00 0.  1.
</event>
<event>
 7    1  0.3980989E-008  0.4614232E+02  0.7816164E-02  0.1320468E+00
        -11   -1    0    0    0    0  0.00000000000E+00  0.00000000000E+00  0.45593999997E+02  0.45594000000E+02  0.51100000000E-03 0.  1.
         11   -1    0    0    0    0 -0.00000000000E+00 -0.00000000000E+00 -0.45593999997E+02  0.45594000000E+02  0.51100000000E-03 0. -1.
    9900012    2    1    2    0    0  0.20985716702E+02 -0.33886801055E+02 -0.20985657958E+02  0.46142318396E+02  0.10000005785E+02 0.  0.
        -12    1    1    2    0    0 -0.20985716702E+02  0.33886801055E+02  0.20985657958E+02  0.45045681604E+02  0.00000000000E+00 0.  1.
         11    1    3    3    0    0  0.28738510170E+01 -0.11022304805E+02 -0.78678615966E+01  0.13843896462E+02  0.51100000000E-03 0. -1.
        -11    1    3    3    0    0  0.89625285451E+01 -0.14633008532E+02 -0.85414552519E+01  0.19167898025E+02  0.51100000000E-03 0.  1.
        -12    1    3    3    0    0  0.91493371399E+01 -0.82314877183E+01 -0.45763411099E+01  0.13130523908E+02  0.00000000000E+00 0.  1.
</event>
<event>
 7    1  0.3980989E-008  0.4614231E+02  0.7816164E-02  0.1320468E+00
        -11   -1    0    0    0    0  0.00000000000E+00  0.00000000000E+00  0.45593999997E+02  0.45594000000E+02  0.51100000000E-03 0. -1.
         11   -1    0    0    0    0 -0.00000000000E+00 -0.00000000000E+00 -0.45593999997E+02  0.45594000000E+02  0.51100000000E-03 0.  1.
    9900012    2    1    2    0    0  0.37779748358E+02  0.48931121628E+01  0.24038756615E+02  0.46142314832E+02  0.99999732945E+01 0.  0.
        -12    1    1    2    0    0 -0.37779748358E+02 -0.48931121628E+01 -0.24038756615E+02  0.45045685168E+02  0.00000000000E+00 0.  1.
         11    1    3    3    0    0  0.57289895859E+01  0.23800677017E+01  0.76261064405E+01  0.98307448164E+01  0.51100000000E-03 0. -1.
        -11    1    3    3    0    0  0.14602050360E+01 -0.46938122639E+00  0.15647081927E+00  0.15417525292E+01  0.51100000000E-03 0.  1.
         12    1    3    3    0    0  0.30590553736E+02  0.29824256874E+01  0.16256179355E+02  0.34769817487E+02  0.00000000000E+00 0. -1.
</event>
<event>
 7    1  0.3980989E-008  0.4614232E+02  0.7816164E-02  0.1320468E+00
        -11   -1    0    0    0    0  0.00000000000E+00  0.00000000000E+00  0.45593999997E+02  0.45594000000E+02  0.51100000000E-03 0.  1.
         11   -1    0    0    0    0 -0.00000000000E+00 -0.00000000000E+00 -0.45593999997E+02  0.45594000000E+02  0.51100000000E-03 0. -1.
    9900012    2    1    2    0    0 -0.27999429213E+02 -0.23912562127E+01 -0.35205502671E+02  0.46142316956E+02  0.99999926615E+01 0.  0.
        -12    1    1    2    0    0  0.27999429213E+02  0.23912562127E+01  0.35205502671E+02  0.45045683044E+02  0.00000000000E+00 0.  1.
         11    1    3    3    0    0 -0.13582748452E+02  0.63118984991E+00 -0.13544551847E+02  0.19192299006E+02  0.51100000000E-03 0. -1.
        -11    1    3    3    0    0 -0.15401851477E+00  0.11393927006E+01 -0.19953543057E+01  0.23029060978E+01  0.51100000000E-03 0.  1.
         12    1    3    3    0    0 -0.14262662247E+02 -0.41618387632E+01 -0.19665596518E+02  0.24647111852E+02  0.00000000000E+00 0. -1.
</event>
<event>
 7    1  0.3980989E-008  0.4614232E+02  0.7816164E-02  0.1320468E+00
        -11   -1    0    0    0    0  0.00000000000E+00  0.00000000000E+00  0.45593999997E+02  0.45594000000E+02  0.51100000000E-03 0.  1.
         11   -1    0    0    0    0 -0.00000000000E+00 -0.00000000000E+00 -0.45593999997E+02  0.45594000000E+02  0.51100000000E-03 0. -1.
    9900012    2    1    2    0    0  0.12997872314E+02 -0.35354062563E+02 -0.24703417650E+02  0.46142320207E+02  0.10000022303E+02 0.  0.
        -12    1    1    2    0    0 -0.12997872314E+02  0.35354062563E+02  0.24703417650E+02  0.45045679793E+02  0.00000000000E+00 0.  1.
         11    1    3    3    0    0  0.67551749039E+01 -0.14440082244E+02 -0.90153230227E+01  0.18314595619E+02  0.51100000000E-03 0. -1.
        -11    1    3    3    0    0  0.69704884602E+01 -0.13324285363E+02 -0.12535668296E+02  0.19577213022E+02  0.51100000000E-03 0.  1.
        -12    1    3    3    0    0 -0.72779105026E+00 -0.75896949556E+01 -0.31524263309E+01  0.82505115662E+01  0.00000000000E+00 0.  1.
</event>
<event>
 7    1  0.3980989E-008  0.4614232E+02  0.7816164E-02  0.1320468E+00
        -11   -1    0    0    0    0  0.00000000000E+00  0.00000000000E+00  0.45593999997E+02  0.45594000000E+02  0.51100000000E-03 0.  1.
         11   -1    0    0    0    0 -0.00000000000E+00 -0.00000000000E+00 -0.45593999997E+02  0.45594000000E+02  0.51100000000E-03 0. -1.
    9900012    2    1    2    0    0 -0.10092258576E+02 -0.40948424142E+02 -0.15826759584E+02  0.46142318278E+02  0.10000004713E+02 0.  0.
        -12    1    1    2    0    0  0.10092258576E+02  0.40948424142E+02  0.15826759584E+02  0.45045681722E+02  0.00000000000E+00 0.  1.
         11    1    3    3    0    0 -0.95922715589E+01 -0.29257366433E+02 -0.11125074977E+02  0.32737936065E+02  0.51100000000E-03 0. -1.
        -11    1    3    3    0    0 -0.36648890673E+00  0.19754997740E+00  0.29237345360E+00  0.50874611528E+00  0.51100000000E-03 0.  1.
        -12    1    3    3    0    0 -0.13349811060E+00 -0.11888607686E+02 -0.49940580605E+01  0.12895636098E+02  0.00000000000E+00 0.  1.
</event>
<event>
 7    1  0.3980989E-008  0.4614232E+02  0.7816164E-02  0.1320468E+00
        -11   -1    0    0    0    0  0.00000000000E+00  0.00000000000E+00  0.45593999997E+02  0.45594000000E+02  0.51100000000E-03 0.  1.
         11   -1    0    0    0    0 -0.00000000000E+00 -0.00000000000E+00 -0.45593999997E+02  0.45594000000E+02  0.51100000000E-03 0. -1.
    9900012    2    1    2    0    0 -0.33715092017E+02  0.62112902949E+00 -0.29866707293E+02  0.46142318348E+02  0.10000005349E+02 0.  0.
        -12    1    1    2    0    0  0.33715092017E+02 -0.62112902949E+00  0.29866707293E+02  0.45045681652E+02  0.00000000000E+00 0.  1.
         11    1    3    3    0    0 -0.24146418688E+01 -0.21899312469E+01 -0.40711230305E+01  0.52153942527E+01  0.51100000000E-03 0. -1.
        -11    1    3    3    0    0 -0.18146717558E+02 -0.18013222918E+00 -0.12902318700E+02  0.22266693375E+02  0.51100000000E-03 0.  1.
         12    1    3    3    0    0 -0.13153732590E+02  0.29911925055E+01 -0.12893265562E+02  0.18660230720E+02  0.00000000000E+00 0. -1.
</event>
<event>
 7    1  0.3980989E-008  0.4614232E+02  0.7816164E-02  0.1320468E+00
        -11   -1    0    0    0    0  0.00000000000E+00  0.00000000000E+00  0.45593999997E+02  0.45594000000E+02  0.51100000000E-03 0. -1.
         11   -1    0    0    0    0 -0.00000000000E+00 -0.00000000000E+00 -0.45593999997E+02  0.45594000000E+02  0.51100000000E-03 0.  1.
    9900012    2    1    2    0    0  0.22144560773E+02  0.36918329988E+02  0.13257781147E+02  0.46142318499E+02  0.10000006731E+02 0.  0.
        -12    1    1    2    0    0 -0.22144560773E+02 -0.36918329988E+02 -0.13257781147E+02  0.45045681501E+02  0.00000000000E+00 0.  1.
         11    1    3    3    0    0  0.12846464179E+02  0.17635362320E+02  0.47150187966E+01  0.22321940968E+02  0.51100000000E-03 0. -1.
        -11    1    3    3    0    0  0.77570173489E+01  0.15603897978E+02  0.42017598325E+01  0.17925058890E+02  0.51100000000E-03 0.  1.
         12    1    3    3    0    0  0.15410792452E+01  0.36790696897E+01  0.43410025180E+01  0.58953186414E+01  0.00000000000E+00 0. -1.
</event>
<event>
 7    1  0.3980989E-008  0.4614232E+02  0.7816164E-02  0.1320468E+00
        -11   -1    0    0    0    0  0.00000000000E+00  0.00000000000E+00  0.45593999997E+02  0.45594000000E+02  0.51100000000E-03 0.  1.
         11   -1    0    0    0    0 -0.00000000000E+00 -0.00000000000E+00 -0.45593999997E+02  0.45594000000E+02  0.51100000000E-03 0. -1.
    9900012    2    1    2    0    0 -0.38980816878E+02 -0.22278121092E+02 -0.36461894363E+01  0.46142318062E+02  0.10000002740E+02 0.  0.
        -12    1    1    2    0    0  0.38980816878E+02  0.22278121092E+02  0.36461894363E+01  0.45045681938E+02  0.00000000000E+00 0.  1.
         11    1    3    3    0    0 -0.13012303186E+02 -0.97192112106E+01 -0.69884642056E+00  0.16256429108E+02  0.51100000000E-03 0. -1.
        -11    1    3    3    0    0 -0.17103733864E+02 -0.96679763416E+01  0.11939851146E+01  0.19683319825E+02  0.51100000000E-03 0.  1.
        -12    1    3    3    0    0 -0.88647798282E+01 -0.28909335402E+01 -0.41413281304E+01  0.10202569128E+02  0.00000000000E+00 0.  1.
</event>
<event>
 7    1  0.3980989E-008  0.4614232E+02  0.7816164E-02  0.1320468E+00
        -11   -1    0    0    0    0  0.00000000000E+00  0.00000000000E+00  0.45593999997E+02  0.45594000000E+02  0.51100000000E-03 0.  1.
         11   -1    0    0    0    0 -0.00000000000E+00 -0.00000000000E+00 -0.45593999997E+02  0.45594000000E+02  0.51100000000E-03 0. -1.
    9900012    2    1    2    0    0  0.14089022059E+02  0.23214004294E+02 -0.35940547121E+02  0.46142318017E+02  0.10000002335E+02 0.  0.
        -12    1    1    2    0    0 -0.14089022059E+02 -0.23214004294E+02  0.35940547121E+02  0.45045681983E+02  0.00000000000E+00 0.  1.
         11    1    3    3    0    0  0.11390247347E+02  0.20415559185E+02 -0.29378721511E+02  0.37545200350E+02  0.51100000000E-03 0. -1.
        -11    1    3    3    0    0 -0.79039940305E-01  0.12177444562E+01 -0.47895311436E+01  0.49425456709E+01  0.51100000000E-03 0.  1.
        -12    1    3    3    0    0  0.27778146524E+01  0.15807006531E+01 -0.17722944662E+01  0.36545719958E+01  0.00000000000E+00 0.  1.
</event>
<event>
 7    1  0.3980989E-008  0.4614232E+02  0.7816164E-02  0.1320468E+00
        -11   -1    0    0    0    0  0.00000000000E+00  0.00000000000E+00  0.45593999997E+02  0.45594000000E+02  0.51100000000E-03 0.  1.
         11   -1    0    0    0    0 -0.00000000000E+00 -0.00000000000E+00 -0.45593999997E+02  0.45594000000E+02  0.51100000000E-03 0. -1.
    9900012    2    1    2    0    0  0.23440796252E+02 -0.28944993038E+02 -0.25334365924E+02  0.46142315993E+02  0.99999838787E+01 0.  0.
        -12    1    1    2    0    0 -0.23440796252E+02  0.28944993038E+02  0.25334365924E+02  0.45045684007E+02  0.00000000000E+00 0.  1.
         11    1    3    3    0    0  0.91639741359E+01 -0.13989390236E+02 -0.15946333797E+02  0.23107726478E+02  0.51100000000E-03 0. -1.
        -11    1    3    3    0    0  0.12973467427E+02 -0.11627303028E+02 -0.83051891647E+01  0.19299772022E+02  0.51100000000E-03 0.  1.
        -12    1    3    3    0    0  0.13033546893E+01 -0.33282997737E+01 -0.10828429623E+01  0.37348174937E+01  0.00000000000E+00 0.  1.
</event>
<event>
 7    1  0.3980989E-008  0.4614232E+02  0.7816164E-02  0.1320468E+00
        -11   -1    0    0    0    0  0.00000000000E+00  0.00000000000E+00  0.45593999997E+02  0.45594000000E+02  0.51100000000E-03 0.  1.
         11   -1    0    0    0    0 -0.00000000000E+00 -0.00000000000E+00 -0.45593999997E+02  0.45594000000E+02  0.51100000000E-03 0. -1.
    9900012    2    1    2    0    0 -0.95526285752E+01 -0.10656894821E+02 -0.42711724824E+02  0.46142316996E+02  0.99999930200E+01 0.  0.
        -12    1    1    2    0    0  0.95526285752E+01  0.10656894821E+02  0.42711724824E+02  0.45045683004E+02  0.00000000000E+00 0.  1.
         11    1    3    3    0    0  0.93810258016E+00 -0.19174818300E+01 -0.72903183539E+01  0.75964146136E+01  0.51100000000E-03 0. -1.
        -11    1    3    3    0    0 -0.67228481930E+00 -0.85425526465E+00 -0.15427340430E+00  0.10979615111E+01  0.51100000000E-03 0.  1.
        -12    1    3    3    0    0 -0.98184463361E+01 -0.78851577259E+01 -0.35267133066E+02  0.37447940871E+02  0.00000000000E+00 0.  1.
</event>
<event>
 7    1  0.3980989E-008  0.4614232E+02  0.7816164E-02  0.1320468E+00
        -11   -1    0    0    0    0  0.00000000000E+00  0.00000000000E+00  0.45593999997E+02  0.45594000000E+02  0.51100000000E-03 0.  1.
         11   -1    0    0    0    0 -0.00000000000E+00 -0.00000000000E+00 -0.45593999997E+02  0.45594000000E+02  0.51100000000E-03 0. -1.
    9900012    2    1    2    0    0  0.21546536862E+02 -0.18906367697E+02 -0.34747798207E+02  0.46142317959E+02  0.10000001808E+02 0.  0.
        -12    1    1    2    0    0 -0.21546536862E+02  0.18906367697E+02  0.34747798207E+02  0.45045682041E+02  0.00000000000E+00 0.  1.
         11    1    3    3    0    0  0.14931494223E+02 -0.93241235572E+01 -0.17557158442E+02  0.24862473985E+02  0.51100000000E-03 0. -1.
        -11    1    3    3    0    0  0.86183091706E+00 -0.13420080465E+01 -0.61354360378E+01  0.63393464775E+01  0.51100000000E-03 0.  1.
        -12    1    3    3    0    0  0.57532117219E+01 -0.82402360936E+01 -0.11055203728E+02  0.14940497497E+02  0.00000000000E+00 0.  1.
</event>
<event>
 7    1  0.3980989E-008  0.4614232E+02  0.7816164E-02  0.1320468E+00
        -11   -1    0    0    0    0  0.00000000000E+00  0.00000000000E+00  0.45593999997E+02  0.45594000000E+02  0.51100000000E-03 0. -1.
         11   -1    0    0    0    0 -0.00000000000E+00 -0.00000000000E+00 -0.45593999997E+02  0.45594000000E+02  0.51100000000E-03 0.  1.
    9900012    2    1    2    0    0  0.24844051759E+02  0.11465835060E+02  0.35782968954E+02  0.46142321533E+02  0.10000034393E+02 0.  0.
        -12    1    1    2    0    0 -0.24844051759E+02 -0.11465835060E+02 -0.35782968954E+02  0.45045678467E+02  0.00000000000E+00 0.  1.
         11    1    3    3    0    0  0.15440696993E+02  0.47982550486E+01  0.18819036954E+02  0.24811177466E+02  0.51100000000E-03 0. -1.
        -11    1    3    3    0    0  0.72358057461E+01  0.30391826347E+01  0.70334256298E+01  0.10538623830E+02  0.51100000000E-03 0.  1.
         12    1    3    3    0    0  0.21675490196E+01  0.36283973763E+01  0.99305063706E+01  0.10792520236E+02  0.00000000000E+00 0. -1.
</event>
<event>
 7    1  0.3980989E-008  0.4614232E+02  0.7816164E-02  0.1320468E+00
        -11   -1    0    0    0    0  0.00000000000E+00  0.00000000000E+00  0.45593999997E+02  0.45594000000E+02  0.51100000000E-03 0.  1.
         11   -1    0    0    0    0 -0.00000000000E+00 -0.00000000000E+00 -0.45593999997E+02  0.45594000000E+02  0.51100000000E-03 0. -1.
    9900012    2    1    2    0    0 -0.31412041452E+02  0.13483284467E+02 -0.29335954105E+02  0.46142317505E+02  0.99999976645E+01 0.  0.
        -12    1    1    2    0    0  0.31412041452E+02 -0.13483284467E+02  0.29335954105E+02  0.45045682495E+02  0.00000000000E+00 0.  1.
         11    1    3    3    0    0 -0.26569221555E+01  0.54195540974E+00 -0.35981290497E+01  0.45054948591E+01  0.51100000000E-03 0. -1.
        -11    1    3    3    0    0 -0.11127933853E+00 -0.11610314501E+00  0.58206664436E+00  0.60387488030E+00  0.51100000000E-03 0.  1.
         12    1    3    3    0    0 -0.28643839958E+02  0.13057432202E+02 -0.26319891700E+02  0.41032947766E+02  0.00000000000E+00 0. -1.
</event>
<event>
 7    1  0.3980989E-008  0.4614232E+02  0.7816164E-02  0.1320468E+00
        -11   -1    0    0    0    0  0.00000000000E+00  0.00000000000E+00  0.45593999997E+02  0.45594000000E+02  0.51100000000E-03 0.  1.
         11   -1    0    0    0    0 -0.00000000000E+00 -0.00000000000E+00 -0.45593999997E+02  0.45594000000E+02  0.51100000000E-03 0. -1.
    9900012    2    1    2    0    0  0.12577108835E+01 -0.23257733913E+02 -0.38556574524E+02  0.46142318049E+02  0.10000002624E+02 0.  0.
        -12    1    1    2    0    0 -0.12577108835E+01  0.23257733913E+02  0.38556574524E+02  0.45045681951E+02  0.00000000000E+00 0.  1.
         11    1    3    3    0    0 -0.14802961539E+01 -0.47866642760E+01 -0.62504998526E+01  0.80107540384E+01  0.51100000000E-03 0. -1.
        -11    1    3    3    0    0 -0.20924231772E+01 -0.56719660601E+01 -0.14240776032E+02  0.15470912578E+02  0.51100000000E-03 0.  1.
        -12    1    3    3    0    0  0.48304302145E+01 -0.12799103577E+02 -0.18065298639E+02  0.22660651433E+02  0.00000000000E+00 0.  1.
</event>
<event>
 7    1  0.3980989E-008  0.4614232E+02  0.7816164E-02  0.1320468E+00
        -11   -1    0    0    0    0  0.00000000000E+00  0.00000000000E+00  0.45593999997E+02  0.45594000000E+02  0.51100000000E-03 0.  1.
         11   -1    0    0    0    0 -0.00000000000E+00 -0.00000000000E+00 -0.45593999997E+02  0.45594000000E+02  0.51100000000E-03 0. -1.
    9900012    2    1    2    0    0  0.44966433921E+02 -0.74305938226E-01  0.26698024723E+01  0.46142317120E+02  0.99999941503E+01 0.  0.
        -12    1    1    2    0    0 -0.44966433921E+02  0.74305938226E-01 -0.26698024723E+01  0.45045682880E+02  0.00000000000E+00 0.  1.
         11    1    3    3    0    0  0.14009268283E+02 -0.21986793490E+01 -0.19310943850E+01  0.14311635633E+02  0.51100000000E-03 0. -1.
        -11    1    3    3    0    0  0.55719308688E+01 -0.16378698468E+01  0.34738388426E+00  0.58180501086E+01  0.51100000000E-03 0.  1.
         12    1    3    3    0    0  0.25385234769E+02  0.37622432576E+01  0.42535129730E+01  0.26012631378E+02  0.00000000000E+00 0. -1.
</event>
<event>
 7    1  0.3980989E-008  0.4614232E+02  0.7816164E-02  0.1320468E+00
        -11   -1    0    0    0    0  0.00000000000E+00  0.00000000000E+00  0.45593999997E+02  0.45594000000E+02  0.51100000000E-03 0. -1.
         11   -1    0    0    0    0 -0.00000000000E+00 -0.00000000000E+00 -0.45593999997E+02  0.45594000000E+02  0.51100000000E-03 0.  1.
    9900012    2    1    2    0    0 -0.43685277706E+02  0.10163749647E+02  0.41723178465E+01  0.46142317284E+02  0.99999956502E+01 0.  0.
        -12    1    1    2    0    0  0.43685277706E+02 -0.10163749647E+02 -0.41723178465E+01  0.45045682716E+02  0.00000000000E+00 0.  1.
         11    1    3    3    0    0 -0.74555953062E+01  0.20398347515E+01  0.17646202679E+01  0.79284747672E+01  0.51100000000E-03 0. -1.
        -11    1    3    3    0    0 -0.31629518966E+02  0.99364832956E+01  0.26817689724E+01  0.33261870894E+02  0.51100000000E-03 0.  1.
         12    1    3    3    0    0 -0.46001634340E+01 -0.18125684002E+01 -0.27407139378E+00  0.49519716228E+01  0.00000000000E+00 0. -1.
</event>
<event>
 7    1  0.3980989E-008  0.4614232E+02  0.7816164E-02  0.1320468E+00
        -11   -1    0    0    0    0  0.00000000000E+00  0.00000000000E+00  0.45593999997E+02  0.45594000000E+02  0.51100000000E-03 0.  1.
         11   -1    0    0    0    0 -0.00000000000E+00 -0.00000000000E+00 -0.45593999997E+02  0.45594000000E+02  0.51100000000E-03 0. -1.
    9900012    2    1    2    0    0  0.12155634314E+02  0.14312251253E+02 -0.40945250267E+02  0.46142317622E+02  0.99999987294E+01 0.  0.
        -12    1    1    2    0    0 -0.12155634314E+02 -0.14312251253E+02  0.40945250267E+02  0.45045682378E+02  0.00000000000E+00 0.  1.
         11    1    3    3    0    0  0.58243414333E+01  0.51309078056E+01 -0.16983611377E+02  0.18673302432E+02  0.51100000000E-03 0. -1.
        -11    1    3    3    0    0  0.10823274957E+00  0.63848494365E+01 -0.91092511405E+01  0.11124588678E+02  0.51100000000E-03 0.  1.
        -12    1    3    3    0    0  0.62230601309E+01  0.27964940111E+01 -0.14852387749E+02  0.16344426512E+02  0.00000000000E+00 0.  1.
</event>
<event>
 7    1  0.3980989E-008  0.4614232E+02  0.7816164E-02  0.1320468E+00
        -11   -1    0    0    0    0  0.00000000000E+00  0.00000000000E+00  0.45593999997E+02  0.45594000000E+02  0.51100000000E-03 0. -1.
         11   -1    0    0    0    0 -0.00000000000E+00 -0.00000000000E+00 -0.45593999997E+02  0.45594000000E+02  0.51100000000E-03 0.  1.
    9900012    2    1    2    0    0  0.17525245400E+02  0.37006718495E+02  0.18774504286E+02  0.46142318173E+02  0.10000003756E+02 0.  0.
        -12    1    1    2    0    0 -0.17525245400E+02 -0.37006718495E+02 -0.18774504286E+02  0.45045681827E+02  0.00000000000E+00 0.  1.
         11    1    3    3    0    0 -0.88402241166E+00  0.17324872561E+01  0.10138249643E+01  0.21933647750E+01  0.51100000000E-03 0. -1.
        -11    1    3    3    0    0 -0.41585560004E+00  0.10819465611E+01  0.67401293706E+00  0.13408347928E+01  0.51100000000E-03 0.  1.
         12    1    3    3    0    0  0.18825123412E+02  0.34192284677E+02  0.17086666385E+02  0.42608118605E+02  0.00000000000E+00 0. -1.
</event>
<event>
 7    1  0.3980989E-008  0.4614232E+02  0.7816164E-02  0.1320468E+00
        -11   -1    0    0    0    0  0.00000000000E+00  0.00000000000E+00  0.45593999997E+02  0.45594000000E+02  0.51100000000E-03 0.  1.
         11   -1    0    0    0    0 -0.00000000000E+00 -0.00000000000E+00 -0.45593999997E+02  0.45594000000E+02  0.51100000000E-03 0. -1.
    9900012    2    1    2    0    0  0.27225171223E+02 -0.32065937803E+02 -0.16114561369E+02  0.46142318704E+02  0.10000008602E+02 0.  0.
        -12    1    1    2    0    0 -0.27225171223E+02  0.32065937803E+02  0.16114561369E+02  0.45045681296E+02  0.00000000000E+00 0.  1.
         11    1    3    3    0    0  0.13636110904E+02 -0.11708255019E+02 -0.89643502957E+01  0.20084479896E+02  0.51100000000E-03 0. -1.
        -11    1    3    3    0    0  0.90293759152E+01 -0.17446148767E+02 -0.57822064667E+01  0.20477588923E+02  0.51100000000E-03 0.  1.
        -12    1    3    3    0    0  0.45596844032E+01 -0.29115340162E+01 -0.13680046067E+01  0.55802498858E+01  0.00000000000E+00 0.  1.
</event>
<event>
 7    1  0.3980989E-008  0.4614232E+02  0.7816164E-02  0.1320468E+00
        -11   -1    0    0    0    0  0.00000000000E+00  0.00000000000E+00  0.45593999997E+02  0.45594000000E+02  0.51100000000E-03 0.  1.
         11   -1    0    0    0    0 -0.00000000000E+00 -0.00000000000E+00 -0.45593999997E+02  0.45594000000E+02  0.51100000000E-03 0. -1.
    9900012    2    1    2    0    0  0.38208909928E+02 -0.21645745966E+02 -0.10032669021E+02  0.46142316921E+02  0.99999923393E+01 0.  0.
        -12    1    1    2    0    0 -0.38208909928E+02  0.21645745966E+02  0.10032669021E+02  0.45045683079E+02  0.00000000000E+00 0.  1.
         11    1    3    3    0    0  0.22265860314E+02 -0.15045971916E+02 -0.69326360277E+01  0.27752680032E+02  0.51100000000E-03 0. -1.
        -11    1    3    3    0    0  0.24768371122E+01 -0.32094011594E+01  0.38589495944E+00  0.40723326317E+01  0.51100000000E-03 0.  1.
         12    1    3    3    0    0  0.13466212502E+02 -0.33903728911E+01 -0.34859279533E+01  0.14317304257E+02  0.00000000000E+00 0. -1.
</event>
<event>
 7    1  0.3980989E-008  0.4614232E+02  0.7816164E-02  0.1320468E+00
        -11   -1    0    0    0    0  0.00000000000E+00  0.00000000000E+00  0.45593999997E+02  0.45594000000E+02  0.51100000000E-03 0.  1.
         11   -1    0    0    0    0 -0.00000000000E+00 -0.00000000000E+00 -0.45593999997E+02  0.45594000000E+02  0.51100000000E-03 0. -1.
    9900012    2    1    2    0    0 -0.19685192404E+02  0.21356483985E+02 -0.34431196233E+02  0.46142317830E+02  0.10000000625E+02 0.  0.
        -12    1    1    2    0    0  0.19685192404E+02 -0.21356483985E+02  0.34431196233E+02  0.45045682170E+02  0.00000000000E+00 0.  1.
         11    1    3    3    0    0 -0.34696605756E+01  0.25294421112E+01 -0.22203414628E+01  0.48338947420E+01  0.51100000000E-03 0. -1.
        -11    1    3    3    0    0 -0.94202898590E+00  0.10255118976E+01 -0.58917185567E+01  0.60540433658E+01  0.51100000000E-03 0.  1.
         12    1    3    3    0    0 -0.15273502843E+02  0.17801529976E+02 -0.26319136213E+02  0.35254379722E+02  0.00000000000E+00 0. -1.
</event>
<event>
 7    1  0.3980989E-008  0.4614232E+02  0.7816164E-02  0.1320468E+00
        -11   -1    0    0    0    0  0.00000000000E+00  0.00000000000E+00  0.45593999997E+02  0.45594000000E+02  0.51100000000E-03 0.  1.
         11   -1    0    0    0    0 -0.00000000000E+00 -0.00000000000E+00 -0.45593999997E+02  0.45594000000E+02  0.51100000000E-03 0. -1.
    9900012    2    1    2    0    0 -0.29256410734E+02 -0.13629912681E+02 -0.31422942713E+02  0.46142318548E+02  0.10000007175E+02 0.  0.
        -12    1    1    2    0    0  0.29256410734E+02  0.13629912681E+02  0.31422942713E+02  0.45045681452E+02  0.00000000000E+00 0.  1.
         11    1    3    3    0    0 -0.11761635583E+02 -0.23074934473E+01 -0.89714077877E+01  0.14971531503E+02  0.51100000000E-03 0. -1.
        -11    1    3    3    0    0 -0.13281103296E+02 -0.86727727911E+01 -0.13080172832E+02  0.20559562598E+02  0.51100000000E-03 0.  1.
        -12    1    3    3    0    0 -0.42136718549E+01 -0.26496464426E+01 -0.93713620933E+01  0.10611224447E+02  0.00000000000E+00 0.  1.
</event>
<event>
 7    1  0.3980989E-008  0.4614232E+02  0.7816164E-02  0.1320468E+00
        -11   -1    0    0    0    0  0.00000000000E+00  0.00000000000E+00  0.45593999997E+02  0.45594000000E+02  0.51100000000E-03 0.  1.
         11   -1    0    0    0    0 -0.00000000000E+00 -0.00000000000E+00 -0.45593999997E+02  0.45594000000E+02  0.51100000000E-03 0. -1.
    9900012    2    1    2    0    0 -0.40472274679E+02 -0.39628452655E+01 -0.19375355329E+02  0.46142317027E+02  0.99999933102E+01 0.  0.
        -12    1    1    2    0    0  0.40472274679E+02  0.39628452655E+01  0.19375355329E+02  0.45045682973E+02  0.00000000000E+00 0.  1.
         11    1    3    3    0    0 -0.40562803239E+01  0.21320100995E+01 -0.26563700282E+01  0.52967139925E+01  0.51100000000E-03 0. -1.
        -11    1    3    3    0    0 -0.89219509287E+00 -0.43761114085E+00 -0.14724630492E+01  0.17764186688E+01  0.51100000000E-03 0.  1.
         12    1    3    3    0    0 -0.35523799263E+02 -0.56572442242E+01 -0.15246522252E+02  0.39069184366E+02  0.00000000000E+00 0. -1.
</event>
<event>
 7    1  0.3980989E-008  0.4614232E+02  0.7816164E-02  0.1320468E+00
        -11   -1    0    0    0    0  0.00000000000E+00  0.00000000000E+00  0.45593999997E+02  0.45594000000E+02  0.51100000000E-03 0.  1.
         11   -1    0    0    0    0 -0.00000000000E+00 -0.00000000000E+00 -0.45593999997E+02  0.45594000000E+02  0.51100000000E-03 0. -1.
    9900012    2    1    2    0    0  0.42229585592E+01 -0.12575166290E+02 -0.43048172357E+02  0.46142319525E+02  0.10000016083E+02 0.  0.
        -12    1    1    2    0    0 -0.42229585592E+01  0.12575166290E+02  0.43048172357E+02  0.45045680475E+02  0.00000000000E+00 0.  1.
         11    1    3    3    0    0  0.21958403920E+01 -0.29053310792E+01 -0.43139216743E+01  0.56455809427E+01  0.51100000000E-03 0. -1.
        -11    1    3    3    0    0  0.22747430324E+01 -0.35838889848E+01 -0.70257900259E+01  0.82085590616E+01  0.51100000000E-03 0.  1.
         12    1    3    3    0    0 -0.24762486523E+00 -0.60859462259E+01 -0.31708460657E+02  0.32288179520E+02  0.00000000000E+00 0. -1.
</event>
<event>
 7    1  0.3980989E-008  0.4614232E+02  0.7816164E-02  0.1320468E+00
        -11   -1    0    0    0    0  0.00000000000E+00  0.00000000000E+00  0.45593999997E+02  0.45594000000E+02  0.51100000000E-03 0.  1.
         11   -1    0    0    0    0 -0.00000000000E+00 -0.00000000000E+00 -0.45593999997E+02  0.45594000000E+02  0.51100000000E-03 0. -1.
    9900012    2    1    2    0    0 -0.65159238695E+01 -0.10845555833E+02 -0.43232279770E+02  0.46142319193E+02  0.10000013059E+02 0.  0.
        -12    1    1    2    0    0  0.65159238695E+01  0.10845555833E+02  0.43232279770E+02  0.45045680807E+02  0.00000000000E+00 0.  1.
         11    1    3    3    0    0 -0.40924668143E+01 -0.69783440848E+01 -0.20256220480E+02  0.21811924244E+02  0.51100000000E-03 0.  1.
        -11    1    3    3    0    0 -0.38298104155E+01 -0.37744794633E+01 -0.21918194787E+02  0.22568150257E+02  0.51100000000E-03 0. -1.
        -12    1    3    3    0    0  0.14063533604E+01 -0.92732284865E-01 -0.10578645032E+01  0.17622446930E+01  0.00000000000E+00 0.  1.
</event>
<event>
 7    1  0.3980989E-008  0.4614232E+02  0.7816164E-02  0.1320468E+00
        -11   -1    0    0    0    0  0.00000000000E+00  0.00000000000E+00  0.45593999997E+02  0.45594000000E+02  0.51100000000E-03 0. -1.
         11   -1    0    0    0    0 -0.00000000000E+00 -0.00000000000E+00 -0.45593999997E+02  0.45594000000E+02  0.51100000000E-03 0.  1.
    9900012    2    1    2    0    0 -0.22297531299E+02 -0.36311105851E+02  0.14609487171E+02  0.46142318459E+02  0.10000006361E+02 0.  0.
        -12    1    1    2    0    0  0.22297531299E+02  0.36311105851E+02 -0.14609487171E+02  0.45045681541E+02  0.00000000000E+00 0.  1.
         11    1    3    3    0    0 -0.89324881362E+01 -0.19387564852E+02  0.51283574530E+01  0.21953748327E+02  0.51100000000E-03 0. -1.
        -11    1    3    3    0    0 -0.12288949353E+02 -0.16669347359E+02  0.99641739518E+01  0.22981953363E+02  0.51100000000E-03 0.  1.
        -12    1    3    3    0    0 -0.10760938099E+01 -0.25419363981E+00 -0.48304423401E+00  0.12066167686E+01  0.00000000000E+00 0.  1.
</event>
<event>
 7    1  0.3980989E-008  0.4614232E+02  0.7816164E-02  0.1320468E+00
        -11   -1    0    0    0    0  0.00000000000E+00  0.00000000000E+00  0.45593999997E+02  0.45594000000E+02  0.51100000000E-03 0.  1.
         11   -1    0    0    0    0 -0.00000000000E+00 -0.00000000000E+00 -0.45593999997E+02  0.45594000000E+02  0.51100000000E-03 0. -1.
    9900012    2    1    2    0    0  0.39135224320E+02 -0.24226597811E+01 -0.22173820386E+02  0.46142319037E+02  0.10000011632E+02 0.  0.
        -12    1    1    2    0    0 -0.39135224320E+02  0.24226597811E+01  0.22173820386E+02  0.45045680963E+02  0.00000000000E+00 0.  1.
         11    1    3    3    0    0  0.64835072667E+01 -0.14117109992E+01 -0.48615550638E+01  0.82257833865E+01  0.51100000000E-03 0. -1.
        -11    1    3    3    0    0  0.16536723302E+02 -0.29340547808E+01 -0.49318719156E+01  0.17504149676E+02  0.51100000000E-03 0.  1.
         12    1    3    3    0    0  0.16114993751E+02  0.19231059989E+01 -0.12380393406E+02  0.20412385974E+02  0.00000000000E+00 0. -1.
</event>
<event>
 7    1  0.3980989E-008  0.4614232E+02  0.7816164E-02  0.1320468E+00
        -11   -1    0    0    0    0  0.00000000000E+00  0.00000000000E+00  0.45593999997E+02  0.45594000000E+02  0.51100000000E-03 0.  1.
         11   -1    0    0    0    0 -0.00000000000E+00 -0.00000000000E+00 -0.45593999997E+02  0.45594000000E+02  0.51100000000E-03 0. -1.
    9900012    2    1    2    0    0 -0.36964237952E+02 -0.93321369246E+01 -0.23993118065E+02  0.46142318948E+02  0.10000010823E+02 0.  0.
        -12    1    1    2    0    0  0.36964237952E+02  0.93321369246E+01  0.23993118065E+02  0.45045681052E+02  0.00000000000E+00 0.  1.
         11    1    3    3    0    0 -0.94381008080E+00  0.82723480419E+00 -0.16766525689E+01  0.20943397498E+01  0.51100000000E-03 0.  1.
        -11    1    3    3    0    0 -0.26086407590E+02 -0.43448361255E+01 -0.14887760553E+02  0.30348371891E+02  0.51100000000E-03 0. -1.
        -12    1    3    3    0    0 -0.99340202818E+01 -0.58145356033E+01 -0.74287049429E+01  0.13699607307E+02  0.00000000000E+00 0.  1.
</event>
<event>
 7    1  0.3980989E-008  0.4614232E+02  0.7816164E-02  0.1320468E+00
        -11   -1    0    0    0    0  0.00000000000E+00  0.00000000000E+00  0.45593999997E+02  0.45594000000E+02  0.51100000000E-03 0.  1.
         11   -1    0    0    0    0 -0.00000000000E+00 -0.00000000000E+00 -0.45593999997E+02  0.45594000000E+02  0.51100000000E-03 0. -1.
    9900012    2    1    2    0    0  0.21544318659E+02 -0.29125104746E+01 -0.39452160436E+02  0.46142319332E+02  0.10000014326E+02 0.  0.
        -12    1    1    2    0    0 -0.21544318659E+02  0.29125104746E+01  0.39452160436E+02  0.45045680668E+02  0.00000000000E+00 0.  1.
         11    1    3    3    0    0  0.49269507267E+01 -0.11824073409E+01 -0.52731180393E+01  0.73129135576E+01  0.51100000000E-03 0.  1.
        -11    1    3    3    0    0  0.13340402013E+02 -0.35639756526E+00 -0.31974868226E+02  0.34648023659E+02  0.51100000000E-03 0. -1.
         12    1    3    3    0    0  0.32769659196E+01 -0.13737055684E+01 -0.22041741703E+01  0.41813821160E+01  0.00000000000E+00 0. -1.
</event>
<event>
 7    1  0.3980989E-008  0.4614232E+02  0.7816164E-02  0.1320468E+00
        -11   -1    0    0    0    0  0.00000000000E+00  0.00000000000E+00  0.45593999997E+02  0.45594000000E+02  0.51100000000E-03 0. -1.
         11   -1    0    0    0    0 -0.00000000000E+00 -0.00000000000E+00 -0.45593999997E+02  0.45594000000E+02  0.51100000000E-03 0.  1.
    9900012    2    1    2    0    0 -0.48982568129E+01 -0.43344154772E+02 -0.11242990033E+02  0.46142317659E+02  0.99999990664E+01 0.  0.
        -12    1    1    2    0    0  0.48982568129E+01  0.43344154772E+02  0.11242990033E+02  0.45045682341E+02  0.00000000000E+00 0.  1.
         11    1    3    3    0    0 -0.36308388981E+01 -0.29416838626E+02 -0.41595543096E+01  0.29930507483E+02  0.51100000000E-03 0. -1.
        -11    1    3    3    0    0 -0.27405271585E+01 -0.93340561538E+01 -0.52253447785E+01  0.11042613898E+02  0.51100000000E-03 0.  1.
        -12    1    3    3    0    0  0.14731092437E+01 -0.45932599920E+01 -0.18580909446E+01  0.51691962777E+01  0.00000000000E+00 0.  1.
</event>
<event>
 7    1  0.3980989E-008  0.4614232E+02  0.7816164E-02  0.1320468E+00
        -11   -1    0    0    0    0  0.00000000000E+00  0.00000000000E+00  0.45593999997E+02  0.45594000000E+02  0.51100000000E-03 0. -1.
         11   -1    0    0    0    0 -0.00000000000E+00 -0.00000000000E+00 -0.45593999997E+02  0.45594000000E+02  0.51100000000E-03 0.  1.
    9900012    2    1    2    0    0 -0.37504202983E+02  0.79196683363E+01  0.23660667022E+02  0.46142317056E+02  0.99999935741E+01 0.  0.
        -12    1    1    2    0    0  0.37504202983E+02 -0.79196683363E+01 -0.23660667022E+02  0.45045682944E+02  0.00000000000E+00 0.  1.
         11    1    3    3    0    0 -0.15402261234E+02  0.32009269626E+01  0.67527610759E+01  0.17119444119E+02  0.51100000000E-03 0. -1.
        -11    1    3    3    0    0 -0.15772976346E+02  0.22537416784E+01  0.15197291850E+02  0.22018715090E+02  0.51100000000E-03 0.  1.
        -12    1    3    3    0    0 -0.63289654028E+01  0.24649996953E+01  0.17106140960E+01  0.70041578476E+01  0.00000000000E+00 0.  1.
</event>
<event>
 7    1  0.3980989E-008  0.4614232E+02  0.7816164E-02  0.1320468E+00
        -11   -1    0    0    0    0  0.00000000000E+00  0.00000000000E+00  0.45593999997E+02  0.45594000000E+02  0.51100000000E-03 0. -1.
         11   -1    0    0    0    0 -0.00000000000E+00 -0.00000000000E+00 -0.45593999997E+02  0.45594000000E+02  0.51100000000E-03 0.  1.
    9900012    2    1    2    0    0  0.22470228382E+02 -0.50483148045E+01  0.38713266341E+02  0.46142316115E+02  0.99999849911E+01 0.  0.
        -12    1    1    2    0    0 -0.22470228382E+02  0.50483148045E+01 -0.38713266341E+02  0.45045683885E+02  0.00000000000E+00 0.  1.
         11    1    3    3    0    0  0.36180041871E+01 -0.18560043515E+01  0.12382560989E+02  0.13033131755E+02  0.51100000000E-03 0. -1.
        -11    1    3    3    0    0  0.12064334347E+02  0.42673908347E+00  0.13172561327E+02  0.17867474407E+02  0.51100000000E-03 0.  1.
         12    1    3    3    0    0  0.67878898472E+01 -0.36190495365E+01  0.13158144025E+02  0.15241709953E+02  0.00000000000E+00 0. -1.
</event>
<event>
 7    1  0.3980989E-008  0.4614232E+02  0.7816164E-02  0.1320468E+00
        -11   -1    0    0    0    0  0.00000000000E+00  0.00000000000E+00  0.45593999997E+02  0.45594000000E+02  0.51100000000E-03 0. -1.
         11   -1    0    0    0    0 -0.00000000000E+00 -0.00000000000E+00 -0.45593999997E+02  0.45594000000E+02  0.51100000000E-03 0.  1.
    9900012    2    1    2    0    0 -0.41399744436E+02 -0.20066010886E+01  0.17639391595E+02  0.46142318486E+02  0.10000006607E+02 0.  0.
        -12    1    1    2    0    0  0.41399744436E+02  0.20066010886E+01 -0.17639391595E+02  0.45045681514E+02  0.00000000000E+00 0.  1.
         11    1    3    3    0    0 -0.44771172990E+01  0.14553798014E+01  0.26814983764E+01  0.54178541397E+01  0.51100000000E-03 0.  1.
        -11    1    3    3    0    0 -0.24990352667E+01 -0.18507706470E+01 -0.11303132958E+00  0.31118010210E+01  0.51100000000E-03 0. -1.
         12    1    3    3    0    0 -0.34423591870E+02 -0.16112102430E+01  0.15070924548E+02  0.37612663325E+02  0.00000000000E+00 0. -1.
</event>
<event>
 7    1  0.3980989E-008  0.4614232E+02  0.7816164E-02  0.1320468E+00
        -11   -1    0    0    0    0  0.00000000000E+00  0.00000000000E+00  0.45593999997E+02  0.45594000000E+02  0.51100000000E-03 0.  1.
         11   -1    0    0    0    0 -0.00000000000E+00 -0.00000000000E+00 -0.45593999997E+02  0.45594000000E+02  0.51100000000E-03 0. -1.
    9900012    2    1    2    0    0 -0.16412080027E+02 -0.26388976741E+02 -0.32609492138E+02  0.46142318278E+02  0.10000004714E+02 0.  0.
        -12    1    1    2    0    0  0.16412080027E+02  0.26388976741E+02  0.32609492138E+02  0.45045681722E+02  0.00000000000E+00 0.  1.
         11    1    3    3    0    0 -0.40275874394E+01 -0.11490446901E+02 -0.98298374157E+01  0.15648563335E+02  0.51100000000E-03 0. -1.
        -11    1    3    3    0    0 -0.39265407197E+01 -0.16246108041E+01 -0.29321908091E+01  0.51628311506E+01  0.51100000000E-03 0.  1.
         12    1    3    3    0    0 -0.84579518684E+01 -0.13273919037E+02 -0.19847463914E+02  0.25330923793E+02  0.00000000000E+00 0. -1.
</event>
<event>
 7    1  0.3980989E-008  0.4614232E+02  0.7816164E-02  0.1320468E+00
        -11   -1    0    0    0    0  0.00000000000E+00  0.00000000000E+00  0.45593999997E+02  0.45594000000E+02  0.51100000000E-03 0.  1.
         11   -1    0    0    0    0 -0.00000000000E+00 -0.00000000000E+00 -0.45593999997E+02  0.45594000000E+02  0.51100000000E-03 0. -1.
    9900012    2    1    2    0    0  0.34673021119E+01 -0.33208988028E+02 -0.30236640940E+02  0.46142317354E+02  0.99999962840E+01 0.  0.
        -12    1    1    2    0    0 -0.34673021119E+01  0.33208988028E+02  0.30236640940E+02  0.45045682646E+02  0.00000000000E+00 0.  1.
         11    1    3    3    0    0  0.19507023371E+01 -0.93074046162E+01 -0.12600683792E+02  0.15786394540E+02  0.51100000000E-03 0. -1.
        -11    1    3    3    0    0  0.34031670724E+01 -0.92426308217E+01 -0.58808426464E+01  0.11471359166E+02  0.51100000000E-03 0.  1.
         12    1    3    3    0    0 -0.18865672975E+01 -0.14658952590E+02 -0.11755114502E+02  0.18884563647E+02  0.00000000000E+00 0. -1.
</event>
<event>
 7    1  0.3980989E-008  0.4614232E+02  0.7816164E-02  0.1320468E+00
        -11   -1    0    0    0    0  0.00000000000E+00  0.00000000000E+00  0.45593999997E+02  0.45594000000E+02  0.51100000000E-03 0.  1.
         11   -1    0    0    0    0 -0.00000000000E+00 -0.00000000000E+00 -0.45593999997E+02  0.45594000000E+02  0.51100000000E-03 0. -1.
    9900012    2    1    2    0    0 -0.13453040563E+02 -0.19279346980E+02 -0.38424421981E+02  0.46142315135E+02  0.99999760555E+01 0.  0.
        -12    1    1    2    0    0  0.13453040563E+02  0.19279346980E+02  0.38424421981E+02  0.45045684865E+02  0.00000000000E+00 0.  1.
         11    1    3    3    0    0 -0.35822111437E+01 -0.93365208114E+01 -0.16408506598E+02  0.19215669299E+02  0.51100000000E-03 0. -1.
        -11    1    3    3    0    0 -0.88868715930E+01 -0.10561337465E+02 -0.17636468794E+02  0.22395610453E+02  0.51100000000E-03 0.  1.
         12    1    3    3    0    0 -0.98395782673E+00  0.61851129709E+00 -0.43794465885E+01  0.45310353840E+01  0.00000000000E+00 0. -1.
</event>
<event>
 7    1  0.3980989E-008  0.4614232E+02  0.7816164E-02  0.1320468E+00
        -11   -1    0    0    0    0  0.00000000000E+00  0.00000000000E+00  0.45593999997E+02  0.45594000000E+02  0.51100000000E-03 0.  1.
         11   -1    0    0    0    0 -0.00000000000E+00 -0.00000000000E+00 -0.45593999997E+02  0.45594000000E+02  0.51100000000E-03 0. -1.
    9900012    2    1    2    0    0 -0.35196254503E+01 -0.60150481970E+01 -0.44503313665E+02  0.46142317684E+02  0.99999993011E+01 0.  0.
        -12    1    1    2    0    0  0.35196254503E+01  0.60150481970E+01  0.44503313665E+02  0.45045682316E+02  0.00000000000E+00 0.  1.
         11    1    3    3    0    0  0.16000154594E+00  0.96467661795E+00 -0.10497170921E+02  0.10542618227E+02  0.51100000000E-03 0. -1.
        -11    1    3    3    0    0 -0.31612318177E+01 -0.23794420461E+01 -0.58304565680E+01  0.70462298506E+01  0.51100000000E-03 0.  1.
         12    1    3    3    0    0 -0.51839517851E+00 -0.46002827689E+01 -0.28175686176E+02  0.28553469607E+02  0.00000000000E+00 0. -1.
</event>
<event>
 7    1  0.3980989E-008  0.4614232E+02  0.7816164E-02  0.1320468E+00
        -11   -1    0    0    0    0  0.00000000000E+00  0.00000000000E+00  0.45593999997E+02  0.45594000000E+02  0.51100000000E-03 0.  1.
         11   -1    0    0    0    0 -0.00000000000E+00 -0.00000000000E+00 -0.45593999997E+02  0.45594000000E+02  0.51100000000E-03 0. -1.
    9900012    2    1    2    0    0 -0.14853089496E+02  0.29317808478E+01 -0.42425274025E+02  0.46142317825E+02  0.10000000584E+02 0.  0.
        -12    1    1    2    0    0  0.14853089496E+02 -0.29317808478E+01  0.42425274025E+02  0.45045682175E+02  0.00000000000E+00 0.  1.
         11    1    3    3    0    0 -0.95905596836E+01 -0.14825223805E-01 -0.33437075408E+02  0.34785299581E+02  0.51100000000E-03 0. -1.
        -11    1    3    3    0    0 -0.14221072077E+00 -0.46473596375E+00 -0.19455888739E+01  0.20053727166E+01  0.51100000000E-03 0.  1.
         12    1    3    3    0    0 -0.51203190914E+01  0.34113420354E+01 -0.70426097428E+01  0.93516455273E+01  0.00000000000E+00 0. -1.
</event>
<event>
 7    1  0.3980989E-008  0.4614232E+02  0.7816164E-02  0.1320468E+00
        -11   -1    0    0    0    0  0.00000000000E+00  0.00000000000E+00  0.45593999997E+02  0.45594000000E+02  0.51100000000E-03 0.  1.
         11   -1    0    0    0    0 -0.00000000000E+00 -0.00000000000E+00 -0.45593999997E+02  0.45594000000E+02  0.51100000000E-03 0. -1.
    9900012    2    1    2    0    0 -0.24144109338E+02 -0.34691692808E+02 -0.15577611783E+02  0.46142317027E+02  0.99999933033E+01 0.  0.
        -12    1    1    2    0    0  0.24144109338E+02  0.34691692808E+02  0.15577611783E+02  0.45045682973E+02  0.00000000000E+00 0.  1.
         11    1    3    3    0    0 -0.23867250525E+01 -0.33783323636E+01  0.81076252713E+00  0.42150827005E+01  0.51100000000E-03 0.  1.
        -11    1    3    3    0    0 -0.13682451878E+02 -0.14481722786E+02 -0.85195312543E+01  0.21668230138E+02  0.51100000000E-03 0. -1.
         12    1    3    3    0    0 -0.80749324074E+01 -0.16831637659E+02 -0.78688430563E+01  0.20259004188E+02  0.00000000000E+00 0. -1.
</event>
<event>
 7    1  0.3980989E-008  0.4614232E+02  0.7816164E-02  0.1320468E+00
        -11   -1    0    0    0    0  0.00000000000E+00  0.00000000000E+00  0.45593999997E+02  0.45594000000E+02  0.51100000000E-03 0.  1.
         11   -1    0    0    0    0 -0.00000000000E+00 -0.00000000000E+00 -0.45593999997E+02  0.45594000000E+02  0.51100000000E-03 0. -1.
    9900012    2    1    2    0    0 -0.36292942537E+02  0.81882952328E+01 -0.25394636431E+02  0.46142318561E+02  0.10000007297E+02 0.  0.
        -12    1    1    2    0    0  0.36292942537E+02 -0.81882952328E+01  0.25394636431E+02  0.45045681439E+02  0.00000000000E+00 0.  1.
         11    1    3    3    0    0 -0.13820988044E+02  0.64056409533E+00 -0.12392582688E+02  0.18574340872E+02  0.51100000000E-03 0. -1.
        -11    1    3    3    0    0 -0.28438979273E+01  0.23274790228E+01 -0.37469405520E+01  0.52482833178E+01  0.51100000000E-03 0.  1.
         12    1    3    3    0    0 -0.19628056565E+02  0.52202521147E+01 -0.92551131913E+01  0.22319694372E+02  0.00000000000E+00 0. -1.
</event>
<event>
 7    1  0.3980989E-008  0.4614232E+02  0.7816164E-02  0.1320468E+00
        -11   -1    0    0    0    0  0.00000000000E+00  0.00000000000E+00  0.45593999997E+02  0.45594000000E+02  0.51100000000E-03 0.  1.
         11   -1    0    0    0    0 -0.00000000000E+00 -0.00000000000E+00 -0.45593999997E+02  0.45594000000E+02  0.51100000000E-03 0. -1.
    9900012    2    1    2    0    0 -0.78645502869E+01 -0.33534001438E+02 -0.29029866669E+02  0.46142316939E+02  0.99999925031E+01 0.  0.
        -12    1    1    2    0    0  0.78645502869E+01  0.33534001438E+02  0.29029866669E+02  0.45045683061E+02  0.00000000000E+00 0.  1.
         11    1    3    3    0    0 -0.42770886265E+01 -0.11514556145E+02 -0.78639232287E+01  0.14584916151E+02  0.51100000000E-03 0.  1.
        -11    1    3    3    0    0 -0.52242068055E+01 -0.15296711647E+02 -0.17106406724E+02  0.23535311241E+02  0.51100000000E-03 0. -1.
         12    1    3    3    0    0  0.16367451451E+01 -0.67227336458E+01 -0.40595367162E+01  0.80220895466E+01  0.00000000000E+00 0. -1.
</event>
<event>
 7    1  0.3980989E-008  0.4614231E+02  0.7816164E-02  0.1320468E+00
        -11   -1    0    0    0    0  0.00000000000E+00  0.00000000000E+00  0.45593999997E+02  0.45594000000E+02  0.51100000000E-03 0.  1.
         11   -1    0    0    0    0 -0.00000000000E+00 -0.00000000000E+00 -0.45593999997E+02  0.45594000000E+02  0.51100000000E-03 0. -1.
    9900012    2    1    2    0    0 -0.11714534539E+02  0.18427650127E+02 -0.39399307810E+02  0.46142311365E+02  0.99999416782E+01 0.  0.
        -12    1    1    2    0    0  0.11714534539E+02 -0.18427650127E+02  0.39399307810E+02  0.45045688635E+02  0.00000000000E+00 0.  1.
         11    1    3    3    0    0 -0.24447759449E+01  0.50669764818E+01 -0.13412951607E+02  0.14545049025E+02  0.51100000000E-03 0. -1.
        -11    1    3    3    0    0  0.24527129103E+00 -0.80231739276E+00 -0.19284500979E+01  0.21030433296E+01  0.51100000000E-03 0.  1.
        -12    1    3    3    0    0 -0.95150298848E+01  0.14162991038E+02 -0.24057906105E+02  0.29494219010E+02  0.00000000000E+00 0.  1.
</event>
<event>
 7    1  0.3980989E-008  0.4614232E+02  0.7816164E-02  0.1320468E+00
        -11   -1    0    0    0    0  0.00000000000E+00  0.00000000000E+00  0.45593999997E+02  0.45594000000E+02  0.51100000000E-03 0.  1.
         11   -1    0    0    0    0 -0.00000000000E+00 -0.00000000000E+00 -0.45593999997E+02  0.45594000000E+02  0.51100000000E-03 0. -1.
    9900012    2    1    2    0    0  0.26626579538E+02 -0.22702446019E+02 -0.28367897783E+02  0.46142318545E+02  0.10000007148E+02 0.  0.
        -12    1    1    2    0    0 -0.26626579538E+02  0.22702446019E+02  0.28367897783E+02  0.45045681455E+02  0.00000000000E+00 0.  1.
         11    1    3    3    0    0  0.16988224768E+02 -0.10457380193E+02 -0.13799073855E+02  0.24256360419E+02  0.51100000000E-03 0. -1.
        -11    1    3    3    0    0  0.41593318655E+01 -0.18766189070E+01 -0.33913521227E+01  0.56853328461E+01  0.51100000000E-03 0.  1.
         12    1    3    3    0    0  0.54790229046E+01 -0.10368446919E+02 -0.11177471805E+02  0.16200625280E+02  0.00000000000E+00 0. -1.
</event>
<event>
 7    1  0.3980989E-008  0.4614232E+02  0.7816164E-02  0.1320468E+00
        -11   -1    0    0    0    0  0.00000000000E+00  0.00000000000E+00  0.45593999997E+02  0.45594000000E+02  0.51100000000E-03 0. -1.
         11   -1    0    0    0    0 -0.00000000000E+00 -0.00000000000E+00 -0.45593999997E+02  0.45594000000E+02  0.51100000000E-03 0.  1.
    9900012    2    1    2    0    0 -0.41717171627E+01 -0.15072276858E+02  0.42243777198E+02  0.46142318012E+02  0.10000002290E+02 0.  0.
        -12    1    1    2    0    0  0.41717171627E+01  0.15072276858E+02 -0.42243777198E+02  0.45045681988E+02  0.00000000000E+00 0.  1.
         11    1    3    3    0    0 -0.25006166717E+01 -0.94832034101E+01  0.24954604763E+02  0.26812618853E+02  0.51100000000E-03 0. -1.
        -11    1    3    3    0    0  0.41170241458E+00  0.69213962115E+00 -0.12758197796E-01  0.80543104365E+00  0.51100000000E-03 0.  1.
        -12    1    3    3    0    0 -0.20828029056E+01 -0.62812130690E+01  0.17301930633E+02  0.18524268115E+02  0.00000000000E+00 0.  1.
</event>
<event>
 7    1  0.3980989E-008  0.4614232E+02  0.7816164E-02  0.1320468E+00
        -11   -1    0    0    0    0  0.00000000000E+00  0.00000000000E+00  0.45593999997E+02  0.45594000000E+02  0.51100000000E-03 0.  1.
         11   -1    0    0    0    0 -0.00000000000E+00 -0.00000000000E+00 -0.45593999997E+02  0.45594000000E+02  0.51100000000E-03 0. -1.
    9900012    2    1    2    0    0  0.36054064266E+02 -0.18720220272E+01 -0.26939069348E+02  0.46142317921E+02  0.10000001459E+02 0.  0.
        -12    1    1    2    0    0 -0.36054064266E+02  0.18720220272E+01  0.26939069348E+02  0.45045682079E+02  0.00000000000E+00 0.  1.
         11    1    3    3    0    0  0.11629021168E+01  0.93076433699E+00 -0.74379425378E+00  0.16649005188E+01  0.51100000000E-03 0. -1.
        -11    1    3    3    0    0 -0.13085109563E+00  0.68808421983E+00 -0.21881455812E+00  0.73379968300E+00  0.51100000000E-03 0.  1.
         12    1    3    3    0    0  0.35022013245E+02 -0.34908705840E+01 -0.25976460536E+02  0.43743617719E+02  0.00000000000E+00 0. -1.
</event>
<event>
 7    1  0.3980989E-008  0.4614232E+02  0.7816164E-02  0.1320468E+00
        -11   -1    0    0    0    0  0.00000000000E+00  0.00000000000E+00  0.45593999997E+02  0.45594000000E+02  0.51100000000E-03 0. -1.
         11   -1    0    0    0    0 -0.00000000000E+00 -0.00000000000E+00 -0.45593999997E+02  0.45594000000E+02  0.51100000000E-03 0.  1.
    9900012    2    1    2    0    0 -0.32540068390E+02  0.84246070795E+01  0.29988054085E+02  0.46142318264E+02  0.10000004584E+02 0.  0.
        -12    1    1    2    0    0  0.32540068390E+02 -0.84246070795E+01 -0.29988054085E+02  0.45045681736E+02  0.00000000000E+00 0.  1.
         11    1    3    3    0    0 -0.74119078889E+01  0.32749855303E+01  0.10219790100E+02  0.13042469809E+02  0.51100000000E-03 0. -1.
        -11    1    3    3    0    0 -0.20164982989E+02  0.67909930939E+01  0.16600370503E+02  0.26987338277E+02  0.51100000000E-03 0.  1.
        -12    1    3    3    0    0 -0.49631775116E+01 -0.16413715447E+01  0.31678934821E+01  0.61125101777E+01  0.00000000000E+00 0.  1.
</event>
<event>
 7    1  0.3980989E-008  0.4614232E+02  0.7816164E-02  0.1320468E+00
        -11   -1    0    0    0    0  0.00000000000E+00  0.00000000000E+00  0.45593999997E+02  0.45594000000E+02  0.51100000000E-03 0. -1.
         11   -1    0    0    0    0 -0.00000000000E+00 -0.00000000000E+00 -0.45593999997E+02  0.45594000000E+02  0.51100000000E-03 0.  1.
    9900012    2    1    2    0    0  0.21864633968E+02 -0.38637578121E+02  0.76281551048E+01  0.46142318610E+02  0.10000007741E+02 0.  0.
        -12    1    1    2    0    0 -0.21864633968E+02  0.38637578121E+02 -0.76281551048E+01  0.45045681390E+02  0.00000000000E+00 0.  1.
         11    1    3    3    0    0  0.16794301459E+02 -0.26054836987E+02  0.41596564482E+01  0.31276282291E+02  0.51100000000E-03 0. -1.
        -11    1    3    3    0    0  0.12262915522E+01 -0.53976280106E+01  0.37942153615E+01  0.67107562602E+01  0.51100000000E-03 0.  1.
        -12    1    3    3    0    0  0.38440409564E+01 -0.71851131232E+01 -0.32571670495E+00  0.81552800589E+01  0.00000000000E+00 0.  1.
</event>
<event>
 7    1  0.3980989E-008  0.4614232E+02  0.7816164E-02  0.1320468E+00
        -11   -1    0    0    0    0  0.00000000000E+00  0.00000000000E+00  0.45593999997E+02  0.45594000000E+02  0.51100000000E-03 0. -1.
         11   -1    0    0    0    0 -0.00000000000E+00 -0.00000000000E+00 -0.45593999997E+02  0.45594000000E+02  0.51100000000E-03 0.  1.
    9900012    2    1    2    0    0 -0.37037053233E+02  0.21648306742E+02  0.13737574527E+02  0.46142318177E+02  0.10000003796E+02 0.  0.
        -12    1    1    2    0    0  0.37037053233E+02 -0.21648306742E+02 -0.13737574527E+02  0.45045681823E+02  0.00000000000E+00 0.  1.
         11    1    3    3    0    0 -0.81036580544E+01  0.43044375537E+01  0.66131097734E+00  0.91997167884E+01  0.51100000000E-03 0. -1.
        -11    1    3    3    0    0 -0.21952836304E+02  0.10143189749E+02  0.68348810721E+01  0.25130199355E+02  0.51100000000E-03 0.  1.
        -12    1    3    3    0    0 -0.69805588747E+01  0.72006794393E+01  0.62413824774E+01  0.11812402034E+02  0.00000000000E+00 0.  1.
</event>
<event>
 7    1  0.3980989E-008  0.4614232E+02  0.7816164E-02  0.1320468E+00
        -11   -1    0    0    0    0  0.00000000000E+00  0.00000000000E+00  0.45593999997E+02  0.45594000000E+02  0.51100000000E-03 0. -1.
         11   -1    0    0    0    0 -0.00000000000E+00 -0.00000000000E+00 -0.45593999997E+02  0.45594000000E+02  0.51100000000E-03 0.  1.
    9900012    2    1    2    0    0  0.22255995548E+02  0.30232904659E+02  0.24894893363E+02  0.46142316771E+02  0.99999909743E+01 0.  0.
        -12    1    1    2    0    0 -0.22255995548E+02 -0.30232904659E+02 -0.24894893363E+02  0.45045683229E+02  0.00000000000E+00 0.  1.
         11    1    3    3    0    0  0.14304783475E+02  0.19381950601E+02  0.18555419236E+02  0.30407078496E+02  0.51100000000E-03 0. -1.
        -11    1    3    3    0    0  0.39288705494E+01  0.82996776480E+01  0.59806892624E+01  0.10958527144E+02  0.51100000000E-03 0.  1.
         12    1    3    3    0    0  0.40223415239E+01  0.25512764101E+01  0.35878486532E+00  0.47767111317E+01  0.00000000000E+00 0. -1.
</event>
<event>
 7    1  0.3980989E-008  0.4614232E+02  0.7816164E-02  0.1320468E+00
        -11   -1    0    0    0    0  0.00000000000E+00  0.00000000000E+00  0.45593999997E+02  0.45594000000E+02  0.51100000000E-03 0. -1.
         11   -1    0    0    0    0 -0.00000000000E+00 -0.00000000000E+00 -0.45593999997E+02  0.45594000000E+02  0.51100000000E-03 0.  1.
    9900012    2    1    2    0    0  0.38698676378E+02 -0.28711840386E+01  0.22875361750E+02  0.46142318449E+02  0.10000006269E+02 0.  0.
        -12    1    1    2    0    0 -0.38698676378E+02  0.28711840386E+01 -0.22875361750E+02  0.45045681551E+02  0.00000000000E+00 0.  1.
         11    1    3    3    0    0  0.25647053721E+02 -0.44484447268E+00  0.14899002766E+02  0.29663943346E+02  0.51100000000E-03 0. -1.
        -11    1    3    3    0    0  0.87057026459E+01 -0.41142705189E+01  0.43209595952E+01  0.10554012154E+02  0.51100000000E-03 0.  1.
        -12    1    3    3    0    0  0.43459200116E+01  0.16879309530E+01  0.36553993889E+01  0.59243629482E+01  0.00000000000E+00 0.  1.
</event>
<event>
 7    1  0.3980989E-008  0.4614232E+02  0.7816164E-02  0.1320468E+00
        -11   -1    0    0    0    0  0.00000000000E+00  0.00000000000E+00  0.45593999997E+02  0.45594000000E+02  0.51100000000E-03 0.  1.
         11   -1    0    0    0    0 -0.00000000000E+00 -0.00000000000E+00 -0.45593999997E+02  0.45594000000E+02  0.51100000000E-03 0. -1.
    9900012    2    1    2    0    0 -0.17225100176E+02 -0.15618587645E+02 -0.38580683254E+02  0.46142317893E+02  0.10000001207E+02 0.  0.
        -12    1    1    2    0    0  0.17225100176E+02  0.15618587645E+02  0.38580683254E+02  0.45045682107E+02  0.00000000000E+00 0.  1.
         11    1    3    3    0    0 -0.24976264717E+01 -0.27938851969E+01 -0.32802084735E+01  0.49803313520E+01  0.51100000000E-03 0. -1.
        -11    1    3    3    0    0 -0.10656247034E+02 -0.11536362194E+02 -0.20907650361E+02  0.26149055383E+02  0.51100000000E-03 0.  1.
        -12    1    3    3    0    0 -0.40712266701E+01 -0.12883402543E+01 -0.14392824419E+02  0.15012931159E+02  0.00000000000E+00 0.  1.
</event>
<event>
 7    1  0.3980989E-008  0.4614232E+02  0.7816164E-02  0.1320468E+00
        -11   -1    0    0    0    0  0.00000000000E+00  0.00000000000E+00  0.45593999997E+02  0.45594000000E+02  0.51100000000E-03 0. -1.
         11   -1    0    0    0    0 -0.00000000000E+00 -0.00000000000E+00 -0.45593999997E+02  0.45594000000E+02  0.51100000000E-03 0.  1.
    9900012    2    1    2    0    0  0.26432467318E+02  0.12442145248E+02  0.34287474937E+02  0.46142320469E+02  0.10000024689E+02 0.  0.
        -12    1    1    2    0    0 -0.26432467318E+02 -0.12442145248E+02 -0.34287474937E+02  0.45045679531E+02  0.00000000000E+00 0.  1.
         11    1    3    3    0    0  0.80468759659E+01  0.29710872515E+01  0.15144398177E+02  0.17404952418E+02  0.51100000000E-03 0. -1.
        -11    1    3    3    0    0  0.77973409324E+01  0.30011627357E+01  0.11317270001E+02  0.14067199577E+02  0.51100000000E-03 0.  1.
        -12    1    3    3    0    0  0.10588250420E+02  0.64698952610E+01  0.78258067587E+01  0.14670168474E+02  0.00000000000E+00 0.  1.
</event>
<event>
 7    1  0.3980989E-008  0.4614232E+02  0.7816164E-02  0.1320468E+00
        -11   -1    0    0    0    0  0.00000000000E+00  0.00000000000E+00  0.45593999997E+02  0.45594000000E+02  0.51100000000E-03 0.  1.
         11   -1    0    0    0    0 -0.00000000000E+00 -0.00000000000E+00 -0.45593999997E+02  0.45594000000E+02  0.51100000000E-03 0. -1.
    9900012    2    1    2    0    0  0.37117423186E+02 -0.24316109438E+02 -0.77548192552E+01  0.46142317590E+02  0.99999984357E+01 0.  0.
        -12    1    1    2    0    0 -0.37117423186E+02  0.24316109438E+02  0.77548192552E+01  0.45045682410E+02  0.00000000000E+00 0.  1.
         11    1    3    3    0    0  0.14835706552E+02 -0.55628239974E+01 -0.23407709826E+01  0.16016316954E+02  0.51100000000E-03 0. -1.
        -11    1    3    3    0    0  0.13119764589E+02 -0.10582166331E+02 -0.38631136961E+00  0.16860003080E+02  0.51100000000E-03 0.  1.
         12    1    3    3    0    0  0.91619520449E+01 -0.81711191098E+01 -0.50277369029E+01  0.13265997556E+02  0.00000000000E+00 0. -1.
</event>
<event>
 7    1  0.3980989E-008  0.4614232E+02  0.7816164E-02  0.1320468E+00
        -11   -1    0    0    0    0  0.00000000000E+00  0.00000000000E+00  0.45593999997E+02  0.45594000000E+02  0.51100000000E-03 0. -1.
         11   -1    0    0    0    0 -0.00000000000E+00 -0.00000000000E+00 -0.45593999997E+02  0.45594000000E+02  0.51100000000E-03 0.  1.
    9900012    2    1    2    0    0  0.17165614787E+02  0.34053438520E+02  0.23975370970E+02  0.46142318529E+02  0.10000007002E+02 0.  0.
        -12    1    1    2    0    0 -0.17165614787E+02 -0.34053438520E+02 -0.23975370970E+02  0.45045681471E+02  0.00000000000E+00 0.  1.
         11    1    3    3    0    0  0.78805929896E+01  0.18416351550E+02  0.13235891700E+02  0.24009468541E+02  0.51100000000E-03 0. -1.
        -11    1    3    3    0    0  0.11471878117E+01  0.78941073647E+01  0.57955787806E+01  0.98601067247E+01  0.51100000000E-03 0.  1.
        -12    1    3    3    0    0  0.81378339861E+01  0.77429796049E+01  0.49439004901E+01  0.12272743263E+02  0.00000000000E+00 0.  1.
</event>
<event>
 7    1  0.3980989E-008  0.4614232E+02  0.7816164E-02  0.1320468E+00
        -11   -1    0    0    0    0  0.00000000000E+00  0.00000000000E+00  0.45593999997E+02  0.45594000000E+02  0.51100000000E-03 0. -1.
         11   -1    0    0    0    0 -0.00000000000E+00 -0.00000000000E+00 -0.45593999997E+02  0.45594000000E+02  0.51100000000E-03 0.  1.
    9900012    2    1    2    0    0  0.39942206306E+02 -0.33935072758E+01  0.20547937620E+02  0.46142317891E+02  0.10000001182E+02 0.  0.
        -12    1    1    2    0    0 -0.39942206306E+02  0.33935072758E+01 -0.20547937620E+02  0.45045682109E+02  0.00000000000E+00 0.  1.
         11    1    3    3    0    0  0.11953290108E+02 -0.75104395943E+00  0.25066110040E+01  0.12236352006E+02  0.51100000000E-03 0. -1.
        -11    1    3    3    0    0  0.27154910736E+02 -0.13752000005E+01  0.17031115269E+02  0.32083317156E+02  0.51100000000E-03 0.  1.
         12    1    3    3    0    0  0.83400546175E+00 -0.12672633159E+01  0.10102113467E+01  0.18226487284E+01  0.00000000000E+00 0. -1.
</event>
<event>
 7    1  0.3980989E-008  0.4614232E+02  0.7816164E-02  0.1320468E+00
        -11   -1    0    0    0    0  0.00000000000E+00  0.00000000000E+00  0.45593999997E+02  0.45594000000E+02  0.51100000000E-03 0.  1.
         11   -1    0    0    0    0 -0.00000000000E+00 -0.00000000000E+00 -0.45593999997E+02  0.45594000000E+02  0.51100000000E-03 0. -1.
    9900012    2    1    2    0    0 -0.11772865868E+02 -0.31915654493E+02 -0.29528021860E+02  0.46142318216E+02  0.10000004146E+02 0.  0.
        -12    1    1    2    0    0  0.11772865868E+02  0.31915654493E+02  0.29528021860E+02  0.45045681784E+02  0.00000000000E+00 0.  1.
         11    1    3    3    0    0 -0.73294801185E+01 -0.17836173025E+02 -0.14679242585E+02  0.24234902726E+02  0.51100000000E-03 0. -1.
        -11    1    3    3    0    0  0.36016459616E+00 -0.55415308080E+01 -0.23577430340E+01  0.60330120759E+01  0.51100000000E-03 0.  1.
         12    1    3    3    0    0 -0.48035503457E+01 -0.85379506594E+01 -0.12491036241E+02  0.15874403414E+02  0.00000000000E+00 0. -1.
</event>
<event>
 7    1  0.3980989E-008  0.4614232E+02  0.7816164E-02  0.1320468E+00
        -11   -1    0    0    0    0  0.00000000000E+00  0.00000000000E+00  0.45593999997E+02  0.45594000000E+02  0.51100000000E-03 0. -1.
         11   -1    0    0    0    0 -0.00000000000E+00 -0.00000000000E+00 -0.45593999997E+02  0.45594000000E+02  0.51100000000E-03 0.  1.
    9900012    2    1    2    0    0 -0.32644291851E+02  0.17671894593E+02  0.25517991342E+02  0.46142317287E+02  0.99999956753E+01 0.  0.
        -12    1    1    2    0    0  0.32644291851E+02 -0.17671894593E+02 -0.25517991342E+02  0.45045682713E+02  0.00000000000E+00 0.  1.
         11    1    3    3    0    0 -0.13438369197E+02  0.12678033773E+02  0.12910582773E+02  0.22538976348E+02  0.51100000000E-03 0. -1.
        -11    1    3    3    0    0 -0.53582866549E+01  0.11384890729E+01  0.45744051971E+01  0.71367062720E+01  0.51100000000E-03 0.  1.
         12    1    3    3    0    0 -0.13847635999E+02  0.38553717472E+01  0.80330033725E+01  0.16466634667E+02  0.00000000000E+00 0. -1.
</event>
<event>
 7    1  0.3980989E-008  0.4614232E+02  0.7816164E-02  0.1320468E+00
        -11   -1    0    0    0    0  0.00000000000E+00  0.00000000000E+00  0.45593999997E+02  0.45594000000E+02  0.51100000000E-03 0. -1.
         11   -1    0    0    0    0 -0.00000000000E+00 -0.00000000000E+00 -0.45593999997E+02  0.45594000000E+02  0.51100000000E-03 0.  1.
    9900012    2    1    2    0    0  0.57964438029E+01 -0.44572944286E+02  0.29610053380E+01  0.46142315682E+02  0.99999810427E+01 0.  0.
        -12    1    1    2    0    0 -0.57964438029E+01  0.44572944286E+02 -0.29610053380E+01  0.45045684318E+02  0.00000000000E+00 0.  1.
         11    1    3    3    0    0 -0.30004839437E+00 -0.35068935033E+01 -0.18642927558E+01  0.39829535301E+01  0.51100000000E-03 0. -1.
        -11    1    3    3    0    0  0.50768790646E+01 -0.18454497242E+02  0.70644680905E+00  0.19153126033E+02  0.51100000000E-03 0.  1.
         12    1    3    3    0    0  0.10196131326E+01 -0.22611553541E+02  0.41188512848E+01  0.23006236119E+02  0.00000000000E+00 0. -1.
</event>
<event>
 7    1  0.3980989E-008  0.4614232E+02  0.7816164E-02  0.1320468E+00
        -11   -1    0    0    0    0  0.00000000000E+00  0.00000000000E+00  0.45593999997E+02  0.45594000000E+02  0.51100000000E-03 0.  1.
         11   -1    0    0    0    0 -0.00000000000E+00 -0.00000000000E+00 -0.45593999997E+02  0.45594000000E+02  0.51100000000E-03 0. -1.
    9900012    2    1    2    0    0 -0.11428549943E+02  0.91030596138E+01 -0.42610280314E+02  0.46142318336E+02  0.10000005241E+02 0.  0.
        -12    1    1    2    0    0  0.11428549943E+02 -0.91030596138E+01  0.42610280314E+02  0.45045681664E+02  0.00000000000E+00 0.  1.
         11    1    3    3    0    0 -0.69694353634E+01  0.25637986908E+01 -0.20783633895E+02  0.22070467397E+02  0.51100000000E-03 0. -1.
        -11    1    3    3    0    0 -0.36639110313E+01  0.84877398248E+00 -0.47755908140E+01  0.60787275973E+01  0.51100000000E-03 0.  1.
        -12    1    3    3    0    0 -0.79520354838E+00  0.56904869405E+01 -0.17051055606E+02  0.17993123341E+02  0.00000000000E+00 0.  1.
</event>
<event>
 7    1  0.3980989E-008  0.4614232E+02  0.7816164E-02  0.1320468E+00
        -11   -1    0    0    0    0  0.00000000000E+00  0.00000000000E+00  0.45593999997E+02  0.45594000000E+02  0.51100000000E-03 0.  1.
         11   -1    0    0    0    0 -0.00000000000E+00 -0.00000000000E+00 -0.45593999997E+02  0.45594000000E+02  0.51100000000E-03 0. -1.
    9900012    2    1    2    0    0 -0.19788642283E+00  0.41401225631E+02 -0.17748601056E+02  0.46142317829E+02  0.10000000620E+02 0.  0.
        -12    1    1    2    0    0  0.19788642283E+00 -0.41401225631E+02  0.17748601056E+02  0.45045682171E+02  0.00000000000E+00 0.  1.
         11    1    3    3    0    0  0.48800357128E+00  0.82638760043E+00 -0.12585630518E+01  0.15827334482E+01  0.51100000000E-03 0. -1.
        -11    1    3    3    0    0 -0.18461810652E+01  0.20378497811E+01 -0.38496170526E+00  0.27765827975E+01  0.51100000000E-03 0.  1.
         12    1    3    3    0    0  0.11602910710E+01  0.38536988250E+02 -0.16105076299E+02  0.41783001583E+02  0.00000000000E+00 0. -1.
</event>
<event>
 7    1  0.3980989E-008  0.4614232E+02  0.7816164E-02  0.1320468E+00
        -11   -1    0    0    0    0  0.00000000000E+00  0.00000000000E+00  0.45593999997E+02  0.45594000000E+02  0.51100000000E-03 0. -1.
         11   -1    0    0    0    0 -0.00000000000E+00 -0.00000000000E+00 -0.45593999997E+02  0.45594000000E+02  0.51100000000E-03 0.  1.
    9900012    2    1    2    0    0  0.15093836680E+02 -0.34586994065E+02  0.24597344238E+02  0.46142318656E+02  0.10000008158E+02 0.  0.
        -12    1    1    2    0    0 -0.15093836680E+02  0.34586994065E+02 -0.24597344238E+02  0.45045681344E+02  0.00000000000E+00 0.  1.
         11    1    3    3    0    0  0.25590384966E+01 -0.54475444249E+01  0.26117798994E+01  0.65609307871E+01  0.51100000000E-03 0. -1.
        -11    1    3    3    0    0  0.59278200487E+01 -0.46079182347E+01  0.49872711695E+01  0.90135916796E+01  0.51100000000E-03 0.  1.
        -12    1    3    3    0    0  0.66069781346E+01 -0.24531531406E+02  0.16998293169E+02  0.30567796189E+02  0.00000000000E+00 0.  1.
</event>
<event>
 7    1  0.3980989E-008  0.4614232E+02  0.7816164E-02  0.1320468E+00
        -11   -1    0    0    0    0  0.00000000000E+00  0.00000000000E+00  0.45593999997E+02  0.45594000000E+02  0.51100000000E-03 0.  1.
         11   -1    0    0    0    0 -0.00000000000E+00 -0.00000000000E+00 -0.45593999997E+02  0.45594000000E+02  0.51100000000E-03 0. -1.
    9900012    2    1    2    0    0 -0.32512613771E+02  0.23172263452E+02 -0.20858807795E+02  0.46142315298E+02  0.99999775370E+01 0.  0.
        -12    1    1    2    0    0  0.32512613771E+02 -0.23172263452E+02  0.20858807795E+02  0.45045684702E+02  0.00000000000E+00 0.  1.
         11    1    3    3    0    0 -0.58686250841E+01  0.31170979969E+01 -0.62982168291E+01  0.91555773049E+01  0.51100000000E-03 0. -1.
        -11    1    3    3    0    0 -0.92087162011E+01  0.10456879109E+02 -0.42233738370E+01  0.14559658705E+02  0.51100000000E-03 0.  1.
         12    1    3    3    0    0 -0.17435272485E+02  0.95982863455E+01 -0.10337217129E+02  0.22427079288E+02  0.00000000000E+00 0. -1.
</event>
<event>
 7    1  0.3980989E-008  0.4614232E+02  0.7816164E-02  0.1320468E+00
        -11   -1    0    0    0    0  0.00000000000E+00  0.00000000000E+00  0.45593999997E+02  0.45594000000E+02  0.51100000000E-03 0.  1.
         11   -1    0    0    0    0 -0.00000000000E+00 -0.00000000000E+00 -0.45593999997E+02  0.45594000000E+02  0.51100000000E-03 0. -1.
    9900012    2    1    2    0    0  0.25591359526E+02  0.23209579163E+02 -0.28905210075E+02  0.46142318555E+02  0.10000007243E+02 0.  0.
        -12    1    1    2    0    0 -0.25591359526E+02 -0.23209579163E+02  0.28905210075E+02  0.45045681445E+02  0.00000000000E+00 0.  1.
         11    1    3    3    0    0  0.14180827561E+01  0.39469092882E+01 -0.54339950844E+01  0.68642082187E+01  0.51100000000E-03 0. -1.
        -11    1    3    3    0    0  0.64363505414E+01  0.29465033674E+01 -0.31247003701E+01  0.77377156222E+01  0.51100000000E-03 0.  1.
         12    1    3    3    0    0  0.17736926229E+02  0.16316166508E+02 -0.20346514621E+02  0.31540394714E+02  0.00000000000E+00 0. -1.
</event>
<event>
 7    1  0.3980989E-008  0.4614232E+02  0.7816164E-02  0.1320468E+00
        -11   -1    0    0    0    0  0.00000000000E+00  0.00000000000E+00  0.45593999997E+02  0.45594000000E+02  0.51100000000E-03 0.  1.
         11   -1    0    0    0    0 -0.00000000000E+00 -0.00000000000E+00 -0.45593999997E+02  0.45594000000E+02  0.51100000000E-03 0. -1.
    9900012    2    1    2    0    0  0.17078481535E+02  0.30071345085E+02 -0.28864381977E+02  0.46142324584E+02  0.10000062214E+02 0.  0.
        -12    1    1    2    0    0 -0.17078481535E+02 -0.30071345085E+02  0.28864381977E+02  0.45045675416E+02  0.00000000000E+00 0.  1.
         11    1    3    3    0    0  0.11486062793E+02  0.12250139858E+02 -0.14091090520E+02  0.21921550979E+02  0.51100000000E-03 0. -1.
        -11    1    3    3    0    0  0.72951972052E+00  0.50753427375E+01 -0.19132451790E+01  0.54728247096E+01  0.51100000000E-03 0.  1.
         12    1    3    3    0    0  0.48628990220E+01  0.12745862489E+02 -0.12860046278E+02  0.18747948895E+02  0.00000000000E+00 0. -1.
</event>
<event>
 7    1  0.3980989E-008  0.4614232E+02  0.7816164E-02  0.1320468E+00
        -11   -1    0    0    0    0  0.00000000000E+00  0.00000000000E+00  0.45593999997E+02  0.45594000000E+02  0.51100000000E-03 0. -1.
         11   -1    0    0    0    0 -0.00000000000E+00 -0.00000000000E+00 -0.45593999997E+02  0.45594000000E+02  0.51100000000E-03 0.  1.
    9900012    2    1    2    0    0 -0.36814364024E+02  0.23936793157E+02  0.10042210458E+02  0.46142318120E+02  0.10000003274E+02 0.  0.
        -12    1    1    2    0    0  0.36814364024E+02 -0.23936793157E+02 -0.10042210458E+02  0.45045681880E+02  0.00000000000E+00 0.  1.
         11    1    3    3    0    0 -0.42167792785E+01  0.44644533800E+01  0.18067799091E-01  0.61410828176E+01  0.51100000000E-03 0. -1.
        -11    1    3    3    0    0 -0.23325879149E+02  0.15324412698E+02  0.40072485090E+01  0.28195607876E+02  0.51100000000E-03 0.  1.
        -12    1    3    3    0    0 -0.92717055959E+01  0.41479270787E+01  0.60168941503E+01  0.11805627426E+02  0.00000000000E+00 0.  1.
</event>
<event>
 7    1  0.3980989E-008  0.4614232E+02  0.7816164E-02  0.1320468E+00
        -11   -1    0    0    0    0  0.00000000000E+00  0.00000000000E+00  0.45593999997E+02  0.45594000000E+02  0.51100000000E-03 0.  1.
         11   -1    0    0    0    0 -0.00000000000E+00 -0.00000000000E+00 -0.45593999997E+02  0.45594000000E+02  0.51100000000E-03 0. -1.
    9900012    2    1    2    0    0 -0.38088039626E+02  0.59246116645E+01  0.23309089236E+02  0.46142318443E+02  0.10000006215E+02 0.  0.
        -12    1    1    2    0    0  0.38088039626E+02 -0.59246116645E+01 -0.23309089236E+02  0.45045681557E+02  0.00000000000E+00 0.  1.
         11    1    3    3    0    0 -0.33032544990E+01  0.17453229749E+01  0.23138097877E+01  0.43944690882E+01  0.51100000000E-03 0.  1.
        -11    1    3    3    0    0 -0.14480181215E+02 -0.77834533678E+00  0.46952734148E+01  0.15242278772E+02  0.51100000000E-03 0. -1.
         12    1    3    3    0    0 -0.20304603913E+02  0.49576340264E+01  0.16300006034E+02  0.26505570582E+02  0.00000000000E+00 0. -1.
</event>
<event>
 7    1  0.3980989E-008  0.4614232E+02  0.7816164E-02  0.1320468E+00
        -11   -1    0    0    0    0  0.00000000000E+00  0.00000000000E+00  0.45593999997E+02  0.45594000000E+02  0.51100000000E-03 0. -1.
         11   -1    0    0    0    0 -0.00000000000E+00 -0.00000000000E+00 -0.45593999997E+02  0.45594000000E+02  0.51100000000E-03 0.  1.
    9900012    2    1    2    0    0  0.28281380741E+02  0.16846568953E+02  0.30748496604E+02  0.46142318459E+02  0.10000006360E+02 0.  0.
        -12    1    1    2    0    0 -0.28281380741E+02 -0.16846568953E+02 -0.30748496604E+02  0.45045681541E+02  0.00000000000E+00 0.  1.
         11    1    3    3    0    0  0.12605402081E+02  0.42471069923E+01  0.17528639600E+02  0.22004256086E+02  0.51100000000E-03 0. -1.
        -11    1    3    3    0    0  0.81352616724E+01  0.74704761004E+01  0.79092125587E+01  0.13584776009E+02  0.51100000000E-03 0.  1.
         12    1    3    3    0    0  0.75407169875E+01  0.51289858606E+01  0.53106444459E+01  0.10553286364E+02  0.00000000000E+00 0. -1.
</event>
<event>
 7    1  0.3980989E-008  0.4614232E+02  0.7816164E-02  0.1320468E+00
        -11   -1    0    0    0    0  0.00000000000E+00  0.00000000000E+00  0.45593999997E+02  0.45594000000E+02  0.51100000000E-03 0. -1.
         11   -1    0    0    0    0 -0.00000000000E+00 -0.00000000000E+00 -0.45593999997E+02  0.45594000000E+02  0.51100000000E-03 0.  1.
    9900012    2    1    2    0    0  0.31671861607E+02  0.31917140497E+02 -0.27023051039E+01  0.46142321761E+02  0.10000036472E+02 0.  0.
        -12    1    1    2    0    0 -0.31671861607E+02 -0.31917140497E+02  0.27023051039E+01  0.45045678239E+02  0.00000000000E+00 0.  1.
         11    1    3    3    0    0  0.82524597087E+01  0.31702564426E+01 -0.13294356720E+01  0.89398555146E+01  0.51100000000E-03 0. -1.
        -11    1    3    3    0    0  0.97371556388E+01  0.11834725362E+02 -0.18962833886E+01  0.15442435536E+02  0.51100000000E-03 0.  1.
        -12    1    3    3    0    0  0.13682246260E+02  0.16912158692E+02  0.52341395667E+00  0.21760030710E+02  0.00000000000E+00 0.  1.
</event>
<event>
 7    1  0.3980989E-008  0.4614232E+02  0.7816164E-02  0.1320468E+00
        -11   -1    0    0    0    0  0.00000000000E+00  0.00000000000E+00  0.45593999997E+02  0.45594000000E+02  0.51100000000E-03 0. -1.
         11   -1    0    0    0    0 -0.00000000000E+00 -0.00000000000E+00 -0.45593999997E+02  0.45594000000E+02  0.51100000000E-03 0.  1.
    9900012    2    1    2    0    0  0.29107296914E+02  0.25548548342E+02  0.23003269364E+02  0.46142318104E+02  0.10000003130E+02 0.  0.
        -12    1    1    2    0    0 -0.29107296914E+02 -0.25548548342E+02 -0.23003269364E+02  0.45045681896E+02  0.00000000000E+00 0.  1.
         11    1    3    3    0    0  0.29030351578E+01  0.98646377700E+00  0.25451791770E+00  0.30766058478E+01  0.51100000000E-03 0. -1.
        -11    1    3    3    0    0 -0.26843647065E-01  0.16615757827E+01  0.46801177310E+00  0.17264385144E+01  0.51100000000E-03 0.  1.
         12    1    3    3    0    0  0.26231105403E+02  0.22900508782E+02  0.22280739673E+02  0.41339273742E+02  0.00000000000E+00 0. -1.
</event>
<event>
 7    1  0.3980989E-008  0.4614232E+02  0.7816164E-02  0.1320468E+00
        -11   -1    0    0    0    0  0.00000000000E+00  0.00000000000E+00  0.45593999997E+02  0.45594000000E+02  0.51100000000E-03 0. -1.
         11   -1    0    0    0    0 -0.00000000000E+00 -0.00000000000E+00 -0.45593999997E+02  0.45594000000E+02  0.51100000000E-03 0.  1.
    9900012    2    1    2    0    0  0.26208525555E+02  0.34901966808E+02 -0.11139093035E+02  0.46142317715E+02  0.99999995833E+01 0.  0.
        -12    1    1    2    0    0 -0.26208525555E+02 -0.34901966808E+02  0.11139093035E+02  0.45045682285E+02  0.00000000000E+00 0.  1.
         11    1    3    3    0    0  0.25181315366E+01  0.18807958997E+01 -0.30007439200E+01  0.43454394469E+01  0.51100000000E-03 0. -1.
        -11    1    3    3    0    0 -0.33861376441E-01 -0.69606684068E-02 -0.39997375689E+00  0.40146520526E+00  0.51100000000E-03 0.  1.
         12    1    3    3    0    0  0.23724255395E+02  0.33028131577E+02 -0.77383753581E+01  0.41395413063E+02  0.00000000000E+00 0. -1.
</event>
<event>
 7    1  0.3980989E-008  0.4614232E+02  0.7816164E-02  0.1320468E+00
        -11   -1    0    0    0    0  0.00000000000E+00  0.00000000000E+00  0.45593999997E+02  0.45594000000E+02  0.51100000000E-03 0. -1.
         11   -1    0    0    0    0 -0.00000000000E+00 -0.00000000000E+00 -0.45593999997E+02  0.45594000000E+02  0.51100000000E-03 0.  1.
    9900012    2    1    2    0    0  0.13278075618E+02  0.41943939242E+02  0.96701506430E+01  0.46142321575E+02  0.10000034780E+02 0.  0.
        -12    1    1    2    0    0 -0.13278075618E+02 -0.41943939242E+02 -0.96701506430E+01  0.45045678425E+02  0.00000000000E+00 0.  1.
         11    1    3    3    0    0  0.94805726230E+01  0.25199806113E+02  0.51139014017E+01  0.27405537273E+02  0.51100000000E-03 0. -1.
        -11    1    3    3    0    0  0.50244543082E+01  0.88853288152E+01  0.22114915051E+01  0.10444371891E+02  0.51100000000E-03 0.  1.
        -12    1    3    3    0    0 -0.12269513129E+01  0.78588043139E+01  0.23447577362E+01  0.82924124119E+01  0.00000000000E+00 0.  1.
</event>
<event>
 7    1  0.3980989E-008  0.4614232E+02  0.7816164E-02  0.1320468E+00
        -11   -1    0    0    0    0  0.00000000000E+00  0.00000000000E+00  0.45593999997E+02  0.45594000000E+02  0.51100000000E-03 0. -1.
         11   -1    0    0    0    0 -0.00000000000E+00 -0.00000000000E+00 -0.45593999997E+02  0.45594000000E+02  0.51100000000E-03 0.  1.
    9900012    2    1    2    0    0  0.43026635811E+02 -0.12229715231E+02  0.53156594145E+01  0.46142316978E+02  0.99999928631E+01 0.  0.
        -12    1    1    2    0    0 -0.43026635811E+02  0.12229715231E+02 -0.53156594145E+01  0.45045683022E+02  0.00000000000E+00 0.  1.
         11    1    3    3    0    0  0.13417827150E+02 -0.18236077319E+01  0.32160432129E+01  0.13917850581E+02  0.51100000000E-03 0. -1.
        -11    1    3    3    0    0  0.29071171704E+02 -0.10832913714E+02  0.11403596067E+01  0.31044894332E+02  0.51100000000E-03 0.  1.
        -12    1    3    3    0    0  0.53763695727E+00  0.42680621505E+00  0.95925659497E+00  0.11795720656E+01  0.00000000000E+00 0.  1.
</event>
<event>
 7    1  0.3980989E-008  0.4614232E+02  0.7816164E-02  0.1320468E+00
        -11   -1    0    0    0    0  0.00000000000E+00  0.00000000000E+00  0.45593999997E+02  0.45594000000E+02  0.51100000000E-03 0. -1.
         11   -1    0    0    0    0 -0.00000000000E+00 -0.00000000000E+00 -0.45593999997E+02  0.45594000000E+02  0.51100000000E-03 0.  1.
    9900012    2    1    2    0    0 -0.17870967275E+02 -0.39936517759E+02 -0.10715241809E+02  0.46142319529E+02  0.10000016120E+02 0.  0.
        -12    1    1    2    0    0  0.17870967275E+02  0.39936517759E+02  0.10715241809E+02  0.45045680471E+02  0.00000000000E+00 0.  1.
         11    1    3    3    0    0 -0.12326186052E+02 -0.29147214195E+02 -0.71004866983E+01  0.32433190862E+02  0.51100000000E-03 0. -1.
        -11    1    3    3    0    0 -0.18138903873E+01 -0.78203645096E+01 -0.56214073949E+00  0.80476270958E+01  0.51100000000E-03 0.  1.
         12    1    3    3    0    0 -0.37308908352E+01 -0.29689390552E+01 -0.30526143713E+01  0.56615015709E+01  0.00000000000E+00 0. -1.
</event>
<event>
 7    1  0.3980989E-008  0.4614232E+02  0.7816164E-02  0.1320468E+00
        -11   -1    0    0    0    0  0.00000000000E+00  0.00000000000E+00  0.45593999997E+02  0.45594000000E+02  0.51100000000E-03 0.  1.
         11   -1    0    0    0    0 -0.00000000000E+00 -0.00000000000E+00 -0.45593999997E+02  0.45594000000E+02  0.51100000000E-03 0. -1.
    9900012    2    1    2    0    0  0.12523437389E+02 -0.13324100329E+02 -0.41167285162E+02  0.46142317619E+02  0.99999987007E+01 0.  0.
        -12    1    1    2    0    0 -0.12523437389E+02  0.13324100329E+02  0.41167285162E+02  0.45045682381E+02  0.00000000000E+00 0.  1.
         11    1    3    3    0    0  0.38908212233E+01 -0.47762088025E+01 -0.97172077667E+01  0.11505424258E+02  0.51100000000E-03 0. -1.
        -11    1    3    3    0    0 -0.12307940324E+01 -0.28440285647E+01 -0.60129105864E+01  0.67644989769E+01  0.51100000000E-03 0.  1.
        -12    1    3    3    0    0  0.98634101983E+01 -0.57038629613E+01 -0.25437166809E+02  0.27872394384E+02  0.00000000000E+00 0.  1.
</event>
<event>
 7    1  0.3980989E-008  0.4614231E+02  0.7816164E-02  0.1320468E+00
        -11   -1    0    0    0    0  0.00000000000E+00  0.00000000000E+00  0.45593999997E+02  0.45594000000E+02  0.51100000000E-03 0.  1.
         11   -1    0    0    0    0 -0.00000000000E+00 -0.00000000000E+00 -0.45593999997E+02  0.45594000000E+02  0.51100000000E-03 0. -1.
    9900012    2    1    2    0    0  0.12563421905E+02  0.35425983000E+02 -0.24824865736E+02  0.46142314298E+02  0.99999684246E+01 0.  0.
        -12    1    1    2    0    0 -0.12563421905E+02 -0.35425983000E+02  0.24824865736E+02  0.45045685702E+02  0.00000000000E+00 0.  1.
         11    1    3    3    0    0  0.80508085115E+00  0.95105064235E+01 -0.38071207487E+01  0.10275799544E+02  0.51100000000E-03 0. -1.
        -11    1    3    3    0    0  0.11801357931E+00  0.97474234240E+00  0.32865412145E+00  0.10354050568E+01  0.51100000000E-03 0.  1.
         12    1    3    3    0    0  0.11640327474E+02  0.24940734235E+02 -0.21346399109E+02  0.34831109698E+02  0.00000000000E+00 0. -1.
</event>
<event>
 7    1  0.3980989E-008  0.4614231E+02  0.7816164E-02  0.1320468E+00
        -11   -1    0    0    0    0  0.00000000000E+00  0.00000000000E+00  0.45593999997E+02  0.45594000000E+02  0.51100000000E-03 0. -1.
         11   -1    0    0    0    0 -0.00000000000E+00 -0.00000000000E+00 -0.45593999997E+02  0.45594000000E+02  0.51100000000E-03 0.  1.
    9900012    2    1    2    0    0 -0.15024813975E+02 -0.42466086827E+02  0.13902458551E-01  0.46142314761E+02  0.99999726392E+01 0.  0.
        -12    1    1    2    0    0  0.15024813975E+02  0.42466086827E+02 -0.13902458551E-01  0.45045685239E+02  0.00000000000E+00 0.  1.
         11    1    3    3    0    0 -0.67241105191E+01 -0.21341714163E+02  0.23300126464E+01  0.22496919453E+02  0.51100000000E-03 0. -1.
        -11    1    3    3    0    0 -0.46515726856E+01 -0.83504317928E+01  0.18223756599E+01  0.97307704157E+01  0.51100000000E-03 0.  1.
         12    1    3    3    0    0 -0.36491307705E+01 -0.12773940871E+02 -0.41384858478E+01  0.13914624892E+02  0.00000000000E+00 0. -1.
</event>
<event>
 7    1  0.3980989E-008  0.4614232E+02  0.7816164E-02  0.1320468E+00
        -11   -1    0    0    0    0  0.00000000000E+00  0.00000000000E+00  0.45593999997E+02  0.45594000000E+02  0.51100000000E-03 0. -1.
         11   -1    0    0    0    0 -0.00000000000E+00 -0.00000000000E+00 -0.45593999997E+02  0.45594000000E+02  0.51100000000E-03 0.  1.
    9900012    2    1    2    0    0 -0.39821020554E+02 -0.12550890268E+02  0.16907837314E+02  0.46142317775E+02  0.10000000128E+02 0.  0.
        -12    1    1    2    0    0  0.39821020554E+02  0.12550890268E+02 -0.16907837314E+02  0.45045682225E+02  0.00000000000E+00 0.  1.
         11    1    3    3    0    0 -0.28653418564E+02 -0.89489035722E+01  0.10244810416E+02  0.31718408082E+02  0.51100000000E-03 0. -1.
        -11    1    3    3    0    0 -0.40979204455E+01 -0.10467940005E+01 -0.21485596178E+00  0.42349608030E+01  0.51100000000E-03 0.  1.
        -12    1    3    3    0    0 -0.70696815445E+01 -0.25551926949E+01  0.68778828601E+01  0.10188948890E+02  0.00000000000E+00 0.  1.
</event>
<event>
 7    1  0.3980989E-008  0.4614232E+02  0.7816164E-02  0.1320468E+00
        -11   -1    0    0    0    0  0.00000000000E+00  0.00000000000E+00  0.45593999997E+02  0.45594000000E+02  0.51100000000E-03 0.  1.
         11   -1    0    0    0    0 -0.00000000000E+00 -0.00000000000E+00 -0.45593999997E+02  0.45594000000E+02  0.51100000000E-03 0. -1.
    9900012    2    1    2    0    0  0.27813152811E+02  0.35410664220E+02  0.12754911707E+01  0.46142317771E+02  0.10000000087E+02 0.  0.
        -12    1    1    2    0    0 -0.27813152811E+02 -0.35410664220E+02 -0.12754911707E+01  0.45045682229E+02  0.00000000000E+00 0.  1.
         11    1    3    3    0    0  0.64898944086E+00  0.21895620448E+00  0.95482017917E+00  0.11750791248E+01  0.51100000000E-03 0. -1.
        -11    1    3    3    0    0  0.74942698743E+01  0.14976813693E+02 -0.41221373617E+00  0.16752281927E+02  0.51100000000E-03 0.  1.
         12    1    3    3    0    0  0.19669893496E+02  0.20214894322E+02  0.73288472773E+00  0.28214956718E+02  0.00000000000E+00 0. -1.
</event>
<event>
 7    1  0.3980989E-008  0.4614232E+02  0.7816164E-02  0.1320468E+00
        -11   -1    0    0    0    0  0.00000000000E+00  0.00000000000E+00  0.45593999997E+02  0.45594000000E+02  0.51100000000E-03 0.  1.
         11   -1    0    0    0    0 -0.00000000000E+00 -0.00000000000E+00 -0.45593999997E+02  0.45594000000E+02  0.51100000000E-03 0. -1.
    9900012    2    1    2    0    0 -0.20461081343E+02  0.29821000838E+02 -0.26854525620E+02  0.46142317777E+02  0.10000000142E+02 0.  0.
        -12    1    1    2    0    0  0.20461081343E+02 -0.29821000838E+02  0.26854525620E+02  0.45045682223E+02  0.00000000000E+00 0.  1.
         11    1    3    3    0    0 -0.13736728078E+02  0.20635690517E+02 -0.19776906423E+02  0.31712071036E+02  0.51100000000E-03 0. -1.
        -11    1    3    3    0    0 -0.65682194702E+01  0.98268691976E+01 -0.70639286271E+01  0.13769820374E+02  0.51100000000E-03 0.  1.
        -12    1    3    3    0    0 -0.15613379413E+00 -0.64155887685E+00 -0.13690569407E-01  0.66042636670E+00  0.00000000000E+00 0.  1.
</event>
<event>
 7    1  0.3980989E-008  0.4614232E+02  0.7816164E-02  0.1320468E+00
        -11   -1    0    0    0    0  0.00000000000E+00  0.00000000000E+00  0.45593999997E+02  0.45594000000E+02  0.51100000000E-03 0.  1.
         11   -1    0    0    0    0 -0.00000000000E+00 -0.00000000000E+00 -0.45593999997E+02  0.45594000000E+02  0.51100000000E-03 0. -1.
    9900012    2    1    2    0    0 -0.24234900090E+02 -0.22569579014E+02 -0.30535179282E+02  0.46142318154E+02  0.10000003578E+02 0.  0.
        -12    1    1    2    0    0  0.24234900090E+02  0.22569579014E+02  0.30535179282E+02  0.45045681846E+02  0.00000000000E+00 0.  1.
         11    1    3    3    0    0 -0.25614394278E+01 -0.26870317724E+01 -0.68090067575E+01  0.77552359714E+01  0.51100000000E-03 0. -1.
        -11    1    3    3    0    0 -0.84999775342E+00 -0.18228504189E+01 -0.40466222256E+01  0.45188971584E+01  0.51100000000E-03 0.  1.
        -12    1    3    3    0    0 -0.20823462908E+02 -0.18059696823E+02 -0.19679550299E+02  0.33868185024E+02  0.00000000000E+00 0.  1.
</event>
<event>
 7    1  0.3980989E-008  0.4614233E+02  0.7816164E-02  0.1320468E+00
        -11   -1    0    0    0    0  0.00000000000E+00  0.00000000000E+00  0.45593999997E+02  0.45594000000E+02  0.51100000000E-03 0.  1.
         11   -1    0    0    0    0 -0.00000000000E+00 -0.00000000000E+00 -0.45593999997E+02  0.45594000000E+02  0.51100000000E-03 0. -1.
    9900012    2    1    2    0    0  0.19478022566E+02  0.40574033456E+02  0.18620537298E+01  0.46142325423E+02  0.10000069869E+02 0.  0.
        -12    1    1    2    0    0 -0.19478022566E+02 -0.40574033456E+02 -0.18620537298E+01  0.45045674577E+02  0.00000000000E+00 0.  1.
         11    1    3    3    0    0  0.46268344199E+01  0.39383829859E+01 -0.30697794962E+00  0.60838058003E+01  0.51100000000E-03 0. -1.
        -11    1    3    3    0    0  0.12811577759E+02  0.25613318897E+02  0.31230614832E+01  0.28808542880E+02  0.51100000000E-03 0.  1.
         12    1    3    3    0    0  0.20396103873E+01  0.11022331574E+02 -0.95402980373E+00  0.11249976743E+02  0.00000000000E+00 0. -1.
</event>
<event>
 7    1  0.3980989E-008  0.4614232E+02  0.7816164E-02  0.1320468E+00
        -11   -1    0    0    0    0  0.00000000000E+00  0.00000000000E+00  0.45593999997E+02  0.45594000000E+02  0.51100000000E-03 0. -1.
         11   -1    0    0    0    0 -0.00000000000E+00 -0.00000000000E+00 -0.45593999997E+02  0.45594000000E+02  0.51100000000E-03 0.  1.
    9900012    2    1    2    0    0  0.40217223479E+02 -0.13700668891E+02  0.14965968933E+02  0.46142316317E+02  0.99999868304E+01 0.  0.
        -12    1    1    2    0    0 -0.40217223479E+02  0.13700668891E+02 -0.14965968933E+02  0.45045683683E+02  0.00000000000E+00 0.  1.
         11    1    3    3    0    0  0.23671637336E+02 -0.34676900831E+01  0.10647818146E+02  0.26186777583E+02  0.51100000000E-03 0. -1.
        -11    1    3    3    0    0  0.12031319694E+02 -0.69795047541E+01  0.33578053329E+01  0.14308773431E+02  0.51100000000E-03 0.  1.
         12    1    3    3    0    0  0.45142664487E+01 -0.32534740536E+01  0.96034545393E+00  0.56467653023E+01  0.00000000000E+00 0. -1.
</event>
<event>
 7    1  0.3980989E-008  0.4614232E+02  0.7816164E-02  0.1320468E+00
        -11   -1    0    0    0    0  0.00000000000E+00  0.00000000000E+00  0.45593999997E+02  0.45594000000E+02  0.51100000000E-03 0.  1.
         11   -1    0    0    0    0 -0.00000000000E+00 -0.00000000000E+00 -0.45593999997E+02  0.45594000000E+02  0.51100000000E-03 0. -1.
    9900012    2    1    2    0    0 -0.33560316096E+01 -0.18378620266E+02 -0.40988739681E+02  0.46142318613E+02  0.10000007766E+02 0.  0.
        -12    1    1    2    0    0  0.33560316096E+01  0.18378620266E+02  0.40988739681E+02  0.45045681387E+02  0.00000000000E+00 0.  1.
         11    1    3    3    0    0 -0.44879728618E+01 -0.60050770189E+01 -0.23532718504E+02  0.24698009856E+02  0.51100000000E-03 0.  1.
        -11    1    3    3    0    0  0.45934122918E+00 -0.17346544983E+01 -0.26198606060E+01  0.31754827112E+01  0.51100000000E-03 0. -1.
        -12    1    3    3    0    0  0.67260002300E+00 -0.10638888749E+02 -0.14836160571E+02  0.18268826046E+02  0.00000000000E+00 0.  1.
</event>
<event>
 7    1  0.3980989E-008  0.4614232E+02  0.7816164E-02  0.1320468E+00
        -11   -1    0    0    0    0  0.00000000000E+00  0.00000000000E+00  0.45593999997E+02  0.45594000000E+02  0.51100000000E-03 0.  1.
         11   -1    0    0    0    0 -0.00000000000E+00 -0.00000000000E+00 -0.45593999997E+02  0.45594000000E+02  0.51100000000E-03 0. -1.
    9900012    2    1    2    0    0  0.32508479685E+02  0.57814755579E+01 -0.30641259094E+02  0.46142317965E+02  0.10000001863E+02 0.  0.
        -12    1    1    2    0    0 -0.32508479685E+02 -0.57814755579E+01  0.30641259094E+02  0.45045682035E+02  0.00000000000E+00 0.  1.
         11    1    3    3    0    0  0.13353657290E+01 -0.67725419247E+00 -0.28086407675E+01  0.31828192053E+01  0.51100000000E-03 0. -1.
        -11    1    3    3    0    0  0.41062187482E+01 -0.16693521132E+01 -0.44279717555E+01  0.62653573732E+01  0.51100000000E-03 0.  1.
         12    1    3    3    0    0  0.27066895208E+02  0.81280818636E+01 -0.23404646571E+02  0.36694141387E+02  0.00000000000E+00 0. -1.
</event>
<event>
 7    1  0.3980989E-008  0.4614232E+02  0.7816164E-02  0.1320468E+00
        -11   -1    0    0    0    0  0.00000000000E+00  0.00000000000E+00  0.45593999997E+02  0.45594000000E+02  0.51100000000E-03 0. -1.
         11   -1    0    0    0    0 -0.00000000000E+00 -0.00000000000E+00 -0.45593999997E+02  0.45594000000E+02  0.51100000000E-03 0.  1.
    9900012    2    1    2    0    0 -0.36079087141E+02 -0.26394391648E+02 -0.55451905765E+01  0.46142316767E+02  0.99999909315E+01 0.  0.
        -12    1    1    2    0    0  0.36079087141E+02  0.26394391648E+02  0.55451905765E+01  0.45045683233E+02  0.00000000000E+00 0.  1.
         11    1    3    3    0    0 -0.33899822959E+02 -0.25741961956E+02 -0.56199037657E+01  0.42935182783E+02  0.51100000000E-03 0. -1.
        -11    1    3    3    0    0 -0.24494611122E+01 -0.27877327889E+00 -0.45278127890E+00  0.25065086133E+01  0.51100000000E-03 0.  1.
         12    1    3    3    0    0  0.27019692968E+00 -0.37365641364E+00  0.52749446816E+00  0.70062537080E+00  0.00000000000E+00 0. -1.
</event>
<event>
 7    1  0.3980989E-008  0.4614232E+02  0.7816164E-02  0.1320468E+00
        -11   -1    0    0    0    0  0.00000000000E+00  0.00000000000E+00  0.45593999997E+02  0.45594000000E+02  0.51100000000E-03 0.  1.
         11   -1    0    0    0    0 -0.00000000000E+00 -0.00000000000E+00 -0.45593999997E+02  0.45594000000E+02  0.51100000000E-03 0. -1.
    9900012    2    1    2    0    0  0.29149927086E+01  0.44936261143E+02 -0.11613789348E+01  0.46142317088E+02  0.99999938590E+01 0.  0.
        -12    1    1    2    0    0 -0.29149927086E+01 -0.44936261143E+02  0.11613789348E+01  0.45045682912E+02  0.00000000000E+00 0.  1.
         11    1    3    3    0    0 -0.38179604191E+00  0.31775315894E+02 -0.10907563495E+01  0.31796323971E+02  0.51100000000E-03 0. -1.
        -11    1    3    3    0    0 -0.32385769960E+00  0.23543298250E+01  0.15456744925E+01  0.28349360897E+01  0.51100000000E-03 0.  1.
        -12    1    3    3    0    0  0.36206464501E+01  0.10806615424E+02 -0.16162970778E+01  0.11511057027E+02  0.00000000000E+00 0.  1.
</event>
<event>
 7    1  0.3980989E-008  0.4614232E+02  0.7816164E-02  0.1320468E+00
        -11   -1    0    0    0    0  0.00000000000E+00  0.00000000000E+00  0.45593999997E+02  0.45594000000E+02  0.51100000000E-03 0.  1.
         11   -1    0    0    0    0 -0.00000000000E+00 -0.00000000000E+00 -0.45593999997E+02  0.45594000000E+02  0.51100000000E-03 0. -1.
    9900012    2    1    2    0    0  0.27389834315E+02 -0.44242100698E+01 -0.35487134707E+02  0.46142318873E+02  0.10000010135E+02 0.  0.
        -12    1    1    2    0    0 -0.27389834315E+02  0.44242100698E+01  0.35487134707E+02  0.45045681127E+02  0.00000000000E+00 0.  1.
         11    1    3    3    0    0  0.60169114853E+01 -0.13579329408E+01 -0.62670940315E+01  0.87933880590E+01  0.51100000000E-03 0.  1.
        -11    1    3    3    0    0  0.25949914154E+01  0.25695585468E+01 -0.48703837011E+01  0.60874665689E+01  0.51100000000E-03 0. -1.
         12    1    3    3    0    0  0.18777931414E+02 -0.56358356759E+01 -0.24349656974E+02  0.31261464245E+02  0.00000000000E+00 0. -1.
</event>
<event>
 7    1  0.3980989E-008  0.4614232E+02  0.7816164E-02  0.1320468E+00
        -11   -1    0    0    0    0  0.00000000000E+00  0.00000000000E+00  0.45593999997E+02  0.45594000000E+02  0.51100000000E-03 0.  1.
         11   -1    0    0    0    0 -0.00000000000E+00 -0.00000000000E+00 -0.45593999997E+02  0.45594000000E+02  0.51100000000E-03 0. -1.
    9900012    2    1    2    0    0 -0.39414014774E+01 -0.26912668733E+02 -0.35906643839E+02  0.46142318123E+02  0.10000003301E+02 0.  0.
        -12    1    1    2    0    0  0.39414014774E+01  0.26912668733E+02  0.35906643839E+02  0.45045681877E+02  0.00000000000E+00 0.  1.
         11    1    3    3    0    0 -0.20175462476E+00 -0.61073631818E+01 -0.96704606785E+01  0.11439335643E+02  0.51100000000E-03 0. -1.
        -11    1    3    3    0    0 -0.52977137317E+01 -0.69816063994E+01 -0.11146515260E+02  0.14179330076E+02  0.51100000000E-03 0.  1.
        -12    1    3    3    0    0  0.15580668791E+01 -0.13823699152E+02 -0.15089667901E+02  0.20523652404E+02  0.00000000000E+00 0.  1.
</event>
<event>
 7    1  0.3980989E-008  0.4614232E+02  0.7816164E-02  0.1320468E+00
        -11   -1    0    0    0    0  0.00000000000E+00  0.00000000000E+00  0.45593999997E+02  0.45594000000E+02  0.51100000000E-03 0.  1.
         11   -1    0    0    0    0 -0.00000000000E+00 -0.00000000000E+00 -0.45593999997E+02  0.45594000000E+02  0.51100000000E-03 0. -1.
    9900012    2    1    2    0    0 -0.44932508244E+02  0.15948927061E+01  0.27639770423E+01  0.46142317089E+02  0.99999938695E+01 0.  0.
        -12    1    1    2    0    0  0.44932508244E+02 -0.15948927061E+01 -0.27639770423E+01  0.45045682911E+02  0.00000000000E+00 0.  1.
         11    1    3    3    0    0 -0.22826889711E+02  0.23087844840E-01 -0.35267099291E+01  0.23097729545E+02  0.51100000000E-03 0. -1.
        -11    1    3    3    0    0 -0.11978711235E+02  0.96302854001E+00  0.36953328384E+01  0.12572685945E+02  0.51100000000E-03 0.  1.
         12    1    3    3    0    0 -0.10126907298E+02  0.60877632121E+00  0.25953541331E+01  0.10471901599E+02  0.00000000000E+00 0. -1.
</event>
<event>
 7    1  0.3980989E-008  0.4614232E+02  0.7816164E-02  0.1320468E+00
        -11   -1    0    0    0    0  0.00000000000E+00  0.00000000000E+00  0.45593999997E+02  0.45594000000E+02  0.51100000000E-03 0.  1.
         11   -1    0    0    0    0 -0.00000000000E+00 -0.00000000000E+00 -0.45593999997E+02  0.45594000000E+02  0.51100000000E-03 0. -1.
    9900012    2    1    2    0    0  0.39012266118E+02 -0.46954565304E+01 -0.22025195128E+02  0.46142318297E+02  0.10000004884E+02 0.  0.
        -12    1    1    2    0    0 -0.39012266118E+02  0.46954565304E+01  0.22025195128E+02  0.45045681703E+02  0.00000000000E+00 0.  1.
         11    1    3    3    0    0  0.12073741071E+02 -0.13404876437E+01 -0.73210425051E+01  0.14183433794E+02  0.51100000000E-03 0. -1.
        -11    1    3    3    0    0  0.40070795540E+01  0.21384546274E+01 -0.88431566960E+00  0.46272766516E+01  0.51100000000E-03 0.  1.
        -12    1    3    3    0    0  0.22931445493E+02 -0.54934235141E+01 -0.13819836953E+02  0.27331607851E+02  0.00000000000E+00 0.  1.
</event>
<event>
 7    1  0.3980989E-008  0.4614232E+02  0.7816164E-02  0.1320468E+00
        -11   -1    0    0    0    0  0.00000000000E+00  0.00000000000E+00  0.45593999997E+02  0.45594000000E+02  0.51100000000E-03 0.  1.
         11   -1    0    0    0    0 -0.00000000000E+00 -0.00000000000E+00 -0.45593999997E+02  0.45594000000E+02  0.51100000000E-03 0. -1.
    9900012    2    1    2    0    0  0.17290720816E+02 -0.92580343645E+01 -0.40551613223E+02  0.46142316947E+02  0.99999925807E+01 0.  0.
        -12    1    1    2    0    0 -0.17290720816E+02  0.92580343645E+01  0.40551613223E+02  0.45045683053E+02  0.00000000000E+00 0.  1.
         11    1    3    3    0    0  0.18194965635E+01 -0.89913299931E+00 -0.28836097738E+01  0.35262180142E+01  0.51100000000E-03 0. -1.
        -11    1    3    3    0    0  0.82082152940E+01 -0.90194108800E+01 -0.27693587539E+02  0.30259863879E+02  0.51100000000E-03 0.  1.
        -12    1    3    3    0    0  0.72630089590E+01  0.66050951483E+00 -0.99744159101E+01  0.12356235054E+02  0.00000000000E+00 0.  1.
</event>
<event>
 7    1  0.3980989E-008  0.4614232E+02  0.7816164E-02  0.1320468E+00
        -11   -1    0    0    0    0  0.00000000000E+00  0.00000000000E+00  0.45593999997E+02  0.45594000000E+02  0.51100000000E-03 0.  1.
         11   -1    0    0    0    0 -0.00000000000E+00 -0.00000000000E+00 -0.45593999997E+02  0.45594000000E+02  0.51100000000E-03 0. -1.
    9900012    2    1    2    0    0 -0.15392317362E+01  0.28179701992E+02 -0.35109096315E+02  0.46142317823E+02  0.10000000566E+02 0.  0.
        -12    1    1    2    0    0  0.15392317362E+01 -0.28179701992E+02  0.35109096315E+02  0.45045682177E+02  0.00000000000E+00 0.  1.
         11    1    3    3    0    0 -0.41697647006E-01  0.51471157182E+01 -0.94668971655E+01  0.10775745038E+02  0.51100000000E-03 0. -1.
        -11    1    3    3    0    0  0.31623789754E+01  0.11187853742E+02 -0.11985012940E+02  0.16697582088E+02  0.51100000000E-03 0.  1.
         12    1    3    3    0    0 -0.46599130645E+01  0.11844732532E+02 -0.13657186210E+02  0.18668990698E+02  0.00000000000E+00 0. -1.
</event>
<event>
 7    1  0.3980989E-008  0.4614232E+02  0.7816164E-02  0.1320468E+00
        -11   -1    0    0    0    0  0.00000000000E+00  0.00000000000E+00  0.45593999997E+02  0.45594000000E+02  0.51100000000E-03 0.  1.
         11   -1    0    0    0    0 -0.00000000000E+00 -0.00000000000E+00 -0.45593999997E+02  0.45594000000E+02  0.51100000000E-03 0. -1.
    9900012    2    1    2    0    0  0.98787927118E+01 -0.42284664566E+02 -0.11980403427E+02  0.46142317974E+02  0.10000001946E+02 0.  0.
        -12    1    1    2    0    0 -0.98787927118E+01  0.42284664566E+02  0.11980403427E+02  0.45045682026E+02  0.00000000000E+00 0.  1.
         11    1    3    3    0    0  0.21177997817E+01 -0.11138495193E+02 -0.94084463523E+00  0.11377009272E+02  0.51100000000E-03 0. -1.
        -11    1    3    3    0    0  0.41705575920E+01 -0.49774881284E+01 -0.30140602208E+01  0.71591548364E+01  0.51100000000E-03 0.  1.
         12    1    3    3    0    0  0.35904353380E+01 -0.26168681244E+02 -0.80254985710E+01  0.27606153866E+02  0.00000000000E+00 0. -1.
</event>
<event>
 7    1  0.5050379E-008  0.4614232E+02  0.7816164E-02  0.1320468E+00
        -11   -1    0    0    0    0  0.00000000000E+00  0.00000000000E+00  0.45593999997E+02  0.45594000000E+02  0.51100000000E-03 0.  1.
         11   -1    0    0    0    0 -0.00000000000E+00 -0.00000000000E+00 -0.45593999997E+02  0.45594000000E+02  0.51100000000E-03 0. -1.
    9900012    2    1    2    0    0  0.39574122637E+02  0.19268526495E+02  0.95773814217E+01  0.46142317292E+02  0.99999957185E+01 0.  0.
        -12    1    1    2    0    0 -0.39574122637E+02 -0.19268526495E+02 -0.95773814217E+01  0.45045682708E+02  0.00000000000E+00 0.  1.
         11    1    3    3    0    0  0.29240765939E+02  0.12442273755E+02  0.81728701651E+01  0.32812015725E+02  0.51100000000E-03 0. -1.
        -11    1    3    3    0    0  0.47651575523E+01  0.13697935355E+01  0.23322658145E+01  0.54792814236E+01  0.51100000000E-03 0.  1.
        -12    1    3    3    0    0  0.55681991451E+01  0.54564592046E+01 -0.92775455793E+00  0.78510201433E+01  0.00000000000E+00 0.  1.
</event>
<event>
 7    1  0.3980989E-008  0.4614232E+02  0.7816164E-02  0.1320468E+00
        -11   -1    0    0    0    0  0.00000000000E+00  0.00000000000E+00  0.45593999997E+02  0.45594000000E+02  0.51100000000E-03 0.  1.
         11   -1    0    0    0    0 -0.00000000000E+00 -0.00000000000E+00 -0.45593999997E+02  0.45594000000E+02  0.51100000000E-03 0. -1.
    9900012    2    1    2    0    0 -0.42900265162E+01 -0.11169485524E+02 -0.43427546260E+02  0.46142317537E+02  0.99999979591E+01 0.  0.
        -12    1    1    2    0    0  0.42900265162E+01  0.11169485524E+02  0.43427546260E+02  0.45045682463E+02  0.00000000000E+00 0.  1.
         11    1    3    3    0    0 -0.66331218328E+00 -0.18233602063E+01 -0.18129071396E+01  0.26554205039E+01  0.51100000000E-03 0. -1.
        -11    1    3    3    0    0 -0.39601174366E+01 -0.13218375375E+01 -0.93853419580E+01  0.10272021637E+02  0.51100000000E-03 0.  1.
         12    1    3    3    0    0  0.33340310362E+00 -0.80242877800E+01 -0.32229297162E+02  0.33214875396E+02  0.00000000000E+00 0. -1.
</event>
<event>
 7    1  0.3980989E-008  0.4614232E+02  0.7816164E-02  0.1320468E+00
        -11   -1    0    0    0    0  0.00000000000E+00  0.00000000000E+00  0.45593999997E+02  0.45594000000E+02  0.51100000000E-03 0.  1.
         11   -1    0    0    0    0 -0.00000000000E+00 -0.00000000000E+00 -0.45593999997E+02  0.45594000000E+02  0.51100000000E-03 0. -1.
    9900012    2    1    2    0    0 -0.29401228894E+01  0.25197626006E+02 -0.37222963022E+02  0.46142315911E+02  0.99999831266E+01 0.  0.
        -12    1    1    2    0    0  0.29401228894E+01 -0.25197626006E+02  0.37222963022E+02  0.45045684089E+02  0.00000000000E+00 0.  1.
         11    1    3    3    0    0 -0.58111196582E+01  0.20858144738E+02 -0.29629445695E+02  0.36697893210E+02  0.51100000000E-03 0. -1.
        -11    1    3    3    0    0  0.64551260007E+00  0.17431015275E+01 -0.12565783597E+01  0.22436753078E+01  0.51100000000E-03 0.  1.
         12    1    3    3    0    0  0.22254841688E+01  0.25963797404E+01 -0.63369389669E+01  0.72007473926E+01  0.00000000000E+00 0. -1.
</event>
<event>
 7    1  0.3980989E-008  0.4614232E+02  0.7816164E-02  0.1320468E+00
        -11   -1    0    0    0    0  0.00000000000E+00  0.00000000000E+00  0.45593999997E+02  0.45594000000E+02  0.51100000000E-03 0. -1.
         11   -1    0    0    0    0 -0.00000000000E+00 -0.00000000000E+00 -0.45593999997E+02  0.45594000000E+02  0.51100000000E-03 0.  1.
    9900012    2    1    2    0    0  0.31145976355E+02  0.22276141296E+02  0.23723727035E+02  0.46142317204E+02  0.99999949161E+01 0.  0.
        -12    1    1    2    0    0 -0.31145976355E+02 -0.22276141296E+02 -0.23723727035E+02  0.45045682796E+02  0.00000000000E+00 0.  1.
         11    1    3    3    0    0  0.10126428142E+02  0.74046668542E+01  0.69037665052E+01  0.14319065275E+02  0.51100000000E-03 0. -1.
        -11    1    3    3    0    0  0.20594262352E+01  0.38470955624E+01  0.31604040917E+00  0.43750728549E+01  0.51100000000E-03 0.  1.
         12    1    3    3    0    0  0.18960121978E+02  0.11024378879E+02  0.16503920121E+02  0.27448179073E+02  0.00000000000E+00 0. -1.
</event>
<event>
 7    1  0.3980989E-008  0.4614232E+02  0.7816164E-02  0.1320468E+00
        -11   -1    0    0    0    0  0.00000000000E+00  0.00000000000E+00  0.45593999997E+02  0.45594000000E+02  0.51100000000E-03 0.  1.
         11   -1    0    0    0    0 -0.00000000000E+00 -0.00000000000E+00 -0.45593999997E+02  0.45594000000E+02  0.51100000000E-03 0. -1.
    9900012    2    1    2    0    0 -0.95591332942E+01  0.43841512151E+02  0.39570571938E+01  0.46142317425E+02  0.99999969354E+01 0.  0.
        -12    1    1    2    0    0  0.95591332942E+01 -0.43841512151E+02 -0.39570571938E+01  0.45045682575E+02  0.00000000000E+00 0.  1.
         11    1    3    3    0    0  0.11034357143E+01  0.13807466541E+02  0.20793034127E+01  0.14006684319E+02  0.51100000000E-03 0. -1.
        -11    1    3    3    0    0 -0.10144959796E+01  0.43608202182E+01 -0.90747068329E+00  0.45683102314E+01  0.51100000000E-03 0.  1.
        -12    1    3    3    0    0 -0.96480730288E+01  0.25673225391E+02  0.27852244643E+01  0.27567322875E+02  0.00000000000E+00 0.  1.
</event>
<event>
 7    1  0.3980989E-008  0.4614232E+02  0.7816164E-02  0.1320468E+00
        -11   -1    0    0    0    0  0.00000000000E+00  0.00000000000E+00  0.45593999997E+02  0.45594000000E+02  0.51100000000E-03 0.  1.
         11   -1    0    0    0    0 -0.00000000000E+00 -0.00000000000E+00 -0.45593999997E+02  0.45594000000E+02  0.51100000000E-03 0. -1.
    9900012    2    1    2    0    0  0.82967327961E+01  0.39250833386E+02  0.20485354064E+02  0.46142318435E+02  0.10000006142E+02 0.  0.
        -12    1    1    2    0    0 -0.82967327961E+01 -0.39250833386E+02 -0.20485354064E+02  0.45045681565E+02  0.00000000000E+00 0.  1.
         11    1    3    3    0    0  0.63176832013E+01  0.15464838376E+02  0.89628609705E+01  0.18958038508E+02  0.51100000000E-03 0. -1.
        -11    1    3    3    0    0  0.52153215877E+00  0.20518650000E+02  0.11656158245E+02  0.23604089030E+02  0.51100000000E-03 0.  1.
        -12    1    3    3    0    0  0.14575174360E+01  0.32673450095E+01 -0.13366515151E+00  0.35801908971E+01  0.00000000000E+00 0.  1.
</event>
<event>
 7    1  0.3980989E-008  0.4614231E+02  0.7816164E-02  0.1320468E+00
        -11   -1    0    0    0    0  0.00000000000E+00  0.00000000000E+00  0.45593999997E+02  0.45594000000E+02  0.51100000000E-03 0. -1.
         11   -1    0    0    0    0 -0.00000000000E+00 -0.00000000000E+00 -0.45593999997E+02  0.45594000000E+02  0.51100000000E-03 0.  1.
    9900012    2    1    2    0    0  0.34276965051E+02  0.12689902242E+02  0.26328118695E+02  0.46142314457E+02  0.99999698708E+01 0.  0.
        -12    1    1    2    0    0 -0.34276965051E+02 -0.12689902242E+02 -0.26328118695E+02  0.45045685543E+02  0.00000000000E+00 0.  1.
         11    1    3    3    0    0  0.22500938046E+02  0.87417966263E+01  0.18889647368E+02  0.30651753606E+02  0.51100000000E-03 0. -1.
        -11    1    3    3    0    0  0.84961388868E+01  0.51468063512E+01  0.44107834339E+01  0.10868716684E+02  0.51100000000E-03 0.  1.
        -12    1    3    3    0    0  0.32798881184E+01 -0.11987007352E+01  0.30276878931E+01  0.46218441665E+01  0.00000000000E+00 0.  1.
</event>
<event>
 7    1  0.3980989E-008  0.4614232E+02  0.7816164E-02  0.1320468E+00
        -11   -1    0    0    0    0  0.00000000000E+00  0.00000000000E+00  0.45593999997E+02  0.45594000000E+02  0.51100000000E-03 0.  1.
         11   -1    0    0    0    0 -0.00000000000E+00 -0.00000000000E+00 -0.45593999997E+02  0.45594000000E+02  0.51100000000E-03 0. -1.
    9900012    2    1    2    0    0  0.40711154840E+02 -0.75290919166E+01 -0.17749033996E+02  0.46142316952E+02  0.99999926219E+01 0.  0.
        -12    1    1    2    0    0 -0.40711154840E+02  0.75290919166E+01  0.17749033996E+02  0.45045683048E+02  0.00000000000E+00 0.  1.
         11    1    3    3    0    0  0.20807848577E+02 -0.57754720297E+01 -0.13384814334E+02  0.25406217636E+02  0.51100000000E-03 0. -1.
        -11    1    3    3    0    0  0.14004970582E+02 -0.15124307770E+01 -0.46273606694E+01  0.14826972546E+02  0.51100000000E-03 0.  1.
        -12    1    3    3    0    0  0.58983356805E+01 -0.24118910987E+00  0.26314100744E+00  0.59091267694E+01  0.00000000000E+00 0.  1.
</event>
<event>
 7    1  0.3980989E-008  0.4614232E+02  0.7816164E-02  0.1320468E+00
        -11   -1    0    0    0    0  0.00000000000E+00  0.00000000000E+00  0.45593999997E+02  0.45594000000E+02  0.51100000000E-03 0.  1.
         11   -1    0    0    0    0 -0.00000000000E+00 -0.00000000000E+00 -0.45593999997E+02  0.45594000000E+02  0.51100000000E-03 0. -1.
    9900012    2    1    2    0    0  0.12162321748E+01  0.30645563134E+02 -0.32992173082E+02  0.46142320461E+02  0.10000024616E+02 0.  0.
        -12    1    1    2    0    0 -0.12162321748E+01 -0.30645563134E+02  0.32992173082E+02  0.45045679539E+02  0.00000000000E+00 0.  1.
         11    1    3    3    0    0 -0.11139920624E+01  0.21702983221E+02 -0.20277246351E+02  0.29722502903E+02  0.51100000000E-03 0. -1.
        -11    1    3    3    0    0 -0.94403672089E+00  0.96700254924E+00 -0.44307712810E+00  0.14221873517E+01  0.51100000000E-03 0.  1.
         12    1    3    3    0    0  0.32742609581E+01  0.79755773640E+01 -0.12271849603E+02  0.14997630206E+02  0.00000000000E+00 0. -1.
</event>
<event>
 7    1  0.3980989E-008  0.4614232E+02  0.7816164E-02  0.1320468E+00
        -11   -1    0    0    0    0  0.00000000000E+00  0.00000000000E+00  0.45593999997E+02  0.45594000000E+02  0.51100000000E-03 0.  1.
         11   -1    0    0    0    0 -0.00000000000E+00 -0.00000000000E+00 -0.45593999997E+02  0.45594000000E+02  0.51100000000E-03 0. -1.
    9900012    2    1    2    0    0  0.79291916171E+01  0.31405365978E+02 -0.31304063348E+02  0.46142317921E+02  0.10000001455E+02 0.  0.
        -12    1    1    2    0    0 -0.79291916171E+01 -0.31405365978E+02  0.31304063348E+02  0.45045682079E+02  0.00000000000E+00 0.  1.
         11    1    3    3    0    0  0.40743109252E+01  0.76277459242E+01 -0.10956191680E+02  0.13957816942E+02  0.51100000000E-03 0. -1.
        -11    1    3    3    0    0  0.20145000342E+00  0.16941159309E+01  0.29956906917E+00  0.17321526433E+01  0.51100000000E-03 0.  1.
         12    1    3    3    0    0  0.36534306884E+01  0.22083504123E+02 -0.20647440736E+02  0.30452348335E+02  0.00000000000E+00 0. -1.
</event>
<event>
 7    1  0.3980989E-008  0.4614232E+02  0.7816164E-02  0.1320468E+00
        -11   -1    0    0    0    0  0.00000000000E+00  0.00000000000E+00  0.45593999997E+02  0.45594000000E+02  0.51100000000E-03 0.  1.
         11   -1    0    0    0    0 -0.00000000000E+00 -0.00000000000E+00 -0.45593999997E+02  0.45594000000E+02  0.51100000000E-03 0. -1.
    9900012    2    1    2    0    0 -0.27058792600E+02  0.19880094363E+02 -0.30028604568E+02  0.46142317619E+02  0.99999987060E+01 0.  0.
        -12    1    1    2    0    0  0.27058792600E+02 -0.19880094363E+02  0.30028604568E+02  0.45045682381E+02  0.00000000000E+00 0.  1.
         11    1    3    3    0    0 -0.19250964529E+01  0.50568716618E+01 -0.67716834098E+01  0.86679665332E+01  0.51100000000E-03 0. -1.
        -11    1    3    3    0    0 -0.76228378990E+01  0.31752572658E+01 -0.79502451196E+01  0.11462823128E+02  0.51100000000E-03 0.  1.
         12    1    3    3    0    0 -0.17510858248E+02  0.11647965436E+02 -0.15306676039E+02  0.26011527958E+02  0.00000000000E+00 0. -1.
</event>
<event>
 7    1  0.3980989E-008  0.4614232E+02  0.7816164E-02  0.1320468E+00
        -11   -1    0    0    0    0  0.00000000000E+00  0.00000000000E+00  0.45593999997E+02  0.45594000000E+02  0.51100000000E-03 0. -1.
         11   -1    0    0    0    0 -0.00000000000E+00 -0.00000000000E+00 -0.45593999997E+02  0.45594000000E+02  0.51100000000E-03 0.  1.
    9900012    2    1    2    0    0 -0.42974285533E+02  0.95041442473E+01  0.95914258792E+01  0.46142318461E+02  0.10000006381E+02 0.  0.
        -12    1    1    2    0    0  0.42974285533E+02 -0.95041442473E+01 -0.95914258792E+01  0.45045681539E+02  0.00000000000E+00 0.  1.
         11    1    3    3    0    0 -0.22514590014E+01  0.11754712838E+01 -0.30019911611E+00  0.25575222666E+01  0.51100000000E-03 0. -1.
        -11    1    3    3    0    0 -0.16801590516E+02  0.35315113722E+01  0.84740649211E+01  0.19146143031E+02  0.51100000000E-03 0.  1.
        -12    1    3    3    0    0 -0.23921236016E+02  0.47971615913E+01  0.14175600743E+01  0.24438653163E+02  0.00000000000E+00 0.  1.
</event>
<event>
 7    1  0.3980989E-008  0.4614232E+02  0.7816164E-02  0.1320468E+00
        -11   -1    0    0    0    0  0.00000000000E+00  0.00000000000E+00  0.45593999997E+02  0.45594000000E+02  0.51100000000E-03 0. -1.
         11   -1    0    0    0    0 -0.00000000000E+00 -0.00000000000E+00 -0.45593999997E+02  0.45594000000E+02  0.51100000000E-03 0.  1.
    9900012    2    1    2    0    0 -0.37344638151E+02 -0.24697143796E+02  0.49540650448E+01  0.46142315737E+02  0.99999815422E+01 0.  0.
        -12    1    1    2    0    0  0.37344638151E+02  0.24697143796E+02 -0.49540650448E+01  0.45045684263E+02  0.00000000000E+00 0.  1.
         11    1    3    3    0    0 -0.12986798221E+02 -0.11700136246E+02  0.17724386586E+01  0.17569623083E+02  0.51100000000E-03 0. -1.
        -11    1    3    3    0    0 -0.92058447118E+01 -0.57571771405E+01 -0.19108882123E+01  0.11024706776E+02  0.51100000000E-03 0.  1.
        -12    1    3    3    0    0 -0.15151995218E+02 -0.72398304089E+01  0.50925145986E+01  0.17547985878E+02  0.00000000000E+00 0.  1.
</event>
<event>
 7    1  0.3980989E-008  0.4614232E+02  0.7816164E-02  0.1320468E+00
        -11   -1    0    0    0    0  0.00000000000E+00  0.00000000000E+00  0.45593999997E+02  0.45594000000E+02  0.51100000000E-03 0.  1.
         11   -1    0    0    0    0 -0.00000000000E+00 -0.00000000000E+00 -0.45593999997E+02  0.45594000000E+02  0.51100000000E-03 0. -1.
    9900012    2    1    2    0    0  0.46046884373E+01  0.37789801605E+02 -0.24079896566E+02  0.46142315638E+02  0.99999806420E+01 0.  0.
        -12    1    1    2    0    0 -0.46046884373E+01 -0.37789801605E+02  0.24079896566E+02  0.45045684362E+02  0.00000000000E+00 0.  1.
         11    1    3    3    0    0  0.19629522490E+01  0.11992101506E+02 -0.90539814171E+01  0.15153819975E+02  0.51100000000E-03 0. -1.
        -11    1    3    3    0    0  0.10202194422E+00  0.22674196067E+02 -0.10677500939E+02  0.25062693437E+02  0.51100000000E-03 0.  1.
         12    1    3    3    0    0  0.25397142441E+01  0.31235040321E+01 -0.43484142104E+01  0.59258022263E+01  0.00000000000E+00 0. -1.
</event>
<event>
 7    1  0.3980989E-008  0.4614232E+02  0.7816164E-02  0.1320468E+00
        -11   -1    0    0    0    0  0.00000000000E+00  0.00000000000E+00  0.45593999997E+02  0.45594000000E+02  0.51100000000E-03 0. -1.
         11   -1    0    0    0    0 -0.00000000000E+00 -0.00000000000E+00 -0.45593999997E+02  0.45594000000E+02  0.51100000000E-03 0.  1.
    9900012    2    1    2    0    0 -0.34311165735E+02  0.29102998933E+02  0.22074540178E+01  0.46142317696E+02  0.99999994099E+01 0.  0.
        -12    1    1    2    0    0  0.34311165735E+02 -0.29102998933E+02 -0.22074540178E+01  0.45045682304E+02  0.00000000000E+00 0.  1.
         11    1    3    3    0    0 -0.18179900466E+02  0.96939925906E+01  0.16454868711E+01  0.20668572776E+02  0.51100000000E-03 0. -1.
        -11    1    3    3    0    0 -0.25211794178E+01  0.52025320617E+01  0.46234938261E+00  0.57996941922E+01  0.51100000000E-03 0.  1.
         12    1    3    3    0    0 -0.13610085851E+02  0.14206474280E+02  0.99617764144E-01  0.19674050728E+02  0.00000000000E+00 0. -1.
</event>
<event>
 7    1  0.3980989E-008  0.4614232E+02  0.7816164E-02  0.1320468E+00
        -11   -1    0    0    0    0  0.00000000000E+00  0.00000000000E+00  0.45593999997E+02  0.45594000000E+02  0.51100000000E-03 0. -1.
         11   -1    0    0    0    0 -0.00000000000E+00 -0.00000000000E+00 -0.45593999997E+02  0.45594000000E+02  0.51100000000E-03 0.  1.
    9900012    2    1    2    0    0 -0.17737658181E+02 -0.37612734414E+02 -0.17313900896E+02  0.46142317942E+02  0.10000001649E+02 0.  0.
        -12    1    1    2    0    0  0.17737658181E+02  0.37612734414E+02  0.17313900896E+02  0.45045682058E+02  0.00000000000E+00 0.  1.
         11    1    3    3    0    0 -0.33974104587E+01 -0.38798153713E+01 -0.28143577438E+01  0.58750297796E+01  0.51100000000E-03 0. -1.
        -11    1    3    3    0    0 -0.11013988922E+02 -0.17086263753E+02 -0.55282939548E+01  0.21066807905E+02  0.51100000000E-03 0.  1.
        -12    1    3    3    0    0 -0.33262588002E+01 -0.16646655290E+02 -0.89712491970E+01  0.19200480257E+02  0.00000000000E+00 0.  1.
</event>
<event>
 7    1  0.3980989E-008  0.4614232E+02  0.7816164E-02  0.1320468E+00
        -11   -1    0    0    0    0  0.00000000000E+00  0.00000000000E+00  0.45593999997E+02  0.45594000000E+02  0.51100000000E-03 0.  1.
         11   -1    0    0    0    0 -0.00000000000E+00 -0.00000000000E+00 -0.45593999997E+02  0.45594000000E+02  0.51100000000E-03 0. -1.
    9900012    2    1    2    0    0  0.17543050762E+02  0.21975042943E+02 -0.35191652160E+02  0.46142317364E+02  0.99999963813E+01 0.  0.
        -12    1    1    2    0    0 -0.17543050762E+02 -0.21975042943E+02  0.35191652160E+02  0.45045682636E+02  0.00000000000E+00 0.  1.
         11    1    3    3    0    0  0.31021042389E+01  0.57355253795E+01 -0.75687428767E+01  0.99902538047E+01  0.51100000000E-03 0. -1.
        -11    1    3    3    0    0  0.11359013005E+02  0.14357603315E+02 -0.17194374022E+02  0.25116019742E+02  0.51100000000E-03 0.  1.
         12    1    3    3    0    0  0.30819335180E+01  0.18819142479E+01 -0.10428535262E+02  0.11036043818E+02  0.00000000000E+00 0. -1.
</event>
<event>
 7    1  0.3980989E-008  0.4614231E+02  0.7816164E-02  0.1320468E+00
        -11   -1    0    0    0    0  0.00000000000E+00  0.00000000000E+00  0.45593999997E+02  0.45594000000E+02  0.51100000000E-03 0.  1.
         11   -1    0    0    0    0 -0.00000000000E+00 -0.00000000000E+00 -0.45593999997E+02  0.45594000000E+02  0.51100000000E-03 0. -1.
    9900012    2    1    2    0    0  0.29311145448E+02  0.22373339830E+02 -0.25872851944E+02  0.46142311523E+02  0.99999431178E+01 0.  0.
        -12    1    1    2    0    0 -0.29311145448E+02 -0.22373339830E+02  0.25872851944E+02  0.45045688477E+02  0.00000000000E+00 0.  1.
         11    1    3    3    0    0  0.86828226362E+01  0.64152472578E+01 -0.92003106392E+01  0.14184234996E+02  0.51100000000E-03 0.  1.
        -11    1    3    3    0    0  0.13899565155E+02  0.62945698793E+01 -0.11448810750E+02  0.19076026560E+02  0.51100000000E-03 0. -1.
        -12    1    3    3    0    0  0.67287576568E+01  0.96635226932E+01 -0.52237305548E+01  0.12882049967E+02  0.00000000000E+00 0.  1.
</event>
<event>
 7    1  0.3980989E-008  0.4614232E+02  0.7816164E-02  0.1320468E+00
        -11   -1    0    0    0    0  0.00000000000E+00  0.00000000000E+00  0.45593999997E+02  0.45594000000E+02  0.51100000000E-03 0.  1.
         11   -1    0    0    0    0 -0.00000000000E+00 -0.00000000000E+00 -0.45593999997E+02  0.45594000000E+02  0.51100000000E-03 0. -1.
    9900012    2    1    2    0    0 -0.40945601467E+02  0.17397690399E+01 -0.18696107543E+02  0.46142317487E+02  0.99999975027E+01 0.  0.
        -12    1    1    2    0    0  0.40945601467E+02 -0.17397690399E+01  0.18696107543E+02  0.45045682513E+02  0.00000000000E+00 0.  1.
         11    1    3    3    0    0 -0.15398254465E+00  0.62744001146E+00 -0.78286054507E+00  0.10150184659E+01  0.51100000000E-03 0. -1.
        -11    1    3    3    0    0 -0.23034653919E+02  0.40162858856E+01 -0.11159178716E+02  0.25908552707E+02  0.51100000000E-03 0.  1.
        -12    1    3    3    0    0 -0.17756965003E+02 -0.29039568572E+01 -0.67540682823E+01  0.19218746314E+02  0.00000000000E+00 0.  1.
</event>
<event>
 7    1  0.3980989E-008  0.4614232E+02  0.7816164E-02  0.1320468E+00
        -11   -1    0    0    0    0  0.00000000000E+00  0.00000000000E+00  0.45593999997E+02  0.45594000000E+02  0.51100000000E-03 0. -1.
         11   -1    0    0    0    0 -0.00000000000E+00 -0.00000000000E+00 -0.45593999997E+02  0.45594000000E+02  0.51100000000E-03 0.  1.
    9900012    2    1    2    0    0 -0.16303754058E+02 -0.41093221292E+02  0.86399220456E+01  0.46142317793E+02  0.10000000293E+02 0.  0.
        -12    1    1    2    0    0  0.16303754058E+02  0.41093221292E+02 -0.86399220456E+01  0.45045682207E+02  0.00000000000E+00 0.  1.
         11    1    3    3    0    0 -0.10351933777E+02 -0.31595179622E+02  0.45129661157E+01  0.33552716309E+02  0.51100000000E-03 0. -1.
        -11    1    3    3    0    0 -0.52642658198E+01 -0.98095442129E+01  0.37628033768E+01  0.11751525084E+02  0.51100000000E-03 0.  1.
         12    1    3    3    0    0 -0.68755446100E+00  0.31150254313E+00  0.36415255312E+00  0.83807640055E+00  0.00000000000E+00 0. -1.
</event>
<event>
 7    1  0.3980989E-008  0.4614231E+02  0.7816164E-02  0.1320468E+00
        -11   -1    0    0    0    0  0.00000000000E+00  0.00000000000E+00  0.45593999997E+02  0.45594000000E+02  0.51100000000E-03 0.  1.
         11   -1    0    0    0    0 -0.00000000000E+00 -0.00000000000E+00 -0.45593999997E+02  0.45594000000E+02  0.51100000000E-03 0. -1.
    9900012    2    1    2    0    0  0.40534276286E+02  0.19495534220E+02  0.24517193130E+01  0.46142308351E+02  0.99999141880E+01 0.  0.
        -12    1    1    2    0    0 -0.40534276286E+02 -0.19495534220E+02 -0.24517193130E+01  0.45045691649E+02  0.00000000000E+00 0.  1.
         11    1    3    3    0    0  0.20919901120E+02  0.62026750386E+01  0.32447751187E+00  0.21822482133E+02  0.51100000000E-03 0. -1.
        -11    1    3    3    0    0  0.27060995886E+01  0.16490292014E+01  0.20790284281E+01  0.37900701519E+01  0.51100000000E-03 0.  1.
        -12    1    3    3    0    0  0.16908275578E+02  0.11643829980E+02  0.48213372990E-01  0.20529756066E+02  0.00000000000E+00 0.  1.
</event>
<event>
 7    1  0.3980989E-008  0.4614232E+02  0.7816164E-02  0.1320468E+00
        -11   -1    0    0    0    0  0.00000000000E+00  0.00000000000E+00  0.45593999997E+02  0.45594000000E+02  0.51100000000E-03 0. -1.
         11   -1    0    0    0    0 -0.00000000000E+00 -0.00000000000E+00 -0.45593999997E+02  0.45594000000E+02  0.51100000000E-03 0.  1.
    9900012    2    1    2    0    0  0.38643136529E+02 -0.17662976563E+02  0.14961313687E+02  0.46142315976E+02  0.99999837264E+01 0.  0.
        -12    1    1    2    0    0 -0.38643136529E+02  0.17662976563E+02 -0.14961313687E+02  0.45045684024E+02  0.00000000000E+00 0.  1.
         11    1    3    3    0    0  0.23881157090E+02 -0.12749656284E+02  0.10205855868E+02  0.28931347940E+02  0.51100000000E-03 0. -1.
        -11    1    3    3    0    0  0.49666715261E+01 -0.11437683854E+01  0.43612890246E+01  0.67079709589E+01  0.51100000000E-03 0.  1.
        -12    1    3    3    0    0  0.97953079125E+01 -0.37695518939E+01  0.39416879506E+00  0.10502997078E+02  0.00000000000E+00 0.  1.
</event>
<event>
 7    1  0.3980989E-008  0.4614232E+02  0.7816164E-02  0.1320468E+00
        -11   -1    0    0    0    0  0.00000000000E+00  0.00000000000E+00  0.45593999997E+02  0.45594000000E+02  0.51100000000E-03 0.  1.
         11   -1    0    0    0    0 -0.00000000000E+00 -0.00000000000E+00 -0.45593999997E+02  0.45594000000E+02  0.51100000000E-03 0. -1.
    9900012    2    1    2    0    0 -0.16168423111E+02  0.38375437869E+01 -0.41868468197E+02  0.46142320103E+02  0.10000021358E+02 0.  0.
        -12    1    1    2    0    0  0.16168423111E+02 -0.38375437869E+01  0.41868468197E+02  0.45045679897E+02  0.00000000000E+00 0.  1.
         11    1    3    3    0    0 -0.13417187823E+02  0.27459145515E+01 -0.32450392607E+02  0.35221995350E+02  0.51100000000E-03 0. -1.
        -11    1    3    3    0    0 -0.21384780581E+01 -0.12127835960E+01 -0.73960019438E+01  0.77938936014E+01  0.51100000000E-03 0.  1.
        -12    1    3    3    0    0 -0.61275723015E+00  0.23044128314E+01 -0.20220736458E+01  0.31264311522E+01  0.00000000000E+00 0.  1.
</event>
<event>
 7    1  0.3980989E-008  0.4614232E+02  0.7816164E-02  0.1320468E+00
        -11   -1    0    0    0    0  0.00000000000E+00  0.00000000000E+00  0.45593999997E+02  0.45594000000E+02  0.51100000000E-03 0.  1.
         11   -1    0    0    0    0 -0.00000000000E+00 -0.00000000000E+00 -0.45593999997E+02  0.45594000000E+02  0.51100000000E-03 0. -1.
    9900012    2    1    2    0    0 -0.12119851194E+02 -0.41496491999E+02 -0.12659534071E+02  0.46142318253E+02  0.10000004485E+02 0.  0.
        -12    1    1    2    0    0  0.12119851194E+02  0.41496491999E+02  0.12659534071E+02  0.45045681747E+02  0.00000000000E+00 0.  1.
         11    1    3    3    0    0 -0.26376129621E+01 -0.83432030280E+01 -0.42613178336E+01  0.97326701806E+01  0.51100000000E-03 0. -1.
        -11    1    3    3    0    0 -0.91364767716E+01 -0.22387379867E+02 -0.30127790819E+01  0.24366920674E+02  0.51100000000E-03 0.  1.
        -12    1    3    3    0    0 -0.34576146002E+00 -0.10765909104E+02 -0.53854371559E+01  0.12042727398E+02  0.00000000000E+00 0.  1.
</event>
<event>
 7    1  0.3980989E-008  0.4614232E+02  0.7816164E-02  0.1320468E+00
        -11   -1    0    0    0    0  0.00000000000E+00  0.00000000000E+00  0.45593999997E+02  0.45594000000E+02  0.51100000000E-03 0.  1.
         11   -1    0    0    0    0 -0.00000000000E+00 -0.00000000000E+00 -0.45593999997E+02  0.45594000000E+02  0.51100000000E-03 0. -1.
    9900012    2    1    2    0    0 -0.29646266597E+02 -0.30544122541E+02  0.14740043780E+02  0.46142318347E+02  0.10000005341E+02 0.  0.
        -12    1    1    2    0    0  0.29646266597E+02  0.30544122541E+02 -0.14740043780E+02  0.45045681653E+02  0.00000000000E+00 0.  1.
         11    1    3    3    0    0 -0.54554218439E-01 -0.26025644654E+01  0.29108969542E+00  0.26193608822E+01  0.51100000000E-03 0. -1.
        -11    1    3    3    0    0 -0.12732317347E+02 -0.99541513886E+01  0.80359326704E+01  0.18049189706E+02  0.51100000000E-03 0.  1.
         12    1    3    3    0    0 -0.16859395032E+02 -0.17987406687E+02  0.64130214141E+01  0.25473767759E+02  0.00000000000E+00 0. -1.
</event>
<event>
 7    1  0.3980989E-008  0.4614232E+02  0.7816164E-02  0.1320468E+00
        -11   -1    0    0    0    0  0.00000000000E+00  0.00000000000E+00  0.45593999997E+02  0.45594000000E+02  0.51100000000E-03 0. -1.
         11   -1    0    0    0    0 -0.00000000000E+00 -0.00000000000E+00 -0.45593999997E+02  0.45594000000E+02  0.51100000000E-03 0.  1.
    9900012    2    1    2    0    0  0.17456389893E+02  0.23026465750E+02  0.34556765521E+02  0.46142315231E+02  0.99999769285E+01 0.  0.
        -12    1    1    2    0    0 -0.17456389893E+02 -0.23026465750E+02 -0.34556765521E+02  0.45045684769E+02  0.00000000000E+00 0.  1.
         11    1    3    3    0    0  0.78355971913E+01  0.11269458723E+02  0.12034125269E+02  0.18254244835E+02  0.51100000000E-03 0. -1.
        -11    1    3    3    0    0 -0.91313710928E+00  0.13581693543E+01  0.19978157562E+01  0.25825784465E+01  0.51100000000E-03 0.  1.
         12    1    3    3    0    0  0.10533929811E+02  0.10398837672E+02  0.20524824496E+02  0.25305491949E+02  0.00000000000E+00 0. -1.
</event>
<event>
 7    1  0.3980989E-008  0.4614232E+02  0.7816164E-02  0.1320468E+00
        -11   -1    0    0    0    0  0.00000000000E+00  0.00000000000E+00  0.45593999997E+02  0.45594000000E+02  0.51100000000E-03 0.  1.
         11   -1    0    0    0    0 -0.00000000000E+00 -0.00000000000E+00 -0.45593999997E+02  0.45594000000E+02  0.51100000000E-03 0. -1.
    9900012    2    1    2    0    0 -0.30654037548E+02 -0.15023408864E+02 -0.29389465237E+02  0.46142317645E+02  0.99999989457E+01 0.  0.
        -12    1    1    2    0    0  0.30654037548E+02  0.15023408864E+02  0.29389465237E+02  0.45045682355E+02  0.00000000000E+00 0.  1.
         11    1    3    3    0    0 -0.13822748975E+01 -0.19898100256E+00  0.11358983892E+00  0.14011353411E+01  0.51100000000E-03 0. -1.
        -11    1    3    3    0    0 -0.69049836158E+01 -0.37092678419E+01 -0.11645243009E+02  0.14037419694E+02  0.51100000000E-03 0.  1.
         12    1    3    3    0    0 -0.22366779034E+02 -0.11115160019E+02 -0.17857812067E+02  0.30703762611E+02  0.00000000000E+00 0. -1.
</event>
<event>
 7    1  0.3980989E-008  0.4614233E+02  0.7816164E-02  0.1320468E+00
        -11   -1    0    0    0    0  0.00000000000E+00  0.00000000000E+00  0.45593999997E+02  0.45594000000E+02  0.51100000000E-03 0. -1.
         11   -1    0    0    0    0 -0.00000000000E+00 -0.00000000000E+00 -0.45593999997E+02  0.45594000000E+02  0.51100000000E-03 0.  1.
    9900012    2    1    2    0    0 -0.35047973962E+02 -0.25150999348E+02 -0.12968404244E+02  0.46142325894E+02  0.10000074161E+02 0.  0.
        -12    1    1    2    0    0  0.35047973962E+02  0.25150999348E+02  0.12968404244E+02  0.45045674106E+02  0.00000000000E+00 0.  1.
         11    1    3    3    0    0 -0.23614474424E+02 -0.20175968183E+02 -0.80664328704E+01  0.32090192177E+02  0.51100000000E-03 0. -1.
        -11    1    3    3    0    0 -0.62511543565E+01 -0.49531419974E+01 -0.32558745301E+01  0.86145960818E+01  0.51100000000E-03 0.  1.
         12    1    3    3    0    0 -0.51823451814E+01 -0.21889167447E-01 -0.16460968436E+01  0.54375376352E+01  0.00000000000E+00 0. -1.
</event>
<event>
 7    1  0.3980989E-008  0.4614232E+02  0.7816164E-02  0.1320468E+00
        -11   -1    0    0    0    0  0.00000000000E+00  0.00000000000E+00  0.45593999997E+02  0.45594000000E+02  0.51100000000E-03 0.  1.
         11   -1    0    0    0    0 -0.00000000000E+00 -0.00000000000E+00 -0.45593999997E+02  0.45594000000E+02  0.51100000000E-03 0. -1.
    9900012    2    1    2    0    0 -0.25407319481E+02  0.47052727688E+01 -0.36897723559E+02  0.46142317867E+02  0.10000000962E+02 0.  0.
        -12    1    1    2    0    0  0.25407319481E+02 -0.47052727688E+01  0.36897723559E+02  0.45045682133E+02  0.00000000000E+00 0.  1.
         11    1    3    3    0    0 -0.93195883881E+01  0.17019604978E+01 -0.13443661895E+02  0.16446380838E+02  0.51100000000E-03 0. -1.
        -11    1    3    3    0    0 -0.12709428601E+02  0.38605604020E+01 -0.12646706836E+02  0.18340466081E+02  0.51100000000E-03 0.  1.
        -12    1    3    3    0    0 -0.33783024913E+01 -0.85724813097E+00 -0.10807354827E+02  0.11355470947E+02  0.00000000000E+00 0.  1.
</event>
<event>
 7    1  0.3980989E-008  0.4614232E+02  0.7816164E-02  0.1320468E+00
        -11   -1    0    0    0    0  0.00000000000E+00  0.00000000000E+00  0.45593999997E+02  0.45594000000E+02  0.51100000000E-03 0.  1.
         11   -1    0    0    0    0 -0.00000000000E+00 -0.00000000000E+00 -0.45593999997E+02  0.45594000000E+02  0.51100000000E-03 0. -1.
    9900012    2    1    2    0    0 -0.50382213537E+01 -0.38963210262E+02 -0.22036288276E+02  0.46142318417E+02  0.10000005979E+02 0.  0.
        -12    1    1    2    0    0  0.50382213537E+01  0.38963210262E+02  0.22036288276E+02  0.45045681583E+02  0.00000000000E+00 0.  1.
         11    1    3    3    0    0 -0.28460768673E+01 -0.72642285532E+01 -0.61613373569E+01  0.99413906619E+01  0.51100000000E-03 0. -1.
        -11    1    3    3    0    0 -0.46413323724E+01 -0.21143848304E+02 -0.96093497527E+01  0.23684254057E+02  0.51100000000E-03 0.  1.
        -12    1    3    3    0    0  0.24491878859E+01 -0.10555133404E+02 -0.62656011666E+01  0.12516673698E+02  0.00000000000E+00 0.  1.
</event>
<event>
 7    1  0.3980989E-008  0.4614232E+02  0.7816164E-02  0.1320468E+00
        -11   -1    0    0    0    0  0.00000000000E+00  0.00000000000E+00  0.45593999997E+02  0.45594000000E+02  0.51100000000E-03 0.  1.
         11   -1    0    0    0    0 -0.00000000000E+00 -0.00000000000E+00 -0.45593999997E+02  0.45594000000E+02  0.51100000000E-03 0. -1.
    9900012    2    1    2    0    0  0.80920301191E+00  0.41892228247E+02 -0.16537832275E+02  0.46142317705E+02  0.99999994896E+01 0.  0.
        -12    1    1    2    0    0 -0.80920301191E+00 -0.41892228247E+02  0.16537832275E+02  0.45045682295E+02  0.00000000000E+00 0.  1.
         11    1    3    3    0    0 -0.52513575972E+00  0.38467054339E+02 -0.13185274581E+02  0.40667450167E+02  0.51100000000E-03 0. -1.
        -11    1    3    3    0    0 -0.28342995161E+00 -0.13206703940E+00  0.19486838454E-01  0.31329576818E+00  0.51100000000E-03 0.  1.
        -12    1    3    3    0    0  0.16177687232E+01  0.35572409483E+01 -0.33720445327E+01  0.51615717700E+01  0.00000000000E+00 0.  1.
</event>
<event>
 7    1  0.3980989E-008  0.4614232E+02  0.7816164E-02  0.1320468E+00
        -11   -1    0    0    0    0  0.00000000000E+00  0.00000000000E+00  0.45593999997E+02  0.45594000000E+02  0.51100000000E-03 0. -1.
         11   -1    0    0    0    0 -0.00000000000E+00 -0.00000000000E+00 -0.45593999997E+02  0.45594000000E+02  0.51100000000E-03 0.  1.
    9900012    2    1    2    0    0 -0.37590116666E+02 -0.21862287589E+02  0.11753172706E+02  0.46142316986E+02  0.99999929294E+01 0.  0.
        -12    1    1    2    0    0  0.37590116666E+02  0.21862287589E+02 -0.11753172706E+02  0.45045683014E+02  0.00000000000E+00 0.  1.
         11    1    3    3    0    0 -0.86179889481E+01 -0.57762789983E+01  0.22116877610E+01  0.10607860085E+02  0.51100000000E-03 0. -1.
        -11    1    3    3    0    0 -0.28253808926E+01 -0.45393970059E+01  0.32835984001E+01  0.62746251744E+01  0.51100000000E-03 0.  1.
         12    1    3    3    0    0 -0.26146746825E+02 -0.11546611584E+02  0.62578865448E+01  0.29259831726E+02  0.00000000000E+00 0. -1.
</event>
<event>
 7    1  0.3980989E-008  0.4614232E+02  0.7816164E-02  0.1320468E+00
        -11   -1    0    0    0    0  0.00000000000E+00  0.00000000000E+00  0.45593999997E+02  0.45594000000E+02  0.51100000000E-03 0.  1.
         11   -1    0    0    0    0 -0.00000000000E+00 -0.00000000000E+00 -0.45593999997E+02  0.45594000000E+02  0.51100000000E-03 0. -1.
    9900012    2    1    2    0    0 -0.14268555781E+02  0.32638614479E+01 -0.42601281189E+02  0.46142316138E+02  0.99999852008E+01 0.  0.
        -12    1    1    2    0    0  0.14268555781E+02 -0.32638614479E+01  0.42601281189E+02  0.45045683862E+02  0.00000000000E+00 0.  1.
         11    1    3    3    0    0 -0.57869621910E+01  0.10063527288E+01 -0.16317208917E+02  0.17342231238E+02  0.51100000000E-03 0. -1.
        -11    1    3    3    0    0 -0.83879612797E+01 -0.95113427335E+00 -0.17079126604E+02  0.19051485943E+02  0.51100000000E-03 0.  1.
         12    1    3    3    0    0 -0.93632309942E-01  0.32086429924E+01 -0.92049456684E+01  0.97485989568E+01  0.00000000000E+00 0. -1.
</event>
<event>
 7    1  0.3980989E-008  0.4614232E+02  0.7816164E-02  0.1320468E+00
        -11   -1    0    0    0    0  0.00000000000E+00  0.00000000000E+00  0.45593999997E+02  0.45594000000E+02  0.51100000000E-03 0.  1.
         11   -1    0    0    0    0 -0.00000000000E+00 -0.00000000000E+00 -0.45593999997E+02  0.45594000000E+02  0.51100000000E-03 0. -1.
    9900012    2    1    2    0    0  0.22383888559E+02  0.22397679967E+02 -0.32037773320E+02  0.46142318140E+02  0.10000003456E+02 0.  0.
        -12    1    1    2    0    0 -0.22383888559E+02 -0.22397679967E+02  0.32037773320E+02  0.45045681860E+02  0.00000000000E+00 0.  1.
         11    1    3    3    0    0  0.71259171150E+01  0.90334227361E+01 -0.15598991726E+02  0.19383239260E+02  0.51100000000E-03 0. -1.
        -11    1    3    3    0    0  0.11230344262E+02  0.12386195817E+02 -0.14706306079E+02  0.22266879391E+02  0.51100000000E-03 0.  1.
        -12    1    3    3    0    0  0.40276271816E+01  0.97806141405E+00 -0.17324755143E+01  0.44921994893E+01  0.00000000000E+00 0.  1.
</event>
<event>
 7    1  0.3980989E-008  0.4614232E+02  0.7816164E-02  0.1320468E+00
        -11   -1    0    0    0    0  0.00000000000E+00  0.00000000000E+00  0.45593999997E+02  0.45594000000E+02  0.51100000000E-03 0.  1.
         11   -1    0    0    0    0 -0.00000000000E+00 -0.00000000000E+00 -0.45593999997E+02  0.45594000000E+02  0.51100000000E-03 0. -1.
    9900012    2    1    2    0    0  0.13751685416E+02  0.15076897694E+02 -0.40158330139E+02  0.46142321235E+02  0.10000031679E+02 0.  0.
        -12    1    1    2    0    0 -0.13751685416E+02 -0.15076897694E+02  0.40158330139E+02  0.45045678765E+02  0.00000000000E+00 0.  1.
         11    1    3    3    0    0  0.85536909609E+01  0.72029557342E+01 -0.18128239748E+02  0.21299795233E+02  0.51100000000E-03 0. -1.
        -11    1    3    3    0    0  0.58711143129E+01  0.54249453165E+01 -0.11466258279E+02  0.13977664116E+02  0.51100000000E-03 0.  1.
        -12    1    3    3    0    0 -0.67311985822E+00  0.24489966431E+01 -0.10563832112E+02  0.10864861885E+02  0.00000000000E+00 0.  1.
</event>
<event>
 7    1  0.3980989E-008  0.4614232E+02  0.7816164E-02  0.1320468E+00
        -11   -1    0    0    0    0  0.00000000000E+00  0.00000000000E+00  0.45593999997E+02  0.45594000000E+02  0.51100000000E-03 0. -1.
         11   -1    0    0    0    0 -0.00000000000E+00 -0.00000000000E+00 -0.45593999997E+02  0.45594000000E+02  0.51100000000E-03 0.  1.
    9900012    2    1    2    0    0  0.85889917839E+01  0.41915904027E+02 -0.14085441939E+02  0.46142318021E+02  0.10000002373E+02 0.  0.
        -12    1    1    2    0    0 -0.85889917839E+01 -0.41915904027E+02  0.14085441939E+02  0.45045681979E+02  0.00000000000E+00 0.  1.
         11    1    3    3    0    0  0.71418063203E+00  0.22197207385E+02 -0.74516366545E+01  0.23425476703E+02  0.51100000000E-03 0. -1.
        -11    1    3    3    0    0  0.62004548106E+01  0.12593627609E+02 -0.23394726552E+01  0.14230889950E+02  0.51100000000E-03 0.  1.
        -12    1    3    3    0    0  0.16743563412E+01  0.71250690339E+01 -0.42943326295E+01  0.84859513685E+01  0.00000000000E+00 0.  1.
</event>
<event>
 7    1  0.3980989E-008  0.4614231E+02  0.7816164E-02  0.1320468E+00
        -11   -1    0    0    0    0  0.00000000000E+00  0.00000000000E+00  0.45593999997E+02  0.45594000000E+02  0.51100000000E-03 0.  1.
         11   -1    0    0    0    0 -0.00000000000E+00 -0.00000000000E+00 -0.45593999997E+02  0.45594000000E+02  0.51100000000E-03 0. -1.
    9900012    2    1    2    0    0  0.15566526522E+01 -0.11128251604E+02 -0.43621704831E+02  0.46142308934E+02  0.99999195082E+01 0.  0.
        -12    1    1    2    0    0 -0.15566526522E+01  0.11128251604E+02  0.43621704831E+02  0.45045691066E+02  0.00000000000E+00 0.  1.
         11    1    3    3    0    0  0.65666551193E+00 -0.76548388954E+01 -0.12918958629E+02  0.15030876902E+02  0.51100000000E-03 0.  1.
        -11    1    3    3    0    0  0.34414362951E+00 -0.31239924600E+00 -0.33107046432E+00  0.57064528395E+00  0.51100000000E-03 0. -1.
        -12    1    3    3    0    0  0.55584351073E+00 -0.31610134627E+01 -0.30371675737E+02  0.30540786748E+02  0.00000000000E+00 0.  1.
</event>
<event>
 7    1  0.3980989E-008  0.4614232E+02  0.7816164E-02  0.1320468E+00
        -11   -1    0    0    0    0  0.00000000000E+00  0.00000000000E+00  0.45593999997E+02  0.45594000000E+02  0.51100000000E-03 0. -1.
         11   -1    0    0    0    0 -0.00000000000E+00 -0.00000000000E+00 -0.45593999997E+02  0.45594000000E+02  0.51100000000E-03 0.  1.
    9900012    2    1    2    0    0  0.11389158891E+02 -0.47714840484E+01  0.43320128103E+02  0.46142317641E+02  0.99999989081E+01 0.  0.
        -12    1    1    2    0    0 -0.11389158891E+02  0.47714840484E+01 -0.43320128103E+02  0.45045682359E+02  0.00000000000E+00 0.  1.
         11    1    3    3    0    0  0.70016861198E+01 -0.14797222544E+01  0.24648520181E+02  0.25666373601E+02  0.51100000000E-03 0. -1.
        -11    1    3    3    0    0  0.36769769967E+01 -0.26042747417E+01  0.48538395087E+01  0.66228517273E+01  0.51100000000E-03 0.  1.
        -12    1    3    3    0    0  0.71049577464E+00 -0.68748705226E+00  0.13817768414E+02  0.13853092313E+02  0.00000000000E+00 0.  1.
</event>
<event>
 7    1  0.3980989E-008  0.4614232E+02  0.7816164E-02  0.1320468E+00
        -11   -1    0    0    0    0  0.00000000000E+00  0.00000000000E+00  0.45593999997E+02  0.45594000000E+02  0.51100000000E-03 0.  1.
         11   -1    0    0    0    0 -0.00000000000E+00 -0.00000000000E+00 -0.45593999997E+02  0.45594000000E+02  0.51100000000E-03 0. -1.
    9900012    2    1    2    0    0  0.34438491901E+02  0.28774267809E+02 -0.38917027247E+01  0.46142316939E+02  0.99999925008E+01 0.  0.
        -12    1    1    2    0    0 -0.34438491901E+02 -0.28774267809E+02  0.38917027247E+01  0.45045683061E+02  0.00000000000E+00 0.  1.
         11    1    3    3    0    0  0.13031736891E+02  0.13526937146E+02 -0.80658434690E+00  0.18800392908E+02  0.51100000000E-03 0. -1.
        -11    1    3    3    0    0  0.17081418983E+02  0.14766548458E+02 -0.39018489260E+01  0.22913975061E+02  0.51100000000E-03 0.  1.
        -12    1    3    3    0    0  0.43253360278E+01  0.48078220513E+00  0.81673054827E+00  0.44279489689E+01  0.00000000000E+00 0.  1.
</event>
<event>
 7    1  0.3980989E-008  0.4614231E+02  0.7816164E-02  0.1320468E+00
        -11   -1    0    0    0    0  0.00000000000E+00  0.00000000000E+00  0.45593999997E+02  0.45594000000E+02  0.51100000000E-03 0.  1.
         11   -1    0    0    0    0 -0.00000000000E+00 -0.00000000000E+00 -0.45593999997E+02  0.45594000000E+02  0.51100000000E-03 0. -1.
    9900012    2    1    2    0    0  0.64579597393E+01 -0.39656369109E+02 -0.20366178238E+02  0.46142311295E+02  0.99999410354E+01 0.  0.
        -12    1    1    2    0    0 -0.64579597393E+01  0.39656369109E+02  0.20366178238E+02  0.45045688705E+02  0.00000000000E+00 0.  1.
         11    1    3    3    0    0  0.85219091130E+00 -0.25418712391E+02 -0.10377925327E+02  0.27468864252E+02  0.51100000000E-03 0. -1.
        -11    1    3    3    0    0  0.47693829532E+01 -0.13917408348E+02 -0.86601870244E+01  0.17071617042E+02  0.51100000000E-03 0.  1.
        -12    1    3    3    0    0  0.83638587480E+00 -0.32024836987E+00 -0.13280658866E+01  0.16018300001E+01  0.00000000000E+00 0.  1.
</event>
<event>
 7    1  0.3980989E-008  0.4614232E+02  0.7816164E-02  0.1320468E+00
        -11   -1    0    0    0    0  0.00000000000E+00  0.00000000000E+00  0.45593999997E+02  0.45594000000E+02  0.51100000000E-03 0. -1.
         11   -1    0    0    0    0 -0.00000000000E+00 -0.00000000000E+00 -0.45593999997E+02  0.45594000000E+02  0.51100000000E-03 0.  1.
    9900012    2    1    2    0    0  0.28802318336E+02 -0.84817635485E+01  0.33579749284E+02  0.46142318560E+02  0.10000007289E+02 0.  0.
        -12    1    1    2    0    0 -0.28802318336E+02  0.84817635485E+01 -0.33579749284E+02  0.45045681440E+02  0.00000000000E+00 0.  1.
         11    1    3    3    0    0  0.20840607435E+02 -0.68730804913E+01  0.27007191991E+02  0.34798830055E+02  0.51100000000E-03 0. -1.
        -11    1    3    3    0    0  0.42296031425E+01  0.13199992337E+01  0.38745386543E+01  0.58859146073E+01  0.51100000000E-03 0.  1.
        -12    1    3    3    0    0  0.37321077579E+01 -0.29286822909E+01  0.26980186380E+01  0.54575738977E+01  0.00000000000E+00 0.  1.
</event>
<event>
 7    1  0.3980989E-008  0.4614232E+02  0.7816164E-02  0.1320468E+00
        -11   -1    0    0    0    0  0.00000000000E+00  0.00000000000E+00  0.45593999997E+02  0.45594000000E+02  0.51100000000E-03 0. -1.
         11   -1    0    0    0    0 -0.00000000000E+00 -0.00000000000E+00 -0.45593999997E+02  0.45594000000E+02  0.51100000000E-03 0.  1.
    9900012    2    1    2    0    0 -0.30029906937E+02 -0.19210414713E+02  0.27536843115E+02  0.46142322373E+02  0.10000042056E+02 0.  0.
        -12    1    1    2    0    0  0.30029906937E+02  0.19210414713E+02 -0.27536843115E+02  0.45045677627E+02  0.00000000000E+00 0.  1.
         11    1    3    3    0    0 -0.16153345202E+01 -0.89011023225E+00  0.12370256896E+01  0.22207734363E+01  0.51100000000E-03 0. -1.
        -11    1    3    3    0    0 -0.27057521527E+02 -0.18810654029E+02  0.22623362176E+02  0.39972073909E+02  0.51100000000E-03 0.  1.
        -12    1    3    3    0    0 -0.13570508904E+01  0.49034954763E+00  0.36764552490E+01  0.39494750279E+01  0.00000000000E+00 0.  1.
</event>
<event>
 7    1  0.3980989E-008  0.4614232E+02  0.7816164E-02  0.1320468E+00
        -11   -1    0    0    0    0  0.00000000000E+00  0.00000000000E+00  0.45593999997E+02  0.45594000000E+02  0.51100000000E-03 0.  1.
         11   -1    0    0    0    0 -0.00000000000E+00 -0.00000000000E+00 -0.45593999997E+02  0.45594000000E+02  0.51100000000E-03 0. -1.
    9900012    2    1    2    0    0  0.19627219743E+02 -0.19385730672E+02 -0.35610099136E+02  0.46142317976E+02  0.10000001963E+02 0.  0.
        -12    1    1    2    0    0 -0.19627219743E+02  0.19385730672E+02  0.35610099136E+02  0.45045682024E+02  0.00000000000E+00 0.  1.
         11    1    3    3    0    0  0.23654591862E+01 -0.44027750245E+00 -0.30033240298E+01  0.38482719407E+01  0.51100000000E-03 0.  1.
        -11    1    3    3    0    0  0.16090691929E+02 -0.12747648431E+02 -0.26431074284E+02  0.33466619120E+02  0.51100000000E-03 0. -1.
        -12    1    3    3    0    0  0.11710686274E+01 -0.61978047378E+01 -0.61757008225E+01  0.88274269154E+01  0.00000000000E+00 0.  1.
</event>
<event>
 7    1  0.3980989E-008  0.4614232E+02  0.7816164E-02  0.1320468E+00
        -11   -1    0    0    0    0  0.00000000000E+00  0.00000000000E+00  0.45593999997E+02  0.45594000000E+02  0.51100000000E-03 0.  1.
         11   -1    0    0    0    0 -0.00000000000E+00 -0.00000000000E+00 -0.45593999997E+02  0.45594000000E+02  0.51100000000E-03 0. -1.
    9900012    2    1    2    0    0  0.15301245036E+02  0.20887466689E+01 -0.42315742750E+02  0.46142322663E+02  0.10000044698E+02 0.  0.
        -12    1    1    2    0    0 -0.15301245036E+02 -0.20887466689E+01  0.42315742750E+02  0.45045677337E+02  0.00000000000E+00 0.  1.
         11    1    3    3    0    0  0.36708982721E+01  0.14119060596E+01 -0.64959377782E+01  0.75938251708E+01  0.51100000000E-03 0. -1.
        -11    1    3    3    0    0 -0.35121273019E+00 -0.93617779674E+00 -0.32514895180E+00  0.10514282434E+01  0.51100000000E-03 0.  1.
         12    1    3    3    0    0  0.11981559494E+02  0.16130184060E+01 -0.35494656020E+02  0.37497069249E+02  0.00000000000E+00 0. -1.
</event>
<event>
 7    1  0.3980989E-008  0.4614232E+02  0.7816164E-02  0.1320468E+00
        -11   -1    0    0    0    0  0.00000000000E+00  0.00000000000E+00  0.45593999997E+02  0.45594000000E+02  0.51100000000E-03 0.  1.
         11   -1    0    0    0    0 -0.00000000000E+00 -0.00000000000E+00 -0.45593999997E+02  0.45594000000E+02  0.51100000000E-03 0. -1.
    9900012    2    1    2    0    0 -0.20722804006E+02 -0.14554407145E+02 -0.37253833729E+02  0.46142317624E+02  0.99999987517E+01 0.  0.
        -12    1    1    2    0    0  0.20722804006E+02  0.14554407145E+02  0.37253833729E+02  0.45045682376E+02  0.00000000000E+00 0.  1.
         11    1    3    3    0    0 -0.64637989600E+01 -0.78675522606E+01 -0.17126006055E+02  0.19924335854E+02  0.51100000000E-03 0. -1.
        -11    1    3    3    0    0 -0.22507293716E+01 -0.38525042715E+01 -0.54213603695E+01  0.70213047493E+01  0.51100000000E-03 0.  1.
        -12    1    3    3    0    0 -0.12008275675E+02 -0.28343506127E+01 -0.14706467304E+02  0.19196677021E+02  0.00000000000E+00 0.  1.
</event>
<event>
 7    1  0.3980989E-008  0.4614232E+02  0.7816164E-02  0.1320468E+00
        -11   -1    0    0    0    0  0.00000000000E+00  0.00000000000E+00  0.45593999997E+02  0.45594000000E+02  0.51100000000E-03 0. -1.
         11   -1    0    0    0    0 -0.00000000000E+00 -0.00000000000E+00 -0.45593999997E+02  0.45594000000E+02  0.51100000000E-03 0.  1.
    9900012    2    1    2    0    0 -0.30711057452E+02 -0.32581607880E+02 -0.49379505421E+01  0.46142316772E+02  0.99999909845E+01 0.  0.
        -12    1    1    2    0    0  0.30711057452E+02  0.32581607880E+02  0.49379505421E+01  0.45045683228E+02  0.00000000000E+00 0.  1.
         11    1    3    3    0    0 -0.17459929130E+02 -0.22149349566E+02 -0.30238067722E+01  0.28365229051E+02  0.51100000000E-03 0. -1.
        -11    1    3    3    0    0 -0.15095044367E+00 -0.11705292350E+00 -0.10645816375E+01  0.10815829822E+01  0.51100000000E-03 0.  1.
        -12    1    3    3    0    0 -0.13100177879E+02 -0.10315205390E+02 -0.84956213237E+00  0.16695504740E+02  0.00000000000E+00 0.  1.
</event>
<event>
 7    1  0.3980989E-008  0.4614232E+02  0.7816164E-02  0.1320468E+00
        -11   -1    0    0    0    0  0.00000000000E+00  0.00000000000E+00  0.45593999997E+02  0.45594000000E+02  0.51100000000E-03 0.  1.
         11   -1    0    0    0    0 -0.00000000000E+00 -0.00000000000E+00 -0.45593999997E+02  0.45594000000E+02  0.51100000000E-03 0. -1.
    9900012    2    1    2    0    0  0.28741971674E+02 -0.69303296380E+01 -0.33985041033E+02  0.46142318535E+02  0.10000007058E+02 0.  0.
        -12    1    1    2    0    0 -0.28741971674E+02  0.69303296380E+01  0.33985041033E+02  0.45045681465E+02  0.00000000000E+00 0.  1.
         11    1    3    3    0    0  0.15779153270E+02 -0.33171815363E+01 -0.16621793501E+02  0.23157491028E+02  0.51100000000E-03 0. -1.
        -11    1    3    3    0    0  0.90494691600E+01 -0.41273297187E+00 -0.69792401544E+01  0.11435603787E+02  0.51100000000E-03 0.  1.
        -12    1    3    3    0    0  0.39133492441E+01 -0.32004151298E+01 -0.10384007378E+02  0.11549223720E+02  0.00000000000E+00 0.  1.
</event>
<event>
 7    1  0.3980989E-008  0.4614232E+02  0.7816164E-02  0.1320468E+00
        -11   -1    0    0    0    0  0.00000000000E+00  0.00000000000E+00  0.45593999997E+02  0.45594000000E+02  0.51100000000E-03 0.  1.
         11   -1    0    0    0    0 -0.00000000000E+00 -0.00000000000E+00 -0.45593999997E+02  0.45594000000E+02  0.51100000000E-03 0. -1.
    9900012    2    1    2    0    0 -0.38162783177E+02  0.23122980097E+02  0.61679282488E+01  0.46142316885E+02  0.99999920116E+01 0.  0.
        -12    1    1    2    0    0  0.38162783177E+02 -0.23122980097E+02 -0.61679282488E+01  0.45045683115E+02  0.00000000000E+00 0.  1.
         11    1    3    3    0    0 -0.20234398831E+02  0.15351248298E+02  0.75347199508E+00  0.25409829607E+02  0.51100000000E-03 0. -1.
        -11    1    3    3    0    0 -0.45737745329E+01  0.33931563285E+01  0.31159043937E+01  0.64916703397E+01  0.51100000000E-03 0.  1.
         12    1    3    3    0    0 -0.13354609813E+02  0.43785754713E+01  0.22985518600E+01  0.14240816938E+02  0.00000000000E+00 0. -1.
</event>
<event>
 7    1  0.3980989E-008  0.4614232E+02  0.7816164E-02  0.1320468E+00
        -11   -1    0    0    0    0  0.00000000000E+00  0.00000000000E+00  0.45593999997E+02  0.45594000000E+02  0.51100000000E-03 0. -1.
         11   -1    0    0    0    0 -0.00000000000E+00 -0.00000000000E+00 -0.45593999997E+02  0.45594000000E+02  0.51100000000E-03 0.  1.
    9900012    2    1    2    0    0 -0.42756871880E+02  0.11120165700E+02 -0.87923392004E+01  0.46142318667E+02  0.10000008256E+02 0.  0.
        -12    1    1    2    0    0  0.42756871880E+02 -0.11120165700E+02  0.87923392004E+01  0.45045681333E+02  0.00000000000E+00 0.  1.
         11    1    3    3    0    0 -0.24411450571E+02  0.29323516475E+01 -0.75978976967E+01  0.25734134040E+02  0.51100000000E-03 0. -1.
        -11    1    3    3    0    0 -0.74501862181E+01  0.51680695123E+01 -0.51632926436E+00  0.90818948099E+01  0.51100000000E-03 0.  1.
         12    1    3    3    0    0 -0.10895235092E+02  0.30197445407E+01 -0.67811223936E+00  0.11326289816E+02  0.00000000000E+00 0. -1.
</event>
<event>
 7    1  0.3980989E-008  0.4614232E+02  0.7816164E-02  0.1320468E+00
        -11   -1    0    0    0    0  0.00000000000E+00  0.00000000000E+00  0.45593999997E+02  0.45594000000E+02  0.51100000000E-03 0.  1.
         11   -1    0    0    0    0 -0.00000000000E+00 -0.00000000000E+00 -0.45593999997E+02  0.45594000000E+02  0.51100000000E-03 0. -1.
    9900012    2    1    2    0    0 -0.23733027162E+02 -0.13399866521E+02 -0.35865031817E+02  0.46142317541E+02  0.99999979891E+01 0.  0.
        -12    1    1    2    0    0  0.23733027162E+02  0.13399866521E+02  0.35865031817E+02  0.45045682459E+02  0.00000000000E+00 0.  1.
         11    1    3    3    0    0 -0.17540976455E+02 -0.12463654506E+02 -0.28592626668E+02  0.35785008574E+02  0.51100000000E-03 0. -1.
        -11    1    3    3    0    0 -0.39609047263E+01 -0.13471716506E+01 -0.68839969475E+01  0.80556223807E+01  0.51100000000E-03 0.  1.
         12    1    3    3    0    0 -0.22311459805E+01  0.41095963566E+00 -0.38840820154E+00  0.23016865858E+01  0.00000000000E+00 0. -1.
</event>
<event>
 7    1  0.3980989E-008  0.4614232E+02  0.7816164E-02  0.1320468E+00
        -11   -1    0    0    0    0  0.00000000000E+00  0.00000000000E+00  0.45593999997E+02  0.45594000000E+02  0.51100000000E-03 0.  1.
         11   -1    0    0    0    0 -0.00000000000E+00 -0.00000000000E+00 -0.45593999997E+02  0.45594000000E+02  0.51100000000E-03 0. -1.
    9900012    2    1    2    0    0 -0.13489734013E+02  0.27244659661E+02 -0.33239571244E+02  0.46142317629E+02  0.99999987990E+01 0.  0.
        -12    1    1    2    0    0  0.13489734013E+02 -0.27244659661E+02  0.33239571244E+02  0.45045682371E+02  0.00000000000E+00 0.  1.
         11    1    3    3    0    0 -0.32583467189E+01  0.15502905605E+01 -0.36844068345E+01  0.51570416079E+01  0.51100000000E-03 0.  1.
        -11    1    3    3    0    0 -0.21596526528E+00  0.35469042261E+01 -0.68825260720E+01  0.77457301772E+01  0.51100000000E-03 0. -1.
         12    1    3    3    0    0 -0.10015422029E+02  0.22147464874E+02 -0.22672638337E+02  0.33239545844E+02  0.00000000000E+00 0. -1.
</event>
<event>
 7    1  0.3980989E-008  0.4614232E+02  0.7816164E-02  0.1320468E+00
        -11   -1    0    0    0    0  0.00000000000E+00  0.00000000000E+00  0.45593999997E+02  0.45594000000E+02  0.51100000000E-03 0.  1.
         11   -1    0    0    0    0 -0.00000000000E+00 -0.00000000000E+00 -0.45593999997E+02  0.45594000000E+02  0.51100000000E-03 0. -1.
    9900012    2    1    2    0    0 -0.51020865785E+01 -0.29024739583E+02 -0.34068265096E+02  0.46142317832E+02  0.10000000649E+02 0.  0.
        -12    1    1    2    0    0  0.51020865785E+01  0.29024739583E+02  0.34068265096E+02  0.45045682168E+02  0.00000000000E+00 0.  1.
         11    1    3    3    0    0  0.26065858112E-01 -0.16188161417E+02 -0.19335201151E+02  0.25217201536E+02  0.51100000000E-03 0. -1.
        -11    1    3    3    0    0 -0.68895876575E+00  0.33132352774E+00 -0.14546499728E+00  0.77820292180E+00  0.51100000000E-03 0.  1.
        -12    1    3    3    0    0 -0.44391936709E+01 -0.13167901694E+02 -0.14587598947E+02  0.20146913374E+02  0.00000000000E+00 0.  1.
</event>
<event>
 7    1  0.3980989E-008  0.4614232E+02  0.7816164E-02  0.1320468E+00
        -11   -1    0    0    0    0  0.00000000000E+00  0.00000000000E+00  0.45593999997E+02  0.45594000000E+02  0.51100000000E-03 0.  1.
         11   -1    0    0    0    0 -0.00000000000E+00 -0.00000000000E+00 -0.45593999997E+02  0.45594000000E+02  0.51100000000E-03 0. -1.
    9900012    2    1    2    0    0  0.40492253648E+02  0.53733601414E+01 -0.18989942071E+02  0.46142317582E+02  0.99999983649E+01 0.  0.
        -12    1    1    2    0    0 -0.40492253648E+02 -0.53733601414E+01  0.18989942071E+02  0.45045682418E+02  0.00000000000E+00 0.  1.
         11    1    3    3    0    0  0.19260979881E+01 -0.54589014306E-01 -0.41478611475E+00  0.19710101984E+01  0.51100000000E-03 0. -1.
        -11    1    3    3    0    0  0.19494861831E+02  0.18396843726E+01 -0.42150284591E+01  0.20029991053E+02  0.51100000000E-03 0.  1.
         12    1    3    3    0    0  0.19071293828E+02  0.35882647830E+01 -0.14360127497E+02  0.24141316330E+02  0.00000000000E+00 0. -1.
</event>
<event>
 7    1  0.3980989E-008  0.4614232E+02  0.7816164E-02  0.1320468E+00
        -11   -1    0    0    0    0  0.00000000000E+00  0.00000000000E+00  0.45593999997E+02  0.45594000000E+02  0.51100000000E-03 0. -1.
         11   -1    0    0    0    0 -0.00000000000E+00 -0.00000000000E+00 -0.45593999997E+02  0.45594000000E+02  0.51100000000E-03 0.  1.
    9900012    2    1    2    0    0  0.27746512790E+02 -0.11758765787E+02  0.33480979418E+02  0.46142317325E+02  0.99999960236E+01 0.  0.
        -12    1    1    2    0    0 -0.27746512790E+02  0.11758765787E+02 -0.33480979418E+02  0.45045682675E+02  0.00000000000E+00 0.  1.
         11    1    3    3    0    0  0.63077762947E+01 -0.31007679411E+01  0.84437780555E+01  0.10986363899E+02  0.51100000000E-03 0. -1.
        -11    1    3    3    0    0  0.15982783656E+02 -0.23957842041E+01  0.14286510951E+02  0.21570664124E+02  0.51100000000E-03 0.  1.
        -12    1    3    3    0    0  0.54559528391E+01 -0.62622136420E+01  0.10750690412E+02  0.13585289302E+02  0.00000000000E+00 0.  1.
</event>
<event>
 7    1  0.3980989E-008  0.4614232E+02  0.7816164E-02  0.1320468E+00
        -11   -1    0    0    0    0  0.00000000000E+00  0.00000000000E+00  0.45593999997E+02  0.45594000000E+02  0.51100000000E-03 0.  1.
         11   -1    0    0    0    0 -0.00000000000E+00 -0.00000000000E+00 -0.45593999997E+02  0.45594000000E+02  0.51100000000E-03 0. -1.
    9900012    2    1    2    0    0  0.13077465733E+01 -0.43804598776E+02  0.10419231916E+02  0.46142317979E+02  0.10000001985E+02 0.  0.
        -12    1    1    2    0    0 -0.13077465733E+01  0.43804598776E+02 -0.10419231916E+02  0.45045682021E+02  0.00000000000E+00 0.  1.
         11    1    3    3    0    0 -0.79753267550E+00 -0.10827910797E+02  0.27139843797E+00  0.10860633866E+02  0.51100000000E-03 0. -1.
        -11    1    3    3    0    0 -0.61118150522E+00 -0.66116804869E+01  0.49259998907E+01  0.82676076877E+01  0.51100000000E-03 0.  1.
        -12    1    3    3    0    0  0.27164607540E+01 -0.26365007492E+02  0.52218335872E+01  0.27014076425E+02  0.00000000000E+00 0.  1.
</event>
<event>
 7    1  0.3980989E-008  0.4614232E+02  0.7816164E-02  0.1320468E+00
        -11   -1    0    0    0    0  0.00000000000E+00  0.00000000000E+00  0.45593999997E+02  0.45594000000E+02  0.51100000000E-03 0.  1.
         11   -1    0    0    0    0 -0.00000000000E+00 -0.00000000000E+00 -0.45593999997E+02  0.45594000000E+02  0.51100000000E-03 0. -1.
    9900012    2    1    2    0    0  0.90968775693E+00 -0.98261503482E+01 -0.43951479475E+02  0.46142319735E+02  0.10000018002E+02 0.  0.
        -12    1    1    2    0    0 -0.90968775693E+00  0.98261503482E+01  0.43951479475E+02  0.45045680265E+02  0.00000000000E+00 0.  1.
         11    1    3    3    0    0  0.10934979333E+01 -0.71250153363E+01 -0.23492498608E+02  0.24573544156E+02  0.51100000000E-03 0. -1.
        -11    1    3    3    0    0  0.19518440233E+01 -0.23745761475E+01 -0.44129862856E+01  0.53779880243E+01  0.51100000000E-03 0.  1.
        -12    1    3    3    0    0 -0.21356541996E+01 -0.32655886445E+00 -0.16045994581E+02  0.16190787555E+02  0.00000000000E+00 0.  1.
</event>
<event>
 7    1  0.3980989E-008  0.4614232E+02  0.7816164E-02  0.1320468E+00
        -11   -1    0    0    0    0  0.00000000000E+00  0.00000000000E+00  0.45593999997E+02  0.45594000000E+02  0.51100000000E-03 0.  1.
         11   -1    0    0    0    0 -0.00000000000E+00 -0.00000000000E+00 -0.45593999997E+02  0.45594000000E+02  0.51100000000E-03 0. -1.
    9900012    2    1    2    0    0  0.36538881910E+02  0.89643354608E+01 -0.24772247865E+02  0.46142318011E+02  0.10000002283E+02 0.  0.
        -12    1    1    2    0    0 -0.36538881910E+02 -0.89643354608E+01  0.24772247865E+02  0.45045681989E+02  0.00000000000E+00 0.  1.
         11    1    3    3    0    0  0.18494902108E+02  0.30941490600E+01 -0.10795874599E+02  0.21637607794E+02  0.51100000000E-03 0. -1.
        -11    1    3    3    0    0  0.14353338490E+02  0.24235009543E+01 -0.12646382432E+02  0.19282703949E+02  0.51100000000E-03 0.  1.
        -12    1    3    3    0    0  0.36906413117E+01  0.34466854465E+01 -0.13299908344E+01  0.52220062694E+01  0.00000000000E+00 0.  1.
</event>
<event>
 7    1  0.3980989E-008  0.4614232E+02  0.7816164E-02  0.1320468E+00
        -11   -1    0    0    0    0  0.00000000000E+00  0.00000000000E+00  0.45593999997E+02  0.45594000000E+02  0.51100000000E-03 0.  1.
         11   -1    0    0    0    0 -0.00000000000E+00 -0.00000000000E+00 -0.45593999997E+02  0.45594000000E+02  0.51100000000E-03 0. -1.
    9900012    2    1    2    0    0 -0.41928100804E+02  0.63228909168E+01 -0.15204242453E+02  0.46142316798E+02  0.99999912217E+01 0.  0.
        -12    1    1    2    0    0  0.41928100804E+02 -0.63228909168E+01  0.15204242453E+02  0.45045683202E+02  0.00000000000E+00 0.  1.
         11    1    3    3    0    0 -0.13887761072E+02  0.54943335704E+01 -0.53917374988E+01  0.15878552909E+02  0.51100000000E-03 0.  1.
        -11    1    3    3    0    0 -0.15121506590E+02 -0.21609524346E+01 -0.40316154927E+01  0.15798215112E+02  0.51100000000E-03 0. -1.
         12    1    3    3    0    0 -0.12918833142E+02  0.29895097810E+01 -0.57808894611E+01  0.14465548778E+02  0.00000000000E+00 0. -1.
</event>
<event>
 7    1  0.4209984E-008  0.4614233E+02  0.7816164E-02  0.1320468E+00
        -11   -1    0    0    0    0  0.00000000000E+00  0.00000000000E+00  0.45593999997E+02  0.45594000000E+02  0.51100000000E-03 0.  1.
         11   -1    0    0    0    0 -0.00000000000E+00 -0.00000000000E+00 -0.45593999997E+02  0.45594000000E+02  0.51100000000E-03 0. -1.
    9900012    2    1    2    0    0  0.22428068443E+02 -0.26507215028E+02 -0.28696025953E+02  0.46142327532E+02  0.10000089097E+02 0.  0.
        -12    1    1    2    0    0 -0.22428068443E+02  0.26507215028E+02  0.28696025953E+02  0.45045672468E+02  0.00000000000E+00 0.  1.
         11    1    3    3    0    0  0.46436662422E+01 -0.77928214520E+01 -0.52622707062E+01  0.10487287333E+02  0.51100000000E-03 0. -1.
        -11    1    3    3    0    0  0.23117364986E+00 -0.25058634729E+01 -0.55854569444E+00  0.25777444705E+01  0.51100000000E-03 0.  1.
         12    1    3    3    0    0  0.17553228551E+02 -0.16208530103E+02 -0.22875209552E+02  0.33077295729E+02  0.00000000000E+00 0. -1.
</event>
<event>
 7    1  0.3980989E-008  0.4614232E+02  0.7816164E-02  0.1320468E+00
        -11   -1    0    0    0    0  0.00000000000E+00  0.00000000000E+00  0.45593999997E+02  0.45594000000E+02  0.51100000000E-03 0.  1.
         11   -1    0    0    0    0 -0.00000000000E+00 -0.00000000000E+00 -0.45593999997E+02  0.45594000000E+02  0.51100000000E-03 0. -1.
    9900012    2    1    2    0    0  0.36798270793E+02  0.25744664630E+02 -0.34947158681E+01  0.46142317307E+02  0.99999958617E+01 0.  0.
        -12    1    1    2    0    0 -0.36798270793E+02 -0.25744664630E+02  0.34947158681E+01  0.45045682693E+02  0.00000000000E+00 0.  1.
         11    1    3    3    0    0  0.10230738601E+02  0.93306503556E+01 -0.26416554210E+01  0.14096360949E+02  0.51100000000E-03 0. -1.
        -11    1    3    3    0    0  0.23781887474E+02  0.15741773553E+02 -0.26832023609E+01  0.28645788200E+02  0.51100000000E-03 0.  1.
        -12    1    3    3    0    0  0.27856447173E+01  0.67224072177E+00  0.18301419139E+01  0.34001681582E+01  0.00000000000E+00 0.  1.
</event>
<event>
 7    1  0.3980989E-008  0.4614232E+02  0.7816164E-02  0.1320468E+00
        -11   -1    0    0    0    0  0.00000000000E+00  0.00000000000E+00  0.45593999997E+02  0.45594000000E+02  0.51100000000E-03 0.  1.
         11   -1    0    0    0    0 -0.00000000000E+00 -0.00000000000E+00 -0.45593999997E+02  0.45594000000E+02  0.51100000000E-03 0. -1.
    9900012    2    1    2    0    0 -0.39289452598E+01 -0.14407100336E+01 -0.44850876296E+02  0.46142319177E+02  0.10000012912E+02 0.  0.
        -12    1    1    2    0    0  0.39289452598E+01  0.14407100336E+01  0.44850876296E+02  0.45045680823E+02  0.00000000000E+00 0.  1.
         11    1    3    3    0    0  0.31369089137E+00  0.21138234208E+01 -0.11445928219E+02  0.11643707506E+02  0.51100000000E-03 0. -1.
        -11    1    3    3    0    0 -0.42472705056E+01 -0.71554420468E-01 -0.25623656779E+02  0.25973375094E+02  0.51100000000E-03 0.  1.
         12    1    3    3    0    0  0.46343544169E-02 -0.34829790340E+01 -0.77812912990E+01  0.85252365778E+01  0.00000000000E+00 0. -1.
</event>
<event>
 7    1  0.3980989E-008  0.4614232E+02  0.7816164E-02  0.1320468E+00
        -11   -1    0    0    0    0  0.00000000000E+00  0.00000000000E+00  0.45593999997E+02  0.45594000000E+02  0.51100000000E-03 0. -1.
         11   -1    0    0    0    0 -0.00000000000E+00 -0.00000000000E+00 -0.45593999997E+02  0.45594000000E+02  0.51100000000E-03 0.  1.
    9900012    2    1    2    0    0 -0.24746715393E+02 -0.13288105695E+02  0.35215617354E+02  0.46142318949E+02  0.10000010836E+02 0.  0.
        -12    1    1    2    0    0  0.24746715393E+02  0.13288105695E+02 -0.35215617354E+02  0.45045681051E+02  0.00000000000E+00 0.  1.
         11    1    3    3    0    0 -0.10085926668E+01 -0.14223007129E+01  0.17000529486E+01  0.24352369032E+01  0.51100000000E-03 0.  1.
        -11    1    3    3    0    0 -0.13409422050E+02 -0.11075554280E+02  0.24014254628E+02  0.29650715471E+02  0.51100000000E-03 0. -1.
         12    1    3    3    0    0 -0.10328700676E+02 -0.79025070178E+00  0.95013097777E+01  0.14056366576E+02  0.00000000000E+00 0. -1.
</event>
<event>
 7    1  0.3980989E-008  0.4614232E+02  0.7816164E-02  0.1320468E+00
        -11   -1    0    0    0    0  0.00000000000E+00  0.00000000000E+00  0.45593999997E+02  0.45594000000E+02  0.51100000000E-03 0.  1.
         11   -1    0    0    0    0 -0.00000000000E+00 -0.00000000000E+00 -0.45593999997E+02  0.45594000000E+02  0.51100000000E-03 0. -1.
    9900012    2    1    2    0    0 -0.14641495540E+02 -0.33738843544E+02 -0.26008277111E+02  0.46142318369E+02  0.10000005543E+02 0.  0.
        -12    1    1    2    0    0  0.14641495540E+02  0.33738843544E+02  0.26008277111E+02  0.45045681631E+02  0.00000000000E+00 0.  1.
         11    1    3    3    0    0 -0.69760254049E+01 -0.15534017502E+02 -0.13128596212E+02  0.21501875941E+02  0.51100000000E-03 0. -1.
        -11    1    3    3    0    0 -0.42711829080E+01 -0.14524157457E+02 -0.63619139163E+01  0.16421574292E+02  0.51100000000E-03 0.  1.
        -12    1    3    3    0    0 -0.33942872271E+01 -0.36806685847E+01 -0.65177669826E+01  0.82188681368E+01  0.00000000000E+00 0.  1.
</event>
<event>
 7    1  0.3980989E-008  0.4614232E+02  0.7816164E-02  0.1320468E+00
        -11   -1    0    0    0    0  0.00000000000E+00  0.00000000000E+00  0.45593999997E+02  0.45594000000E+02  0.51100000000E-03 0.  1.
         11   -1    0    0    0    0 -0.00000000000E+00 -0.00000000000E+00 -0.45593999997E+02  0.45594000000E+02  0.51100000000E-03 0. -1.
    9900012    2    1    2    0    0  0.41644797206E+02  0.16698387448E+02 -0.39985203543E+01  0.46142318268E+02  0.10000004619E+02 0.  0.
        -12    1    1    2    0    0 -0.41644797206E+02 -0.16698387448E+02  0.39985203543E+01  0.45045681732E+02  0.00000000000E+00 0.  1.
         11    1    3    3    0    0  0.10605566336E+01  0.15939075234E+01 -0.70992925702E-02  0.19145161863E+01  0.51100000000E-03 0. -1.
        -11    1    3    3    0    0 -0.38016529709E+00  0.26198417818E+00  0.76098982067E-01  0.46792379606E+00  0.51100000000E-03 0.  1.
         12    1    3    3    0    0  0.40964405870E+02  0.14842495747E+02 -0.40675200438E+01  0.43759878285E+02  0.00000000000E+00 0. -1.
</event>
<event>
 7    1  0.3980989E-008  0.4614232E+02  0.7816164E-02  0.1320468E+00
        -11   -1    0    0    0    0  0.00000000000E+00  0.00000000000E+00  0.45593999997E+02  0.45594000000E+02  0.51100000000E-03 0.  1.
         11   -1    0    0    0    0 -0.00000000000E+00 -0.00000000000E+00 -0.45593999997E+02  0.45594000000E+02  0.51100000000E-03 0. -1.
    9900012    2    1    2    0    0  0.14937265912E+02  0.23390637385E+02 -0.35480553334E+02  0.46142317686E+02  0.99999993180E+01 0.  0.
        -12    1    1    2    0    0 -0.14937265912E+02 -0.23390637385E+02  0.35480553334E+02  0.45045682314E+02  0.00000000000E+00 0.  1.
         11    1    3    3    0    0  0.58390285567E+01  0.32879333826E+01 -0.11208741196E+02  0.13059120946E+02  0.51100000000E-03 0.  1.
        -11    1    3    3    0    0  0.80891304032E+01  0.13253885622E+02 -0.15979562883E+02  0.22281066962E+02  0.51100000000E-03 0. -1.
         12    1    3    3    0    0  0.10091069522E+01  0.68488183808E+01 -0.82922492549E+01  0.10802129779E+02  0.00000000000E+00 0. -1.
</event>
<event>
 7    1  0.3980989E-008  0.4614232E+02  0.7816164E-02  0.1320468E+00
        -11   -1    0    0    0    0  0.00000000000E+00  0.00000000000E+00  0.45593999997E+02  0.45594000000E+02  0.51100000000E-03 0.  1.
         11   -1    0    0    0    0 -0.00000000000E+00 -0.00000000000E+00 -0.45593999997E+02  0.45594000000E+02  0.51100000000E-03 0. -1.
    9900012    2    1    2    0    0 -0.17418856708E+02  0.19774834669E+02 -0.36532900243E+02  0.46142318128E+02  0.10000003345E+02 0.  0.
        -12    1    1    2    0    0  0.17418856708E+02 -0.19774834669E+02  0.36532900243E+02  0.45045681872E+02  0.00000000000E+00 0.  1.
         11    1    3    3    0    0 -0.79792447944E+01  0.12483178288E+02 -0.20271325994E+02  0.25108260503E+02  0.51100000000E-03 0. -1.
        -11    1    3    3    0    0 -0.75021301606E+01  0.32646030798E+01 -0.13484789137E+02  0.15772733706E+02  0.51100000000E-03 0.  1.
        -12    1    3    3    0    0 -0.19374817526E+01  0.40270533004E+01 -0.27767851114E+01  0.52613239191E+01  0.00000000000E+00 0.  1.
</event>
<event>
 7    1  0.3980989E-008  0.4614232E+02  0.7816164E-02  0.1320468E+00
        -11   -1    0    0    0    0  0.00000000000E+00  0.00000000000E+00  0.45593999997E+02  0.45594000000E+02  0.51100000000E-03 0. -1.
         11   -1    0    0    0    0 -0.00000000000E+00 -0.00000000000E+00 -0.45593999997E+02  0.45594000000E+02  0.51100000000E-03 0.  1.
    9900012    2    1    2    0    0 -0.11621859163E+02  0.41440385504E+02  0.13294367427E+02  0.46142319115E+02  0.10000012345E+02 0.  0.
        -12    1    1    2    0    0  0.11621859163E+02 -0.41440385504E+02 -0.13294367427E+02  0.45045680885E+02  0.00000000000E+00 0.  1.
         11    1    3    3    0    0 -0.78399442404E+01  0.17675687728E+02  0.94295011754E+01  0.21513022917E+02  0.51100000000E-03 0. -1.
        -11    1    3    3    0    0 -0.39971009132E+00  0.41748523110E+01  0.20465515219E+01  0.46666404799E+01  0.51100000000E-03 0.  1.
        -12    1    3    3    0    0 -0.33822048314E+01  0.19589845465E+02  0.18183147297E+01  0.19962655718E+02  0.00000000000E+00 0.  1.
</event>
<event>
 7    1  0.3980989E-008  0.4614232E+02  0.7816164E-02  0.1320468E+00
        -11   -1    0    0    0    0  0.00000000000E+00  0.00000000000E+00  0.45593999997E+02  0.45594000000E+02  0.51100000000E-03 0.  1.
         11   -1    0    0    0    0 -0.00000000000E+00 -0.00000000000E+00 -0.45593999997E+02  0.45594000000E+02  0.51100000000E-03 0. -1.
    9900012    2    1    2    0    0  0.14772048440E+02  0.90129573360E+00 -0.42545125688E+02  0.46142317977E+02  0.10000001968E+02 0.  0.
        -12    1    1    2    0    0 -0.14772048440E+02 -0.90129573360E+00  0.42545125688E+02  0.45045682023E+02  0.00000000000E+00 0.  1.
         11    1    3    3    0    0  0.64734871198E+01  0.28061642780E+01 -0.15705276993E+02  0.17217326132E+02  0.51100000000E-03 0. -1.
        -11    1    3    3    0    0 -0.16048714826E+00 -0.22645231473E+01 -0.46455116983E+01  0.51705512675E+01  0.51100000000E-03 0.  1.
         12    1    3    3    0    0  0.84590484687E+01  0.35965460290E+00 -0.22194336996E+02  0.23754440577E+02  0.00000000000E+00 0. -1.
</event>
<event>
 7    1  0.3980989E-008  0.4614232E+02  0.7816164E-02  0.1320468E+00
        -11   -1    0    0    0    0  0.00000000000E+00  0.00000000000E+00  0.45593999997E+02  0.45594000000E+02  0.51100000000E-03 0.  1.
         11   -1    0    0    0    0 -0.00000000000E+00 -0.00000000000E+00 -0.45593999997E+02  0.45594000000E+02  0.51100000000E-03 0. -1.
    9900012    2    1    2    0    0  0.57980623284E+01  0.22333329280E+02 -0.38687444973E+02  0.46142317388E+02  0.99999965934E+01 0.  0.
        -12    1    1    2    0    0 -0.57980623284E+01 -0.22333329280E+02  0.38687444973E+02  0.45045682612E+02  0.00000000000E+00 0.  1.
         11    1    3    3    0    0  0.45716153599E+01  0.10637475649E+02 -0.18535685780E+02  0.21854683772E+02  0.51100000000E-03 0.  1.
        -11    1    3    3    0    0  0.22986493888E+01  0.11611381299E+02 -0.15442401980E+02  0.19457022996E+02  0.51100000000E-03 0. -1.
        -12    1    3    3    0    0 -0.10722024203E+01  0.84472332698E-01 -0.47093572125E+01  0.48306106197E+01  0.00000000000E+00 0.  1.
</event>
<event>
 7    1  0.3980989E-008  0.4614232E+02  0.7816164E-02  0.1320468E+00
        -11   -1    0    0    0    0  0.00000000000E+00  0.00000000000E+00  0.45593999997E+02  0.45594000000E+02  0.51100000000E-03 0.  1.
         11   -1    0    0    0    0 -0.00000000000E+00 -0.00000000000E+00 -0.45593999997E+02  0.45594000000E+02  0.51100000000E-03 0. -1.
    9900012    2    1    2    0    0 -0.31870975835E+02 -0.31004211112E+02 -0.72175649532E+01  0.46142318173E+02  0.10000003758E+02 0.  0.
        -12    1    1    2    0    0  0.31870975835E+02  0.31004211112E+02  0.72175649532E+01  0.45045681827E+02  0.00000000000E+00 0.  1.
         11    1    3    3    0    0 -0.27223098879E+01 -0.17468347623E+00  0.33963335222E+00  0.27489700831E+01  0.51100000000E-03 0. -1.
        -11    1    3    3    0    0 -0.22429863399E+01 -0.14925213924E+01 -0.16269508573E+01  0.31473126920E+01  0.51100000000E-03 0.  1.
         12    1    3    3    0    0 -0.26905679607E+02 -0.29337006244E+02 -0.59302474481E+01  0.40246035398E+02  0.00000000000E+00 0. -1.
</event>
<event>
 7    1  0.3980989E-008  0.4614232E+02  0.7816164E-02  0.1320468E+00
        -11   -1    0    0    0    0  0.00000000000E+00  0.00000000000E+00  0.45593999997E+02  0.45594000000E+02  0.51100000000E-03 0. -1.
         11   -1    0    0    0    0 -0.00000000000E+00 -0.00000000000E+00 -0.45593999997E+02  0.45594000000E+02  0.51100000000E-03 0.  1.
    9900012    2    1    2    0    0 -0.53339653256E+01 -0.44324979512E+02 -0.59965393898E+01  0.46142317860E+02  0.10000000899E+02 0.  0.
        -12    1    1    2    0    0  0.53339653256E+01  0.44324979512E+02  0.59965393898E+01  0.45045682140E+02  0.00000000000E+00 0.  1.
         11    1    3    3    0    0 -0.47480206434E+01 -0.22367043814E+02  0.16723291231E+00  0.22866051608E+02  0.51100000000E-03 0. -1.
        -11    1    3    3    0    0 -0.18941735204E+01 -0.18895217162E+02 -0.60987085921E+01  0.19945209241E+02  0.51100000000E-03 0.  1.
         12    1    3    3    0    0  0.13082288383E+01 -0.30627185359E+01 -0.65063709980E-01  0.33310570109E+01  0.00000000000E+00 0. -1.
</event>
<event>
 7    1  0.3980989E-008  0.4614232E+02  0.7816164E-02  0.1320468E+00
        -11   -1    0    0    0    0  0.00000000000E+00  0.00000000000E+00  0.45593999997E+02  0.45594000000E+02  0.51100000000E-03 0.  1.
         11   -1    0    0    0    0 -0.00000000000E+00 -0.00000000000E+00 -0.45593999997E+02  0.45594000000E+02  0.51100000000E-03 0. -1.
    9900012    2    1    2    0    0 -0.18830573426E+02 -0.40778120968E+02  0.34158260885E+01  0.46142317487E+02  0.99999974992E+01 0.  0.
        -12    1    1    2    0    0  0.18830573426E+02  0.40778120968E+02 -0.34158260885E+01  0.45045682513E+02  0.00000000000E+00 0.  1.
         11    1    3    3    0    0 -0.11276862989E+02 -0.26227389829E+02  0.37956270168E+00  0.28551491804E+02  0.51100000000E-03 0. -1.
        -11    1    3    3    0    0 -0.76842924057E+01 -0.14788940392E+02  0.23226232172E+01  0.16827230508E+02  0.51100000000E-03 0.  1.
         12    1    3    3    0    0  0.13058196887E+00  0.23820925375E+00  0.71364016969E+00  0.76359517479E+00  0.00000000000E+00 0. -1.
</event>
<event>
 7    1  0.3980989E-008  0.4614232E+02  0.7816164E-02  0.1320468E+00
        -11   -1    0    0    0    0  0.00000000000E+00  0.00000000000E+00  0.45593999997E+02  0.45594000000E+02  0.51100000000E-03 0.  1.
         11   -1    0    0    0    0 -0.00000000000E+00 -0.00000000000E+00 -0.45593999997E+02  0.45594000000E+02  0.51100000000E-03 0. -1.
    9900012    2    1    2    0    0 -0.88915038213E+01  0.39229268238E+02 -0.20276073342E+02  0.46142317888E+02  0.10000001160E+02 0.  0.
        -12    1    1    2    0    0  0.88915038213E+01 -0.39229268238E+02  0.20276073342E+02  0.45045682112E+02  0.00000000000E+00 0.  1.
         11    1    3    3    0    0 -0.18370134537E+01  0.58832510342E+01 -0.73769914857E+01  0.96128697485E+01  0.51100000000E-03 0.  1.
        -11    1    3    3    0    0 -0.58056772423E+00  0.33081943507E+01 -0.20912459963E+01  0.39565791819E+01  0.51100000000E-03 0. -1.
         12    1    3    3    0    0 -0.64739226434E+01  0.30037822853E+02 -0.10807835860E+02  0.32572868958E+02  0.00000000000E+00 0. -1.
</event>
<event>
 7    1  0.3980989E-008  0.4614232E+02  0.7816164E-02  0.1320468E+00
        -11   -1    0    0    0    0  0.00000000000E+00  0.00000000000E+00  0.45593999997E+02  0.45594000000E+02  0.51100000000E-03 0. -1.
         11   -1    0    0    0    0 -0.00000000000E+00 -0.00000000000E+00 -0.45593999997E+02  0.45594000000E+02  0.51100000000E-03 0.  1.
    9900012    2    1    2    0    0  0.12348743133E+02 -0.33991304141E+02  0.26855415036E+02  0.46142317289E+02  0.99999956907E+01 0.  0.
        -12    1    1    2    0    0 -0.12348743133E+02  0.33991304141E+02 -0.26855415036E+02  0.45045682711E+02  0.00000000000E+00 0.  1.
         11    1    3    3    0    0  0.37232639236E+01 -0.40738298281E+01  0.54505782959E+01  0.77567768908E+01  0.51100000000E-03 0.  1.
        -11    1    3    3    0    0  0.59361284036E+01 -0.10436948745E+02  0.61074945608E+01  0.13471043374E+02  0.51100000000E-03 0. -1.
         12    1    3    3    0    0  0.26893508062E+01 -0.19480525568E+02  0.15297342179E+02  0.24914497023E+02  0.00000000000E+00 0. -1.
</event>
<event>
 7    1  0.3980989E-008  0.4614232E+02  0.7816164E-02  0.1320468E+00
        -11   -1    0    0    0    0  0.00000000000E+00  0.00000000000E+00  0.45593999997E+02  0.45594000000E+02  0.51100000000E-03 0. -1.
         11   -1    0    0    0    0 -0.00000000000E+00 -0.00000000000E+00 -0.45593999997E+02  0.45594000000E+02  0.51100000000E-03 0.  1.
    9900012    2    1    2    0    0 -0.32014650405E+02 -0.44058128774E+01  0.31380960239E+02  0.46142315488E+02  0.99999792701E+01 0.  0.
        -12    1    1    2    0    0  0.32014650405E+02  0.44058128774E+01 -0.31380960239E+02  0.45045684512E+02  0.00000000000E+00 0.  1.
         11    1    3    3    0    0 -0.42830825520E+00 -0.97140226286E+00  0.13616455873E+01  0.17266004993E+01  0.51100000000E-03 0. -1.
        -11    1    3    3    0    0 -0.76560766575E+01 -0.43154035045E+01  0.81355170307E+01  0.11976011640E+02  0.51100000000E-03 0.  1.
         12    1    3    3    0    0 -0.23930265492E+02  0.88099288995E+00  0.21883797621E+02  0.32439703348E+02  0.00000000000E+00 0. -1.
</event>
<event>
 7    1  0.3980989E-008  0.4614232E+02  0.7816164E-02  0.1320468E+00
        -11   -1    0    0    0    0  0.00000000000E+00  0.00000000000E+00  0.45593999997E+02  0.45594000000E+02  0.51100000000E-03 0.  1.
         11   -1    0    0    0    0 -0.00000000000E+00 -0.00000000000E+00 -0.45593999997E+02  0.45594000000E+02  0.51100000000E-03 0. -1.
    9900012    2    1    2    0    0 -0.41896651209E+02 -0.32666624392E+00 -0.16543195997E+02  0.46142318440E+02  0.10000006192E+02 0.  0.
        -12    1    1    2    0    0  0.41896651209E+02  0.32666624392E+00  0.16543195997E+02  0.45045681560E+02  0.00000000000E+00 0.  1.
         11    1    3    3    0    0 -0.37521025697E+01 -0.21880835382E+01 -0.58634532525E+00  0.43828968007E+01  0.51100000000E-03 0. -1.
        -11    1    3    3    0    0 -0.14219816390E+02  0.30668093731E+01 -0.46658228586E+01  0.15276727434E+02  0.51100000000E-03 0.  1.
         12    1    3    3    0    0 -0.23924732249E+02 -0.12053920788E+01 -0.11291027813E+02  0.26482694205E+02  0.00000000000E+00 0. -1.
</event>
<event>
 7    1  0.3980989E-008  0.4614232E+02  0.7816164E-02  0.1320468E+00
        -11   -1    0    0    0    0  0.00000000000E+00  0.00000000000E+00  0.45593999997E+02  0.45594000000E+02  0.51100000000E-03 0.  1.
         11   -1    0    0    0    0 -0.00000000000E+00 -0.00000000000E+00 -0.45593999997E+02  0.45594000000E+02  0.51100000000E-03 0. -1.
    9900012    2    1    2    0    0  0.25568377869E+02  0.11662326580E+02 -0.35204569606E+02  0.46142317307E+02  0.99999958634E+01 0.  0.
        -12    1    1    2    0    0 -0.25568377869E+02 -0.11662326580E+02  0.35204569606E+02  0.45045682693E+02  0.00000000000E+00 0.  1.
         11    1    3    3    0    0  0.76427714554E+00  0.51784264103E-01 -0.11222077752E+01  0.13587316575E+01  0.51100000000E-03 0. -1.
        -11    1    3    3    0    0  0.19950487983E+02  0.11256488792E+02 -0.22010807731E+02  0.31768005412E+02  0.51100000000E-03 0.  1.
        -12    1    3    3    0    0  0.48536127408E+01  0.35405352418E+00 -0.12071554100E+02  0.13015580237E+02  0.00000000000E+00 0.  1.
</event>
<event>
 7    1  0.3980989E-008  0.4614232E+02  0.7816164E-02  0.1320468E+00
        -11   -1    0    0    0    0  0.00000000000E+00  0.00000000000E+00  0.45593999997E+02  0.45594000000E+02  0.51100000000E-03 0.  1.
         11   -1    0    0    0    0 -0.00000000000E+00 -0.00000000000E+00 -0.45593999997E+02  0.45594000000E+02  0.51100000000E-03 0. -1.
    9900012    2    1    2    0    0  0.20563338544E+02 -0.39762973946E+02  0.50167960855E+01  0.46142320606E+02  0.10000025938E+02 0.  0.
        -12    1    1    2    0    0 -0.20563338544E+02  0.39762973946E+02 -0.50167960855E+01  0.45045679394E+02  0.00000000000E+00 0.  1.
         11    1    3    3    0    0  0.23538168687E+01 -0.23368480716E+01 -0.19734037952E+00  0.33226881057E+01  0.51100000000E-03 0. -1.
        -11    1    3    3    0    0  0.52105823387E+01 -0.14393330573E+02 -0.19179440320E+01  0.15427139815E+02  0.51100000000E-03 0.  1.
         12    1    3    3    0    0  0.12998939337E+02 -0.23032795301E+02  0.71320804970E+01  0.27392492685E+02  0.00000000000E+00 0. -1.
</event>
<event>
 7    1  0.3980989E-008  0.4614232E+02  0.7816164E-02  0.1320468E+00
        -11   -1    0    0    0    0  0.00000000000E+00  0.00000000000E+00  0.45593999997E+02  0.45594000000E+02  0.51100000000E-03 0.  1.
         11   -1    0    0    0    0 -0.00000000000E+00 -0.00000000000E+00 -0.45593999997E+02  0.45594000000E+02  0.51100000000E-03 0. -1.
    9900012    2    1    2    0    0  0.10872398618E+02 -0.39117452561E+01 -0.43538517833E+02  0.46142319433E+02  0.10000015244E+02 0.  0.
        -12    1    1    2    0    0 -0.10872398618E+02  0.39117452561E+01  0.43538517833E+02  0.45045680567E+02  0.00000000000E+00 0.  1.
         11    1    3    3    0    0  0.84223560271E+01 -0.22039206288E+01 -0.26817402837E+02  0.28195149270E+02  0.51100000000E-03 0. -1.
        -11    1    3    3    0    0 -0.53120791841E+00 -0.14828656970E+01 -0.83617563133E+00  0.17833290429E+01  0.51100000000E-03 0.  1.
         12    1    3    3    0    0  0.29812505096E+01 -0.22495893036E+00 -0.15884939364E+02  0.16163841119E+02  0.00000000000E+00 0. -1.
</event>
<event>
 7    1  0.3980989E-008  0.4614232E+02  0.7816164E-02  0.1320468E+00
        -11   -1    0    0    0    0  0.00000000000E+00  0.00000000000E+00  0.45593999997E+02  0.45594000000E+02  0.51100000000E-03 0. -1.
         11   -1    0    0    0    0 -0.00000000000E+00 -0.00000000000E+00 -0.45593999997E+02  0.45594000000E+02  0.51100000000E-03 0.  1.
    9900012    2    1    2    0    0  0.19806490780E+02  0.28016443510E+02  0.29187246526E+02  0.46142317147E+02  0.99999943980E+01 0.  0.
        -12    1    1    2    0    0 -0.19806490780E+02 -0.28016443510E+02 -0.29187246526E+02  0.45045682853E+02  0.00000000000E+00 0.  1.
         11    1    3    3    0    0  0.48427549074E+01  0.11031987543E+02  0.99543679954E+01  0.15628386567E+02  0.51100000000E-03 0. -1.
        -11    1    3    3    0    0  0.75668995775E+01  0.35629444837E+01  0.69246606662E+01  0.10858336346E+02  0.51100000000E-03 0.  1.
        -12    1    3    3    0    0  0.73968362948E+01  0.13421511483E+02  0.12308217865E+02  0.19655594233E+02  0.00000000000E+00 0.  1.
</event>
<event>
 7    1  0.3980989E-008  0.4614232E+02  0.7816164E-02  0.1320468E+00
        -11   -1    0    0    0    0  0.00000000000E+00  0.00000000000E+00  0.45593999997E+02  0.45594000000E+02  0.51100000000E-03 0. -1.
         11   -1    0    0    0    0 -0.00000000000E+00 -0.00000000000E+00 -0.45593999997E+02  0.45594000000E+02  0.51100000000E-03 0.  1.
    9900012    2    1    2    0    0  0.18763905765E+02 -0.95058671898E+01  0.39832999268E+02  0.46142317618E+02  0.99999986934E+01 0.  0.
        -12    1    1    2    0    0 -0.18763905765E+02  0.95058671898E+01 -0.39832999268E+02  0.45045682382E+02  0.00000000000E+00 0.  1.
         11    1    3    3    0    0  0.98514163623E+00 -0.10011381023E+01  0.21302608030E+01  0.25516255394E+01  0.51100000000E-03 0. -1.
        -11    1    3    3    0    0  0.80769835023E+01 -0.75815881110E+01  0.26617111106E+02  0.28830344165E+02  0.51100000000E-03 0.  1.
         12    1    3    3    0    0  0.97017806263E+01 -0.92314097648E+00  0.11085627360E+02  0.14760347914E+02  0.00000000000E+00 0. -1.
</event>
<event>
 7    1  0.3980989E-008  0.4614232E+02  0.7816164E-02  0.1320468E+00
        -11   -1    0    0    0    0  0.00000000000E+00  0.00000000000E+00  0.45593999997E+02  0.45594000000E+02  0.51100000000E-03 0.  1.
         11   -1    0    0    0    0 -0.00000000000E+00 -0.00000000000E+00 -0.45593999997E+02  0.45594000000E+02  0.51100000000E-03 0. -1.
    9900012    2    1    2    0    0 -0.39056675101E+02 -0.29455308281E+01  0.22248891106E+02  0.46142321215E+02  0.10000031491E+02 0.  0.
        -12    1    1    2    0    0  0.39056675101E+02  0.29455308281E+01 -0.22248891106E+02  0.45045678785E+02  0.00000000000E+00 0.  1.
         11    1    3    3    0    0 -0.28796978484E+01  0.10862856316E+01  0.36718400746E+01  0.47911466233E+01  0.51100000000E-03 0. -1.
        -11    1    3    3    0    0 -0.21316230230E+02 -0.95793335850E+00  0.13922252647E+02  0.25477998873E+02  0.51100000000E-03 0.  1.
         12    1    3    3    0    0 -0.14860747022E+02 -0.30738831012E+01  0.46547983844E+01  0.15873175718E+02  0.00000000000E+00 0. -1.
</event>
<event>
 7    1  0.3980989E-008  0.4614232E+02  0.7816164E-02  0.1320468E+00
        -11   -1    0    0    0    0  0.00000000000E+00  0.00000000000E+00  0.45593999997E+02  0.45594000000E+02  0.51100000000E-03 0.  1.
         11   -1    0    0    0    0 -0.00000000000E+00 -0.00000000000E+00 -0.45593999997E+02  0.45594000000E+02  0.51100000000E-03 0. -1.
    9900012    2    1    2    0    0  0.35770501745E+01 -0.44756325989E+02 -0.36317370675E+01  0.46142317431E+02  0.99999969909E+01 0.  0.
        -12    1    1    2    0    0 -0.35770501745E+01  0.44756325989E+02  0.36317370675E+01  0.45045682569E+02  0.00000000000E+00 0.  1.
         11    1    3    3    0    0  0.31829433968E+01 -0.16689827915E+02 -0.29963600043E+01  0.17252815946E+02  0.51100000000E-03 0. -1.
        -11    1    3    3    0    0  0.70362166431E+00  0.96840334989E-01  0.84503464039E-01  0.71526400268E+00  0.51100000000E-03 0.  1.
        -12    1    3    3    0    0 -0.30951488653E+00 -0.28163338408E+02 -0.71988052719E+00  0.28174237483E+02  0.00000000000E+00 0.  1.
</event>
<event>
 7    1  0.3980989E-008  0.4614232E+02  0.7816164E-02  0.1320468E+00
        -11   -1    0    0    0    0  0.00000000000E+00  0.00000000000E+00  0.45593999997E+02  0.45594000000E+02  0.51100000000E-03 0.  1.
         11   -1    0    0    0    0 -0.00000000000E+00 -0.00000000000E+00 -0.45593999997E+02  0.45594000000E+02  0.51100000000E-03 0. -1.
    9900012    2    1    2    0    0  0.49579570623E+00 -0.14852696533E+01 -0.45018460163E+02  0.46142316580E+02  0.99999892259E+01 0.  0.
        -12    1    1    2    0    0 -0.49579570623E+00  0.14852696533E+01  0.45018460163E+02  0.45045683420E+02  0.00000000000E+00 0.  1.
         11    1    3    3    0    0 -0.26276710359E+01 -0.16748456145E+01 -0.60009003725E+01  0.67616986363E+01  0.51100000000E-03 0. -1.
        -11    1    3    3    0    0  0.18703504682E+01 -0.36095030202E+00 -0.36180928317E+02  0.36231037387E+02  0.51100000000E-03 0.  1.
        -12    1    3    3    0    0  0.12531162740E+01  0.55052626320E+00 -0.28366314744E+01  0.31495805568E+01  0.00000000000E+00 0.  1.
</event>
<event>
 7    1  0.3980989E-008  0.4614232E+02  0.7816164E-02  0.1320468E+00
        -11   -1    0    0    0    0  0.00000000000E+00  0.00000000000E+00  0.45593999997E+02  0.45594000000E+02  0.51100000000E-03 0.  1.
         11   -1    0    0    0    0 -0.00000000000E+00 -0.00000000000E+00 -0.45593999997E+02  0.45594000000E+02  0.51100000000E-03 0. -1.
    9900012    2    1    2    0    0  0.21298973460E+02  0.41106718225E+01 -0.39478722911E+02  0.46142318120E+02  0.10000003277E+02 0.  0.
        -12    1    1    2    0    0 -0.21298973460E+02 -0.41106718225E+01  0.39478722911E+02  0.45045681880E+02  0.00000000000E+00 0.  1.
         11    1    3    3    0    0  0.91124581510E+01  0.10951972270E+01 -0.22329873540E+02  0.24142485437E+02  0.51100000000E-03 0. -1.
        -11    1    3    3    0    0  0.22043138630E+01 -0.15076977937E+01 -0.47710728354E+01  0.54676584116E+01  0.51100000000E-03 0.  1.
        -12    1    3    3    0    0  0.99822014463E+01  0.45231723892E+01 -0.12377776536E+02  0.16532174272E+02  0.00000000000E+00 0.  1.
</event>
<event>
 7    1  0.3980989E-008  0.4614232E+02  0.7816164E-02  0.1320468E+00
        -11   -1    0    0    0    0  0.00000000000E+00  0.00000000000E+00  0.45593999997E+02  0.45594000000E+02  0.51100000000E-03 0. -1.
         11   -1    0    0    0    0 -0.00000000000E+00 -0.00000000000E+00 -0.45593999997E+02  0.45594000000E+02  0.51100000000E-03 0.  1.
    9900012    2    1    2    0    0 -0.20122922489E+02  0.22271071832E+02  0.33588403353E+02  0.46142317745E+02  0.99999998494E+01 0.  0.
        -12    1    1    2    0    0  0.20122922489E+02 -0.22271071832E+02 -0.33588403353E+02  0.45045682255E+02  0.00000000000E+00 0.  1.
         11    1    3    3    0    0 -0.10510401454E+02  0.91235577238E+01  0.13491145330E+02  0.19383468391E+02  0.51100000000E-03 0. -1.
        -11    1    3    3    0    0 -0.42230332695E+01  0.10294345984E+01  0.59308002898E+01  0.73531039654E+01  0.51100000000E-03 0.  1.
        -12    1    3    3    0    0 -0.53894877650E+01  0.12118079510E+02  0.14166457733E+02  0.19405745388E+02  0.00000000000E+00 0.  1.
</event>
<event>
 7    1  0.3980989E-008  0.4614232E+02  0.7816164E-02  0.1320468E+00
        -11   -1    0    0    0    0  0.00000000000E+00  0.00000000000E+00  0.45593999997E+02  0.45594000000E+02  0.51100000000E-03 0.  1.
         11   -1    0    0    0    0 -0.00000000000E+00 -0.00000000000E+00 -0.45593999997E+02  0.45594000000E+02  0.51100000000E-03 0. -1.
    9900012    2    1    2    0    0  0.35020930735E+02 -0.21387009239E+02 -0.18580732368E+02  0.46142319086E+02  0.10000012078E+02 0.  0.
        -12    1    1    2    0    0 -0.35020930735E+02  0.21387009239E+02  0.18580732368E+02  0.45045680914E+02  0.00000000000E+00 0.  1.
         11    1    3    3    0    0  0.80055998263E+01 -0.24744753866E+01 -0.46430256369E+01  0.95796839376E+01  0.51100000000E-03 0. -1.
        -11    1    3    3    0    0  0.14313114802E+02 -0.10211373975E+02 -0.11409457832E+02  0.20959798235E+02  0.51100000000E-03 0.  1.
        -12    1    3    3    0    0  0.12702216107E+02 -0.87011598773E+01 -0.25282488994E+01  0.15602836913E+02  0.00000000000E+00 0.  1.
</event>
<event>
 7    1  0.3980989E-008  0.4614232E+02  0.7816164E-02  0.1320468E+00
        -11   -1    0    0    0    0  0.00000000000E+00  0.00000000000E+00  0.45593999997E+02  0.45594000000E+02  0.51100000000E-03 0. -1.
         11   -1    0    0    0    0 -0.00000000000E+00 -0.00000000000E+00 -0.45593999997E+02  0.45594000000E+02  0.51100000000E-03 0.  1.
    9900012    2    1    2    0    0 -0.28043547809E+02  0.34563537213E+02  0.69307176011E+01  0.46142317356E+02  0.99999963015E+01 0.  0.
        -12    1    1    2    0    0  0.28043547809E+02 -0.34563537213E+02 -0.69307176011E+01  0.45045682644E+02  0.00000000000E+00 0.  1.
         11    1    3    3    0    0 -0.12672733625E+02  0.19975673753E+02  0.21946178505E+01  0.23757989544E+02  0.51100000000E-03 0. -1.
        -11    1    3    3    0    0 -0.79417198120E+01  0.58715537235E+01 -0.28174325482E+00  0.98805584976E+01  0.51100000000E-03 0.  1.
         12    1    3    3    0    0 -0.74290943725E+01  0.87163097371E+01  0.50178430055E+01  0.12503769314E+02  0.00000000000E+00 0. -1.
</event>
<event>
 7    1  0.3980989E-008  0.4614232E+02  0.7816164E-02  0.1320468E+00
        -11   -1    0    0    0    0  0.00000000000E+00  0.00000000000E+00  0.45593999997E+02  0.45594000000E+02  0.51100000000E-03 0.  1.
         11   -1    0    0    0    0 -0.00000000000E+00 -0.00000000000E+00 -0.45593999997E+02  0.45594000000E+02  0.51100000000E-03 0. -1.
    9900012    2    1    2    0    0  0.22541681333E+02  0.34546726930E+02 -0.18097231010E+02  0.46142317531E+02  0.99999979006E+01 0.  0.
        -12    1    1    2    0    0 -0.22541681333E+02 -0.34546726930E+02  0.18097231010E+02  0.45045682469E+02  0.00000000000E+00 0.  1.
         11    1    3    3    0    0  0.11886409413E+02  0.16448904209E+02 -0.10033916389E+02  0.22639184102E+02  0.51100000000E-03 0. -1.
        -11    1    3    3    0    0  0.24292994232E+01  0.25926490016E+01  0.10784644677E+01  0.37130055753E+01  0.51100000000E-03 0.  1.
        -12    1    3    3    0    0  0.82259724961E+01  0.15505173719E+02 -0.91417790887E+01  0.19790127854E+02  0.00000000000E+00 0.  1.
</event>
<event>
 7    1  0.3980989E-008  0.4614232E+02  0.7816164E-02  0.1320468E+00
        -11   -1    0    0    0    0  0.00000000000E+00  0.00000000000E+00  0.45593999997E+02  0.45594000000E+02  0.51100000000E-03 0. -1.
         11   -1    0    0    0    0 -0.00000000000E+00 -0.00000000000E+00 -0.45593999997E+02  0.45594000000E+02  0.51100000000E-03 0.  1.
    9900012    2    1    2    0    0  0.67637519380E+01  0.36601809324E+02  0.25370702996E+02  0.46142319224E+02  0.10000013343E+02 0.  0.
        -12    1    1    2    0    0 -0.67637519380E+01 -0.36601809324E+02 -0.25370702996E+02  0.45045680776E+02  0.00000000000E+00 0.  1.
         11    1    3    3    0    0  0.30643564388E+01  0.25876270225E+02  0.18119740129E+02  0.31737936665E+02  0.51100000000E-03 0. -1.
        -11    1    3    3    0    0  0.39568182889E+01  0.46051272233E+01  0.50431506046E+01  0.78928433404E+01  0.51100000000E-03 0.  1.
        -12    1    3    3    0    0 -0.25742278975E+00  0.61204118749E+01  0.22078122619E+01  0.65115392186E+01  0.00000000000E+00 0.  1.
</event>
<event>
 7    1  0.3980989E-008  0.4614232E+02  0.7816164E-02  0.1320468E+00
        -11   -1    0    0    0    0  0.00000000000E+00  0.00000000000E+00  0.45593999997E+02  0.45594000000E+02  0.51100000000E-03 0.  1.
         11   -1    0    0    0    0 -0.00000000000E+00 -0.00000000000E+00 -0.45593999997E+02  0.45594000000E+02  0.51100000000E-03 0. -1.
    9900012    2    1    2    0    0  0.17676682862E+02  0.17815092834E+02 -0.37406827668E+02  0.46142318677E+02  0.10000008350E+02 0.  0.
        -12    1    1    2    0    0 -0.17676682862E+02 -0.17815092834E+02  0.37406827668E+02  0.45045681323E+02  0.00000000000E+00 0.  1.
         11    1    3    3    0    0  0.89117271347E+01  0.11163014210E+02 -0.21823126753E+02  0.26082189868E+02  0.51100000000E-03 0. -1.
        -11    1    3    3    0    0  0.66430121645E+00  0.20490480072E+01 -0.32028163672E+00  0.21777223033E+01  0.51100000000E-03 0.  1.
        -12    1    3    3    0    0  0.81006545113E+01  0.46030306172E+01 -0.15263419278E+02  0.17882406505E+02  0.00000000000E+00 0.  1.
</event>
<event>
 7    1  0.3980989E-008  0.4614232E+02  0.7816164E-02  0.1320468E+00
        -11   -1    0    0    0    0  0.00000000000E+00  0.00000000000E+00  0.45593999997E+02  0.45594000000E+02  0.51100000000E-03 0. -1.
         11   -1    0    0    0    0 -0.00000000000E+00 -0.00000000000E+00 -0.45593999997E+02  0.45594000000E+02  0.51100000000E-03 0.  1.
    9900012    2    1    2    0    0 -0.12774660335E+02  0.83043689459E+01  0.42390553612E+02  0.46142317346E+02  0.99999962129E+01 0.  0.
        -12    1    1    2    0    0  0.12774660335E+02 -0.83043689459E+01 -0.42390553612E+02  0.45045682654E+02  0.00000000000E+00 0.  1.
         11    1    3    3    0    0 -0.40463740190E+01  0.27286429509E+01  0.69395999174E+01  0.84839072560E+01  0.51100000000E-03 0. -1.
        -11    1    3    3    0    0 -0.26525426294E+01  0.60533429454E+01  0.18319325127E+02  0.19475025458E+02  0.51100000000E-03 0.  1.
        -12    1    3    3    0    0 -0.60757436865E+01 -0.47761695042E+00  0.17131628567E+02  0.18183384631E+02  0.00000000000E+00 0.  1.
</event>
<event>
 7    1  0.3980989E-008  0.4614232E+02  0.7816164E-02  0.1320468E+00
        -11   -1    0    0    0    0  0.00000000000E+00  0.00000000000E+00  0.45593999997E+02  0.45594000000E+02  0.51100000000E-03 0.  1.
         11   -1    0    0    0    0 -0.00000000000E+00 -0.00000000000E+00 -0.45593999997E+02  0.45594000000E+02  0.51100000000E-03 0. -1.
    9900012    2    1    2    0    0  0.52582078658E+00  0.33784146496E+02 -0.29790408932E+02  0.46142317562E+02  0.99999981857E+01 0.  0.
        -12    1    1    2    0    0 -0.52582078658E+00 -0.33784146496E+02  0.29790408932E+02  0.45045682438E+02  0.00000000000E+00 0.  1.
         11    1    3    3    0    0  0.67185152872E+00  0.32826335936E+01 -0.10974870062E+01  0.35258397264E+01  0.51100000000E-03 0. -1.
        -11    1    3    3    0    0 -0.18655046092E+01  0.21920706999E+01 -0.12063080638E+01  0.31209711319E+01  0.51100000000E-03 0.  1.
         12    1    3    3    0    0  0.17194738671E+01  0.28309442202E+02 -0.27486613862E+02  0.39495506704E+02  0.00000000000E+00 0. -1.
</event>
<event>
 7    1  0.3980989E-008  0.4614232E+02  0.7816164E-02  0.1320468E+00
        -11   -1    0    0    0    0  0.00000000000E+00  0.00000000000E+00  0.45593999997E+02  0.45594000000E+02  0.51100000000E-03 0.  1.
         11   -1    0    0    0    0 -0.00000000000E+00 -0.00000000000E+00 -0.45593999997E+02  0.45594000000E+02  0.51100000000E-03 0. -1.
    9900012    2    1    2    0    0 -0.23079105973E+01  0.35836194186E+02 -0.27194746230E+02  0.46142317770E+02  0.10000000081E+02 0.  0.
        -12    1    1    2    0    0  0.23079105973E+01 -0.35836194186E+02  0.27194746230E+02  0.45045682230E+02  0.00000000000E+00 0.  1.
         11    1    3    3    0    0 -0.33207665247E+01  0.59760764332E+01 -0.56320522625E+01  0.88578209959E+01  0.51100000000E-03 0. -1.
        -11    1    3    3    0    0 -0.46440407236E+00  0.58444813134E+00  0.20384290330E+00  0.77382359165E+00  0.51100000000E-03 0.  1.
         12    1    3    3    0    0  0.14772599997E+01  0.29275669622E+02 -0.21766536870E+02  0.36510673182E+02  0.00000000000E+00 0. -1.
</event>
<event>
 7    1  0.3980989E-008  0.4614232E+02  0.7816164E-02  0.1320468E+00
        -11   -1    0    0    0    0  0.00000000000E+00  0.00000000000E+00  0.45593999997E+02  0.45594000000E+02  0.51100000000E-03 0. -1.
         11   -1    0    0    0    0 -0.00000000000E+00 -0.00000000000E+00 -0.45593999997E+02  0.45594000000E+02  0.51100000000E-03 0.  1.
    9900012    2    1    2    0    0  0.10272359568E+02  0.42052926317E+02  0.12455662640E+02  0.46142317469E+02  0.99999973337E+01 0.  0.
        -12    1    1    2    0    0 -0.10272359568E+02 -0.42052926317E+02 -0.12455662640E+02  0.45045682531E+02  0.00000000000E+00 0.  1.
         11    1    3    3    0    0  0.87908577779E+01  0.19119563064E+02  0.84524806384E+01  0.22677771086E+02  0.51100000000E-03 0. -1.
        -11    1    3    3    0    0 -0.94650474816E-01  0.59197387159E+01  0.22663439446E-01  0.59205387482E+01  0.51100000000E-03 0.  1.
         12    1    3    3    0    0  0.15761522647E+01  0.17013624538E+02  0.39805185617E+01  0.17544007635E+02  0.00000000000E+00 0. -1.
</event>
<event>
 7    1  0.3980989E-008  0.4614232E+02  0.7816164E-02  0.1320468E+00
        -11   -1    0    0    0    0  0.00000000000E+00  0.00000000000E+00  0.45593999997E+02  0.45594000000E+02  0.51100000000E-03 0.  1.
         11   -1    0    0    0    0 -0.00000000000E+00 -0.00000000000E+00 -0.45593999997E+02  0.45594000000E+02  0.51100000000E-03 0. -1.
    9900012    2    1    2    0    0 -0.73130785892E+01  0.77016953246E+01 -0.43775748717E+02  0.46142318686E+02  0.10000008436E+02 0.  0.
        -12    1    1    2    0    0  0.73130785892E+01 -0.77016953246E+01  0.43775748717E+02  0.45045681314E+02  0.00000000000E+00 0.  1.
         11    1    3    3    0    0 -0.12326666732E+01  0.26794089995E+01 -0.15707775657E+02  0.15982268802E+02  0.51100000000E-03 0. -1.
        -11    1    3    3    0    0  0.73223580988E+00 -0.14485488844E+01 -0.35548153245E+01  0.39078351301E+01  0.51100000000E-03 0.  1.
        -12    1    3    3    0    0 -0.68126477259E+01  0.64708352095E+01 -0.24513157735E+02  0.26252214754E+02  0.00000000000E+00 0.  1.
</event>
<event>
 7    1  0.3980989E-008  0.4614232E+02  0.7816164E-02  0.1320468E+00
        -11   -1    0    0    0    0  0.00000000000E+00  0.00000000000E+00  0.45593999997E+02  0.45594000000E+02  0.51100000000E-03 0.  1.
         11   -1    0    0    0    0 -0.00000000000E+00 -0.00000000000E+00 -0.45593999997E+02  0.45594000000E+02  0.51100000000E-03 0. -1.
    9900012    2    1    2    0    0  0.18719126779E+01 -0.21053973720E+02 -0.39778632358E+02  0.46142318090E+02  0.10000003000E+02 0.  0.
        -12    1    1    2    0    0 -0.18719126779E+01  0.21053973720E+02  0.39778632358E+02  0.45045681910E+02  0.00000000000E+00 0.  1.
         11    1    3    3    0    0 -0.25077534688E+01 -0.11510306048E+02 -0.15836664715E+02  0.19737677734E+02  0.51100000000E-03 0. -1.
        -11    1    3    3    0    0  0.19892243615E+01 -0.93028817949E+00 -0.47386519608E+01  0.52227648160E+01  0.51100000000E-03 0.  1.
        -12    1    3    3    0    0  0.23904417852E+01 -0.86133794927E+01 -0.19203315682E+02  0.21181875540E+02  0.00000000000E+00 0.  1.
</event>
<event>
 7    1  0.3980989E-008  0.4614232E+02  0.7816164E-02  0.1320468E+00
        -11   -1    0    0    0    0  0.00000000000E+00  0.00000000000E+00  0.45593999997E+02  0.45594000000E+02  0.51100000000E-03 0. -1.
         11   -1    0    0    0    0 -0.00000000000E+00 -0.00000000000E+00 -0.45593999997E+02  0.45594000000E+02  0.51100000000E-03 0.  1.
    9900012    2    1    2    0    0  0.42404347590E+02  0.88568076349E+01  0.12350779014E+02  0.46142317873E+02  0.10000001022E+02 0.  0.
        -12    1    1    2    0    0 -0.42404347590E+02 -0.88568076349E+01 -0.12350779014E+02  0.45045682127E+02  0.00000000000E+00 0.  1.
         11    1    3    3    0    0  0.64618887759E+01  0.30702239653E+01  0.34457061016E+01  0.79407287165E+01  0.51100000000E-03 0. -1.
        -11    1    3    3    0    0  0.17181786385E+01  0.50047837278E+00 -0.11670315174E+01  0.21364875986E+01  0.51100000000E-03 0.  1.
         12    1    3    3    0    0  0.34224280176E+02  0.52861052968E+01  0.10072104430E+02  0.36065101558E+02  0.00000000000E+00 0. -1.
</event>
<event>
 7    1  0.3980989E-008  0.4614232E+02  0.7816164E-02  0.1320468E+00
        -11   -1    0    0    0    0  0.00000000000E+00  0.00000000000E+00  0.45593999997E+02  0.45594000000E+02  0.51100000000E-03 0.  1.
         11   -1    0    0    0    0 -0.00000000000E+00 -0.00000000000E+00 -0.45593999997E+02  0.45594000000E+02  0.51100000000E-03 0. -1.
    9900012    2    1    2    0    0 -0.16360034990E+02  0.36499736475E+01 -0.41810771954E+02  0.46142315369E+02  0.99999781870E+01 0.  0.
        -12    1    1    2    0    0  0.16360034990E+02 -0.36499736475E+01  0.41810771954E+02  0.45045684631E+02  0.00000000000E+00 0.  1.
         11    1    3    3    0    0 -0.88027039975E+01  0.55558327684E+00 -0.20732190890E+02  0.22530424093E+02  0.51100000000E-03 0. -1.
        -11    1    3    3    0    0 -0.28933357858E+01 -0.21561921283E+01 -0.76177654047E+01  0.84291699761E+01  0.51100000000E-03 0.  1.
        -12    1    3    3    0    0 -0.46639952064E+01  0.52505824989E+01 -0.13460815659E+02  0.15182721300E+02  0.00000000000E+00 0.  1.
</event>
<event>
 7    1  0.3980989E-008  0.4614232E+02  0.7816164E-02  0.1320468E+00
        -11   -1    0    0    0    0  0.00000000000E+00  0.00000000000E+00  0.45593999997E+02  0.45594000000E+02  0.51100000000E-03 0. -1.
         11   -1    0    0    0    0 -0.00000000000E+00 -0.00000000000E+00 -0.45593999997E+02  0.45594000000E+02  0.51100000000E-03 0.  1.
    9900012    2    1    2    0    0 -0.11328791250E+02 -0.38862442008E+02  0.19760632056E+02  0.46142317751E+02  0.99999999086E+01 0.  0.
        -12    1    1    2    0    0  0.11328791250E+02  0.38862442008E+02 -0.19760632056E+02  0.45045682249E+02  0.00000000000E+00 0.  1.
         11    1    3    3    0    0 -0.46405050702E-01 -0.96944124520E+01  0.74085611869E+01  0.12201252614E+02  0.51100000000E-03 0.  1.
        -11    1    3    3    0    0 -0.47937806624E+01 -0.71988483319E+01  0.24834933219E+01  0.89984159542E+01  0.51100000000E-03 0. -1.
        -12    1    3    3    0    0 -0.64886055371E+01 -0.21969181224E+02  0.98685775466E+01  0.24942649183E+02  0.00000000000E+00 0.  1.
</event>
<event>
 7    1  0.3980989E-008  0.4614232E+02  0.7816164E-02  0.1320468E+00
        -11   -1    0    0    0    0  0.00000000000E+00  0.00000000000E+00  0.45593999997E+02  0.45594000000E+02  0.51100000000E-03 0.  1.
         11   -1    0    0    0    0 -0.00000000000E+00 -0.00000000000E+00 -0.45593999997E+02  0.45594000000E+02  0.51100000000E-03 0. -1.
    9900012    2    1    2    0    0 -0.14253591031E+01 -0.10778142020E+02 -0.43713995789E+02  0.46142318500E+02  0.10000006736E+02 0.  0.
        -12    1    1    2    0    0  0.14253591031E+01  0.10778142020E+02  0.43713995789E+02  0.45045681500E+02  0.00000000000E+00 0.  1.
         11    1    3    3    0    0 -0.78349677368E+00 -0.19850398070E+01 -0.23606847594E+02  0.23703111691E+02  0.51100000000E-03 0. -1.
        -11    1    3    3    0    0 -0.26295870502E+01 -0.41993140309E+01 -0.10150777363E+02  0.11295452524E+02  0.51100000000E-03 0.  1.
         12    1    3    3    0    0  0.19877247209E+01 -0.45937881819E+01 -0.99563708314E+01  0.11143754285E+02  0.00000000000E+00 0. -1.
</event>
<event>
 7    1  0.3980989E-008  0.4614232E+02  0.7816164E-02  0.1320468E+00
        -11   -1    0    0    0    0  0.00000000000E+00  0.00000000000E+00  0.45593999997E+02  0.45594000000E+02  0.51100000000E-03 0.  1.
         11   -1    0    0    0    0 -0.00000000000E+00 -0.00000000000E+00 -0.45593999997E+02  0.45594000000E+02  0.51100000000E-03 0. -1.
    9900012    2    1    2    0    0  0.24560011025E+02  0.63823947448E+01 -0.37218065574E+02  0.46142317529E+02  0.99999978810E+01 0.  0.
        -12    1    1    2    0    0 -0.24560011025E+02 -0.63823947448E+01  0.37218065574E+02  0.45045682471E+02  0.00000000000E+00 0.  1.
         11    1    3    3    0    0  0.39690597423E+01  0.25008538283E+01 -0.73505676555E+01  0.87200086139E+01  0.51100000000E-03 0. -1.
        -11    1    3    3    0    0  0.81244493570E+01  0.45727181833E+01 -0.17609696628E+02  0.19925306636E+02  0.51100000000E-03 0.  1.
         12    1    3    3    0    0  0.12466501925E+02 -0.69117726668E+00 -0.12257801291E+02  0.17497002279E+02  0.00000000000E+00 0. -1.
</event>
<event>
 7    1  0.3980989E-008  0.4614232E+02  0.7816164E-02  0.1320468E+00
        -11   -1    0    0    0    0  0.00000000000E+00  0.00000000000E+00  0.45593999997E+02  0.45594000000E+02  0.51100000000E-03 0.  1.
         11   -1    0    0    0    0 -0.00000000000E+00 -0.00000000000E+00 -0.45593999997E+02  0.45594000000E+02  0.51100000000E-03 0. -1.
    9900012    2    1    2    0    0  0.40405991725E+02 -0.18987976047E+02  0.59938376293E+01  0.46142317730E+02  0.99999997166E+01 0.  0.
        -12    1    1    2    0    0 -0.40405991725E+02  0.18987976047E+02 -0.59938376293E+01  0.45045682270E+02  0.00000000000E+00 0.  1.
         11    1    3    3    0    0  0.11950701599E+02 -0.92100705167E+01  0.49155072945E+00  0.15095903087E+02  0.51100000000E-03 0. -1.
        -11    1    3    3    0    0  0.10118009523E+02 -0.39417574485E+01 -0.55246967822E+00  0.10872754549E+02  0.51100000000E-03 0.  1.
         12    1    3    3    0    0  0.18337280603E+02 -0.58361480821E+01  0.60547565781E+01  0.20173660094E+02  0.00000000000E+00 0. -1.
</event>
<event>
 7    1  0.3980989E-008  0.4614232E+02  0.7816164E-02  0.1320468E+00
        -11   -1    0    0    0    0  0.00000000000E+00  0.00000000000E+00  0.45593999997E+02  0.45594000000E+02  0.51100000000E-03 0.  1.
         11   -1    0    0    0    0 -0.00000000000E+00 -0.00000000000E+00 -0.45593999997E+02  0.45594000000E+02  0.51100000000E-03 0. -1.
    9900012    2    1    2    0    0 -0.56002918169E+01  0.92591906728E+01 -0.43726623550E+02  0.46142317771E+02  0.10000000090E+02 0.  0.
        -12    1    1    2    0    0  0.56002918169E+01 -0.92591906728E+01  0.43726623550E+02  0.45045682229E+02  0.00000000000E+00 0.  1.
         11    1    3    3    0    0 -0.16120294629E+01  0.18056529412E+01 -0.20096829536E+01  0.31460844503E+01  0.51100000000E-03 0.  1.
        -11    1    3    3    0    0 -0.48404104212E+01  0.75761488934E+01 -0.40613446341E+02  0.41596630021E+02  0.51100000000E-03 0. -1.
         12    1    3    3    0    0  0.85214806714E+00 -0.12261116175E+00 -0.11034942557E+01  0.13996033001E+01  0.00000000000E+00 0. -1.
</event>
<event>
 7    1  0.3980989E-008  0.4614232E+02  0.7816164E-02  0.1320468E+00
        -11   -1    0    0    0    0  0.00000000000E+00  0.00000000000E+00  0.45593999997E+02  0.45594000000E+02  0.51100000000E-03 0. -1.
         11   -1    0    0    0    0 -0.00000000000E+00 -0.00000000000E+00 -0.45593999997E+02  0.45594000000E+02  0.51100000000E-03 0.  1.
    9900012    2    1    2    0    0 -0.37316720043E+02  0.24364760455E+02  0.65524290744E+01  0.46142317926E+02  0.10000001500E+02 0.  0.
        -12    1    1    2    0    0  0.37316720043E+02 -0.24364760455E+02 -0.65524290744E+01  0.45045682074E+02  0.00000000000E+00 0.  1.
         11    1    3    3    0    0 -0.17063883781E+02  0.12929278801E+02  0.17054537308E+01  0.21476753774E+02  0.51100000000E-03 0. -1.
        -11    1    3    3    0    0 -0.90033252061E+01  0.73956365222E+01 -0.29128087460E+00  0.11655048226E+02  0.51100000000E-03 0.  1.
        -12    1    3    3    0    0 -0.11249511056E+02  0.40398451315E+01  0.51382562182E+01  0.13010515926E+02  0.00000000000E+00 0.  1.
</event>
<event>
 7    1  0.3980989E-008  0.4614232E+02  0.7816164E-02  0.1320468E+00
        -11   -1    0    0    0    0  0.00000000000E+00  0.00000000000E+00  0.45593999997E+02  0.45594000000E+02  0.51100000000E-03 0. -1.
         11   -1    0    0    0    0 -0.00000000000E+00 -0.00000000000E+00 -0.45593999997E+02  0.45594000000E+02  0.51100000000E-03 0.  1.
    9900012    2    1    2    0    0  0.21805420234E+01  0.43192062570E+02  0.12601765815E+02  0.46142317252E+02  0.99999953568E+01 0.  0.
        -12    1    1    2    0    0 -0.21805420234E+01 -0.43192062570E+02 -0.12601765815E+02  0.45045682748E+02  0.00000000000E+00 0.  1.
         11    1    3    3    0    0  0.25735797049E+01  0.68663497346E+01  0.13348088584E+01  0.74533070596E+01  0.51100000000E-03 0.  1.
        -11    1    3    3    0    0  0.27304891381E+01  0.25132017649E+02  0.63156804730E+01  0.26056893563E+02  0.51100000000E-03 0. -1.
        -12    1    3    3    0    0 -0.31235268196E+01  0.11193695186E+02  0.49512764840E+01  0.12632116629E+02  0.00000000000E+00 0.  1.
</event>
<event>
 7    1  0.3980989E-008  0.4614232E+02  0.7816164E-02  0.1320468E+00
        -11   -1    0    0    0    0  0.00000000000E+00  0.00000000000E+00  0.45593999997E+02  0.45594000000E+02  0.51100000000E-03 0.  1.
         11   -1    0    0    0    0 -0.00000000000E+00 -0.00000000000E+00 -0.45593999997E+02  0.45594000000E+02  0.51100000000E-03 0. -1.
    9900012    2    1    2    0    0 -0.36612301276E+02 -0.11095077300E+02 -0.23781339121E+02  0.46142318349E+02  0.10000005359E+02 0.  0.
        -12    1    1    2    0    0  0.36612301276E+02  0.11095077300E+02  0.23781339121E+02  0.45045681651E+02  0.00000000000E+00 0.  1.
         11    1    3    3    0    0 -0.14106189264E+02 -0.51766957415E+01 -0.72377089975E+01  0.16678344826E+02  0.51100000000E-03 0. -1.
        -11    1    3    3    0    0 -0.17715325065E+02 -0.33795677825E+01 -0.89503173246E+01  0.20133613710E+02  0.51100000000E-03 0.  1.
        -12    1    3    3    0    0 -0.47907869466E+01 -0.25388137764E+01 -0.75933127991E+01  0.93303598122E+01  0.00000000000E+00 0.  1.
</event>
<event>
 7    1  0.3980989E-008  0.4614232E+02  0.7816164E-02  0.1320468E+00
        -11   -1    0    0    0    0  0.00000000000E+00  0.00000000000E+00  0.45593999997E+02  0.45594000000E+02  0.51100000000E-03 0. -1.
         11   -1    0    0    0    0 -0.00000000000E+00 -0.00000000000E+00 -0.45593999997E+02  0.45594000000E+02  0.51100000000E-03 0.  1.
    9900012    2    1    2    0    0  0.40965201668E+02 -0.12582065334E+00  0.18733656456E+02  0.46142318045E+02  0.10000002589E+02 0.  0.
        -12    1    1    2    0    0 -0.40965201668E+02  0.12582065334E+00 -0.18733656456E+02  0.45045681955E+02  0.00000000000E+00 0.  1.
         11    1    3    3    0    0  0.29066833665E+02  0.74048070047E-01  0.12663305275E+02  0.31705608387E+02  0.51100000000E-03 0. -1.
        -11    1    3    3    0    0  0.60870903383E+01  0.52036979874E+00  0.60254989506E+01  0.85807978288E+01  0.51100000000E-03 0.  1.
        -12    1    3    3    0    0  0.58112776653E+01 -0.72023852213E+00  0.44852230282E-01  0.58559118295E+01  0.00000000000E+00 0.  1.
</event>
<event>
 7    1  0.3980989E-008  0.4614232E+02  0.7816164E-02  0.1320468E+00
        -11   -1    0    0    0    0  0.00000000000E+00  0.00000000000E+00  0.45593999997E+02  0.45594000000E+02  0.51100000000E-03 0.  1.
         11   -1    0    0    0    0 -0.00000000000E+00 -0.00000000000E+00 -0.45593999997E+02  0.45594000000E+02  0.51100000000E-03 0. -1.
    9900012    2    1    2    0    0 -0.20875994448E+02 -0.38857265911E+02 -0.91334113936E+01  0.46142318055E+02  0.10000002678E+02 0.  0.
        -12    1    1    2    0    0  0.20875994448E+02  0.38857265911E+02  0.91334113936E+01  0.45045681945E+02  0.00000000000E+00 0.  1.
         11    1    3    3    0    0 -0.66591833747E+01 -0.87745062276E+01 -0.35754798469E+01  0.11581050866E+02  0.51100000000E-03 0. -1.
        -11    1    3    3    0    0 -0.12180326678E+00 -0.71764238544E+01 -0.18437965349E+01  0.74104980465E+01  0.51100000000E-03 0.  1.
        -12    1    3    3    0    0 -0.14095007806E+02 -0.22906335829E+02 -0.37141350119E+01  0.27150769143E+02  0.00000000000E+00 0.  1.
</event>
<event>
 7    1  0.3980989E-008  0.4614232E+02  0.7816164E-02  0.1320468E+00
        -11   -1    0    0    0    0  0.00000000000E+00  0.00000000000E+00  0.45593999997E+02  0.45594000000E+02  0.51100000000E-03 0. -1.
         11   -1    0    0    0    0 -0.00000000000E+00 -0.00000000000E+00 -0.45593999997E+02  0.45594000000E+02  0.51100000000E-03 0.  1.
    9900012    2    1    2    0    0  0.36081588831E+02  0.14678263189E+02  0.22622577787E+02  0.46142317759E+02  0.99999999850E+01 0.  0.
        -12    1    1    2    0    0 -0.36081588831E+02 -0.14678263189E+02 -0.22622577787E+02  0.45045682241E+02  0.00000000000E+00 0.  1.
         11    1    3    3    0    0  0.59179562253E+01  0.40817781644E+01  0.19357793055E+01  0.74451568586E+01  0.51100000000E-03 0. -1.
        -11    1    3    3    0    0  0.17445669112E+02  0.80461773789E+01  0.89100126627E+01  0.21177362137E+02  0.51100000000E-03 0.  1.
         12    1    3    3    0    0  0.12717963494E+02  0.25503076461E+01  0.11776785819E+02  0.17519798764E+02  0.00000000000E+00 0. -1.
</event>
<event>
 7    1  0.3980989E-008  0.4614232E+02  0.7816164E-02  0.1320468E+00
        -11   -1    0    0    0    0  0.00000000000E+00  0.00000000000E+00  0.45593999997E+02  0.45594000000E+02  0.51100000000E-03 0.  1.
         11   -1    0    0    0    0 -0.00000000000E+00 -0.00000000000E+00 -0.45593999997E+02  0.45594000000E+02  0.51100000000E-03 0. -1.
    9900012    2    1    2    0    0 -0.39956792960E+02 -0.10571791178E+02 -0.17911040266E+02  0.46142318345E+02  0.10000005322E+02 0.  0.
        -12    1    1    2    0    0  0.39956792960E+02  0.10571791178E+02  0.17911040266E+02  0.45045681655E+02  0.00000000000E+00 0.  1.
         11    1    3    3    0    0 -0.80300250795E+01 -0.33886666455E+01 -0.41682302176E+00  0.87257152202E+01  0.51100000000E-03 0.  1.
        -11    1    3    3    0    0 -0.13627896375E+00 -0.42208301889E+00  0.10541795854E+00  0.45589388886E+00  0.51100000000E-03 0. -1.
         12    1    3    3    0    0 -0.31790488917E+02 -0.67610415132E+01 -0.17599635203E+02  0.36960709236E+02  0.00000000000E+00 0. -1.
</event>
<event>
 7    1  0.3980989E-008  0.4614232E+02  0.7816164E-02  0.1320468E+00
        -11   -1    0    0    0    0  0.00000000000E+00  0.00000000000E+00  0.45593999997E+02  0.45594000000E+02  0.51100000000E-03 0. -1.
         11   -1    0    0    0    0 -0.00000000000E+00 -0.00000000000E+00 -0.45593999997E+02  0.45594000000E+02  0.51100000000E-03 0.  1.
    9900012    2    1    2    0    0  0.20816245219E+02  0.17388699471E+02  0.35964295325E+02  0.46142317937E+02  0.10000001601E+02 0.  0.
        -12    1    1    2    0    0 -0.20816245219E+02 -0.17388699471E+02 -0.35964295325E+02  0.45045682063E+02  0.00000000000E+00 0.  1.
         11    1    3    3    0    0  0.11293470070E+02  0.85656112415E+01  0.18082662766E+02  0.22975962551E+02  0.51100000000E-03 0. -1.
        -11    1    3    3    0    0  0.57449481102E+00  0.11985727262E+01  0.70725046868E+01  0.71963145897E+01  0.51100000000E-03 0.  1.
         12    1    3    3    0    0  0.89482803386E+01  0.76245155038E+01  0.10809127872E+02  0.15970040797E+02  0.00000000000E+00 0. -1.
</event>
<event>
 7    1  0.3980989E-008  0.4614231E+02  0.7816164E-02  0.1320468E+00
        -11   -1    0    0    0    0  0.00000000000E+00  0.00000000000E+00  0.45593999997E+02  0.45594000000E+02  0.51100000000E-03 0.  1.
         11   -1    0    0    0    0 -0.00000000000E+00 -0.00000000000E+00 -0.45593999997E+02  0.45594000000E+02  0.51100000000E-03 0. -1.
    9900012    2    1    2    0    0  0.11855917794E+01  0.44781225763E+02  0.47276167782E+01  0.46142310205E+02  0.99999310963E+01 0.  0.
        -12    1    1    2    0    0 -0.11855917794E+01 -0.44781225763E+02 -0.47276167782E+01  0.45045689795E+02  0.00000000000E+00 0.  1.
         11    1    3    3    0    0  0.21122426731E+01  0.55375982384E+01  0.15008080737E+01  0.61138358250E+01  0.51100000000E-03 0. -1.
        -11    1    3    3    0    0  0.10810112183E+01  0.35505259948E+01 -0.14290293450E+01  0.39770523285E+01  0.51100000000E-03 0.  1.
         12    1    3    3    0    0 -0.20076621120E+01  0.35693101530E+02  0.46558380496E+01  0.36051422051E+02  0.00000000000E+00 0. -1.
</event>
<event>
 7    1  0.3980989E-008  0.4614232E+02  0.7816164E-02  0.1320468E+00
        -11   -1    0    0    0    0  0.00000000000E+00  0.00000000000E+00  0.45593999997E+02  0.45594000000E+02  0.51100000000E-03 0.  1.
         11   -1    0    0    0    0 -0.00000000000E+00 -0.00000000000E+00 -0.45593999997E+02  0.45594000000E+02  0.51100000000E-03 0. -1.
    9900012    2    1    2    0    0 -0.13512443897E+02  0.42131187889E+02 -0.84551907858E+01  0.46142318918E+02  0.10000010545E+02 0.  0.
        -12    1    1    2    0    0  0.13512443897E+02 -0.42131187889E+02  0.84551907858E+01  0.45045681082E+02  0.00000000000E+00 0.  1.
         11    1    3    3    0    0 -0.35559274640E+01  0.40802315634E+01 -0.20467212117E+01  0.57863613541E+01  0.51100000000E-03 0. -1.
        -11    1    3    3    0    0 -0.96728418815E+01  0.38252566793E+02 -0.65175050124E+01  0.39991256647E+02  0.51100000000E-03 0.  1.
        -12    1    3    3    0    0 -0.28367455118E+00 -0.20161046810E+00  0.10903543836E+00  0.36470091671E+00  0.00000000000E+00 0.  1.
</event>
<event>
 7    1  0.3980989E-008  0.4614232E+02  0.7816164E-02  0.1320468E+00
        -11   -1    0    0    0    0  0.00000000000E+00  0.00000000000E+00  0.45593999997E+02  0.45594000000E+02  0.51100000000E-03 0. -1.
         11   -1    0    0    0    0 -0.00000000000E+00 -0.00000000000E+00 -0.45593999997E+02  0.45594000000E+02  0.51100000000E-03 0.  1.
    9900012    2    1    2    0    0 -0.17657695583E+02  0.12041358238E+02  0.39652552935E+02  0.46142317901E+02  0.10000001278E+02 0.  0.
        -12    1    1    2    0    0  0.17657695583E+02 -0.12041358238E+02 -0.39652552935E+02  0.45045682099E+02  0.00000000000E+00 0.  1.
         11    1    3    3    0    0 -0.99540710386E+01  0.11652839083E+02  0.22127841630E+02  0.26916789638E+02  0.51100000000E-03 0. -1.
        -11    1    3    3    0    0 -0.61960717875E+01  0.71952388969E+00  0.15252138520E+02  0.16478372186E+02  0.51100000000E-03 0.  1.
         12    1    3    3    0    0 -0.15075527566E+01 -0.33100473533E+00  0.22725727849E+01  0.27471560770E+01  0.00000000000E+00 0. -1.
</event>
<event>
 7    1  0.3980989E-008  0.4614232E+02  0.7816164E-02  0.1320468E+00
        -11   -1    0    0    0    0  0.00000000000E+00  0.00000000000E+00  0.45593999997E+02  0.45594000000E+02  0.51100000000E-03 0.  1.
         11   -1    0    0    0    0 -0.00000000000E+00 -0.00000000000E+00 -0.45593999997E+02  0.45594000000E+02  0.51100000000E-03 0. -1.
    9900012    2    1    2    0    0  0.19205320724E+02 -0.24996776537E+02 -0.32178103181E+02  0.46142317569E+02  0.99999982524E+01 0.  0.
        -12    1    1    2    0    0 -0.19205320724E+02  0.24996776537E+02  0.32178103181E+02  0.45045682431E+02  0.00000000000E+00 0.  1.
         11    1    3    3    0    0  0.13712095065E+02 -0.15606716063E+02 -0.26445841557E+02  0.33629952026E+02  0.51100000000E-03 0. -1.
        -11    1    3    3    0    0  0.46303175604E+01 -0.60482308356E+01 -0.45026576883E+01  0.88484384763E+01  0.51100000000E-03 0.  1.
        -12    1    3    3    0    0  0.86290809877E+00 -0.33418296382E+01 -0.12296039353E+01  0.36639270674E+01  0.00000000000E+00 0.  1.
</event>
<event>
 7    1  0.3980989E-008  0.4614232E+02  0.7816164E-02  0.1320468E+00
        -11   -1    0    0    0    0  0.00000000000E+00  0.00000000000E+00  0.45593999997E+02  0.45594000000E+02  0.51100000000E-03 0. -1.
         11   -1    0    0    0    0 -0.00000000000E+00 -0.00000000000E+00 -0.45593999997E+02  0.45594000000E+02  0.51100000000E-03 0.  1.
    9900012    2    1    2    0    0 -0.16028985279E+02 -0.33430173848E+02  0.25585319388E+02  0.46142318068E+02  0.10000002796E+02 0.  0.
        -12    1    1    2    0    0  0.16028985279E+02  0.33430173848E+02 -0.25585319388E+02  0.45045681932E+02  0.00000000000E+00 0.  1.
         11    1    3    3    0    0 -0.11385182578E+02 -0.24148200048E+02  0.21280659062E+02  0.34141241897E+02  0.51100000000E-03 0. -1.
        -11    1    3    3    0    0 -0.12054822592E+01 -0.49752371023E+01  0.39732993653E+01  0.64802222037E+01  0.51100000000E-03 0.  1.
         12    1    3    3    0    0 -0.34383204419E+01 -0.43067366968E+01  0.33136096066E+00  0.55208539669E+01  0.00000000000E+00 0. -1.
</event>
<event>
 7    1  0.3980989E-008  0.4614232E+02  0.7816164E-02  0.1320468E+00
        -11   -1    0    0    0    0  0.00000000000E+00  0.00000000000E+00  0.45593999997E+02  0.45594000000E+02  0.51100000000E-03 0.  1.
         11   -1    0    0    0    0 -0.00000000000E+00 -0.00000000000E+00 -0.45593999997E+02  0.45594000000E+02  0.51100000000E-03 0. -1.
    9900012    2    1    2    0    0 -0.39194857631E+02  0.20176332583E+02  0.92624115743E+01  0.46142317306E+02  0.99999958462E+01 0.  0.
        -12    1    1    2    0    0  0.39194857631E+02 -0.20176332583E+02 -0.92624115743E+01  0.45045682694E+02  0.00000000000E+00 0.  1.
         11    1    3    3    0    0 -0.23227672696E+02  0.12200292163E+02  0.36070949705E+01  0.26483637252E+02  0.51100000000E-03 0. -1.
        -11    1    3    3    0    0 -0.27979212070E+01  0.16270117176E+01 -0.12759218651E+01  0.34790094965E+01  0.51100000000E-03 0.  1.
         12    1    3    3    0    0 -0.13169263729E+02  0.63490287024E+01  0.69312384688E+01  0.16179670557E+02  0.00000000000E+00 0. -1.
</event>
<event>
 7    1  0.3980989E-008  0.4614232E+02  0.7816164E-02  0.1320468E+00
        -11   -1    0    0    0    0  0.00000000000E+00  0.00000000000E+00  0.45593999997E+02  0.45594000000E+02  0.51100000000E-03 0.  1.
         11   -1    0    0    0    0 -0.00000000000E+00 -0.00000000000E+00 -0.45593999997E+02  0.45594000000E+02  0.51100000000E-03 0. -1.
    9900012    2    1    2    0    0  0.11357381480E+02  0.33147255894E+01 -0.43464191204E+02  0.46142318333E+02  0.10000005216E+02 0.  0.
        -12    1    1    2    0    0 -0.11357381480E+02 -0.33147255894E+01  0.43464191204E+02  0.45045681667E+02  0.00000000000E+00 0.  1.
         11    1    3    3    0    0  0.50699109338E+01  0.58821986479E+01 -0.24417626453E+02  0.25622738723E+02  0.51100000000E-03 0. -1.
        -11    1    3    3    0    0  0.21437763443E+01 -0.21367851447E+01 -0.47847727850E+01  0.56617734531E+01  0.51100000000E-03 0.  1.
         12    1    3    3    0    0  0.41436942014E+01 -0.43068791383E+00 -0.14261791966E+02  0.14857806157E+02  0.00000000000E+00 0. -1.
</event>
<event>
 7    1  0.3980989E-008  0.4614232E+02  0.7816164E-02  0.1320468E+00
        -11   -1    0    0    0    0  0.00000000000E+00  0.00000000000E+00  0.45593999997E+02  0.45594000000E+02  0.51100000000E-03 0.  1.
         11   -1    0    0    0    0 -0.00000000000E+00 -0.00000000000E+00 -0.45593999997E+02  0.45594000000E+02  0.51100000000E-03 0. -1.
    9900012    2    1    2    0    0  0.17163771451E+02  0.28625426420E+02 -0.30250675980E+02  0.46142317794E+02  0.10000000301E+02 0.  0.
        -12    1    1    2    0    0 -0.17163771451E+02 -0.28625426420E+02  0.30250675980E+02  0.45045682206E+02  0.00000000000E+00 0.  1.
         11    1    3    3    0    0  0.93953870762E+01  0.70777676538E+01 -0.10851931454E+02  0.16004140396E+02  0.51100000000E-03 0. -1.
        -11    1    3    3    0    0  0.18715304897E+01  0.39899816172E+01 -0.25043261944E+01  0.50689475859E+01  0.51100000000E-03 0.  1.
         12    1    3    3    0    0  0.58968538848E+01  0.17557677149E+02 -0.16894418332E+02  0.25069229812E+02  0.00000000000E+00 0. -1.
</event>
<event>
 7    1  0.3980989E-008  0.4614232E+02  0.7816164E-02  0.1320468E+00
        -11   -1    0    0    0    0  0.00000000000E+00  0.00000000000E+00  0.45593999997E+02  0.45594000000E+02  0.51100000000E-03 0. -1.
         11   -1    0    0    0    0 -0.00000000000E+00 -0.00000000000E+00 -0.45593999997E+02  0.45594000000E+02  0.51100000000E-03 0.  1.
    9900012    2    1    2    0    0 -0.40038830975E+02  0.47218088230E+01  0.20092541140E+02  0.46142315702E+02  0.99999812217E+01 0.  0.
        -12    1    1    2    0    0  0.40038830975E+02 -0.47218088230E+01 -0.20092541140E+02  0.45045684298E+02  0.00000000000E+00 0.  1.
         11    1    3    3    0    0 -0.11209161209E+02  0.67359997468E+00  0.26647006874E+01  0.11541215792E+02  0.51100000000E-03 0. -1.
        -11    1    3    3    0    0 -0.50885238585E+01 -0.15928287540E+01  0.45495942286E+01  0.70092072593E+01  0.51100000000E-03 0.  1.
        -12    1    3    3    0    0 -0.23741145908E+02  0.56410376024E+01  0.12878246224E+02  0.27591892651E+02  0.00000000000E+00 0.  1.
</event>
<event>
 7    1  0.3980989E-008  0.4614232E+02  0.7816164E-02  0.1320468E+00
        -11   -1    0    0    0    0  0.00000000000E+00  0.00000000000E+00  0.45593999997E+02  0.45594000000E+02  0.51100000000E-03 0.  1.
         11   -1    0    0    0    0 -0.00000000000E+00 -0.00000000000E+00 -0.45593999997E+02  0.45594000000E+02  0.51100000000E-03 0. -1.
    9900012    2    1    2    0    0 -0.38144895580E+02 -0.22864513689E+02 -0.71620129913E+01  0.46142317908E+02  0.10000001341E+02 0.  0.
        -12    1    1    2    0    0  0.38144895580E+02  0.22864513689E+02  0.71620129913E+01  0.45045682092E+02  0.00000000000E+00 0.  1.
         11    1    3    3    0    0 -0.46098325722E+01 -0.14160466866E+01  0.12549887807E+00  0.48240537716E+01  0.51100000000E-03 0. -1.
        -11    1    3    3    0    0 -0.78107216861E+01 -0.92274535222E+01 -0.84465278247E+00  0.12118857634E+02  0.51100000000E-03 0.  1.
         12    1    3    3    0    0 -0.25724341321E+02 -0.12221013481E+02 -0.64428590869E+01  0.29199406503E+02  0.00000000000E+00 0. -1.
</event>
<event>
 7    1  0.3980989E-008  0.4614232E+02  0.7816164E-02  0.1320468E+00
        -11   -1    0    0    0    0  0.00000000000E+00  0.00000000000E+00  0.45593999997E+02  0.45594000000E+02  0.51100000000E-03 0.  1.
         11   -1    0    0    0    0 -0.00000000000E+00 -0.00000000000E+00 -0.45593999997E+02  0.45594000000E+02  0.51100000000E-03 0. -1.
    9900012    2    1    2    0    0  0.10768933457E+02 -0.40311562046E+02 -0.16974139709E+02  0.46142318951E+02  0.10000010848E+02 0.  0.
        -12    1    1    2    0    0 -0.10768933457E+02  0.40311562046E+02  0.16974139709E+02  0.45045681049E+02  0.00000000000E+00 0.  1.
         11    1    3    3    0    0  0.33612549457E+01 -0.53106313015E+01 -0.20663124508E+01  0.66159267707E+01  0.51100000000E-03 0. -1.
        -11    1    3    3    0    0  0.68458728947E+00  0.24315877917E+00 -0.34063445511E+00  0.80238272783E+00  0.51100000000E-03 0.  1.
         12    1    3    3    0    0  0.67230912214E+01 -0.35244089523E+02 -0.14567192803E+02  0.38724009452E+02  0.00000000000E+00 0. -1.
</event>
<event>
 7    1  0.3980989E-008  0.4614232E+02  0.7816164E-02  0.1320468E+00
        -11   -1    0    0    0    0  0.00000000000E+00  0.00000000000E+00  0.45593999997E+02  0.45594000000E+02  0.51100000000E-03 0.  1.
         11   -1    0    0    0    0 -0.00000000000E+00 -0.00000000000E+00 -0.45593999997E+02  0.45594000000E+02  0.51100000000E-03 0. -1.
    9900012    2    1    2    0    0  0.87391206617E+01  0.23453719355E+02 -0.37452160050E+02  0.46142317921E+02  0.10000001462E+02 0.  0.
        -12    1    1    2    0    0 -0.87391206617E+01 -0.23453719355E+02  0.37452160050E+02  0.45045682079E+02  0.00000000000E+00 0.  1.
         11    1    3    3    0    0 -0.80423355122E+00  0.29345246080E+01 -0.94777557428E+00  0.31869272160E+01  0.51100000000E-03 0.  1.
        -11    1    3    3    0    0  0.39775354549E+01  0.84511709516E+01 -0.14426047325E+02  0.17185863971E+02  0.51100000000E-03 0. -1.
        -12    1    3    3    0    0  0.55658187580E+01  0.12068023795E+02 -0.22078337150E+02  0.25769526734E+02  0.00000000000E+00 0.  1.
</event>
<event>
 7    1  0.3980989E-008  0.4614232E+02  0.7816164E-02  0.1320468E+00
        -11   -1    0    0    0    0  0.00000000000E+00  0.00000000000E+00  0.45593999997E+02  0.45594000000E+02  0.51100000000E-03 0. -1.
         11   -1    0    0    0    0 -0.00000000000E+00 -0.00000000000E+00 -0.45593999997E+02  0.45594000000E+02  0.51100000000E-03 0.  1.
    9900012    2    1    2    0    0  0.38092207975E+02 -0.11640209070E+02  0.21038125950E+02  0.46142317419E+02  0.99999968844E+01 0.  0.
        -12    1    1    2    0    0 -0.38092207975E+02  0.11640209070E+02 -0.21038125950E+02  0.45045682581E+02  0.00000000000E+00 0.  1.
         11    1    3    3    0    0  0.93341844284E+01 -0.17202883403E+01  0.59647710622E+01  0.11210035013E+02  0.51100000000E-03 0. -1.
        -11    1    3    3    0    0  0.11332257981E+01 -0.74674782132E+00  0.32365583158E+01  0.35095787512E+01  0.51100000000E-03 0.  1.
         12    1    3    3    0    0  0.27624797749E+02 -0.91731729088E+01  0.11836796572E+02  0.31422703655E+02  0.00000000000E+00 0. -1.
</event>
<event>
 7    1  0.3980989E-008  0.4614232E+02  0.7816164E-02  0.1320468E+00
        -11   -1    0    0    0    0  0.00000000000E+00  0.00000000000E+00  0.45593999997E+02  0.45594000000E+02  0.51100000000E-03 0.  1.
         11   -1    0    0    0    0 -0.00000000000E+00 -0.00000000000E+00 -0.45593999997E+02  0.45594000000E+02  0.51100000000E-03 0. -1.
    9900012    2    1    2    0    0 -0.64941044043E+00  0.35149443158E+02 -0.28163958022E+02  0.46142316303E+02  0.99999867025E+01 0.  0.
        -12    1    1    2    0    0  0.64941044043E+00 -0.35149443158E+02  0.28163958022E+02  0.45045683697E+02  0.00000000000E+00 0.  1.
         11    1    3    3    0    0  0.32013237432E+01  0.77647526937E+01 -0.95368235281E+01  0.12707905467E+02  0.51100000000E-03 0.  1.
        -11    1    3    3    0    0  0.34966081823E+00  0.27149756821E+01 -0.19784672043E+01  0.33775269624E+01  0.51100000000E-03 0. -1.
        -12    1    3    3    0    0 -0.42003950019E+01  0.24669714783E+02 -0.16648667290E+02  0.30056883873E+02  0.00000000000E+00 0.  1.
</event>
<event>
 7    1  0.3980989E-008  0.4614232E+02  0.7816164E-02  0.1320468E+00
        -11   -1    0    0    0    0  0.00000000000E+00  0.00000000000E+00  0.45593999997E+02  0.45594000000E+02  0.51100000000E-03 0.  1.
         11   -1    0    0    0    0 -0.00000000000E+00 -0.00000000000E+00 -0.45593999997E+02  0.45594000000E+02  0.51100000000E-03 0. -1.
    9900012    2    1    2    0    0 -0.30727965621E+02 -0.27303323050E+02 -0.18423740716E+02  0.46142317158E+02  0.99999944999E+01 0.  0.
        -12    1    1    2    0    0  0.30727965621E+02  0.27303323050E+02  0.18423740716E+02  0.45045682842E+02  0.00000000000E+00 0.  1.
         11    1    3    3    0    0 -0.10224481088E+02 -0.57507372481E+01 -0.60559758756E+01  0.13201736117E+02  0.51100000000E-03 0. -1.
        -11    1    3    3    0    0 -0.45502488584E+01 -0.60828344023E+01 -0.63950837215E+01  0.99298909916E+01  0.51100000000E-03 0.  1.
        -12    1    3    3    0    0 -0.15953235674E+02 -0.15469751399E+02 -0.59726811189E+01  0.23010690050E+02  0.00000000000E+00 0.  1.
</event>
<event>
 7    1  0.3980989E-008  0.4614232E+02  0.7816164E-02  0.1320468E+00
        -11   -1    0    0    0    0  0.00000000000E+00  0.00000000000E+00  0.45593999997E+02  0.45594000000E+02  0.51100000000E-03 0.  1.
         11   -1    0    0    0    0 -0.00000000000E+00 -0.00000000000E+00 -0.45593999997E+02  0.45594000000E+02  0.51100000000E-03 0. -1.
    9900012    2    1    2    0    0 -0.15631851492E+02 -0.14910782788E+02 -0.39527549955E+02  0.46142318411E+02  0.10000005922E+02 0.  0.
        -12    1    1    2    0    0  0.15631851492E+02  0.14910782788E+02  0.39527549955E+02  0.45045681589E+02  0.00000000000E+00 0.  1.
         11    1    3    3    0    0 -0.31914509113E+01 -0.38486882368E+01 -0.10377429073E+02  0.11519062223E+02  0.51100000000E-03 0. -1.
        -11    1    3    3    0    0 -0.76896909117E+01 -0.11474017125E+02 -0.23169968023E+02  0.26974651689E+02  0.51100000000E-03 0.  1.
        -12    1    3    3    0    0 -0.47507096689E+01  0.41192257324E+00 -0.59801528585E+01  0.76486044986E+01  0.00000000000E+00 0.  1.
</event>
<event>
 7    1  0.3980989E-008  0.4614231E+02  0.7816164E-02  0.1320468E+00
        -11   -1    0    0    0    0  0.00000000000E+00  0.00000000000E+00  0.45593999997E+02  0.45594000000E+02  0.51100000000E-03 0.  1.
         11   -1    0    0    0    0 -0.00000000000E+00 -0.00000000000E+00 -0.45593999997E+02  0.45594000000E+02  0.51100000000E-03 0. -1.
    9900012    2    1    2    0    0  0.12806551978E+02  0.14511040052E+02 -0.40675985546E+02  0.46142313669E+02  0.99999626819E+01 0.  0.
        -12    1    1    2    0    0 -0.12806551978E+02 -0.14511040052E+02  0.40675985546E+02  0.45045686331E+02  0.00000000000E+00 0.  1.
         11    1    3    3    0    0  0.89547338359E+00  0.14489455341E+01 -0.80032195474E+00  0.18819753542E+01  0.51100000000E-03 0. -1.
        -11    1    3    3    0    0 -0.59353443838E-01  0.25960486520E+01 -0.23392287585E+01  0.34949939743E+01  0.51100000000E-03 0.  1.
         12    1    3    3    0    0  0.11970432038E+02  0.10466045866E+02 -0.37536434832E+02  0.40765344340E+02  0.00000000000E+00 0. -1.
</event>
<event>
 7    1  0.3980989E-008  0.4614232E+02  0.7816164E-02  0.1320468E+00
        -11   -1    0    0    0    0  0.00000000000E+00  0.00000000000E+00  0.45593999997E+02  0.45594000000E+02  0.51100000000E-03 0.  1.
         11   -1    0    0    0    0 -0.00000000000E+00 -0.00000000000E+00 -0.45593999997E+02  0.45594000000E+02  0.51100000000E-03 0. -1.
    9900012    2    1    2    0    0  0.15108196597E+01 -0.32495433764E+02 -0.31158910957E+02  0.46142317370E+02  0.99999964325E+01 0.  0.
        -12    1    1    2    0    0 -0.15108196597E+01  0.32495433764E+02  0.31158910957E+02  0.45045682630E+02  0.00000000000E+00 0.  1.
         11    1    3    3    0    0  0.28476700927E+01 -0.18535551518E+02 -0.14732675306E+02  0.23848010755E+02  0.51100000000E-03 0. -1.
        -11    1    3    3    0    0 -0.54710983623E+00 -0.50312242651E+01 -0.22878756284E+01  0.55540005339E+01  0.51100000000E-03 0.  1.
         12    1    3    3    0    0 -0.78974059679E+00 -0.89286579815E+01 -0.14138360023E+02  0.16740306081E+02  0.00000000000E+00 0. -1.
</event>
<event>
 7    1  0.3980989E-008  0.4614232E+02  0.7816164E-02  0.1320468E+00
        -11   -1    0    0    0    0  0.00000000000E+00  0.00000000000E+00  0.45593999997E+02  0.45594000000E+02  0.51100000000E-03 0.  1.
         11   -1    0    0    0    0 -0.00000000000E+00 -0.00000000000E+00 -0.45593999997E+02  0.45594000000E+02  0.51100000000E-03 0. -1.
    9900012    2    1    2    0    0 -0.12817436483E+02 -0.34802092818E+02  0.25566405831E+02  0.46142318191E+02  0.10000003923E+02 0.  0.
        -12    1    1    2    0    0  0.12817436483E+02  0.34802092818E+02 -0.25566405831E+02  0.45045681809E+02  0.00000000000E+00 0.  1.
         11    1    3    3    0    0 -0.42266533515E+01 -0.18060107683E+02  0.14755811761E+02  0.23701604779E+02  0.51100000000E-03 0. -1.
        -11    1    3    3    0    0 -0.13404766222E+01 -0.59490161770E+00 -0.36041391612E+00  0.15101933523E+01  0.51100000000E-03 0.  1.
         12    1    3    3    0    0 -0.72503065095E+01 -0.16147083517E+02  0.11171007986E+02  0.20930520060E+02  0.00000000000E+00 0. -1.
</event>
<event>
 7    1  0.3980989E-008  0.4614232E+02  0.7816164E-02  0.1320468E+00
        -11   -1    0    0    0    0  0.00000000000E+00  0.00000000000E+00  0.45593999997E+02  0.45594000000E+02  0.51100000000E-03 0.  1.
         11   -1    0    0    0    0 -0.00000000000E+00 -0.00000000000E+00 -0.45593999997E+02  0.45594000000E+02  0.51100000000E-03 0. -1.
    9900012    2    1    2    0    0 -0.32000401532E+02 -0.24019192542E+02 -0.20692178878E+02  0.46142316797E+02  0.99999912043E+01 0.  0.
        -12    1    1    2    0    0  0.32000401532E+02  0.24019192542E+02  0.20692178878E+02  0.45045683203E+02  0.00000000000E+00 0.  1.
         11    1    3    3    0    0 -0.71727004274E+01 -0.27683193039E+01 -0.61744681295E+01  0.98607951066E+01  0.51100000000E-03 0. -1.
        -11    1    3    3    0    0 -0.33870484396E+01 -0.75846974443E+00 -0.25140568129E+01  0.42857736064E+01  0.51100000000E-03 0.  1.
        -12    1    3    3    0    0 -0.21440652665E+02 -0.20492403493E+02 -0.12003653935E+02  0.31995748084E+02  0.00000000000E+00 0.  1.
</event>
<event>
 7    1  0.3980989E-008  0.4614232E+02  0.7816164E-02  0.1320468E+00
        -11   -1    0    0    0    0  0.00000000000E+00  0.00000000000E+00  0.45593999997E+02  0.45594000000E+02  0.51100000000E-03 0. -1.
         11   -1    0    0    0    0 -0.00000000000E+00 -0.00000000000E+00 -0.45593999997E+02  0.45594000000E+02  0.51100000000E-03 0.  1.
    9900012    2    1    2    0    0  0.33439372242E+02  0.30908843847E+01  0.30022795317E+02  0.46142318510E+02  0.10000006833E+02 0.  0.
        -12    1    1    2    0    0 -0.33439372242E+02 -0.30908843847E+01 -0.30022795317E+02  0.45045681490E+02  0.00000000000E+00 0.  1.
         11    1    3    3    0    0  0.12089575880E+02  0.45408722738E+01  0.11769201488E+02  0.17472591963E+02  0.51100000000E-03 0. -1.
        -11    1    3    3    0    0 -0.10983227358E+00  0.21402566727E+00  0.11575628613E+01  0.11822952903E+01  0.51100000000E-03 0.  1.
         12    1    3    3    0    0  0.21459628635E+02 -0.16640135564E+01  0.17096030968E+02  0.27487431258E+02  0.00000000000E+00 0. -1.
</event>
<event>
 7    1  0.3980989E-008  0.4614232E+02  0.7816164E-02  0.1320468E+00
        -11   -1    0    0    0    0  0.00000000000E+00  0.00000000000E+00  0.45593999997E+02  0.45594000000E+02  0.51100000000E-03 0.  1.
         11   -1    0    0    0    0 -0.00000000000E+00 -0.00000000000E+00 -0.45593999997E+02  0.45594000000E+02  0.51100000000E-03 0. -1.
    9900012    2    1    2    0    0 -0.34926946644E+02 -0.25414096524E+02 -0.12780670578E+02  0.46142318249E+02  0.10000004450E+02 0.  0.
        -12    1    1    2    0    0  0.34926946644E+02  0.25414096524E+02  0.12780670578E+02  0.45045681751E+02  0.00000000000E+00 0.  1.
         11    1    3    3    0    0 -0.13504918439E+02 -0.11011643638E+02 -0.46291030398E+01  0.18029634297E+02  0.51100000000E-03 0. -1.
        -11    1    3    3    0    0 -0.51451123077E+01 -0.59123434766E+01  0.42679571119E+00  0.78492127557E+01  0.51100000000E-03 0.  1.
         12    1    3    3    0    0 -0.16276915897E+02 -0.84901094089E+01 -0.85783632495E+01  0.20263471197E+02  0.00000000000E+00 0. -1.
</event>
<event>
 7    1  0.3980989E-008  0.4614232E+02  0.7816164E-02  0.1320468E+00
        -11   -1    0    0    0    0  0.00000000000E+00  0.00000000000E+00  0.45593999997E+02  0.45594000000E+02  0.51100000000E-03 0. -1.
         11   -1    0    0    0    0 -0.00000000000E+00 -0.00000000000E+00 -0.45593999997E+02  0.45594000000E+02  0.51100000000E-03 0.  1.
    9900012    2    1    2    0    0  0.90698129983E+01 -0.32954779941E+02  0.29339975234E+02  0.46142321233E+02  0.10000031662E+02 0.  0.
        -12    1    1    2    0    0 -0.90698129983E+01  0.32954779941E+02 -0.29339975234E+02  0.45045678767E+02  0.00000000000E+00 0.  1.
         11    1    3    3    0    0  0.13144275586E+00 -0.23644523397E+01  0.12213194947E+01  0.26644950055E+01  0.51100000000E-03 0. -1.
        -11    1    3    3    0    0  0.59702973028E+01 -0.19279874774E+02  0.11726834863E+02  0.23342593629E+02  0.51100000000E-03 0.  1.
        -12    1    3    3    0    0  0.29680729396E+01 -0.11310452828E+02  0.16391820877E+02  0.20135232598E+02  0.00000000000E+00 0.  1.
</event>
<event>
 7    1  0.3980989E-008  0.4614232E+02  0.7816164E-02  0.1320468E+00
        -11   -1    0    0    0    0  0.00000000000E+00  0.00000000000E+00  0.45593999997E+02  0.45594000000E+02  0.51100000000E-03 0.  1.
         11   -1    0    0    0    0 -0.00000000000E+00 -0.00000000000E+00 -0.45593999997E+02  0.45594000000E+02  0.51100000000E-03 0. -1.
    9900012    2    1    2    0    0  0.43253623048E+02  0.52131697121E+01  0.11448166798E+02  0.46142316874E+02  0.99999919124E+01 0.  0.
        -12    1    1    2    0    0 -0.43253623048E+02 -0.52131697121E+01 -0.11448166798E+02  0.45045683126E+02  0.00000000000E+00 0.  1.
         11    1    3    3    0    0  0.47618891831E+01  0.93764345140E+00 -0.23852738429E+00  0.48591829980E+01  0.51100000000E-03 0.  1.
        -11    1    3    3    0    0  0.23982272549E+02 -0.13793584931E+01  0.70639467786E+01  0.25038997001E+02  0.51100000000E-03 0. -1.
         12    1    3    3    0    0  0.14509461316E+02  0.56548847538E+01  0.46227474037E+01  0.16244136875E+02  0.00000000000E+00 0. -1.
</event>
<event>
 7    1  0.3980989E-008  0.4614232E+02  0.7816164E-02  0.1320468E+00
        -11   -1    0    0    0    0  0.00000000000E+00  0.00000000000E+00  0.45593999997E+02  0.45594000000E+02  0.51100000000E-03 0.  1.
         11   -1    0    0    0    0 -0.00000000000E+00 -0.00000000000E+00 -0.45593999997E+02  0.45594000000E+02  0.51100000000E-03 0. -1.
    9900012    2    1    2    0    0  0.43389958528E+02  0.24332237170E+01 -0.11853456228E+02  0.46142317595E+02  0.99999984892E+01 0.  0.
        -12    1    1    2    0    0 -0.43389958528E+02 -0.24332237170E+01  0.11853456228E+02  0.45045682405E+02  0.00000000000E+00 0.  1.
         11    1    3    3    0    0  0.48176913268E+01  0.22649721565E+01 -0.57233878830E-02  0.53235591110E+01  0.51100000000E-03 0. -1.
        -11    1    3    3    0    0  0.27246105338E+02  0.10257574409E+01 -0.11091363892E+02  0.29435026544E+02  0.51100000000E-03 0.  1.
        -12    1    3    3    0    0  0.11326161864E+02 -0.85750588043E+00 -0.75636894728E+00  0.11383731940E+02  0.00000000000E+00 0.  1.
</event>
<event>
 7    1  0.3980989E-008  0.4614232E+02  0.7816164E-02  0.1320468E+00
        -11   -1    0    0    0    0  0.00000000000E+00  0.00000000000E+00  0.45593999997E+02  0.45594000000E+02  0.51100000000E-03 0.  1.
         11   -1    0    0    0    0 -0.00000000000E+00 -0.00000000000E+00 -0.45593999997E+02  0.45594000000E+02  0.51100000000E-03 0. -1.
    9900012    2    1    2    0    0 -0.13551403624E+02 -0.16215313332E+02 -0.39781105509E+02  0.46142320050E+02  0.10000020876E+02 0.  0.
        -12    1    1    2    0    0  0.13551403624E+02  0.16215313332E+02  0.39781105509E+02  0.45045679950E+02  0.00000000000E+00 0.  1.
         11    1    3    3    0    0 -0.13478902639E+01 -0.10567599580E+00 -0.12114170523E+01  0.18153531655E+01  0.51100000000E-03 0. -1.
        -11    1    3    3    0    0 -0.22574231321E+01 -0.96356891519E+01 -0.15638493847E+02  0.18506889385E+02  0.51100000000E-03 0.  1.
         12    1    3    3    0    0 -0.99460902281E+01 -0.64739481843E+01 -0.22931194609E+02  0.25820077500E+02  0.00000000000E+00 0. -1.
</event>
<event>
 7    1  0.4556684E-008  0.4614232E+02  0.7816164E-02  0.1320468E+00
        -11   -1    0    0    0    0  0.00000000000E+00  0.00000000000E+00  0.45593999997E+02  0.45594000000E+02  0.51100000000E-03 0.  1.
         11   -1    0    0    0    0 -0.00000000000E+00 -0.00000000000E+00 -0.45593999997E+02  0.45594000000E+02  0.51100000000E-03 0. -1.
    9900012    2    1    2    0    0 -0.42327733763E+02  0.10171593642E+02 -0.11576491954E+02  0.46142317314E+02  0.99999959224E+01 0.  0.
        -12    1    1    2    0    0  0.42327733763E+02 -0.10171593642E+02  0.11576491954E+02  0.45045682686E+02  0.00000000000E+00 0.  1.
         11    1    3    3    0    0 -0.20386938683E+02  0.44913055003E+01 -0.65968587188E+01  0.21893324078E+02  0.51100000000E-03 0. -1.
        -11    1    3    3    0    0 -0.17346648442E+02  0.15398395369E+01 -0.47894376752E+01  0.18061451533E+02  0.51100000000E-03 0.  1.
        -12    1    3    3    0    0 -0.45941466371E+01  0.41404486048E+01 -0.19019555991E+00  0.61875417027E+01  0.00000000000E+00 0.  1.
</event>
<event>
 7    1  0.3980989E-008  0.4614232E+02  0.7816164E-02  0.1320468E+00
        -11   -1    0    0    0    0  0.00000000000E+00  0.00000000000E+00  0.45593999997E+02  0.45594000000E+02  0.51100000000E-03 0. -1.
         11   -1    0    0    0    0 -0.00000000000E+00 -0.00000000000E+00 -0.45593999997E+02  0.45594000000E+02  0.51100000000E-03 0.  1.
    9900012    2    1    2    0    0 -0.39804854129E+02 -0.68835444937E+01  0.19932482579E+02  0.46142318089E+02  0.10000002991E+02 0.  0.
        -12    1    1    2    0    0  0.39804854129E+02  0.68835444937E+01 -0.19932482579E+02  0.45045681911E+02  0.00000000000E+00 0.  1.
         11    1    3    3    0    0 -0.13439889281E+02 -0.40561432734E+01  0.68601427429E+01  0.15625123387E+02  0.51100000000E-03 0. -1.
        -11    1    3    3    0    0 -0.92166811156E+01 -0.33477475257E+01  0.79177728042E+01  0.12603402347E+02  0.51100000000E-03 0.  1.
        -12    1    3    3    0    0 -0.17148283733E+02  0.52034630548E+00  0.51545670320E+01  0.17913792355E+02  0.00000000000E+00 0.  1.
</event>
<event>
 7    1  0.3980989E-008  0.4614231E+02  0.7816164E-02  0.1320468E+00
        -11   -1    0    0    0    0  0.00000000000E+00  0.00000000000E+00  0.45593999997E+02  0.45594000000E+02  0.51100000000E-03 0.  1.
         11   -1    0    0    0    0 -0.00000000000E+00 -0.00000000000E+00 -0.45593999997E+02  0.45594000000E+02  0.51100000000E-03 0. -1.
    9900012    2    1    2    0    0  0.38500114492E+02 -0.20432295106E+02 -0.11374377642E+02  0.46142312460E+02  0.99999516585E+01 0.  0.
        -12    1    1    2    0    0 -0.38500114492E+02  0.20432295106E+02  0.11374377642E+02  0.45045687540E+02  0.00000000000E+00 0.  1.
         11    1    3    3    0    0  0.17915618184E+02 -0.11685980831E+02 -0.45933359296E+01  0.21877620029E+02  0.51100000000E-03 0.  1.
        -11    1    3    3    0    0  0.13463852437E+02 -0.88804133213E+01 -0.39864360518E+01  0.16614112551E+02  0.51100000000E-03 0. -1.
        -12    1    3    3    0    0  0.71206438713E+01  0.13409904695E+00 -0.27946056611E+01  0.76505798798E+01  0.00000000000E+00 0.  1.
</event>
<event>
 7    1  0.3980989E-008  0.4614231E+02  0.7816164E-02  0.1320468E+00
        -11   -1    0    0    0    0  0.00000000000E+00  0.00000000000E+00  0.45593999997E+02  0.45594000000E+02  0.51100000000E-03 0. -1.
         11   -1    0    0    0    0 -0.00000000000E+00 -0.00000000000E+00 -0.45593999997E+02  0.45594000000E+02  0.51100000000E-03 0.  1.
    9900012    2    1    2    0    0  0.34869795039E+02  0.23973855463E+02 -0.15442325343E+02  0.46142314704E+02  0.99999721233E+01 0.  0.
        -12    1    1    2    0    0 -0.34869795039E+02 -0.23973855463E+02  0.15442325343E+02  0.45045685296E+02  0.00000000000E+00 0.  1.
         11    1    3    3    0    0  0.19361296146E+02  0.18086777859E+02 -0.11088110896E+02  0.28721725667E+02  0.51100000000E-03 0. -1.
        -11    1    3    3    0    0  0.16205911818E+01 -0.32082500407E+00 -0.53091484950E+00  0.17352565517E+01  0.51100000000E-03 0.  1.
         12    1    3    3    0    0  0.13887907710E+02  0.62079026076E+01 -0.38232995974E+01  0.15685332485E+02  0.00000000000E+00 0. -1.
</event>
<event>
 7    1  0.3980989E-008  0.4614232E+02  0.7816164E-02  0.1320468E+00
        -11   -1    0    0    0    0  0.00000000000E+00  0.00000000000E+00  0.45593999997E+02  0.45594000000E+02  0.51100000000E-03 0.  1.
         11   -1    0    0    0    0 -0.00000000000E+00 -0.00000000000E+00 -0.45593999997E+02  0.45594000000E+02  0.51100000000E-03 0. -1.
    9900012    2    1    2    0    0 -0.21869369068E+02 -0.36348015371E+02 -0.15154740712E+02  0.46142315513E+02  0.99999794978E+01 0.  0.
        -12    1    1    2    0    0  0.21869369068E+02  0.36348015371E+02  0.15154740712E+02  0.45045684487E+02  0.00000000000E+00 0.  1.
         11    1    3    3    0    0 -0.81279474810E+01 -0.15861814882E+02 -0.10391682903E+02  0.20631233008E+02  0.51100000000E-03 0. -1.
        -11    1    3    3    0    0 -0.18220032115E+01 -0.61405461694E+01 -0.14628082999E+01  0.65700693561E+01  0.51100000000E-03 0.  1.
         12    1    3    3    0    0 -0.11919418376E+02 -0.14345654319E+02 -0.33002495095E+01  0.18941013149E+02  0.00000000000E+00 0. -1.
</event>
<event>
 7    1  0.3980989E-008  0.4614232E+02  0.7816164E-02  0.1320468E+00
        -11   -1    0    0    0    0  0.00000000000E+00  0.00000000000E+00  0.45593999997E+02  0.45594000000E+02  0.51100000000E-03 0.  1.
         11   -1    0    0    0    0 -0.00000000000E+00 -0.00000000000E+00 -0.45593999997E+02  0.45594000000E+02  0.51100000000E-03 0. -1.
    9900012    2    1    2    0    0  0.17656622084E+01  0.33136985792E+02 -0.30462044135E+02  0.46142317373E+02  0.99999964645E+01 0.  0.
        -12    1    1    2    0    0 -0.17656622084E+01 -0.33136985792E+02  0.30462044135E+02  0.45045682627E+02  0.00000000000E+00 0.  1.
         11    1    3    3    0    0  0.12001071439E+01  0.50195606820E+01 -0.44202184184E+01  0.67951878359E+01  0.51100000000E-03 0. -1.
        -11    1    3    3    0    0 -0.84060283928E+00  0.19300318623E+02 -0.22714552201E+02  0.29818782572E+02  0.51100000000E-03 0.  1.
        -12    1    3    3    0    0  0.14061579037E+01  0.88171064874E+01 -0.33272735148E+01  0.95283469659E+01  0.00000000000E+00 0.  1.
</event>
<event>
 7    1  0.3980989E-008  0.4614232E+02  0.7816164E-02  0.1320468E+00
        -11   -1    0    0    0    0  0.00000000000E+00  0.00000000000E+00  0.45593999997E+02  0.45594000000E+02  0.51100000000E-03 0. -1.
         11   -1    0    0    0    0 -0.00000000000E+00 -0.00000000000E+00 -0.45593999997E+02  0.45594000000E+02  0.51100000000E-03 0.  1.
    9900012    2    1    2    0    0  0.16665377427E+02 -0.37610636017E+02  0.18352624901E+02  0.46142316665E+02  0.99999900043E+01 0.  0.
        -12    1    1    2    0    0 -0.16665377427E+02  0.37610636017E+02 -0.18352624901E+02  0.45045683335E+02  0.00000000000E+00 0.  1.
         11    1    3    3    0    0  0.88221233031E+01 -0.18546180967E+02  0.13219234214E+02  0.24424144642E+02  0.51100000000E-03 0.  1.
        -11    1    3    3    0    0  0.18893381432E+01 -0.95054188387E+01  0.36649950098E+01  0.10361214919E+02  0.51100000000E-03 0. -1.
        -12    1    3    3    0    0  0.59539159809E+01 -0.95590362114E+01  0.14683956774E+01  0.11356957104E+02  0.00000000000E+00 0.  1.
</event>
<event>
 7    1  0.3980989E-008  0.4614232E+02  0.7816164E-02  0.1320468E+00
        -11   -1    0    0    0    0  0.00000000000E+00  0.00000000000E+00  0.45593999997E+02  0.45594000000E+02  0.51100000000E-03 0.  1.
         11   -1    0    0    0    0 -0.00000000000E+00 -0.00000000000E+00 -0.45593999997E+02  0.45594000000E+02  0.51100000000E-03 0. -1.
    9900012    2    1    2    0    0 -0.27930088739E+02  0.21394752743E+02 -0.28129845417E+02  0.46142317576E+02  0.99999983076E+01 0.  0.
        -12    1    1    2    0    0  0.27930088739E+02 -0.21394752743E+02  0.28129845417E+02  0.45045682424E+02  0.00000000000E+00 0.  1.
         11    1    3    3    0    0 -0.24448212190E+01  0.18922769898E+01 -0.79314390321E-01  0.30925966489E+01  0.51100000000E-03 0. -1.
        -11    1    3    3    0    0 -0.12650994982E+02  0.12064181529E+02 -0.12056580587E+02  0.21235660709E+02  0.51100000000E-03 0.  1.
        -12    1    3    3    0    0 -0.12834272538E+02  0.74382942237E+01 -0.15993950440E+02  0.21814060218E+02  0.00000000000E+00 0.  1.
</event>
<event>
 7    1  0.3980989E-008  0.4614232E+02  0.7816164E-02  0.1320468E+00
        -11   -1    0    0    0    0  0.00000000000E+00  0.00000000000E+00  0.45593999997E+02  0.45594000000E+02  0.51100000000E-03 0.  1.
         11   -1    0    0    0    0 -0.00000000000E+00 -0.00000000000E+00 -0.45593999997E+02  0.45594000000E+02  0.51100000000E-03 0. -1.
    9900012    2    1    2    0    0 -0.29880612798E+02  0.19843159249E+02 -0.27249064012E+02  0.46142317857E+02  0.10000000873E+02 0.  0.
        -12    1    1    2    0    0  0.29880612798E+02 -0.19843159249E+02  0.27249064012E+02  0.45045682143E+02  0.00000000000E+00 0.  1.
         11    1    3    3    0    0 -0.49333405992E+01  0.60864098947E+01 -0.42303032782E+01  0.89038026124E+01  0.51100000000E-03 0. -1.
        -11    1    3    3    0    0 -0.15013882672E+02  0.94635149934E+01 -0.18107861792E+02  0.25354870299E+02  0.51100000000E-03 0.  1.
        -12    1    3    3    0    0 -0.99333895273E+01  0.42932343608E+01 -0.49108989417E+01  0.11883644946E+02  0.00000000000E+00 0.  1.
</event>
<event>
 7    1  0.3980989E-008  0.4614232E+02  0.7816164E-02  0.1320468E+00
        -11   -1    0    0    0    0  0.00000000000E+00  0.00000000000E+00  0.45593999997E+02  0.45594000000E+02  0.51100000000E-03 0.  1.
         11   -1    0    0    0    0 -0.00000000000E+00 -0.00000000000E+00 -0.45593999997E+02  0.45594000000E+02  0.51100000000E-03 0. -1.
    9900012    2    1    2    0    0  0.61529837560E+01 -0.34599626670E+02 -0.28180136248E+02  0.46142318145E+02  0.10000003501E+02 0.  0.
        -12    1    1    2    0    0 -0.61529837560E+01  0.34599626670E+02  0.28180136248E+02  0.45045681855E+02  0.00000000000E+00 0.  1.
         11    1    3    3    0    0 -0.50315737986E+00 -0.74808152976E+01 -0.80283222139E+01  0.10984977137E+02  0.51100000000E-03 0. -1.
        -11    1    3    3    0    0  0.33770933189E+01 -0.11218328731E+02 -0.12747870387E+02  0.17313689915E+02  0.51100000000E-03 0.  1.
         12    1    3    3    0    0  0.32790478170E+01 -0.15900482641E+02 -0.74039436475E+01  0.17843651093E+02  0.00000000000E+00 0. -1.
</event>
<event>
 7    1  0.3980989E-008  0.4614232E+02  0.7816164E-02  0.1320468E+00
        -11   -1    0    0    0    0  0.00000000000E+00  0.00000000000E+00  0.45593999997E+02  0.45594000000E+02  0.51100000000E-03 0.  1.
         11   -1    0    0    0    0 -0.00000000000E+00 -0.00000000000E+00 -0.45593999997E+02  0.45594000000E+02  0.51100000000E-03 0. -1.
    9900012    2    1    2    0    0 -0.19486515056E+02  0.35587298584E+02 -0.19568684569E+02  0.46142317573E+02  0.99999982862E+01 0.  0.
        -12    1    1    2    0    0  0.19486515056E+02 -0.35587298584E+02  0.19568684569E+02  0.45045682427E+02  0.00000000000E+00 0.  1.
         11    1    3    3    0    0 -0.82935907893E+01  0.67549172423E+01 -0.62150847458E+01  0.12370926958E+02  0.51100000000E-03 0. -1.
        -11    1    3    3    0    0 -0.37812581840E+01  0.11669111817E+02 -0.42902958497E+01  0.12995103800E+02  0.51100000000E-03 0.  1.
         12    1    3    3    0    0 -0.74116660827E+01  0.17163269525E+02 -0.90633039736E+01  0.20776286815E+02  0.00000000000E+00 0. -1.
</event>
<event>
 7    1  0.3980989E-008  0.4614232E+02  0.7816164E-02  0.1320468E+00
        -11   -1    0    0    0    0  0.00000000000E+00  0.00000000000E+00  0.45593999997E+02  0.45594000000E+02  0.51100000000E-03 0. -1.
         11   -1    0    0    0    0 -0.00000000000E+00 -0.00000000000E+00 -0.45593999997E+02  0.45594000000E+02  0.51100000000E-03 0.  1.
    9900012    2    1    2    0    0  0.27262405220E+02 -0.32422026531E+02  0.15319495914E+02  0.46142317656E+02  0.99999990414E+01 0.  0.
        -12    1    1    2    0    0 -0.27262405220E+02  0.32422026531E+02 -0.15319495914E+02  0.45045682344E+02  0.00000000000E+00 0.  1.
         11    1    3    3    0    0  0.26886260663E+01 -0.36779787842E+01  0.26269387762E+01  0.52589966397E+01  0.51100000000E-03 0. -1.
        -11    1    3    3    0    0  0.37102302506E+01 -0.72733581739E+01  0.61931074167E+01  0.10248030414E+02  0.51100000000E-03 0.  1.
         12    1    3    3    0    0  0.20863548904E+02 -0.21470689573E+02  0.64994497211E+01  0.30635290602E+02  0.00000000000E+00 0. -1.
</event>
<event>
 7    1  0.3980989E-008  0.4614232E+02  0.7816164E-02  0.1320468E+00
        -11   -1    0    0    0    0  0.00000000000E+00  0.00000000000E+00  0.45593999997E+02  0.45594000000E+02  0.51100000000E-03 0.  1.
         11   -1    0    0    0    0 -0.00000000000E+00 -0.00000000000E+00 -0.45593999997E+02  0.45594000000E+02  0.51100000000E-03 0. -1.
    9900012    2    1    2    0    0  0.37271215947E+02 -0.62241291759E+01 -0.24519994608E+02  0.46142318101E+02  0.10000003102E+02 0.  0.
        -12    1    1    2    0    0 -0.37271215947E+02  0.62241291759E+01  0.24519994608E+02  0.45045681899E+02  0.00000000000E+00 0.  1.
         11    1    3    3    0    0  0.22942984343E+01  0.64150792696E+00  0.16770593151E+00  0.23881924685E+01  0.51100000000E-03 0. -1.
        -11    1    3    3    0    0  0.27078296800E+02 -0.38562778695E+01 -0.16268564516E+02  0.31824066809E+02  0.51100000000E-03 0.  1.
         12    1    3    3    0    0  0.78986207120E+01 -0.30093592334E+01 -0.84191360234E+01  0.11930058823E+02  0.00000000000E+00 0. -1.
</event>
<event>
 7    1  0.3980989E-008  0.4614232E+02  0.7816164E-02  0.1320468E+00
        -11   -1    0    0    0    0  0.00000000000E+00  0.00000000000E+00  0.45593999997E+02  0.45594000000E+02  0.51100000000E-03 0. -1.
         11   -1    0    0    0    0 -0.00000000000E+00 -0.00000000000E+00 -0.45593999997E+02  0.45594000000E+02  0.51100000000E-03 0.  1.
    9900012    2    1    2    0    0 -0.44721566253E+02 -0.52179320483E+01 -0.13668684229E+01  0.46142316164E+02  0.99999854356E+01 0.  0.
        -12    1    1    2    0    0  0.44721566253E+02  0.52179320483E+01  0.13668684229E+01  0.45045683836E+02  0.00000000000E+00 0.  1.
         11    1    3    3    0    0 -0.26817771120E+02 -0.45078467317E+01 -0.20620999035E+01  0.27272069710E+02  0.51100000000E-03 0. -1.
        -11    1    3    3    0    0 -0.15719359978E+02 -0.26376910076E+01  0.43068638996E+00  0.15944942239E+02  0.51100000000E-03 0.  1.
        -12    1    3    3    0    0 -0.21844351550E+01  0.19276056909E+01  0.26454509060E+00  0.29253042151E+01  0.00000000000E+00 0.  1.
</event>
<event>
 7    1  0.3980989E-008  0.4614232E+02  0.7816164E-02  0.1320468E+00
        -11   -1    0    0    0    0  0.00000000000E+00  0.00000000000E+00  0.45593999997E+02  0.45594000000E+02  0.51100000000E-03 0.  1.
         11   -1    0    0    0    0 -0.00000000000E+00 -0.00000000000E+00 -0.45593999997E+02  0.45594000000E+02  0.51100000000E-03 0. -1.
    9900012    2    1    2    0    0 -0.62171295563E+01  0.16288824000E+01 -0.44584834873E+02  0.46142318093E+02  0.10000003024E+02 0.  0.
        -12    1    1    2    0    0  0.62171295563E+01 -0.16288824000E+01  0.44584834873E+02  0.45045681907E+02  0.00000000000E+00 0.  1.
         11    1    3    3    0    0 -0.26652614469E+01  0.32591127833E+01 -0.25303826050E+02  0.25651687036E+02  0.51100000000E-03 0. -1.
        -11    1    3    3    0    0 -0.47645228845E+00 -0.17804656556E+01 -0.15524194650E+02  0.15633223741E+02  0.51100000000E-03 0.  1.
        -12    1    3    3    0    0 -0.30754158209E+01  0.15023527229E+00 -0.37568141730E+01  0.48574073166E+01  0.00000000000E+00 0.  1.
</event>
<event>
 7    1  0.3980989E-008  0.4614232E+02  0.7816164E-02  0.1320468E+00
        -11   -1    0    0    0    0  0.00000000000E+00  0.00000000000E+00  0.45593999997E+02  0.45594000000E+02  0.51100000000E-03 0.  1.
         11   -1    0    0    0    0 -0.00000000000E+00 -0.00000000000E+00 -0.45593999997E+02  0.45594000000E+02  0.51100000000E-03 0. -1.
    9900012    2    1    2    0    0  0.40669282500E+02  0.15809171346E+02 -0.11188970265E+02  0.46142317706E+02  0.99999994997E+01 0.  0.
        -12    1    1    2    0    0 -0.40669282500E+02 -0.15809171346E+02  0.11188970265E+02  0.45045682294E+02  0.00000000000E+00 0.  1.
         11    1    3    3    0    0  0.22403874577E+02  0.89486060570E+01 -0.54132885861E+01  0.24724781900E+02  0.51100000000E-03 0. -1.
        -11    1    3    3    0    0  0.49479809480E+01  0.29979628791E+01 -0.47993747338E+01  0.75169338818E+01  0.51100000000E-03 0.  1.
        -12    1    3    3    0    0  0.13317426975E+02  0.38626024102E+01 -0.97630694547E+00  0.13900601924E+02  0.00000000000E+00 0.  1.
</event>
<event>
 7    1  0.3980989E-008  0.4614232E+02  0.7816164E-02  0.1320468E+00
        -11   -1    0    0    0    0  0.00000000000E+00  0.00000000000E+00  0.45593999997E+02  0.45594000000E+02  0.51100000000E-03 0.  1.
         11   -1    0    0    0    0 -0.00000000000E+00 -0.00000000000E+00 -0.45593999997E+02  0.45594000000E+02  0.51100000000E-03 0. -1.
    9900012    2    1    2    0    0  0.37603403589E+01  0.17020255494E+02 -0.41536540714E+02  0.46142317952E+02  0.10000001740E+02 0.  0.
        -12    1    1    2    0    0 -0.37603403589E+01 -0.17020255494E+02  0.41536540714E+02  0.45045682048E+02  0.00000000000E+00 0.  1.
         11    1    3    3    0    0  0.34262521683E+01  0.39742832602E+01 -0.11969536743E+02  0.13069198195E+02  0.51100000000E-03 0. -1.
        -11    1    3    3    0    0  0.22273556313E+00  0.18085772471E+01 -0.47078622879E+00  0.18820740485E+01  0.51100000000E-03 0.  1.
         12    1    3    3    0    0  0.11135262752E+00  0.11237394987E+02 -0.29096217742E+02  0.31191045708E+02  0.00000000000E+00 0. -1.
</event>
<event>
 7    1  0.3980989E-008  0.4614232E+02  0.7816164E-02  0.1320468E+00
        -11   -1    0    0    0    0  0.00000000000E+00  0.00000000000E+00  0.45593999997E+02  0.45594000000E+02  0.51100000000E-03 0. -1.
         11   -1    0    0    0    0 -0.00000000000E+00 -0.00000000000E+00 -0.45593999997E+02  0.45594000000E+02  0.51100000000E-03 0.  1.
    9900012    2    1    2    0    0  0.24945444910E+02  0.35864028934E+02  0.10982249038E+02  0.46142316666E+02  0.99999900128E+01 0.  0.
        -12    1    1    2    0    0 -0.24945444910E+02 -0.35864028934E+02 -0.10982249038E+02  0.45045683334E+02  0.00000000000E+00 0.  1.
         11    1    3    3    0    0  0.89926553912E+01  0.18826343214E+02  0.73903700214E+01  0.22134060159E+02  0.51100000000E-03 0. -1.
        -11    1    3    3    0    0  0.53553164843E+00 -0.76337092808E-01  0.55423885660E+00  0.77446915335E+00  0.51100000000E-03 0.  1.
         12    1    3    3    0    0  0.15417257870E+02  0.17114022813E+02  0.30376401600E+01  0.23233787354E+02  0.00000000000E+00 0. -1.
</event>
<event>
 7    1  0.3980989E-008  0.4614232E+02  0.7816164E-02  0.1320468E+00
        -11   -1    0    0    0    0  0.00000000000E+00  0.00000000000E+00  0.45593999997E+02  0.45594000000E+02  0.51100000000E-03 0.  1.
         11   -1    0    0    0    0 -0.00000000000E+00 -0.00000000000E+00 -0.45593999997E+02  0.45594000000E+02  0.51100000000E-03 0. -1.
    9900012    2    1    2    0    0 -0.17450139952E+02 -0.37662700438E+02 -0.17496491436E+02  0.46142316509E+02  0.99999885833E+01 0.  0.
        -12    1    1    2    0    0  0.17450139952E+02  0.37662700438E+02  0.17496491436E+02  0.45045683491E+02  0.00000000000E+00 0.  1.
         11    1    3    3    0    0 -0.93340947801E+01 -0.19418960450E+02 -0.94586154619E+01  0.23530549442E+02  0.51100000000E-03 0. -1.
        -11    1    3    3    0    0 -0.30485649576E+01 -0.14299824079E+02 -0.65445971239E+01  0.16019065789E+02  0.51100000000E-03 0.  1.
        -12    1    3    3    0    0 -0.50674802139E+01 -0.39439159088E+01 -0.14932788501E+01  0.65927012777E+01  0.00000000000E+00 0.  1.
</event>
<event>
 7    1  0.3980989E-008  0.4614232E+02  0.7816164E-02  0.1320468E+00
        -11   -1    0    0    0    0  0.00000000000E+00  0.00000000000E+00  0.45593999997E+02  0.45594000000E+02  0.51100000000E-03 0.  1.
         11   -1    0    0    0    0 -0.00000000000E+00 -0.00000000000E+00 -0.45593999997E+02  0.45594000000E+02  0.51100000000E-03 0. -1.
    9900012    2    1    2    0    0  0.11450774062E+02  0.29825606057E+02 -0.31755731516E+02  0.46142317772E+02  0.10000000098E+02 0.  0.
        -12    1    1    2    0    0 -0.11450774062E+02 -0.29825606057E+02  0.31755731516E+02  0.45045682228E+02  0.00000000000E+00 0.  1.
         11    1    3    3    0    0  0.51408088296E+01  0.18904353551E+02 -0.22114102066E+02  0.29543798149E+02  0.51100000000E-03 0. -1.
        -11    1    3    3    0    0  0.21921602688E+01  0.50408340299E+00 -0.10546359410E+01  0.24843357161E+01  0.51100000000E-03 0.  1.
        -12    1    3    3    0    0  0.41178049638E+01  0.10417169102E+02 -0.85869935090E+01  0.14114183907E+02  0.00000000000E+00 0.  1.
</event>
<event>
 7    1  0.3980989E-008  0.4614232E+02  0.7816164E-02  0.1320468E+00
        -11   -1    0    0    0    0  0.00000000000E+00  0.00000000000E+00  0.45593999997E+02  0.45594000000E+02  0.51100000000E-03 0.  1.
         11   -1    0    0    0    0 -0.00000000000E+00 -0.00000000000E+00 -0.45593999997E+02  0.45594000000E+02  0.51100000000E-03 0. -1.
    9900012    2    1    2    0    0  0.18823141901E+02  0.40787792785E+02  0.33404806240E+01  0.46142317387E+02  0.99999965882E+01 0.  0.
        -12    1    1    2    0    0 -0.18823141901E+02 -0.40787792785E+02 -0.33404806240E+01  0.45045682613E+02  0.00000000000E+00 0.  1.
         11    1    3    3    0    0  0.32862723346E+01  0.89198248277E+01 -0.40820248560E+00  0.95146986470E+01  0.51100000000E-03 0. -1.
        -11    1    3    3    0    0  0.16093033199E+02  0.30669954189E+02  0.23674716344E+01  0.34716519550E+02  0.51100000000E-03 0.  1.
        -12    1    3    3    0    0 -0.55616363192E+00  0.11980137683E+01  0.13812114752E+01  0.19110991900E+01  0.00000000000E+00 0.  1.
</event>
<event>
 7    1  0.3980989E-008  0.4614231E+02  0.7816164E-02  0.1320468E+00
        -11   -1    0    0    0    0  0.00000000000E+00  0.00000000000E+00  0.45593999997E+02  0.45594000000E+02  0.51100000000E-03 0.  1.
         11   -1    0    0    0    0 -0.00000000000E+00 -0.00000000000E+00 -0.45593999997E+02  0.45594000000E+02  0.51100000000E-03 0. -1.
    9900012    2    1    2    0    0 -0.32017751158E+01 -0.24287227631E+02 -0.37802026109E+02  0.46142312439E+02  0.99999514691E+01 0.  0.
        -12    1    1    2    0    0  0.32017751158E+01  0.24287227631E+02  0.37802026109E+02  0.45045687561E+02  0.00000000000E+00 0.  1.
         11    1    3    3    0    0  0.12414647661E+01 -0.99746630637E+00 -0.30528555393E+01  0.34432689414E+01  0.51100000000E-03 0. -1.
        -11    1    3    3    0    0  0.62060082877E-01 -0.17367499944E+02 -0.23947206134E+02  0.29582132912E+02  0.51100000000E-03 0.  1.
        -12    1    3    3    0    0 -0.45052999648E+01 -0.59222613807E+01 -0.10801964436E+02  0.13116910585E+02  0.00000000000E+00 0.  1.
</event>
<event>
 7    1  0.3980989E-008  0.4614232E+02  0.7816164E-02  0.1320468E+00
        -11   -1    0    0    0    0  0.00000000000E+00  0.00000000000E+00  0.45593999997E+02  0.45594000000E+02  0.51100000000E-03 0.  1.
         11   -1    0    0    0    0 -0.00000000000E+00 -0.00000000000E+00 -0.45593999997E+02  0.45594000000E+02  0.51100000000E-03 0. -1.
    9900012    2    1    2    0    0  0.29726737493E+02  0.28187738957E+02 -0.18731947484E+02  0.46142318675E+02  0.10000008331E+02 0.  0.
        -12    1    1    2    0    0 -0.29726737493E+02 -0.28187738957E+02  0.18731947484E+02  0.45045681325E+02  0.00000000000E+00 0.  1.
         11    1    3    3    0    0  0.83241136746E+01  0.75925903258E+01 -0.94488721683E+01  0.14704403485E+02  0.51100000000E-03 0. -1.
        -11    1    3    3    0    0  0.38924383007E+01  0.22082549587E+01 -0.26272424155E+01  0.51893996626E+01  0.51100000000E-03 0.  1.
        -12    1    3    3    0    0  0.17510185518E+02  0.18386893673E+02 -0.66558329001E+01  0.26248515528E+02  0.00000000000E+00 0.  1.
</event>
<event>
 7    1  0.3980989E-008  0.4614232E+02  0.7816164E-02  0.1320468E+00
        -11   -1    0    0    0    0  0.00000000000E+00  0.00000000000E+00  0.45593999997E+02  0.45594000000E+02  0.51100000000E-03 0.  1.
         11   -1    0    0    0    0 -0.00000000000E+00 -0.00000000000E+00 -0.45593999997E+02  0.45594000000E+02  0.51100000000E-03 0. -1.
    9900012    2    1    2    0    0  0.20446929684E+02 -0.28457026574E+02 -0.28306074275E+02  0.46142321675E+02  0.10000035686E+02 0.  0.
        -12    1    1    2    0    0 -0.20446929684E+02  0.28457026574E+02  0.28306074275E+02  0.45045678325E+02  0.00000000000E+00 0.  1.
         11    1    3    3    0    0  0.62921368839E+01 -0.70379081735E+01 -0.47874023815E+01  0.10585006370E+02  0.51100000000E-03 0.  1.
        -11    1    3    3    0    0  0.62531542461E+01 -0.12988761707E+02 -0.89699695174E+01  0.16978522377E+02  0.51100000000E-03 0. -1.
         12    1    3    3    0    0  0.79016385543E+01 -0.84303566931E+01 -0.14548702376E+02  0.18578792928E+02  0.00000000000E+00 0. -1.
</event>
<event>
 7    1  0.3980989E-008  0.4614230E+02  0.7816164E-02  0.1320468E+00
        -11   -1    0    0    0    0  0.00000000000E+00  0.00000000000E+00  0.45593999997E+02  0.45594000000E+02  0.51100000000E-03 0.  1.
         11   -1    0    0    0    0 -0.00000000000E+00 -0.00000000000E+00 -0.45593999997E+02  0.45594000000E+02  0.51100000000E-03 0. -1.
    9900012    2    1    2    0    0  0.18175093124E+02  0.22030728127E+02 -0.34834289872E+02  0.46142303838E+02  0.99998730327E+01 0.  0.
        -12    1    1    2    0    0 -0.18175093124E+02 -0.22030728127E+02  0.34834289872E+02  0.45045696162E+02  0.00000000000E+00 0.  1.
         11    1    3    3    0    0  0.22133952450E+01  0.14012578880E+01 -0.86222134579E+00  0.27579100945E+01  0.51100000000E-03 0. -1.
        -11    1    3    3    0    0  0.69835014817E+01  0.14374069199E+02 -0.21573300653E+02  0.26847541035E+02  0.51100000000E-03 0.  1.
        -12    1    3    3    0    0  0.89781963976E+01  0.62554010404E+01 -0.12398767873E+02  0.16536852708E+02  0.00000000000E+00 0.  1.
</event>
<event>
 7    1  0.3980989E-008  0.4614232E+02  0.7816164E-02  0.1320468E+00
        -11   -1    0    0    0    0  0.00000000000E+00  0.00000000000E+00  0.45593999997E+02  0.45594000000E+02  0.51100000000E-03 0.  1.
         11   -1    0    0    0    0 -0.00000000000E+00 -0.00000000000E+00 -0.45593999997E+02  0.45594000000E+02  0.51100000000E-03 0. -1.
    9900012    2    1    2    0    0  0.10486684918E+02  0.43807432936E+02  0.22736261562E+00  0.46142318356E+02  0.10000005422E+02 0.  0.
        -12    1    1    2    0    0 -0.10486684918E+02 -0.43807432936E+02 -0.22736261562E+00  0.45045681644E+02  0.00000000000E+00 0.  1.
         11    1    3    3    0    0 -0.42539142051E+00  0.13417237236E+02  0.90138338026E+00  0.13454207712E+02  0.51100000000E-03 0. -1.
        -11    1    3    3    0    0  0.32299125177E+01  0.41534247433E+01  0.73985442662E+00  0.53132529399E+01  0.51100000000E-03 0.  1.
         12    1    3    3    0    0  0.76821638205E+01  0.26236770957E+02 -0.14138751913E+01  0.27374857703E+02  0.00000000000E+00 0. -1.
</event>
<event>
 7    1  0.3980989E-008  0.4614232E+02  0.7816164E-02  0.1320468E+00
        -11   -1    0    0    0    0  0.00000000000E+00  0.00000000000E+00  0.45593999997E+02  0.45594000000E+02  0.51100000000E-03 0.  1.
         11   -1    0    0    0    0 -0.00000000000E+00 -0.00000000000E+00 -0.45593999997E+02  0.45594000000E+02  0.51100000000E-03 0. -1.
    9900012    2    1    2    0    0 -0.12959547487E+02 -0.35767714644E+02 -0.24121239793E+02  0.46142317731E+02  0.99999997247E+01 0.  0.
        -12    1    1    2    0    0  0.12959547487E+02  0.35767714644E+02  0.24121239793E+02  0.45045682269E+02  0.00000000000E+00 0.  1.
         11    1    3    3    0    0 -0.46466806047E+01 -0.88841180205E+01 -0.10782517236E+02  0.14723514249E+02  0.51100000000E-03 0. -1.
        -11    1    3    3    0    0 -0.73818712121E+01 -0.19810562762E+02 -0.84342296216E+01  0.22761516846E+02  0.51100000000E-03 0.  1.
        -12    1    3    3    0    0 -0.93099567048E+00 -0.70730338612E+01 -0.49044929357E+01  0.86572866359E+01  0.00000000000E+00 0.  1.
</event>
<event>
 7    1  0.3980989E-008  0.4614232E+02  0.7816164E-02  0.1320468E+00
        -11   -1    0    0    0    0  0.00000000000E+00  0.00000000000E+00  0.45593999997E+02  0.45594000000E+02  0.51100000000E-03 0. -1.
         11   -1    0    0    0    0 -0.00000000000E+00 -0.00000000000E+00 -0.45593999997E+02  0.45594000000E+02  0.51100000000E-03 0.  1.
    9900012    2    1    2    0    0 -0.27238946055E+02  0.35729455386E+02 -0.32494715505E+01  0.46142320632E+02  0.10000026182E+02 0.  0.
        -12    1    1    2    0    0  0.27238946055E+02 -0.35729455386E+02  0.32494715505E+01  0.45045679368E+02  0.00000000000E+00 0.  1.
         11    1    3    3    0    0 -0.55153601536E+01  0.10414687415E+02  0.15472033214E+01  0.11886073782E+02  0.51100000000E-03 0. -1.
        -11    1    3    3    0    0 -0.14558400274E+02  0.12749394657E+02 -0.40574833306E+01  0.19772639022E+02  0.51100000000E-03 0.  1.
        -12    1    3    3    0    0 -0.71651856277E+01  0.12565373313E+02 -0.73919154132E+00  0.14483607828E+02  0.00000000000E+00 0.  1.
</event>
<event>
 7    1  0.3980989E-008  0.4614232E+02  0.7816164E-02  0.1320468E+00
        -11   -1    0    0    0    0  0.00000000000E+00  0.00000000000E+00  0.45593999997E+02  0.45594000000E+02  0.51100000000E-03 0.  1.
         11   -1    0    0    0    0 -0.00000000000E+00 -0.00000000000E+00 -0.45593999997E+02  0.45594000000E+02  0.51100000000E-03 0. -1.
    9900012    2    1    2    0    0 -0.32317861346E+01  0.18677435568E+02 -0.40863459487E+02  0.46142319161E+02  0.10000012761E+02 0.  0.
        -12    1    1    2    0    0  0.32317861346E+01 -0.18677435568E+02  0.40863459487E+02  0.45045680839E+02  0.00000000000E+00 0.  1.
         11    1    3    3    0    0  0.50399596624E+00  0.51727829932E+01 -0.63639571768E+01  0.82165471482E+01  0.51100000000E-03 0.  1.
        -11    1    3    3    0    0 -0.13907896112E+01  0.47037049347E+01 -0.21504167481E+02  0.22056481024E+02  0.51100000000E-03 0. -1.
         12    1    3    3    0    0 -0.23449924896E+01  0.88009476402E+01 -0.12995334830E+02  0.15869290989E+02  0.00000000000E+00 0. -1.
</event>
<event>
 7    1  0.3980989E-008  0.4614232E+02  0.7816164E-02  0.1320468E+00
        -11   -1    0    0    0    0  0.00000000000E+00  0.00000000000E+00  0.45593999997E+02  0.45594000000E+02  0.51100000000E-03 0. -1.
         11   -1    0    0    0    0 -0.00000000000E+00 -0.00000000000E+00 -0.45593999997E+02  0.45594000000E+02  0.51100000000E-03 0.  1.
    9900012    2    1    2    0    0  0.38777825186E+01  0.86891873187E+01  0.44029243854E+02  0.46142317766E+02  0.10000000047E+02 0.  0.
        -12    1    1    2    0    0 -0.38777825186E+01 -0.86891873187E+01 -0.44029243854E+02  0.45045682234E+02  0.00000000000E+00 0.  1.
         11    1    3    3    0    0  0.31529914607E+01  0.70810691430E+01  0.18010261447E+02  0.19607458097E+02  0.51100000000E-03 0. -1.
        -11    1    3    3    0    0 -0.20991301565E+01  0.86458898872E+00  0.10344297224E+02  0.10590483787E+02  0.51100000000E-03 0.  1.
         12    1    3    3    0    0  0.28239212145E+01  0.74352918691E+00  0.15674685184E+02  0.15944375883E+02  0.00000000000E+00 0. -1.
</event>
<event>
 7    1  0.3980989E-008  0.4614232E+02  0.7816164E-02  0.1320468E+00
        -11   -1    0    0    0    0  0.00000000000E+00  0.00000000000E+00  0.45593999997E+02  0.45594000000E+02  0.51100000000E-03 0. -1.
         11   -1    0    0    0    0 -0.00000000000E+00 -0.00000000000E+00 -0.45593999997E+02  0.45594000000E+02  0.51100000000E-03 0.  1.
    9900012    2    1    2    0    0 -0.39489949162E+02 -0.61882978108E+01  0.20769263858E+02  0.46142318345E+02  0.10000005321E+02 0.  0.
        -12    1    1    2    0    0  0.39489949162E+02  0.61882978108E+01 -0.20769263858E+02  0.45045681655E+02  0.00000000000E+00 0.  1.
         11    1    3    3    0    0 -0.14656966575E+02 -0.41456353824E+01  0.63452367996E+01  0.16500757322E+02  0.51100000000E-03 0. -1.
        -11    1    3    3    0    0 -0.14220629660E+02  0.52007717544E+00  0.46010158543E+01  0.14955471753E+02  0.51100000000E-03 0.  1.
         12    1    3    3    0    0 -0.10612352927E+02 -0.25627396038E+01  0.98230112038E+01  0.14686089270E+02  0.00000000000E+00 0. -1.
</event>
<event>
 7    1  0.4481105E-008  0.4614232E+02  0.7816164E-02  0.1320468E+00
        -11   -1    0    0    0    0  0.00000000000E+00  0.00000000000E+00  0.45593999997E+02  0.45594000000E+02  0.51100000000E-03 0. -1.
         11   -1    0    0    0    0 -0.00000000000E+00 -0.00000000000E+00 -0.45593999997E+02  0.45594000000E+02  0.51100000000E-03 0.  1.
    9900012    2    1    2    0    0 -0.18209181939E+02  0.38806553229E+02 -0.13841633143E+02  0.46142315540E+02  0.99999797477E+01 0.  0.
        -12    1    1    2    0    0  0.18209181939E+02 -0.38806553229E+02  0.13841633143E+02  0.45045684460E+02  0.00000000000E+00 0.  1.
         11    1    3    3    0    0 -0.16668518312E+01  0.17444655482E+01  0.58238678086E+00  0.24820817270E+01  0.51100000000E-03 0. -1.
        -11    1    3    3    0    0 -0.69160357359E+00  0.32258512318E+00  0.54627157345E+00  0.93850389332E+00  0.51100000000E-03 0.  1.
         12    1    3    3    0    0 -0.15850726535E+02  0.36739502557E+02 -0.14970291497E+02  0.42721729920E+02  0.00000000000E+00 0. -1.
</event>
<event>
 7    1  0.3980989E-008  0.4614232E+02  0.7816164E-02  0.1320468E+00
        -11   -1    0    0    0    0  0.00000000000E+00  0.00000000000E+00  0.45593999997E+02  0.45594000000E+02  0.51100000000E-03 0. -1.
         11   -1    0    0    0    0 -0.00000000000E+00 -0.00000000000E+00 -0.45593999997E+02  0.45594000000E+02  0.51100000000E-03 0.  1.
    9900012    2    1    2    0    0  0.31091266289E+02  0.14089388152E+02  0.29392783615E+02  0.46142318447E+02  0.10000006251E+02 0.  0.
        -12    1    1    2    0    0 -0.31091266289E+02 -0.14089388152E+02 -0.29392783615E+02  0.45045681553E+02  0.00000000000E+00 0.  1.
         11    1    3    3    0    0  0.26868631777E+02  0.10802491134E+02  0.21154850402E+02  0.35862862184E+02  0.51100000000E-03 0. -1.
        -11    1    3    3    0    0  0.28873003609E+01  0.31692471154E+01  0.41090970497E+01  0.59384601942E+01  0.51100000000E-03 0.  1.
         12    1    3    3    0    0  0.13353341506E+01  0.11764990313E+00  0.41288361639E+01  0.43409960680E+01  0.00000000000E+00 0. -1.
</event>
<event>
 7    1  0.3980989E-008  0.4614232E+02  0.7816164E-02  0.1320468E+00
        -11   -1    0    0    0    0  0.00000000000E+00  0.00000000000E+00  0.45593999997E+02  0.45594000000E+02  0.51100000000E-03 0.  1.
         11   -1    0    0    0    0 -0.00000000000E+00 -0.00000000000E+00 -0.45593999997E+02  0.45594000000E+02  0.51100000000E-03 0. -1.
    9900012    2    1    2    0    0 -0.23609014190E+02  0.10230724491E+02 -0.36973777455E+02  0.46142317700E+02  0.99999994408E+01 0.  0.
        -12    1    1    2    0    0  0.23609014190E+02 -0.10230724491E+02  0.36973777455E+02  0.45045682300E+02  0.00000000000E+00 0.  1.
         11    1    3    3    0    0 -0.57739967230E+01 -0.99061302035E+00 -0.90477286239E+01  0.10778763650E+02  0.51100000000E-03 0. -1.
        -11    1    3    3    0    0 -0.19932078975E+01  0.10882614621E+01 -0.63424263076E+01  0.67367323282E+01  0.51100000000E-03 0.  1.
         12    1    3    3    0    0 -0.15841809569E+02  0.10133076049E+02 -0.21583622523E+02  0.28626821721E+02  0.00000000000E+00 0. -1.
</event>
<event>
 7    1  0.3980989E-008  0.4614231E+02  0.7816164E-02  0.1320468E+00
        -11   -1    0    0    0    0  0.00000000000E+00  0.00000000000E+00  0.45593999997E+02  0.45594000000E+02  0.51100000000E-03 0. -1.
         11   -1    0    0    0    0 -0.00000000000E+00 -0.00000000000E+00 -0.45593999997E+02  0.45594000000E+02  0.51100000000E-03 0.  1.
    9900012    2    1    2    0    0  0.21346876188E+02  0.38582313214E+02  0.92103435065E+01  0.46142307160E+02  0.99999033309E+01 0.  0.
        -12    1    1    2    0    0 -0.21346876188E+02 -0.38582313214E+02 -0.92103435065E+01  0.45045692840E+02  0.00000000000E+00 0.  1.
         11    1    3    3    0    0  0.79450434630E+01  0.82584084309E+01  0.14955187085E+01  0.11556885476E+02  0.51100000000E-03 0. -1.
        -11    1    3    3    0    0  0.57044693736E+01  0.69650998412E+01  0.80540928062E+00  0.90389308551E+01  0.51100000000E-03 0.  1.
        -12    1    3    3    0    0  0.76973633509E+01  0.23358804942E+02  0.69094155174E+01  0.25546490829E+02  0.00000000000E+00 0.  1.
</event>
<event>
 7    1  0.3980989E-008  0.4614232E+02  0.7816164E-02  0.1320468E+00
        -11   -1    0    0    0    0  0.00000000000E+00  0.00000000000E+00  0.45593999997E+02  0.45594000000E+02  0.51100000000E-03 0.  1.
         11   -1    0    0    0    0 -0.00000000000E+00 -0.00000000000E+00 -0.45593999997E+02  0.45594000000E+02  0.51100000000E-03 0. -1.
    9900012    2    1    2    0    0 -0.14880358239E+02  0.33220079256E+01 -0.42386937340E+02  0.46142320351E+02  0.10000023614E+02 0.  0.
        -12    1    1    2    0    0  0.14880358239E+02 -0.33220079256E+01  0.42386937340E+02  0.45045679649E+02  0.00000000000E+00 0.  1.
         11    1    3    3    0    0  0.53639093435E+00  0.15970518660E+01 -0.14156116856E+01  0.22005105322E+01  0.51100000000E-03 0.  1.
        -11    1    3    3    0    0 -0.46865226662E+01  0.24669583937E+00 -0.17019577578E+02  0.17654755018E+02  0.51100000000E-03 0. -1.
        -12    1    3    3    0    0 -0.10730226507E+02  0.14782602203E+01 -0.23951748076E+02  0.26287054800E+02  0.00000000000E+00 0.  1.
</event>
<event>
 7    1  0.4209196E-008  0.4614232E+02  0.7816164E-02  0.1320468E+00
        -11   -1    0    0    0    0  0.00000000000E+00  0.00000000000E+00  0.45593999997E+02  0.45594000000E+02  0.51100000000E-03 0. -1.
         11   -1    0    0    0    0 -0.00000000000E+00 -0.00000000000E+00 -0.45593999997E+02  0.45594000000E+02  0.51100000000E-03 0.  1.
    9900012    2    1    2    0    0 -0.21535787037E+02 -0.90059223392E+01  0.38525532768E+02  0.46142318347E+02  0.10000005347E+02 0.  0.
        -12    1    1    2    0    0  0.21535787037E+02  0.90059223392E+01 -0.38525532768E+02  0.45045681653E+02  0.00000000000E+00 0.  1.
         11    1    3    3    0    0 -0.78224872493E+01 -0.45698405194E+01  0.19912300736E+02  0.21876344987E+02  0.51100000000E-03 0. -1.
        -11    1    3    3    0    0 -0.47136269770E+00 -0.19725232586E+01  0.17110516036E+01  0.26534371388E+01  0.51100000000E-03 0.  1.
         12    1    3    3    0    0 -0.13241937090E+02 -0.24635585613E+01  0.16902180428E+02  0.21612536221E+02  0.00000000000E+00 0. -1.
</event>
<event>
 7    1  0.3980989E-008  0.4614232E+02  0.7816164E-02  0.1320468E+00
        -11   -1    0    0    0    0  0.00000000000E+00  0.00000000000E+00  0.45593999997E+02  0.45594000000E+02  0.51100000000E-03 0.  1.
         11   -1    0    0    0    0 -0.00000000000E+00 -0.00000000000E+00 -0.45593999997E+02  0.45594000000E+02  0.51100000000E-03 0. -1.
    9900012    2    1    2    0    0 -0.18783858722E+02  0.25085508967E+02 -0.32357338992E+02  0.46142317684E+02  0.99999992991E+01 0.  0.
        -12    1    1    2    0    0  0.18783858722E+02 -0.25085508967E+02  0.32357338992E+02  0.45045682316E+02  0.00000000000E+00 0.  1.
         11    1    3    3    0    0 -0.81210482960E+01  0.10528738969E+02 -0.92452938154E+01  0.16195098879E+02  0.51100000000E-03 0. -1.
        -11    1    3    3    0    0 -0.77078203605E+01  0.97802214475E+01 -0.19905638317E+02  0.23479728775E+02  0.51100000000E-03 0.  1.
        -12    1    3    3    0    0 -0.29549900656E+01  0.47765485507E+01 -0.32064068600E+01  0.64674900307E+01  0.00000000000E+00 0.  1.
</event>
<event>
 7    1  0.3980989E-008  0.4614232E+02  0.7816164E-02  0.1320468E+00
        -11   -1    0    0    0    0  0.00000000000E+00  0.00000000000E+00  0.45593999997E+02  0.45594000000E+02  0.51100000000E-03 0.  1.
         11   -1    0    0    0    0 -0.00000000000E+00 -0.00000000000E+00 -0.45593999997E+02  0.45594000000E+02  0.51100000000E-03 0. -1.
    9900012    2    1    2    0    0  0.89569809927E+01  0.23777162029E+02 -0.37195861526E+02  0.46142322546E+02  0.10000043631E+02 0.  0.
        -12    1    1    2    0    0 -0.89569809927E+01 -0.23777162029E+02  0.37195861526E+02  0.45045677454E+02  0.00000000000E+00 0.  1.
         11    1    3    3    0    0  0.68765392091E+01  0.12415617779E+02 -0.20713565619E+02  0.25109483413E+02  0.51100000000E-03 0. -1.
        -11    1    3    3    0    0  0.78035658418E+00  0.11413744745E+02 -0.15946201816E+02  0.19625592427E+02  0.51100000000E-03 0.  1.
        -12    1    3    3    0    0  0.13000851994E+01 -0.52200494825E-01 -0.53609409041E+00  0.14072467058E+01  0.00000000000E+00 0.  1.
</event>
<event>
 7    1  0.3980989E-008  0.4614232E+02  0.7816164E-02  0.1320468E+00
        -11   -1    0    0    0    0  0.00000000000E+00  0.00000000000E+00  0.45593999997E+02  0.45594000000E+02  0.51100000000E-03 0.  1.
         11   -1    0    0    0    0 -0.00000000000E+00 -0.00000000000E+00 -0.45593999997E+02  0.45594000000E+02  0.51100000000E-03 0. -1.
    9900012    2    1    2    0    0  0.73644592339E+01  0.31195423973E+02 -0.31650014373E+02  0.46142321556E+02  0.10000034608E+02 0.  0.
        -12    1    1    2    0    0 -0.73644592339E+01 -0.31195423973E+02  0.31650014373E+02  0.45045678444E+02  0.00000000000E+00 0.  1.
         11    1    3    3    0    0 -0.48711754936E+00  0.28612615733E+01 -0.46900646310E+01  0.55155061238E+01  0.51100000000E-03 0. -1.
        -11    1    3    3    0    0 -0.12159865679E+01  0.61745440613E+01 -0.73665771485E+01  0.96886571228E+01  0.51100000000E-03 0.  1.
        -12    1    3    3    0    0  0.90675633511E+01  0.22159618338E+02 -0.19593372593E+02  0.30938158310E+02  0.00000000000E+00 0.  1.
</event>
<event>
 7    1  0.3980989E-008  0.4614232E+02  0.7816164E-02  0.1320468E+00
        -11   -1    0    0    0    0  0.00000000000E+00  0.00000000000E+00  0.45593999997E+02  0.45594000000E+02  0.51100000000E-03 0. -1.
         11   -1    0    0    0    0 -0.00000000000E+00 -0.00000000000E+00 -0.45593999997E+02  0.45594000000E+02  0.51100000000E-03 0.  1.
    9900012    2    1    2    0    0 -0.20734581534E+01 -0.43903566460E+02  0.98636243700E+01  0.46142318050E+02  0.10000002635E+02 0.  0.
        -12    1    1    2    0    0  0.20734581534E+01  0.43903566460E+02 -0.98636243700E+01  0.45045681950E+02  0.00000000000E+00 0.  1.
         11    1    3    3    0    0  0.18423804142E+01 -0.61879674018E+01 -0.12062974022E+01  0.65681397549E+01  0.51100000000E-03 0.  1.
        -11    1    3    3    0    0 -0.14961403294E+01 -0.24198589104E+02  0.76460578296E+01  0.25421887245E+02  0.51100000000E-03 0. -1.
        -12    1    3    3    0    0 -0.24196982382E+01 -0.13517009954E+02  0.34238639426E+01  0.14152291050E+02  0.00000000000E+00 0.  1.
</event>
<event>
 7    1  0.3980989E-008  0.4614232E+02  0.7816164E-02  0.1320468E+00
        -11   -1    0    0    0    0  0.00000000000E+00  0.00000000000E+00  0.45593999997E+02  0.45594000000E+02  0.51100000000E-03 0.  1.
         11   -1    0    0    0    0 -0.00000000000E+00 -0.00000000000E+00 -0.45593999997E+02  0.45594000000E+02  0.51100000000E-03 0. -1.
    9900012    2    1    2    0    0 -0.98164244970E+01 -0.22046101901E+02 -0.38035782301E+02  0.46142317253E+02  0.99999953624E+01 0.  0.
        -12    1    1    2    0    0  0.98164244970E+01  0.22046101901E+02  0.38035782301E+02  0.45045682747E+02  0.00000000000E+00 0.  1.
         11    1    3    3    0    0 -0.35683325895E+01 -0.56151123074E+01 -0.89116499234E+01  0.11121150494E+02  0.51100000000E-03 0. -1.
        -11    1    3    3    0    0 -0.43028016552E+01 -0.11364612089E+02 -0.12082924267E+02  0.17136673222E+02  0.51100000000E-03 0.  1.
        -12    1    3    3    0    0 -0.19452902524E+01 -0.50663775047E+01 -0.17041208110E+02  0.17884493536E+02  0.00000000000E+00 0.  1.
</event>
<event>
 7    1  0.3980989E-008  0.4614232E+02  0.7816164E-02  0.1320468E+00
        -11   -1    0    0    0    0  0.00000000000E+00  0.00000000000E+00  0.45593999997E+02  0.45594000000E+02  0.51100000000E-03 0.  1.
         11   -1    0    0    0    0 -0.00000000000E+00 -0.00000000000E+00 -0.45593999997E+02  0.45594000000E+02  0.51100000000E-03 0. -1.
    9900012    2    1    2    0    0  0.23216869721E+02 -0.37818311534E+02 -0.77373064091E+01  0.46142316106E+02  0.99999849111E+01 0.  0.
        -12    1    1    2    0    0 -0.23216869721E+02  0.37818311534E+02  0.77373064091E+01  0.45045683894E+02  0.00000000000E+00 0.  1.
         11    1    3    3    0    0  0.31642229532E+01 -0.78364312933E+01 -0.41266830655E+00  0.84612208165E+01  0.51100000000E-03 0. -1.
        -11    1    3    3    0    0 -0.48511004637E+00  0.92592186703E-01  0.12383281616E+00  0.50915606410E+00  0.51100000000E-03 0.  1.
        -12    1    3    3    0    0  0.20537756814E+02 -0.30074472428E+02 -0.74484709187E+01  0.37171939226E+02  0.00000000000E+00 0.  1.
</event>
<event>
 7    1  0.3980989E-008  0.4614233E+02  0.7816164E-02  0.1320468E+00
        -11   -1    0    0    0    0  0.00000000000E+00  0.00000000000E+00  0.45593999997E+02  0.45594000000E+02  0.51100000000E-03 0.  1.
         11   -1    0    0    0    0 -0.00000000000E+00 -0.00000000000E+00 -0.45593999997E+02  0.45594000000E+02  0.51100000000E-03 0. -1.
    9900012    2    1    2    0    0 -0.41551637029E+02  0.14269269047E+02 -0.99479707710E+01  0.46142326497E+02  0.10000079659E+02 0.  0.
        -12    1    1    2    0    0  0.41551637029E+02 -0.14269269047E+02  0.99479707710E+01  0.45045673503E+02  0.00000000000E+00 0.  1.
         11    1    3    3    0    0 -0.17498650554E+02  0.49148405631E+01 -0.12095120003E+00  0.18176167320E+02  0.51100000000E-03 0. -1.
        -11    1    3    3    0    0 -0.13929162052E+02  0.77129220821E+01 -0.57185830488E+01  0.16917828314E+02  0.51100000000E-03 0.  1.
        -12    1    3    3    0    0 -0.10123824422E+02  0.16415064014E+01 -0.41084365221E+01  0.11048330863E+02  0.00000000000E+00 0.  1.
</event>
<event>
 7    1  0.3980989E-008  0.4614232E+02  0.7816164E-02  0.1320468E+00
        -11   -1    0    0    0    0  0.00000000000E+00  0.00000000000E+00  0.45593999997E+02  0.45594000000E+02  0.51100000000E-03 0. -1.
         11   -1    0    0    0    0 -0.00000000000E+00 -0.00000000000E+00 -0.45593999997E+02  0.45594000000E+02  0.51100000000E-03 0.  1.
    9900012    2    1    2    0    0 -0.61595014928E+01 -0.43768403076E+02 -0.86891261599E+01  0.46142317855E+02  0.10000000855E+02 0.  0.
        -12    1    1    2    0    0  0.61595014928E+01  0.43768403076E+02  0.86891261599E+01  0.45045682145E+02  0.00000000000E+00 0.  1.
         11    1    3    3    0    0 -0.27846558579E+01 -0.48688506964E+01 -0.30349730911E+01  0.63773879666E+01  0.51100000000E-03 0. -1.
        -11    1    3    3    0    0 -0.14451250802E+00 -0.13715617763E+02 -0.41487291696E+01  0.14330073568E+02  0.51100000000E-03 0.  1.
         12    1    3    3    0    0 -0.32303331268E+01 -0.25183934617E+02 -0.15054238991E+01  0.25434856320E+02  0.00000000000E+00 0. -1.
</event>
<event>
 7    1  0.3980989E-008  0.4614232E+02  0.7816164E-02  0.1320468E+00
        -11   -1    0    0    0    0  0.00000000000E+00  0.00000000000E+00  0.45593999997E+02  0.45594000000E+02  0.51100000000E-03 0.  1.
         11   -1    0    0    0    0 -0.00000000000E+00 -0.00000000000E+00 -0.45593999997E+02  0.45594000000E+02  0.51100000000E-03 0. -1.
    9900012    2    1    2    0    0 -0.16972592437E+02  0.12863325609E+02 -0.39693566910E+02  0.46142319921E+02  0.10000019692E+02 0.  0.
        -12    1    1    2    0    0  0.16972592437E+02 -0.12863325609E+02  0.39693566910E+02  0.45045680079E+02  0.00000000000E+00 0.  1.
         11    1    3    3    0    0 -0.44652512383E+01  0.39385742845E+01 -0.20151622569E+02  0.21012822952E+02  0.51100000000E-03 0. -1.
        -11    1    3    3    0    0 -0.79591556698E+01  0.39302256015E+01 -0.92629648551E+01  0.12829549892E+02  0.51100000000E-03 0.  1.
         12    1    3    3    0    0 -0.45481855290E+01  0.49945257235E+01 -0.10278979486E+02  0.12299947077E+02  0.00000000000E+00 0. -1.
</event>
<event>
 7    1  0.3980989E-008  0.4614232E+02  0.7816164E-02  0.1320468E+00
        -11   -1    0    0    0    0  0.00000000000E+00  0.00000000000E+00  0.45593999997E+02  0.45594000000E+02  0.51100000000E-03 0.  1.
         11   -1    0    0    0    0 -0.00000000000E+00 -0.00000000000E+00 -0.45593999997E+02  0.45594000000E+02  0.51100000000E-03 0. -1.
    9900012    2    1    2    0    0  0.27971939878E+00 -0.16062632494E+02 -0.42083572465E+02  0.46142317887E+02  0.10000001149E+02 0.  0.
        -12    1    1    2    0    0 -0.27971939878E+00  0.16062632494E+02  0.42083572465E+02  0.45045682113E+02  0.00000000000E+00 0.  1.
         11    1    3    3    0    0  0.30557477362E+00 -0.71346290831E+01 -0.13165050930E+02  0.14977145067E+02  0.51100000000E-03 0. -1.
        -11    1    3    3    0    0 -0.24646553891E+01 -0.76170999221E+01 -0.15299871742E+02  0.17267912815E+02  0.51100000000E-03 0.  1.
         12    1    3    3    0    0  0.24388000143E+01 -0.13109034890E+01 -0.13618649793E+02  0.13897260005E+02  0.00000000000E+00 0. -1.
</event>
<event>
 7    1  0.3980989E-008  0.4614231E+02  0.7816164E-02  0.1320468E+00
        -11   -1    0    0    0    0  0.00000000000E+00  0.00000000000E+00  0.45593999997E+02  0.45594000000E+02  0.51100000000E-03 0. -1.
         11   -1    0    0    0    0 -0.00000000000E+00 -0.00000000000E+00 -0.45593999997E+02  0.45594000000E+02  0.51100000000E-03 0.  1.
    9900012    2    1    2    0    0  0.41901320911E+02 -0.14970078266E+02  0.70206694716E+01  0.46142314999E+02  0.99999748144E+01 0.  0.
        -12    1    1    2    0    0 -0.41901320911E+02  0.14970078266E+02 -0.70206694716E+01  0.45045685001E+02  0.00000000000E+00 0.  1.
         11    1    3    3    0    0  0.11326237610E+01 -0.58880321774E+00 -0.11553955300E+01  0.17217621511E+01  0.51100000000E-03 0.  1.
        -11    1    3    3    0    0  0.24838168479E+02 -0.64389361207E+01  0.27223620107E+01  0.25803212337E+02  0.51100000000E-03 0. -1.
        -12    1    3    3    0    0  0.15930528671E+02 -0.79423389272E+01  0.54537029909E+01  0.18617340511E+02  0.00000000000E+00 0.  1.
</event>
<event>
 7    1  0.3980989E-008  0.4614232E+02  0.7816164E-02  0.1320468E+00
        -11   -1    0    0    0    0  0.00000000000E+00  0.00000000000E+00  0.45593999997E+02  0.45594000000E+02  0.51100000000E-03 0.  1.
         11   -1    0    0    0    0 -0.00000000000E+00 -0.00000000000E+00 -0.45593999997E+02  0.45594000000E+02  0.51100000000E-03 0. -1.
    9900012    2    1    2    0    0  0.22147902104E+01  0.43915325935E+02  0.97802102733E+01  0.46142315849E+02  0.99999825639E+01 0.  0.
        -12    1    1    2    0    0 -0.22147902104E+01 -0.43915325935E+02 -0.97802102733E+01  0.45045684151E+02  0.00000000000E+00 0.  1.
         11    1    3    3    0    0 -0.41453316802E+00  0.10091311369E+02 -0.78923417233E+00  0.10130611716E+02  0.51100000000E-03 0. -1.
        -11    1    3    3    0    0 -0.56817275862E+00  0.28526689873E+00  0.60646805837E+00  0.87863601912E+00  0.51100000000E-03 0.  1.
        -12    1    3    3    0    0  0.31974961371E+01  0.33538747667E+02  0.99629763872E+01  0.35133068114E+02  0.00000000000E+00 0.  1.
</event>
<event>
 7    1  0.3980989E-008  0.4614232E+02  0.7816164E-02  0.1320468E+00
        -11   -1    0    0    0    0  0.00000000000E+00  0.00000000000E+00  0.45593999997E+02  0.45594000000E+02  0.51100000000E-03 0.  1.
         11   -1    0    0    0    0 -0.00000000000E+00 -0.00000000000E+00 -0.45593999997E+02  0.45594000000E+02  0.51100000000E-03 0. -1.
    9900012    2    1    2    0    0 -0.11449426623E+02  0.65289556958E+01 -0.43074317598E+02  0.46142317976E+02  0.10000001959E+02 0.  0.
        -12    1    1    2    0    0  0.11449426623E+02 -0.65289556958E+01  0.43074317598E+02  0.45045682024E+02  0.00000000000E+00 0.  1.
         11    1    3    3    0    0 -0.10257067068E+01  0.44735566029E+01 -0.19286647456E+02  0.19825225176E+02  0.51100000000E-03 0. -1.
        -11    1    3    3    0    0 -0.38245373484E+00  0.92151103427E+00 -0.11255257375E+01  0.15040817440E+01  0.51100000000E-03 0.  1.
         12    1    3    3    0    0 -0.10041266181E+02  0.11338880586E+01 -0.22662144404E+02  0.24813011056E+02  0.00000000000E+00 0. -1.
</event>
<event>
 7    1  0.3980989E-008  0.4614232E+02  0.7816164E-02  0.1320468E+00
        -11   -1    0    0    0    0  0.00000000000E+00  0.00000000000E+00  0.45593999997E+02  0.45594000000E+02  0.51100000000E-03 0. -1.
         11   -1    0    0    0    0 -0.00000000000E+00 -0.00000000000E+00 -0.45593999997E+02  0.45594000000E+02  0.51100000000E-03 0.  1.
    9900012    2    1    2    0    0 -0.16089772581E+02  0.38389890846E+02  0.17217694207E+02  0.46142317691E+02  0.99999993566E+01 0.  0.
        -12    1    1    2    0    0  0.16089772581E+02 -0.38389890846E+02 -0.17217694207E+02  0.45045682309E+02  0.00000000000E+00 0.  1.
         11    1    3    3    0    0 -0.10335529922E+02  0.15619353391E+02  0.71140343268E+01  0.20034891160E+02  0.51100000000E-03 0. -1.
        -11    1    3    3    0    0 -0.19819788002E+01  0.17428863660E+01  0.17612820001E+01  0.31730123533E+01  0.51100000000E-03 0.  1.
        -12    1    3    3    0    0 -0.37722638586E+01  0.21027651089E+02  0.83423778801E+01  0.22934414177E+02  0.00000000000E+00 0.  1.
</event>
<event>
 7    1  0.3980989E-008  0.4614232E+02  0.7816164E-02  0.1320468E+00
        -11   -1    0    0    0    0  0.00000000000E+00  0.00000000000E+00  0.45593999997E+02  0.45594000000E+02  0.51100000000E-03 0.  1.
         11   -1    0    0    0    0 -0.00000000000E+00 -0.00000000000E+00 -0.45593999997E+02  0.45594000000E+02  0.51100000000E-03 0. -1.
    9900012    2    1    2    0    0  0.50170617246E+01  0.44373706581E+02  0.59090367349E+01  0.46142318085E+02  0.10000002954E+02 0.  0.
        -12    1    1    2    0    0 -0.50170617246E+01 -0.44373706581E+02 -0.59090367349E+01  0.45045681915E+02  0.00000000000E+00 0.  1.
         11    1    3    3    0    0  0.66014221678E+01  0.27838105339E+02  0.51854304754E+01  0.29076237256E+02  0.51100000000E-03 0. -1.
        -11    1    3    3    0    0  0.77483538125E+00  0.96979533348E+01 -0.44526866493E+00  0.97390416981E+01  0.51100000000E-03 0.  1.
         12    1    3    3    0    0 -0.23591958244E+01  0.68376479065E+01  0.11688749244E+01  0.73270391305E+01  0.00000000000E+00 0. -1.
</event>
<event>
 7    1  0.3980989E-008  0.4614232E+02  0.7816164E-02  0.1320468E+00
        -11   -1    0    0    0    0  0.00000000000E+00  0.00000000000E+00  0.45593999997E+02  0.45594000000E+02  0.51100000000E-03 0.  1.
         11   -1    0    0    0    0 -0.00000000000E+00 -0.00000000000E+00 -0.45593999997E+02  0.45594000000E+02  0.51100000000E-03 0. -1.
    9900012    2    1    2    0    0  0.14750211201E+02 -0.38226879017E+01 -0.42390232480E+02  0.46142317821E+02  0.10000000550E+02 0.  0.
        -12    1    1    2    0    0 -0.14750211201E+02  0.38226879017E+01  0.42390232480E+02  0.45045682179E+02  0.00000000000E+00 0.  1.
         11    1    3    3    0    0  0.32707010688E+01 -0.31037734970E-01 -0.11590069300E+02  0.12042763614E+02  0.51100000000E-03 0. -1.
        -11    1    3    3    0    0  0.93873854581E+01 -0.59389568913E+01 -0.27401992900E+02  0.29567945986E+02  0.51100000000E-03 0.  1.
         12    1    3    3    0    0  0.20921246742E+01  0.21473067245E+01 -0.33981702797E+01  0.45316082213E+01  0.00000000000E+00 0. -1.
</event>
<event>
 7    1  0.3980989E-008  0.4614232E+02  0.7816164E-02  0.1320468E+00
        -11   -1    0    0    0    0  0.00000000000E+00  0.00000000000E+00  0.45593999997E+02  0.45594000000E+02  0.51100000000E-03 0. -1.
         11   -1    0    0    0    0 -0.00000000000E+00 -0.00000000000E+00 -0.45593999997E+02  0.45594000000E+02  0.51100000000E-03 0.  1.
    9900012    2    1    2    0    0 -0.40578319148E+02 -0.13062076561E+02 -0.14556634048E+02  0.46142318478E+02  0.10000006537E+02 0.  0.
        -12    1    1    2    0    0  0.40578319148E+02  0.13062076561E+02  0.14556634048E+02  0.45045681522E+02  0.00000000000E+00 0.  1.
         11    1    3    3    0    0 -0.40695673687E-01 -0.61793320353E+00 -0.15735851808E+01  0.16910553404E+01  0.51100000000E-03 0. -1.
        -11    1    3    3    0    0 -0.52526759880E+01 -0.26395639592E+01 -0.14250171379E+01  0.60488492322E+01  0.51100000000E-03 0.  1.
         12    1    3    3    0    0 -0.35284947486E+02 -0.98045793982E+01 -0.11558031730E+02  0.38402413905E+02  0.00000000000E+00 0. -1.
</event>
<event>
 7    1  0.3980989E-008  0.4614232E+02  0.7816164E-02  0.1320468E+00
        -11   -1    0    0    0    0  0.00000000000E+00  0.00000000000E+00  0.45593999997E+02  0.45594000000E+02  0.51100000000E-03 0.  1.
         11   -1    0    0    0    0 -0.00000000000E+00 -0.00000000000E+00 -0.45593999997E+02  0.45594000000E+02  0.51100000000E-03 0. -1.
    9900012    2    1    2    0    0 -0.98272936701E+01  0.30027313182E+02 -0.32107602578E+02  0.46142318951E+02  0.10000010851E+02 0.  0.
        -12    1    1    2    0    0  0.98272936701E+01 -0.30027313182E+02  0.32107602578E+02  0.45045681049E+02  0.00000000000E+00 0.  1.
         11    1    3    3    0    0 -0.17060404834E+01  0.86915748169E+01 -0.45521690779E+01  0.99587293619E+01  0.51100000000E-03 0. -1.
        -11    1    3    3    0    0 -0.13972823743E+01  0.36688831078E+01 -0.20270058624E+01  0.44183542547E+01  0.51100000000E-03 0.  1.
         12    1    3    3    0    0 -0.67239708124E+01  0.17666855258E+02 -0.25528427638E+02  0.31765235334E+02  0.00000000000E+00 0. -1.
</event>
<event>
 7    1  0.3980989E-008  0.4614232E+02  0.7816164E-02  0.1320468E+00
        -11   -1    0    0    0    0  0.00000000000E+00  0.00000000000E+00  0.45593999997E+02  0.45594000000E+02  0.51100000000E-03 0. -1.
         11   -1    0    0    0    0 -0.00000000000E+00 -0.00000000000E+00 -0.45593999997E+02  0.45594000000E+02  0.51100000000E-03 0.  1.
    9900012    2    1    2    0    0  0.13245210109E+02  0.32162140094E+02  0.28622971697E+02  0.46142319241E+02  0.10000013498E+02 0.  0.
        -12    1    1    2    0    0 -0.13245210109E+02 -0.32162140094E+02 -0.28622971697E+02  0.45045680759E+02  0.00000000000E+00 0.  1.
         11    1    3    3    0    0  0.11493004742E+01  0.67539734428E+01  0.54406628573E+01  0.87485919686E+01  0.51100000000E-03 0. -1.
        -11    1    3    3    0    0  0.13327062586E+02  0.22076529184E+02  0.20251810059E+02  0.32789015674E+02  0.51100000000E-03 0.  1.
        -12    1    3    3    0    0 -0.12311529505E+01  0.33316374669E+01  0.29304987811E+01  0.46047115984E+01  0.00000000000E+00 0.  1.
</event>
<event>
 7    1  0.3980989E-008  0.4614232E+02  0.7816164E-02  0.1320468E+00
        -11   -1    0    0    0    0  0.00000000000E+00  0.00000000000E+00  0.45593999997E+02  0.45594000000E+02  0.51100000000E-03 0. -1.
         11   -1    0    0    0    0 -0.00000000000E+00 -0.00000000000E+00 -0.45593999997E+02  0.45594000000E+02  0.51100000000E-03 0.  1.
    9900012    2    1    2    0    0 -0.15711246983E+02  0.15562986582E+02  0.39243645051E+02  0.46142317521E+02  0.99999978071E+01 0.  0.
        -12    1    1    2    0    0  0.15711246983E+02 -0.15562986582E+02 -0.39243645051E+02  0.45045682479E+02  0.00000000000E+00 0.  1.
         11    1    3    3    0    0 -0.72441266643E+01  0.22185856793E+01  0.89363051911E+01  0.11715675152E+02  0.51100000000E-03 0.  1.
        -11    1    3    3    0    0 -0.84743343432E+01  0.10590846808E+02  0.24679568710E+02  0.28161347458E+02  0.51100000000E-03 0. -1.
        -12    1    3    3    0    0  0.72140243984E-02  0.27535540951E+01  0.56277711504E+01  0.62652949107E+01  0.00000000000E+00 0.  1.
</event>
<event>
 7    1  0.3980989E-008  0.4614232E+02  0.7816164E-02  0.1320468E+00
        -11   -1    0    0    0    0  0.00000000000E+00  0.00000000000E+00  0.45593999997E+02  0.45594000000E+02  0.51100000000E-03 0.  1.
         11   -1    0    0    0    0 -0.00000000000E+00 -0.00000000000E+00 -0.45593999997E+02  0.45594000000E+02  0.51100000000E-03 0. -1.
    9900012    2    1    2    0    0 -0.44164599921E+02 -0.88434311786E+01 -0.62874791960E+00  0.46142317797E+02  0.10000000330E+02 0.  0.
        -12    1    1    2    0    0  0.44164599921E+02  0.88434311786E+01  0.62874791960E+00  0.45045682203E+02  0.00000000000E+00 0.  1.
         11    1    3    3    0    0 -0.73863184268E+01 -0.29000358468E+00  0.19805030358E+01  0.76527246467E+01  0.51100000000E-03 0. -1.
        -11    1    3    3    0    0 -0.11661845975E+02 -0.56703303153E+01 -0.25101341557E+01  0.13208030556E+02  0.51100000000E-03 0.  1.
        -12    1    3    3    0    0 -0.25116435519E+02 -0.28830972786E+01 -0.99116799722E-01  0.25281562594E+02  0.00000000000E+00 0.  1.
</event>
<event>
 7    1  0.3980989E-008  0.4614232E+02  0.7816164E-02  0.1320468E+00
        -11   -1    0    0    0    0  0.00000000000E+00  0.00000000000E+00  0.45593999997E+02  0.45594000000E+02  0.51100000000E-03 0.  1.
         11   -1    0    0    0    0 -0.00000000000E+00 -0.00000000000E+00 -0.45593999997E+02  0.45594000000E+02  0.51100000000E-03 0. -1.
    9900012    2    1    2    0    0 -0.37549896788E+02  0.98719107001E+01 -0.22839967520E+02  0.46142317788E+02  0.10000000246E+02 0.  0.
        -12    1    1    2    0    0  0.37549896788E+02 -0.98719107001E+01  0.22839967520E+02  0.45045682212E+02  0.00000000000E+00 0.  1.
         11    1    3    3    0    0 -0.16514203538E+02  0.40112838188E+01 -0.74368929295E+01  0.18550382558E+02  0.51100000000E-03 0.  1.
        -11    1    3    3    0    0 -0.26717458794E+01 -0.10429272151E+01 -0.39282844695E+01  0.48638814083E+01  0.51100000000E-03 0. -1.
         12    1    3    3    0    0 -0.18363947371E+02  0.69035540965E+01 -0.11474790121E+02  0.22728053821E+02  0.00000000000E+00 0. -1.
</event>
<event>
 7    1  0.3980989E-008  0.4614232E+02  0.7816164E-02  0.1320468E+00
        -11   -1    0    0    0    0  0.00000000000E+00  0.00000000000E+00  0.45593999997E+02  0.45594000000E+02  0.51100000000E-03 0. -1.
         11   -1    0    0    0    0 -0.00000000000E+00 -0.00000000000E+00 -0.45593999997E+02  0.45594000000E+02  0.51100000000E-03 0.  1.
    9900012    2    1    2    0    0 -0.26200570550E+02  0.91765064723E+01  0.35474429230E+02  0.46142319881E+02  0.10000019334E+02 0.  0.
        -12    1    1    2    0    0  0.26200570550E+02 -0.91765064723E+01 -0.35474429230E+02  0.45045680119E+02  0.00000000000E+00 0.  1.
         11    1    3    3    0    0 -0.79430309843E+01  0.38454071594E+01  0.77020584369E+01  0.11713266063E+02  0.51100000000E-03 0. -1.
        -11    1    3    3    0    0 -0.52205014542E+01  0.49151540832E+01  0.80130824097E+01  0.10752760811E+02  0.51100000000E-03 0.  1.
         12    1    3    3    0    0 -0.13037038111E+02  0.41594522973E+00  0.19759288383E+02  0.23676293007E+02  0.00000000000E+00 0. -1.
</event>
<event>
 7    1  0.3980989E-008  0.4614232E+02  0.7816164E-02  0.1320468E+00
        -11   -1    0    0    0    0  0.00000000000E+00  0.00000000000E+00  0.45593999997E+02  0.45594000000E+02  0.51100000000E-03 0.  1.
         11   -1    0    0    0    0 -0.00000000000E+00 -0.00000000000E+00 -0.45593999997E+02  0.45594000000E+02  0.51100000000E-03 0. -1.
    9900012    2    1    2    0    0  0.83752155877E+01 -0.43039429462E+02 -0.10323602113E+02  0.46142317797E+02  0.10000000324E+02 0.  0.
        -12    1    1    2    0    0 -0.83752155877E+01  0.43039429462E+02  0.10323602113E+02  0.45045682203E+02  0.00000000000E+00 0.  1.
         11    1    3    3    0    0  0.69087629028E+01 -0.22169536018E+02 -0.48644701879E+01  0.23725142835E+02  0.51100000000E-03 0. -1.
        -11    1    3    3    0    0  0.28634705429E+01 -0.48750786602E+01 -0.88558296699E+00  0.57227714392E+01  0.51100000000E-03 0.  1.
        -12    1    3    3    0    0 -0.13970178579E+01 -0.15994814784E+02 -0.45735489586E+01  0.16694403522E+02  0.00000000000E+00 0.  1.
</event>
<event>
 7    1  0.3980989E-008  0.4614232E+02  0.7816164E-02  0.1320468E+00
        -11   -1    0    0    0    0  0.00000000000E+00  0.00000000000E+00  0.45593999997E+02  0.45594000000E+02  0.51100000000E-03 0.  1.
         11   -1    0    0    0    0 -0.00000000000E+00 -0.00000000000E+00 -0.45593999997E+02  0.45594000000E+02  0.51100000000E-03 0. -1.
    9900012    2    1    2    0    0  0.40988029259E+02 -0.18618989311E+02  0.15582681715E+01  0.46142317574E+02  0.99999982957E+01 0.  0.
        -12    1    1    2    0    0 -0.40988029259E+02  0.18618989311E+02 -0.15582681715E+01  0.45045682426E+02  0.00000000000E+00 0.  1.
         11    1    3    3    0    0  0.64899058095E+01 -0.53122870704E+01 -0.27951452729E+01  0.88403681310E+01  0.51100000000E-03 0. -1.
        -11    1    3    3    0    0  0.17654387934E+02 -0.69554490429E+01  0.33836784393E+01  0.19274464058E+02  0.51100000000E-03 0.  1.
         12    1    3    3    0    0  0.16843735516E+02 -0.63512531972E+01  0.96973500515E+00  0.18027485385E+02  0.00000000000E+00 0. -1.
</event>
<event>
 7    1  0.3980989E-008  0.4614232E+02  0.7816164E-02  0.1320468E+00
        -11   -1    0    0    0    0  0.00000000000E+00  0.00000000000E+00  0.45593999997E+02  0.45594000000E+02  0.51100000000E-03 0. -1.
         11   -1    0    0    0    0 -0.00000000000E+00 -0.00000000000E+00 -0.45593999997E+02  0.45594000000E+02  0.51100000000E-03 0.  1.
    9900012    2    1    2    0    0  0.29391197766E+02  0.25297050982E+02  0.22920083152E+02  0.46142317563E+02  0.99999981900E+01 0.  0.
        -12    1    1    2    0    0 -0.29391197766E+02 -0.25297050982E+02 -0.22920083152E+02  0.45045682437E+02  0.00000000000E+00 0.  1.
         11    1    3    3    0    0  0.15097291018E+02  0.89911312490E+01  0.12297298474E+02  0.21447428453E+02  0.51100000000E-03 0. -1.
        -11    1    3    3    0    0  0.13066428161E+02  0.15020084740E+02  0.11179188502E+02  0.22832186630E+02  0.51100000000E-03 0.  1.
         12    1    3    3    0    0  0.12274785872E+01  0.12858349935E+01 -0.55640382399E+00  0.18627024797E+01  0.00000000000E+00 0. -1.
</event>
<event>
 7    1  0.3980989E-008  0.4614232E+02  0.7816164E-02  0.1320468E+00
        -11   -1    0    0    0    0  0.00000000000E+00  0.00000000000E+00  0.45593999997E+02  0.45594000000E+02  0.51100000000E-03 0. -1.
         11   -1    0    0    0    0 -0.00000000000E+00 -0.00000000000E+00 -0.45593999997E+02  0.45594000000E+02  0.51100000000E-03 0.  1.
    9900012    2    1    2    0    0  0.14780245931E+02  0.42404371094E+01  0.42340011144E+02  0.46142317407E+02  0.99999967665E+01 0.  0.
        -12    1    1    2    0    0 -0.14780245931E+02 -0.42404371094E+01 -0.42340011144E+02  0.45045682593E+02  0.00000000000E+00 0.  1.
         11    1    3    3    0    0  0.22199290849E+01 -0.26059753873E+01  0.54146364629E+01  0.64060503547E+01  0.51100000000E-03 0. -1.
        -11    1    3    3    0    0  0.20189969459E+01  0.87841401881E+00  0.95501569310E+01  0.98006865843E+01  0.51100000000E-03 0.  1.
         12    1    3    3    0    0  0.10541319900E+02  0.59679984779E+01  0.27375217750E+02  0.29935580468E+02  0.00000000000E+00 0. -1.
</event>
<event>
 7    1  0.3980989E-008  0.4614232E+02  0.7816164E-02  0.1320468E+00
        -11   -1    0    0    0    0  0.00000000000E+00  0.00000000000E+00  0.45593999997E+02  0.45594000000E+02  0.51100000000E-03 0. -1.
         11   -1    0    0    0    0 -0.00000000000E+00 -0.00000000000E+00 -0.45593999997E+02  0.45594000000E+02  0.51100000000E-03 0.  1.
    9900012    2    1    2    0    0  0.37208271843E+02  0.10504091960E+02 -0.23115404521E+02  0.46142319102E+02  0.10000012226E+02 0.  0.
        -12    1    1    2    0    0 -0.37208271843E+02 -0.10504091960E+02  0.23115404521E+02  0.45045680898E+02  0.00000000000E+00 0.  1.
         11    1    3    3    0    0  0.16711759338E+02  0.90663627884E+01 -0.13034220018E+02  0.23051523293E+02  0.51100000000E-03 0. -1.
        -11    1    3    3    0    0  0.90746955501E+01 -0.14849540109E+00 -0.58983425486E+01  0.10824167187E+02  0.51100000000E-03 0.  1.
         12    1    3    3    0    0  0.11421816954E+02  0.15862245726E+01 -0.41828419540E+01  0.12266628622E+02  0.00000000000E+00 0. -1.
</event>
<event>
 7    1  0.3980989E-008  0.4614232E+02  0.7816164E-02  0.1320468E+00
        -11   -1    0    0    0    0  0.00000000000E+00  0.00000000000E+00  0.45593999997E+02  0.45594000000E+02  0.51100000000E-03 0.  1.
         11   -1    0    0    0    0 -0.00000000000E+00 -0.00000000000E+00 -0.45593999997E+02  0.45594000000E+02  0.51100000000E-03 0. -1.
    9900012    2    1    2    0    0  0.11380101744E+02 -0.29920387795E+02 -0.31691913192E+02  0.46142315598E+02  0.99999802736E+01 0.  0.
        -12    1    1    2    0    0 -0.11380101744E+02  0.29920387795E+02  0.31691913192E+02  0.45045684402E+02  0.00000000000E+00 0.  1.
         11    1    3    3    0    0 -0.41421250253E+00 -0.45987365048E+01 -0.47747566905E+01  0.66421571160E+01  0.51100000000E-03 0. -1.
        -11    1    3    3    0    0  0.76271192920E+01 -0.93361455074E+01 -0.14360460200E+02  0.18749916774E+02  0.51100000000E-03 0.  1.
        -12    1    3    3    0    0  0.41671949541E+01 -0.15985505783E+02 -0.12556696301E+02  0.20750241707E+02  0.00000000000E+00 0.  1.
</event>
<event>
 7    1  0.3980989E-008  0.4614232E+02  0.7816164E-02  0.1320468E+00
        -11   -1    0    0    0    0  0.00000000000E+00  0.00000000000E+00  0.45593999997E+02  0.45594000000E+02  0.51100000000E-03 0.  1.
         11   -1    0    0    0    0 -0.00000000000E+00 -0.00000000000E+00 -0.45593999997E+02  0.45594000000E+02  0.51100000000E-03 0. -1.
    9900012    2    1    2    0    0  0.70296981352E+01  0.11840571082E+02 -0.42889365237E+02  0.46142318410E+02  0.10000005921E+02 0.  0.
        -12    1    1    2    0    0 -0.70296981352E+01 -0.11840571082E+02  0.42889365237E+02  0.45045681590E+02  0.00000000000E+00 0.  1.
         11    1    3    3    0    0 -0.48742694430E+00  0.25499795802E+01 -0.11842700163E+02  0.12123923800E+02  0.51100000000E-03 0. -1.
        -11    1    3    3    0    0  0.17530651274E+01  0.11818119476E+00 -0.87909166875E+00  0.19646899397E+01  0.51100000000E-03 0.  1.
         12    1    3    3    0    0  0.57640599521E+01  0.91724103071E+01 -0.30167573405E+02  0.32053704671E+02  0.00000000000E+00 0. -1.
</event>
<event>
 7    1  0.3980989E-008  0.4614232E+02  0.7816164E-02  0.1320468E+00
        -11   -1    0    0    0    0  0.00000000000E+00  0.00000000000E+00  0.45593999997E+02  0.45594000000E+02  0.51100000000E-03 0.  1.
         11   -1    0    0    0    0 -0.00000000000E+00 -0.00000000000E+00 -0.45593999997E+02  0.45594000000E+02  0.51100000000E-03 0. -1.
    9900012    2    1    2    0    0  0.25523624939E+02 -0.36381799869E+02 -0.73500147725E+01  0.46142317534E+02  0.99999979272E+01 0.  0.
        -12    1    1    2    0    0 -0.25523624939E+02  0.36381799869E+02  0.73500147725E+01  0.45045682466E+02  0.00000000000E+00 0.  1.
         11    1    3    3    0    0  0.11620480252E+02 -0.14662791562E+02 -0.76247866105E+01  0.20203227187E+02  0.51100000000E-03 0. -1.
        -11    1    3    3    0    0  0.71824801731E+01 -0.86969165320E+01 -0.11110716681E+00  0.11279925694E+02  0.51100000000E-03 0.  1.
         12    1    3    3    0    0  0.67206645140E+01 -0.13022091775E+02  0.38587900479E+00  0.14659164652E+02  0.00000000000E+00 0. -1.
</event>
<event>
 7    1  0.3980989E-008  0.4614232E+02  0.7816164E-02  0.1320468E+00
        -11   -1    0    0    0    0  0.00000000000E+00  0.00000000000E+00  0.45593999997E+02  0.45594000000E+02  0.51100000000E-03 0. -1.
         11   -1    0    0    0    0 -0.00000000000E+00 -0.00000000000E+00 -0.45593999997E+02  0.45594000000E+02  0.51100000000E-03 0.  1.
    9900012    2    1    2    0    0 -0.37595277715E+02  0.22080838180E+02  0.11320121625E+02  0.46142317912E+02  0.10000001373E+02 0.  0.
        -12    1    1    2    0    0  0.37595277715E+02 -0.22080838180E+02 -0.11320121625E+02  0.45045682088E+02  0.00000000000E+00 0.  1.
         11    1    3    3    0    0 -0.86648296733E+01  0.20554694961E+01  0.45152467535E+01  0.99845721803E+01  0.51100000000E-03 0. -1.
        -11    1    3    3    0    0 -0.27240028374E+02  0.17638192458E+02  0.70946094264E+01  0.33218345265E+02  0.51100000000E-03 0.  1.
        -12    1    3    3    0    0 -0.16904196681E+01  0.23871762257E+01 -0.28973455535E+00  0.29394004660E+01  0.00000000000E+00 0.  1.
</event>
<event>
 7    1  0.3980989E-008  0.4614232E+02  0.7816164E-02  0.1320468E+00
        -11   -1    0    0    0    0  0.00000000000E+00  0.00000000000E+00  0.45593999997E+02  0.45594000000E+02  0.51100000000E-03 0. -1.
         11   -1    0    0    0    0 -0.00000000000E+00 -0.00000000000E+00 -0.45593999997E+02  0.45594000000E+02  0.51100000000E-03 0.  1.
    9900012    2    1    2    0    0  0.37941915959E+02  0.21233842941E+02 -0.11774909182E+02  0.46142316977E+02  0.99999928530E+01 0.  0.
        -12    1    1    2    0    0 -0.37941915959E+02 -0.21233842941E+02  0.11774909182E+02  0.45045683023E+02  0.00000000000E+00 0.  1.
         11    1    3    3    0    0  0.20242042302E+02  0.10924729939E+02 -0.25283430708E+01  0.23140495235E+02  0.51100000000E-03 0. -1.
        -11    1    3    3    0    0  0.15737359353E+02  0.10487887318E+02 -0.74218123480E+01  0.20316091125E+02  0.51100000000E-03 0.  1.
        -12    1    3    3    0    0  0.19625143045E+01 -0.17877431559E+00 -0.18247537635E+01  0.26857306173E+01  0.00000000000E+00 0.  1.
</event>
<event>
 7    1  0.3980989E-008  0.4614232E+02  0.7816164E-02  0.1320468E+00
        -11   -1    0    0    0    0  0.00000000000E+00  0.00000000000E+00  0.45593999997E+02  0.45594000000E+02  0.51100000000E-03 0.  1.
         11   -1    0    0    0    0 -0.00000000000E+00 -0.00000000000E+00 -0.45593999997E+02  0.45594000000E+02  0.51100000000E-03 0. -1.
    9900012    2    1    2    0    0  0.28840173903E+02 -0.33396367894E+02 -0.90576210148E+01  0.46142317435E+02  0.99999970265E+01 0.  0.
        -12    1    1    2    0    0 -0.28840173903E+02  0.33396367894E+02  0.90576210148E+01  0.45045682565E+02  0.00000000000E+00 0.  1.
         11    1    3    3    0    0  0.11694913099E+01 -0.98894836037E+00  0.91274535994E+00  0.17829282478E+01  0.51100000000E-03 0. -1.
        -11    1    3    3    0    0  0.60129944712E+01 -0.33340613320E+01 -0.52396371808E+00  0.68954046811E+01  0.51100000000E-03 0.  1.
         12    1    3    3    0    0  0.21657688122E+02 -0.29073358202E+02 -0.94464026567E+01  0.37463984506E+02  0.00000000000E+00 0. -1.
</event>
<event>
 7    1  0.3980989E-008  0.4614232E+02  0.7816164E-02  0.1320468E+00
        -11   -1    0    0    0    0  0.00000000000E+00  0.00000000000E+00  0.45593999997E+02  0.45594000000E+02  0.51100000000E-03 0.  1.
         11   -1    0    0    0    0 -0.00000000000E+00 -0.00000000000E+00 -0.45593999997E+02  0.45594000000E+02  0.51100000000E-03 0. -1.
    9900012    2    1    2    0    0  0.14361008203E+02 -0.40349557480E+02 -0.13956655388E+02  0.46142316799E+02  0.99999912231E+01 0.  0.
        -12    1    1    2    0    0 -0.14361008203E+02  0.40349557480E+02  0.13956655388E+02  0.45045683201E+02  0.00000000000E+00 0.  1.
         11    1    3    3    0    0  0.11036566814E+02 -0.25260009907E+02 -0.93734122491E+01  0.29115885097E+02  0.51100000000E-03 0. -1.
        -11    1    3    3    0    0  0.11659667371E+01 -0.25775018695E+01  0.12019388714E+01  0.30737032438E+01  0.51100000000E-03 0.  1.
        -12    1    3    3    0    0  0.21584746516E+01 -0.12512045704E+02 -0.57851820105E+01  0.13952728457E+02  0.00000000000E+00 0.  1.
</event>
<event>
 7    1  0.3980989E-008  0.4614232E+02  0.7816164E-02  0.1320468E+00
        -11   -1    0    0    0    0  0.00000000000E+00  0.00000000000E+00  0.45593999997E+02  0.45594000000E+02  0.51100000000E-03 0. -1.
         11   -1    0    0    0    0 -0.00000000000E+00 -0.00000000000E+00 -0.45593999997E+02  0.45594000000E+02  0.51100000000E-03 0.  1.
    9900012    2    1    2    0    0 -0.10953143007E+02 -0.42075016681E+02 -0.11782827308E+02  0.46142318855E+02  0.10000009975E+02 0.  0.
        -12    1    1    2    0    0  0.10953143007E+02  0.42075016681E+02  0.11782827308E+02  0.45045681145E+02  0.00000000000E+00 0.  1.
         11    1    3    3    0    0 -0.27514847247E+00 -0.14667554348E+02 -0.58469532377E+01  0.15792394361E+02  0.51100000000E-03 0. -1.
        -11    1    3    3    0    0 -0.24781683714E+01 -0.88695178443E+01  0.66366804162E-01  0.92094554715E+01  0.51100000000E-03 0.  1.
        -12    1    3    3    0    0 -0.81998261628E+01 -0.18537944489E+02 -0.60022408743E+01  0.21140469022E+02  0.00000000000E+00 0.  1.
</event>
<event>
 7    1  0.3980989E-008  0.4614232E+02  0.7816164E-02  0.1320468E+00
        -11   -1    0    0    0    0  0.00000000000E+00  0.00000000000E+00  0.45593999997E+02  0.45594000000E+02  0.51100000000E-03 0. -1.
         11   -1    0    0    0    0 -0.00000000000E+00 -0.00000000000E+00 -0.45593999997E+02  0.45594000000E+02  0.51100000000E-03 0.  1.
    9900012    2    1    2    0    0 -0.93222314838E+01  0.38880640477E+02  0.20748619685E+02  0.46142318492E+02  0.10000006661E+02 0.  0.
        -12    1    1    2    0    0  0.93222314838E+01 -0.38880640477E+02 -0.20748619685E+02  0.45045681508E+02  0.00000000000E+00 0.  1.
         11    1    3    3    0    0 -0.15928726868E+01  0.11240529571E+02  0.51225973227E+01  0.12455029186E+02  0.51100000000E-03 0. -1.
        -11    1    3    3    0    0 -0.73182297532E+01  0.11519446954E+02  0.83191163743E+01  0.15983173726E+02  0.51100000000E-03 0.  1.
        -12    1    3    3    0    0 -0.41112904383E+00  0.16120663952E+02  0.73069059881E+01  0.17704115580E+02  0.00000000000E+00 0.  1.
</event>
<event>
 7    1  0.3980989E-008  0.4614230E+02  0.7816164E-02  0.1320468E+00
        -11   -1    0    0    0    0  0.00000000000E+00  0.00000000000E+00  0.45593999997E+02  0.45594000000E+02  0.51100000000E-03 0.  1.
         11   -1    0    0    0    0 -0.00000000000E+00 -0.00000000000E+00 -0.45593999997E+02  0.45594000000E+02  0.51100000000E-03 0. -1.
    9900012    2    1    2    0    0  0.37122554433E+02  0.16184572719E+02 -0.19725375769E+02  0.46142302192E+02  0.99998580316E+01 0.  0.
        -12    1    1    2    0    0 -0.37122554433E+02 -0.16184572719E+02  0.19725375769E+02  0.45045697808E+02  0.00000000000E+00 0.  1.
         11    1    3    3    0    0  0.10264267078E+02  0.89300207620E+01 -0.63166828759E+01  0.15000031076E+02  0.51100000000E-03 0. -1.
        -11    1    3    3    0    0  0.19139924639E+02  0.60815619309E+01 -0.11350630406E+02  0.23068569995E+02  0.51100000000E-03 0.  1.
         12    1    3    3    0    0  0.77183627149E+01  0.11729900264E+01 -0.20580624876E+01  0.80737011218E+01  0.00000000000E+00 0. -1.
</event>
<event>
 7    1  0.3980989E-008  0.4614232E+02  0.7816164E-02  0.1320468E+00
        -11   -1    0    0    0    0  0.00000000000E+00  0.00000000000E+00  0.45593999997E+02  0.45594000000E+02  0.51100000000E-03 0. -1.
         11   -1    0    0    0    0 -0.00000000000E+00 -0.00000000000E+00 -0.45593999997E+02  0.45594000000E+02  0.51100000000E-03 0.  1.
    9900012    2    1    2    0    0  0.40844817496E+01 -0.40154872331E+02 -0.20000418682E+02  0.46142317516E+02  0.99999977612E+01 0.  0.
        -12    1    1    2    0    0 -0.40844817496E+01  0.40154872331E+02  0.20000418682E+02  0.45045682484E+02  0.00000000000E+00 0.  1.
         11    1    3    3    0    0 -0.48992563852E+00 -0.56600585015E+00 -0.18686887323E+01  0.20130542946E+01  0.51100000000E-03 0. -1.
        -11    1    3    3    0    0  0.57606126452E+00 -0.85270864669E+01 -0.15279627783E+01  0.86820343645E+01  0.51100000000E-03 0.  1.
         12    1    3    3    0    0  0.39983461235E+01 -0.31061780014E+02 -0.16603767171E+02  0.35447228856E+02  0.00000000000E+00 0. -1.
</event>
<event>
 7    1  0.3980989E-008  0.4614232E+02  0.7816164E-02  0.1320468E+00
        -11   -1    0    0    0    0  0.00000000000E+00  0.00000000000E+00  0.45593999997E+02  0.45594000000E+02  0.51100000000E-03 0.  1.
         11   -1    0    0    0    0 -0.00000000000E+00 -0.00000000000E+00 -0.45593999997E+02  0.45594000000E+02  0.51100000000E-03 0. -1.
    9900012    2    1    2    0    0  0.18181852267E+02  0.29913700098E+02 -0.28349676489E+02  0.46142319159E+02  0.10000012745E+02 0.  0.
        -12    1    1    2    0    0 -0.18181852267E+02 -0.29913700098E+02  0.28349676489E+02  0.45045680841E+02  0.00000000000E+00 0.  1.
         11    1    3    3    0    0  0.74586061982E+01  0.12080560861E+02 -0.11039633062E+02  0.17984556029E+02  0.51100000000E-03 0. -1.
        -11    1    3    3    0    0  0.52220274519E+01  0.13719008026E+02 -0.14797080224E+02  0.20843088431E+02  0.51100000000E-03 0.  1.
        -12    1    3    3    0    0  0.55012186171E+01  0.41141312112E+01 -0.25129632025E+01  0.73146746991E+01  0.00000000000E+00 0.  1.
</event>
<event>
 7    1  0.3980989E-008  0.4614232E+02  0.7816164E-02  0.1320468E+00
        -11   -1    0    0    0    0  0.00000000000E+00  0.00000000000E+00  0.45593999997E+02  0.45594000000E+02  0.51100000000E-03 0.  1.
         11   -1    0    0    0    0 -0.00000000000E+00 -0.00000000000E+00 -0.45593999997E+02  0.45594000000E+02  0.51100000000E-03 0. -1.
    9900012    2    1    2    0    0 -0.74974644640E+01 -0.41384778506E+02  0.16130765808E+02  0.46142317954E+02  0.10000001763E+02 0.  0.
        -12    1    1    2    0    0  0.74974644640E+01  0.41384778506E+02 -0.16130765808E+02  0.45045682046E+02  0.00000000000E+00 0.  1.
         11    1    3    3    0    0  0.76072184155E+00 -0.77976634375E-01  0.30604329917E+00  0.82367520164E+00  0.51100000000E-03 0. -1.
        -11    1    3    3    0    0 -0.71469619239E+01 -0.22155246617E+02  0.84204144472E+01  0.24755552855E+02  0.51100000000E-03 0.  1.
        -12    1    3    3    0    0 -0.11112243817E+01 -0.19151555254E+02  0.74043080618E+01  0.20563089898E+02  0.00000000000E+00 0.  1.
</event>
<event>
 7    1  0.3980989E-008  0.4614232E+02  0.7816164E-02  0.1320468E+00
        -11   -1    0    0    0    0  0.00000000000E+00  0.00000000000E+00  0.45593999997E+02  0.45594000000E+02  0.51100000000E-03 0. -1.
         11   -1    0    0    0    0 -0.00000000000E+00 -0.00000000000E+00 -0.45593999997E+02  0.45594000000E+02  0.51100000000E-03 0.  1.
    9900012    2    1    2    0    0 -0.33360719745E+02  0.29923926689E+02  0.45535023995E+01  0.46142318802E+02  0.10000009496E+02 0.  0.
        -12    1    1    2    0    0  0.33360719745E+02 -0.29923926689E+02 -0.45535023995E+01  0.45045681198E+02  0.00000000000E+00 0.  1.
         11    1    3    3    0    0 -0.13547373739E+02  0.11262995279E+02  0.22370339775E+01  0.17759243203E+02  0.51100000000E-03 0. -1.
        -11    1    3    3    0    0 -0.16417447602E+02  0.18493488995E+02  0.10396541728E+01  0.24751214153E+02  0.51100000000E-03 0.  1.
        -12    1    3    3    0    0 -0.33958984045E+01  0.16744241470E+00  0.12768142492E+01  0.36318614460E+01  0.00000000000E+00 0.  1.
</event>
<event>
 7    1  0.3980989E-008  0.4614232E+02  0.7816164E-02  0.1320468E+00
        -11   -1    0    0    0    0  0.00000000000E+00  0.00000000000E+00  0.45593999997E+02  0.45594000000E+02  0.51100000000E-03 0. -1.
         11   -1    0    0    0    0 -0.00000000000E+00 -0.00000000000E+00 -0.45593999997E+02  0.45594000000E+02  0.51100000000E-03 0.  1.
    9900012    2    1    2    0    0 -0.39473957171E+02 -0.15943336394E+02 -0.14721760835E+02  0.46142317497E+02  0.99999975874E+01 0.  0.
        -12    1    1    2    0    0  0.39473957171E+02  0.15943336394E+02  0.14721760835E+02  0.45045682503E+02  0.00000000000E+00 0.  1.
         11    1    3    3    0    0 -0.30371689495E+02 -0.11201669020E+02 -0.12843787837E+02  0.34826423845E+02  0.51100000000E-03 0. -1.
        -11    1    3    3    0    0 -0.22072610460E+01  0.53829632409E+00 -0.12875516382E+01  0.26114275291E+01  0.51100000000E-03 0.  1.
         12    1    3    3    0    0 -0.68950066304E+01 -0.52799636982E+01 -0.59042135981E+00  0.87044661221E+01  0.00000000000E+00 0. -1.
</event>
<event>
 7    1  0.3980989E-008  0.4614232E+02  0.7816164E-02  0.1320468E+00
        -11   -1    0    0    0    0  0.00000000000E+00  0.00000000000E+00  0.45593999997E+02  0.45594000000E+02  0.51100000000E-03 0.  1.
         11   -1    0    0    0    0 -0.00000000000E+00 -0.00000000000E+00 -0.45593999997E+02  0.45594000000E+02  0.51100000000E-03 0. -1.
    9900012    2    1    2    0    0 -0.38624706723E+01  0.34548044124E+02 -0.28646595748E+02  0.46142317849E+02  0.10000000800E+02 0.  0.
        -12    1    1    2    0    0  0.38624706723E+01 -0.34548044124E+02  0.28646595748E+02  0.45045682151E+02  0.00000000000E+00 0.  1.
         11    1    3    3    0    0 -0.38969999486E+01  0.29082889637E+02 -0.27584620140E+02  0.40272972907E+02  0.51100000000E-03 0. -1.
        -11    1    3    3    0    0  0.28446331574E-01 -0.19197857718E-01  0.23190276521E+00  0.23442889147E+00  0.51100000000E-03 0.  1.
        -12    1    3    3    0    0  0.60829447280E-02  0.54843523456E+01 -0.12938783728E+01  0.56349160505E+01  0.00000000000E+00 0.  1.
</event>
<event>
 7    1  0.3980989E-008  0.4614232E+02  0.7816164E-02  0.1320468E+00
        -11   -1    0    0    0    0  0.00000000000E+00  0.00000000000E+00  0.45593999997E+02  0.45594000000E+02  0.51100000000E-03 0.  1.
         11   -1    0    0    0    0 -0.00000000000E+00 -0.00000000000E+00 -0.45593999997E+02  0.45594000000E+02  0.51100000000E-03 0. -1.
    9900012    2    1    2    0    0 -0.64437557586E+01  0.44534063151E+02 -0.20757338478E+01  0.46142318298E+02  0.10000004897E+02 0.  0.
        -12    1    1    2    0    0  0.64437557586E+01 -0.44534063151E+02  0.20757338478E+01  0.45045681702E+02  0.00000000000E+00 0.  1.
         11    1    3    3    0    0 -0.29220186131E+01  0.25256627016E+02  0.19386079641E+01  0.25498894135E+02  0.51100000000E-03 0. -1.
        -11    1    3    3    0    0 -0.16268246500E+01  0.13036895152E+02 -0.30727522471E+00  0.13141598532E+02  0.51100000000E-03 0.  1.
        -12    1    3    3    0    0 -0.18949124955E+01  0.62405409825E+01 -0.37070665873E+01  0.75018256313E+01  0.00000000000E+00 0.  1.
</event>
<event>
 7    1  0.3980989E-008  0.4614232E+02  0.7816164E-02  0.1320468E+00
        -11   -1    0    0    0    0  0.00000000000E+00  0.00000000000E+00  0.45593999997E+02  0.45594000000E+02  0.51100000000E-03 0.  1.
         11   -1    0    0    0    0 -0.00000000000E+00 -0.00000000000E+00 -0.45593999997E+02  0.45594000000E+02  0.51100000000E-03 0. -1.
    9900012    2    1    2    0    0  0.13146789305E+02  0.42844090927E+02  0.45452442582E+01  0.46142318278E+02  0.10000004716E+02 0.  0.
        -12    1    1    2    0    0 -0.13146789305E+02 -0.42844090927E+02 -0.45452442582E+01  0.45045681722E+02  0.00000000000E+00 0.  1.
         11    1    3    3    0    0  0.37860634392E+01  0.88568899964E+01 -0.12174448274E+01  0.97088078024E+01  0.51100000000E-03 0. -1.
        -11    1    3    3    0    0  0.17054790218E+01  0.19582374567E+02  0.28247839618E+01  0.19858435413E+02  0.51100000000E-03 0.  1.
        -12    1    3    3    0    0  0.76552468440E+01  0.14404826364E+02  0.29379051238E+01  0.16575075063E+02  0.00000000000E+00 0.  1.
</event>
<event>
 7    1  0.3980989E-008  0.4614232E+02  0.7816164E-02  0.1320468E+00
        -11   -1    0    0    0    0  0.00000000000E+00  0.00000000000E+00  0.45593999997E+02  0.45594000000E+02  0.51100000000E-03 0. -1.
         11   -1    0    0    0    0 -0.00000000000E+00 -0.00000000000E+00 -0.45593999997E+02  0.45594000000E+02  0.51100000000E-03 0.  1.
    9900012    2    1    2    0    0 -0.41263298399E+02  0.21382148551E+01 -0.17941062095E+02  0.46142318002E+02  0.10000002201E+02 0.  0.
        -12    1    1    2    0    0  0.41263298399E+02 -0.21382148551E+01  0.17941062095E+02  0.45045681998E+02  0.00000000000E+00 0.  1.
         11    1    3    3    0    0 -0.33596141542E+01  0.20950156242E+01 -0.28527730741E+01  0.48800012504E+01  0.51100000000E-03 0. -1.
        -11    1    3    3    0    0 -0.34820928860E+01  0.17355114671E+01 -0.90370144295E+00  0.39942017323E+01  0.51100000000E-03 0.  1.
         12    1    3    3    0    0 -0.34421591359E+02 -0.16923122362E+01 -0.14184587578E+02  0.37268115020E+02  0.00000000000E+00 0. -1.
</event>
<event>
 7    1  0.3980989E-008  0.4614232E+02  0.7816164E-02  0.1320468E+00
        -11   -1    0    0    0    0  0.00000000000E+00  0.00000000000E+00  0.45593999997E+02  0.45594000000E+02  0.51100000000E-03 0.  1.
         11   -1    0    0    0    0 -0.00000000000E+00 -0.00000000000E+00 -0.45593999997E+02  0.45594000000E+02  0.51100000000E-03 0. -1.
    9900012    2    1    2    0    0 -0.38308165617E+02 -0.23030773509E+02 -0.55840348855E+01  0.46142317333E+02  0.99999960949E+01 0.  0.
        -12    1    1    2    0    0  0.38308165617E+02  0.23030773509E+02  0.55840348855E+01  0.45045682667E+02  0.00000000000E+00 0.  1.
         11    1    3    3    0    0 -0.23710239734E+02 -0.14675646536E+02 -0.79115786742E+01  0.28985222906E+02  0.51100000000E-03 0. -1.
        -11    1    3    3    0    0 -0.62053146311E+01 -0.49623079833E+01  0.11569042212E+01  0.80292501412E+01  0.51100000000E-03 0.  1.
         12    1    3    3    0    0 -0.83926112513E+01 -0.33928189900E+01  0.11706395675E+01  0.91278442861E+01  0.00000000000E+00 0. -1.
</event>
<event>
 7    1  0.3980989E-008  0.4614232E+02  0.7816164E-02  0.1320468E+00
        -11   -1    0    0    0    0  0.00000000000E+00  0.00000000000E+00  0.45593999997E+02  0.45594000000E+02  0.51100000000E-03 0.  1.
         11   -1    0    0    0    0 -0.00000000000E+00 -0.00000000000E+00 -0.45593999997E+02  0.45594000000E+02  0.51100000000E-03 0. -1.
    9900012    2    1    2    0    0  0.91988736175E+01  0.20468052294E+02 -0.39058329971E+02  0.46142316737E+02  0.99999906581E+01 0.  0.
        -12    1    1    2    0    0 -0.91988736175E+01 -0.20468052294E+02  0.39058329971E+02  0.45045683263E+02  0.00000000000E+00 0.  1.
         11    1    3    3    0    0  0.57913783987E+01  0.11118048013E+02 -0.27524945895E+02  0.30245226105E+02  0.51100000000E-03 0. -1.
        -11    1    3    3    0    0  0.40475700675E+01  0.79190563069E+01 -0.77300544284E+01  0.11783378886E+02  0.51100000000E-03 0.  1.
         12    1    3    3    0    0 -0.64007484871E+00  0.14309479748E+01 -0.38033296471E+01  0.41137117452E+01  0.00000000000E+00 0. -1.
</event>
<event>
 7    1  0.3980989E-008  0.4614232E+02  0.7816164E-02  0.1320468E+00
        -11   -1    0    0    0    0  0.00000000000E+00  0.00000000000E+00  0.45593999997E+02  0.45594000000E+02  0.51100000000E-03 0.  1.
         11   -1    0    0    0    0 -0.00000000000E+00 -0.00000000000E+00 -0.45593999997E+02  0.45594000000E+02  0.51100000000E-03 0. -1.
    9900012    2    1    2    0    0 -0.16930319043E+00  0.31873025713E+01 -0.44932459265E+02  0.46142318111E+02  0.10000003188E+02 0.  0.
        -12    1    1    2    0    0  0.16930319043E+00 -0.31873025713E+01  0.44932459265E+02  0.45045681889E+02  0.00000000000E+00 0.  1.
         11    1    3    3    0    0 -0.20373050137E+00 -0.17284659350E+01 -0.23778885696E+02  0.23842493700E+02  0.51100000000E-03 0. -1.
        -11    1    3    3    0    0  0.15391600980E+01 -0.35040372001E+00 -0.45127725747E+01  0.47808904136E+01  0.51100000000E-03 0.  1.
         12    1    3    3    0    0 -0.15047327871E+01  0.52661722263E+01 -0.16640800994E+02  0.17518933997E+02  0.00000000000E+00 0. -1.
</event>
<event>
 7    1  0.3980989E-008  0.4614232E+02  0.7816164E-02  0.1320468E+00
        -11   -1    0    0    0    0  0.00000000000E+00  0.00000000000E+00  0.45593999997E+02  0.45594000000E+02  0.51100000000E-03 0. -1.
         11   -1    0    0    0    0 -0.00000000000E+00 -0.00000000000E+00 -0.45593999997E+02  0.45594000000E+02  0.51100000000E-03 0.  1.
    9900012    2    1    2    0    0  0.39483152743E+02 -0.30993175744E+01  0.21461324170E+02  0.46142317020E+02  0.99999932437E+01 0.  0.
        -12    1    1    2    0    0 -0.39483152743E+02  0.30993175744E+01 -0.21461324170E+02  0.45045682980E+02  0.00000000000E+00 0.  1.
         11    1    3    3    0    0  0.83598056105E+01 -0.25963762526E+00  0.33165797996E+01  0.89974142602E+01  0.51100000000E-03 0. -1.
        -11    1    3    3    0    0  0.21292502369E+02 -0.36851502090E+01  0.81353483539E+01  0.23089713777E+02  0.51100000000E-03 0.  1.
        -12    1    3    3    0    0  0.98308447639E+01  0.84547025989E+00  0.10009396017E+02  0.14055188983E+02  0.00000000000E+00 0.  1.
</event>
<event>
 7    1  0.3980989E-008  0.4614232E+02  0.7816164E-02  0.1320468E+00
        -11   -1    0    0    0    0  0.00000000000E+00  0.00000000000E+00  0.45593999997E+02  0.45594000000E+02  0.51100000000E-03 0.  1.
         11   -1    0    0    0    0 -0.00000000000E+00 -0.00000000000E+00 -0.45593999997E+02  0.45594000000E+02  0.51100000000E-03 0. -1.
    9900012    2    1    2    0    0  0.13246794761E+02  0.45491967557E+01 -0.42812856996E+02  0.46142317779E+02  0.10000000163E+02 0.  0.
        -12    1    1    2    0    0 -0.13246794761E+02 -0.45491967557E+01  0.42812856996E+02  0.45045682221E+02  0.00000000000E+00 0.  1.
         11    1    3    3    0    0  0.31291850772E+01 -0.19478984679E+01 -0.92622236294E+01  0.99686957276E+01  0.51100000000E-03 0. -1.
        -11    1    3    3    0    0  0.81612490682E+01  0.47846599822E+01 -0.17312860753E+02  0.19729016833E+02  0.51100000000E-03 0.  1.
        -12    1    3    3    0    0  0.19563606160E+01  0.17124352414E+01 -0.16237772614E+02  0.16444605218E+02  0.00000000000E+00 0.  1.
</event>
<event>
 7    1  0.3980989E-008  0.4614232E+02  0.7816164E-02  0.1320468E+00
        -11   -1    0    0    0    0  0.00000000000E+00  0.00000000000E+00  0.45593999997E+02  0.45594000000E+02  0.51100000000E-03 0.  1.
         11   -1    0    0    0    0 -0.00000000000E+00 -0.00000000000E+00 -0.45593999997E+02  0.45594000000E+02  0.51100000000E-03 0. -1.
    9900012    2    1    2    0    0  0.52777850666E+01 -0.22040446355E+01 -0.44681098301E+02  0.46142319038E+02  0.10000011643E+02 0.  0.
        -12    1    1    2    0    0 -0.52777850666E+01  0.22040446355E+01  0.44681098301E+02  0.45045680962E+02  0.00000000000E+00 0.  1.
         11    1    3    3    0    0  0.82172189396E+00  0.16840985860E+01 -0.58030449242E+01  0.60980936014E+01  0.51100000000E-03 0. -1.
        -11    1    3    3    0    0  0.16116332057E+01  0.22664117233E+01 -0.12860554377E+02  0.13157805396E+02  0.51100000000E-03 0.  1.
         12    1    3    3    0    0  0.28444299669E+01 -0.61545549448E+01 -0.26017498999E+02  0.26886420040E+02  0.00000000000E+00 0. -1.
</event>
<event>
 7    1  0.3980989E-008  0.4614232E+02  0.7816164E-02  0.1320468E+00
        -11   -1    0    0    0    0  0.00000000000E+00  0.00000000000E+00  0.45593999997E+02  0.45594000000E+02  0.51100000000E-03 0. -1.
         11   -1    0    0    0    0 -0.00000000000E+00 -0.00000000000E+00 -0.45593999997E+02  0.45594000000E+02  0.51100000000E-03 0.  1.
    9900012    2    1    2    0    0  0.35931927816E+02  0.26766464802E+02 -0.46439615361E+01  0.46142318150E+02  0.10000003546E+02 0.  0.
        -12    1    1    2    0    0 -0.35931927816E+02 -0.26766464802E+02  0.46439615361E+01  0.45045681850E+02  0.00000000000E+00 0.  1.
         11    1    3    3    0    0  0.15536602167E+02  0.13597253550E+02  0.13384896145E+01  0.20689680174E+02  0.51100000000E-03 0. -1.
        -11    1    3    3    0    0  0.23112035634E+01  0.36043791920E+01 -0.10146929267E+01  0.44003196779E+01  0.51100000000E-03 0.  1.
        -12    1    3    3    0    0  0.18084122086E+02  0.95648320601E+01 -0.49677582239E+01  0.21052318298E+02  0.00000000000E+00 0.  1.
</event>
<event>
 7    1  0.3980989E-008  0.4614232E+02  0.7816164E-02  0.1320468E+00
        -11   -1    0    0    0    0  0.00000000000E+00  0.00000000000E+00  0.45593999997E+02  0.45594000000E+02  0.51100000000E-03 0. -1.
         11   -1    0    0    0    0 -0.00000000000E+00 -0.00000000000E+00 -0.45593999997E+02  0.45594000000E+02  0.51100000000E-03 0.  1.
    9900012    2    1    2    0    0  0.33532467401E+02  0.15356057850E+02  0.25862687245E+02  0.46142317918E+02  0.10000001430E+02 0.  0.
        -12    1    1    2    0    0 -0.33532467401E+02 -0.15356057850E+02 -0.25862687245E+02  0.45045682082E+02  0.00000000000E+00 0.  1.
         11    1    3    3    0    0  0.49715472597E+01  0.19560409860E+01  0.55106545451E+01  0.76752649642E+01  0.51100000000E-03 0. -1.
        -11    1    3    3    0    0  0.88942474334E+01  0.29557891815E+00  0.41888239599E+01  0.98357130261E+01  0.51100000000E-03 0.  1.
        -12    1    3    3    0    0  0.19666672708E+02  0.13104437946E+02  0.16163208740E+02  0.28631339928E+02  0.00000000000E+00 0.  1.
</event>
<event>
 7    1  0.3980989E-008  0.4614232E+02  0.7816164E-02  0.1320468E+00
        -11   -1    0    0    0    0  0.00000000000E+00  0.00000000000E+00  0.45593999997E+02  0.45594000000E+02  0.51100000000E-03 0.  1.
         11   -1    0    0    0    0 -0.00000000000E+00 -0.00000000000E+00 -0.45593999997E+02  0.45594000000E+02  0.51100000000E-03 0. -1.
    9900012    2    1    2    0    0  0.82406988079E+01  0.14333494574E+02 -0.41901733582E+02  0.46142318068E+02  0.10000002803E+02 0.  0.
        -12    1    1    2    0    0 -0.82406988079E+01 -0.14333494574E+02  0.41901733582E+02  0.45045681932E+02  0.00000000000E+00 0.  1.
         11    1    3    3    0    0  0.28600628123E+01  0.58740820420E+01 -0.13973409336E+02  0.15425335259E+02  0.51100000000E-03 0. -1.
        -11    1    3    3    0    0  0.65430161472E+01  0.35455236767E+01 -0.19748280800E+02  0.21103942600E+02  0.51100000000E-03 0.  1.
        -12    1    3    3    0    0 -0.11623801516E+01  0.49138888549E+01 -0.81800434455E+01  0.96130402092E+01  0.00000000000E+00 0.  1.
</event>
<event>
 7    1  0.3980989E-008  0.4614232E+02  0.7816164E-02  0.1320468E+00
        -11   -1    0    0    0    0  0.00000000000E+00  0.00000000000E+00  0.45593999997E+02  0.45594000000E+02  0.51100000000E-03 0.  1.
         11   -1    0    0    0    0 -0.00000000000E+00 -0.00000000000E+00 -0.45593999997E+02  0.45594000000E+02  0.51100000000E-03 0. -1.
    9900012    2    1    2    0    0 -0.44334745391E+02 -0.60779692643E+01  0.51577238831E+01  0.46142317910E+02  0.10000001358E+02 0.  0.
        -12    1    1    2    0    0  0.44334745391E+02  0.60779692643E+01 -0.51577238831E+01  0.45045682090E+02  0.00000000000E+00 0.  1.
         11    1    3    3    0    0 -0.92790153430E+01  0.16590864757E+01  0.22732923832E+01  0.96964195552E+01  0.51100000000E-03 0. -1.
        -11    1    3    3    0    0 -0.27073622629E+01 -0.12732097267E+01 -0.11646101992E+01  0.32104813670E+01  0.51100000000E-03 0.  1.
         12    1    3    3    0    0 -0.32348367786E+02 -0.64638460133E+01  0.40490416991E+01  0.33235416988E+02  0.00000000000E+00 0. -1.
</event>
<event>
 7    1  0.3980989E-008  0.4614232E+02  0.7816164E-02  0.1320468E+00
        -11   -1    0    0    0    0  0.00000000000E+00  0.00000000000E+00  0.45593999997E+02  0.45594000000E+02  0.51100000000E-03 0.  1.
         11   -1    0    0    0    0 -0.00000000000E+00 -0.00000000000E+00 -0.45593999997E+02  0.45594000000E+02  0.51100000000E-03 0. -1.
    9900012    2    1    2    0    0 -0.31811603987E+02 -0.95248419981E+01 -0.30437028585E+02  0.46142317938E+02  0.10000001617E+02 0.  0.
        -12    1    1    2    0    0  0.31811603987E+02  0.95248419981E+01  0.30437028585E+02  0.45045682062E+02  0.00000000000E+00 0.  1.
         11    1    3    3    0    0 -0.19629678572E+02 -0.52555148462E+01 -0.20731531096E+02  0.29030003427E+02  0.51100000000E-03 0. -1.
        -11    1    3    3    0    0 -0.90789711960E+01 -0.46982020212E+00 -0.72413508992E+01  0.11622633613E+02  0.51100000000E-03 0.  1.
        -12    1    3    3    0    0 -0.31029542195E+01 -0.37995069498E+01 -0.24641465898E+01  0.54896808983E+01  0.00000000000E+00 0.  1.
</event>
<event>
 7    1  0.3980989E-008  0.4614232E+02  0.7816164E-02  0.1320468E+00
        -11   -1    0    0    0    0  0.00000000000E+00  0.00000000000E+00  0.45593999997E+02  0.45594000000E+02  0.51100000000E-03 0.  1.
         11   -1    0    0    0    0 -0.00000000000E+00 -0.00000000000E+00 -0.45593999997E+02  0.45594000000E+02  0.51100000000E-03 0. -1.
    9900012    2    1    2    0    0  0.11866972552E+02 -0.43033341406E+02  0.60348894791E+01  0.46142318729E+02  0.10000008830E+02 0.  0.
        -12    1    1    2    0    0 -0.11866972552E+02  0.43033341406E+02 -0.60348894791E+01  0.45045681271E+02  0.00000000000E+00 0.  1.
         11    1    3    3    0    0  0.30707705915E+01 -0.25220366212E+02  0.11740148189E+01  0.25433733799E+02  0.51100000000E-03 0. -1.
        -11    1    3    3    0    0  0.19621167896E+01 -0.71368208219E+01  0.10759357430E+01  0.74794218844E+01  0.51100000000E-03 0.  1.
        -12    1    3    3    0    0  0.68340851705E+01 -0.10676154372E+02  0.37849389173E+01  0.13229163046E+02  0.00000000000E+00 0.  1.
</event>
<event>
 7    1  0.3980989E-008  0.4614232E+02  0.7816164E-02  0.1320468E+00
        -11   -1    0    0    0    0  0.00000000000E+00  0.00000000000E+00  0.45593999997E+02  0.45594000000E+02  0.51100000000E-03 0.  1.
         11   -1    0    0    0    0 -0.00000000000E+00 -0.00000000000E+00 -0.45593999997E+02  0.45594000000E+02  0.51100000000E-03 0. -1.
    9900012    2    1    2    0    0 -0.34744567257E+02 -0.70946435596E+01 -0.27777591419E+02  0.46142317564E+02  0.99999981987E+01 0.  0.
        -12    1    1    2    0    0  0.34744567257E+02  0.70946435596E+01  0.27777591419E+02  0.45045682436E+02  0.00000000000E+00 0.  1.
         11    1    3    3    0    0 -0.27517412210E+02 -0.50714111113E+01 -0.19016643589E+02  0.33831345215E+02  0.51100000000E-03 0. -1.
        -11    1    3    3    0    0 -0.20800129564E+01 -0.26574331918E+01 -0.43302923875E+01  0.54899760920E+01  0.51100000000E-03 0.  1.
        -12    1    3    3    0    0 -0.51471420905E+01  0.63420074344E+00 -0.44306554421E+01  0.68209962564E+01  0.00000000000E+00 0.  1.
</event>
<event>
 7    1  0.3980989E-008  0.4614232E+02  0.7816164E-02  0.1320468E+00
        -11   -1    0    0    0    0  0.00000000000E+00  0.00000000000E+00  0.45593999997E+02  0.45594000000E+02  0.51100000000E-03 0. -1.
         11   -1    0    0    0    0 -0.00000000000E+00 -0.00000000000E+00 -0.45593999997E+02  0.45594000000E+02  0.51100000000E-03 0.  1.
    9900012    2    1    2    0    0  0.87685829937E+01  0.16018900999E+02  0.41177909755E+02  0.46142317757E+02  0.99999999582E+01 0.  0.
        -12    1    1    2    0    0 -0.87685829937E+01 -0.16018900999E+02 -0.41177909755E+02  0.45045682243E+02  0.00000000000E+00 0.  1.
         11    1    3    3    0    0  0.36221987453E+01  0.27332242483E+01  0.10440309899E+02  0.11383800314E+02  0.51100000000E-03 0.  1.
        -11    1    3    3    0    0  0.40061291596E+01  0.13654586147E+01  0.72669857277E+01  0.84096747797E+01  0.51100000000E-03 0. -1.
        -12    1    3    3    0    0  0.11402550889E+01  0.11920218136E+02  0.23470614129E+02  0.26348842663E+02  0.00000000000E+00 0.  1.
</event>
<event>
 7    1  0.3980989E-008  0.4614232E+02  0.7816164E-02  0.1320468E+00
        -11   -1    0    0    0    0  0.00000000000E+00  0.00000000000E+00  0.45593999997E+02  0.45594000000E+02  0.51100000000E-03 0.  1.
         11   -1    0    0    0    0 -0.00000000000E+00 -0.00000000000E+00 -0.45593999997E+02  0.45594000000E+02  0.51100000000E-03 0. -1.
    9900012    2    1    2    0    0  0.25728760709E+02 -0.26083680842E+02 -0.26206602019E+02  0.46142317373E+02  0.99999964652E+01 0.  0.
        -12    1    1    2    0    0 -0.25728760709E+02  0.26083680842E+02  0.26206602019E+02  0.45045682627E+02  0.00000000000E+00 0.  1.
         11    1    3    3    0    0  0.10781644880E+02 -0.13629259346E+02 -0.11538567376E+02  0.20859988351E+02  0.51100000000E-03 0. -1.
        -11    1    3    3    0    0  0.93545530741E+01 -0.89461940616E+01 -0.13263471520E+02  0.18532720481E+02  0.51100000000E-03 0.  1.
         12    1    3    3    0    0  0.55925627550E+01 -0.35082274341E+01 -0.14045631231E+01  0.67496085416E+01  0.00000000000E+00 0. -1.
</event>
<event>
 7    1  0.3980989E-008  0.4614232E+02  0.7816164E-02  0.1320468E+00
        -11   -1    0    0    0    0  0.00000000000E+00  0.00000000000E+00  0.45593999997E+02  0.45594000000E+02  0.51100000000E-03 0.  1.
         11   -1    0    0    0    0 -0.00000000000E+00 -0.00000000000E+00 -0.45593999997E+02  0.45594000000E+02  0.51100000000E-03 0. -1.
    9900012    2    1    2    0    0 -0.43013802808E+02 -0.10952759676E+02  0.76787548168E+01  0.46142318164E+02  0.10000003674E+02 0.  0.
        -12    1    1    2    0    0  0.43013802808E+02  0.10952759676E+02 -0.76787548168E+01  0.45045681836E+02  0.00000000000E+00 0.  1.
         11    1    3    3    0    0 -0.26837813052E+02 -0.75394978191E+01  0.52167888977E+01  0.28360661548E+02  0.51100000000E-03 0. -1.
        -11    1    3    3    0    0 -0.15007912636E+02 -0.31837339751E+01  0.39826983542E+01  0.15850409779E+02  0.51100000000E-03 0.  1.
         12    1    3    3    0    0 -0.11680771198E+01 -0.22952788132E+00 -0.15207324350E+01  0.19312468369E+01  0.00000000000E+00 0. -1.
</event>
<event>
 7    1  0.3980989E-008  0.4614232E+02  0.7816164E-02  0.1320468E+00
        -11   -1    0    0    0    0  0.00000000000E+00  0.00000000000E+00  0.45593999997E+02  0.45594000000E+02  0.51100000000E-03 0.  1.
         11   -1    0    0    0    0 -0.00000000000E+00 -0.00000000000E+00 -0.45593999997E+02  0.45594000000E+02  0.51100000000E-03 0. -1.
    9900012    2    1    2    0    0 -0.97821455243E+01 -0.37448151662E+02 -0.23044705944E+02  0.46142324225E+02  0.10000058945E+02 0.  0.
        -12    1    1    2    0    0  0.97821455243E+01  0.37448151662E+02  0.23044705944E+02  0.45045675775E+02  0.00000000000E+00 0.  1.
         11    1    3    3    0    0  0.93154935247E+00 -0.56931849601E+01 -0.37177352484E+01  0.68630674501E+01  0.51100000000E-03 0. -1.
        -11    1    3    3    0    0 -0.61676383051E+01 -0.23305091085E+02 -0.16713917434E+02  0.29334656449E+02  0.51100000000E-03 0.  1.
        -12    1    3    3    0    0 -0.45460565717E+01 -0.84498756170E+01 -0.26130532616E+01  0.99446003260E+01  0.00000000000E+00 0.  1.
</event>
<event>
 7    1  0.3980989E-008  0.4614232E+02  0.7816164E-02  0.1320468E+00
        -11   -1    0    0    0    0  0.00000000000E+00  0.00000000000E+00  0.45593999997E+02  0.45594000000E+02  0.51100000000E-03 0.  1.
         11   -1    0    0    0    0 -0.00000000000E+00 -0.00000000000E+00 -0.45593999997E+02  0.45594000000E+02  0.51100000000E-03 0. -1.
    9900012    2    1    2    0    0  0.39948311752E+02  0.10663222179E+02 -0.17875723655E+02  0.46142318573E+02  0.10000007400E+02 0.  0.
        -12    1    1    2    0    0 -0.39948311752E+02 -0.10663222179E+02  0.17875723655E+02  0.45045681427E+02  0.00000000000E+00 0.  1.
         11    1    3    3    0    0  0.34854411019E+01  0.17310135801E+01 -0.48811710394E+01  0.62426387582E+01  0.51100000000E-03 0. -1.
        -11    1    3    3    0    0  0.19016802856E+02  0.50028246576E+01 -0.87327769571E+01  0.21515771868E+02  0.51100000000E-03 0.  1.
        -12    1    3    3    0    0  0.17446067794E+02  0.39293839413E+01 -0.42617756586E+01  0.18383907947E+02  0.00000000000E+00 0.  1.
</event>
<event>
 7    1  0.3980989E-008  0.4614232E+02  0.7816164E-02  0.1320468E+00
        -11   -1    0    0    0    0  0.00000000000E+00  0.00000000000E+00  0.45593999997E+02  0.45594000000E+02  0.51100000000E-03 0.  1.
         11   -1    0    0    0    0 -0.00000000000E+00 -0.00000000000E+00 -0.45593999997E+02  0.45594000000E+02  0.51100000000E-03 0. -1.
    9900012    2    1    2    0    0 -0.10834550747E+02  0.87973801320E+01 -0.42829103565E+02  0.46142317640E+02  0.99999988934E+01 0.  0.
        -12    1    1    2    0    0  0.10834550747E+02 -0.87973801320E+01  0.42829103565E+02  0.45045682360E+02  0.00000000000E+00 0.  1.
         11    1    3    3    0    0 -0.89639258893E+01  0.30418982844E+01 -0.19956631233E+02  0.22087830200E+02  0.51100000000E-03 0. -1.
        -11    1    3    3    0    0 -0.19201421509E+01  0.14215647198E+01 -0.37454321229E+01  0.44425279043E+01  0.51100000000E-03 0.  1.
        -12    1    3    3    0    0  0.49517293156E-01  0.43339171278E+01 -0.19127040210E+02  0.19611959535E+02  0.00000000000E+00 0.  1.
</event>
<event>
 7    1  0.3980989E-008  0.4614232E+02  0.7816164E-02  0.1320468E+00
        -11   -1    0    0    0    0  0.00000000000E+00  0.00000000000E+00  0.45593999997E+02  0.45594000000E+02  0.51100000000E-03 0.  1.
         11   -1    0    0    0    0 -0.00000000000E+00 -0.00000000000E+00 -0.45593999997E+02  0.45594000000E+02  0.51100000000E-03 0. -1.
    9900012    2    1    2    0    0 -0.24952439644E+02 -0.47474907912E+01 -0.37201487024E+02  0.46142317079E+02  0.99999937823E+01 0.  0.
        -12    1    1    2    0    0  0.24952439644E+02  0.47474907912E+01  0.37201487024E+02  0.45045682921E+02  0.00000000000E+00 0.  1.
         11    1    3    3    0    0 -0.13732070502E+02 -0.43926155213E+00 -0.21127776784E+02  0.25202096402E+02  0.51100000000E-03 0. -1.
        -11    1    3    3    0    0 -0.44046825320E+01 -0.12407840447E+01 -0.19775164894E+01  0.49851123338E+01  0.51100000000E-03 0.  1.
        -12    1    3    3    0    0 -0.68156866106E+01 -0.30674451944E+01 -0.14096193750E+02  0.15955108343E+02  0.00000000000E+00 0.  1.
</event>
<event>
 7    1  0.3980989E-008  0.4614232E+02  0.7816164E-02  0.1320468E+00
        -11   -1    0    0    0    0  0.00000000000E+00  0.00000000000E+00  0.45593999997E+02  0.45594000000E+02  0.51100000000E-03 0.  1.
         11   -1    0    0    0    0 -0.00000000000E+00 -0.00000000000E+00 -0.45593999997E+02  0.45594000000E+02  0.51100000000E-03 0. -1.
    9900012    2    1    2    0    0  0.87588627807E+01  0.10729901148E+01 -0.44172886546E+02  0.46142324393E+02  0.10000060479E+02 0.  0.
        -12    1    1    2    0    0 -0.87588627807E+01 -0.10729901148E+01  0.44172886546E+02  0.45045675607E+02  0.00000000000E+00 0.  1.
         11    1    3    3    0    0  0.57059931252E+01  0.21119876485E+00 -0.13025663872E+02  0.14222196807E+02  0.51100000000E-03 0. -1.
        -11    1    3    3    0    0  0.27900845115E+00  0.47224885202E+00  0.91485535583E-01  0.55608862459E+00  0.51100000000E-03 0.  1.
        -12    1    3    3    0    0  0.27738612043E+01  0.38954249791E+00 -0.31238708210E+02  0.31364038962E+02  0.00000000000E+00 0.  1.
</event>
<event>
 7    1  0.3980989E-008  0.4614232E+02  0.7816164E-02  0.1320468E+00
        -11   -1    0    0    0    0  0.00000000000E+00  0.00000000000E+00  0.45593999997E+02  0.45594000000E+02  0.51100000000E-03 0.  1.
         11   -1    0    0    0    0 -0.00000000000E+00 -0.00000000000E+00 -0.45593999997E+02  0.45594000000E+02  0.51100000000E-03 0. -1.
    9900012    2    1    2    0    0  0.26016587523E+02 -0.36756759673E+02  0.10914550657E+01  0.46142317830E+02  0.10000000628E+02 0.  0.
        -12    1    1    2    0    0 -0.26016587523E+02  0.36756759673E+02 -0.10914550657E+01  0.45045682170E+02  0.00000000000E+00 0.  1.
         11    1    3    3    0    0  0.69331417618E+01 -0.52748869129E+01 -0.30713685701E+00  0.87170648697E+01  0.51100000000E-03 0. -1.
        -11    1    3    3    0    0  0.14991345308E+00 -0.19256638425E+01  0.12934014191E+01  0.23245521654E+01  0.51100000000E-03 0.  1.
         12    1    3    3    0    0  0.18933532309E+02 -0.29556208917E+02  0.10519050352E+00  0.35100700795E+02  0.00000000000E+00 0. -1.
</event>
<event>
 7    1  0.3980989E-008  0.4614231E+02  0.7816164E-02  0.1320468E+00
        -11   -1    0    0    0    0  0.00000000000E+00  0.00000000000E+00  0.45593999997E+02  0.45594000000E+02  0.51100000000E-03 0.  1.
         11   -1    0    0    0    0 -0.00000000000E+00 -0.00000000000E+00 -0.45593999997E+02  0.45594000000E+02  0.51100000000E-03 0. -1.
    9900012    2    1    2    0    0 -0.18231888485E+02  0.30391531302E+02 -0.27804080296E+02  0.46142314150E+02  0.99999670718E+01 0.  0.
        -12    1    1    2    0    0  0.18231888485E+02 -0.30391531302E+02  0.27804080296E+02  0.45045685850E+02  0.00000000000E+00 0.  1.
         11    1    3    3    0    0 -0.71679425677E+01  0.11424232613E+02 -0.13945062127E+02  0.19399929109E+02  0.51100000000E-03 0. -1.
        -11    1    3    3    0    0 -0.45986808576E+01  0.13682338747E+02 -0.76489033178E+01  0.16335849578E+02  0.51100000000E-03 0.  1.
        -12    1    3    3    0    0 -0.64652650595E+01  0.52849599421E+01 -0.62101148513E+01  0.10406535463E+02  0.00000000000E+00 0.  1.
</event>
<event>
 7    1  0.3980989E-008  0.4614232E+02  0.7816164E-02  0.1320468E+00
        -11   -1    0    0    0    0  0.00000000000E+00  0.00000000000E+00  0.45593999997E+02  0.45594000000E+02  0.51100000000E-03 0.  1.
         11   -1    0    0    0    0 -0.00000000000E+00 -0.00000000000E+00 -0.45593999997E+02  0.45594000000E+02  0.51100000000E-03 0. -1.
    9900012    2    1    2    0    0 -0.16568222845E+02  0.32747991850E+02 -0.26118509748E+02  0.46142317300E+02  0.99999957945E+01 0.  0.
        -12    1    1    2    0    0  0.16568222845E+02 -0.32747991850E+02  0.26118509748E+02  0.45045682700E+02  0.00000000000E+00 0.  1.
         11    1    3    3    0    0 -0.20457333417E+01  0.55789767740E+01 -0.74642591075E+01  0.95407112436E+01  0.51100000000E-03 0. -1.
        -11    1    3    3    0    0 -0.54665437686E+01  0.16781882481E+02 -0.11600045340E+02  0.21120505026E+02  0.51100000000E-03 0.  1.
        -12    1    3    3    0    0 -0.90559457351E+01  0.10387132595E+02 -0.70542053003E+01  0.15481101031E+02  0.00000000000E+00 0.  1.
</event>
<event>
 7    1  0.4476380E-008  0.4614232E+02  0.7816164E-02  0.1320468E+00
        -11   -1    0    0    0    0  0.00000000000E+00  0.00000000000E+00  0.45593999997E+02  0.45594000000E+02  0.51100000000E-03 0.  1.
         11   -1    0    0    0    0 -0.00000000000E+00 -0.00000000000E+00 -0.45593999997E+02  0.45594000000E+02  0.51100000000E-03 0. -1.
    9900012    2    1    2    0    0 -0.22205826167E+02  0.34772148421E+01 -0.39037465164E+02  0.46142318462E+02  0.10000006388E+02 0.  0.
        -12    1    1    2    0    0  0.22205826167E+02 -0.34772148421E+01  0.39037465164E+02  0.45045681538E+02  0.00000000000E+00 0.  1.
         11    1    3    3    0    0 -0.28062141067E+01 -0.12304857982E+01 -0.37647833619E+01  0.48541247342E+01  0.51100000000E-03 0. -1.
        -11    1    3    3    0    0 -0.23394431312E+01 -0.18724995224E+01 -0.33107082049E+01  0.44654269342E+01  0.51100000000E-03 0.  1.
         12    1    3    3    0    0 -0.17060168929E+02  0.65802001627E+01 -0.31961973597E+02  0.36822766793E+02  0.00000000000E+00 0. -1.
</event>
<event>
 7    1  0.3980989E-008  0.4614232E+02  0.7816164E-02  0.1320468E+00
        -11   -1    0    0    0    0  0.00000000000E+00  0.00000000000E+00  0.45593999997E+02  0.45594000000E+02  0.51100000000E-03 0.  1.
         11   -1    0    0    0    0 -0.00000000000E+00 -0.00000000000E+00 -0.45593999997E+02  0.45594000000E+02  0.51100000000E-03 0. -1.
    9900012    2    1    2    0    0  0.23152833931E+02 -0.30648669024E+02 -0.23531230844E+02  0.46142318109E+02  0.10000003172E+02 0.  0.
        -12    1    1    2    0    0 -0.23152833931E+02  0.30648669024E+02  0.23531230844E+02  0.45045681891E+02  0.00000000000E+00 0.  1.
         11    1    3    3    0    0  0.61163531940E+01 -0.11170423430E+02 -0.50647317316E+01  0.13705460363E+02  0.51100000000E-03 0. -1.
        -11    1    3    3    0    0  0.89906365703E+01 -0.98123082650E+01 -0.55809608391E+01  0.14431218368E+02  0.51100000000E-03 0.  1.
        -12    1    3    3    0    0  0.80458441669E+01 -0.96659373292E+01 -0.12885538274E+02  0.18005639378E+02  0.00000000000E+00 0.  1.
</event>
<event>
 7    1  0.3980989E-008  0.4614232E+02  0.7816164E-02  0.1320468E+00
        -11   -1    0    0    0    0  0.00000000000E+00  0.00000000000E+00  0.45593999997E+02  0.45594000000E+02  0.51100000000E-03 0.  1.
         11   -1    0    0    0    0 -0.00000000000E+00 -0.00000000000E+00 -0.45593999997E+02  0.45594000000E+02  0.51100000000E-03 0. -1.
    9900012    2    1    2    0    0  0.86174095219E+01  0.74069787718E+01 -0.43588879798E+02  0.46142317372E+02  0.99999964534E+01 0.  0.
        -12    1    1    2    0    0 -0.86174095219E+01 -0.74069787718E+01  0.43588879798E+02  0.45045682628E+02  0.00000000000E+00 0.  1.
         11    1    3    3    0    0  0.68778551705E+01  0.18015685622E+01 -0.30567640700E+02  0.31383613547E+02  0.51100000000E-03 0. -1.
        -11    1    3    3    0    0 -0.59385391590E+00  0.38395019791E+01 -0.88304902357E+01  0.96473828568E+01  0.51100000000E-03 0.  1.
         12    1    3    3    0    0  0.23334082673E+01  0.17659082305E+01 -0.41907488621E+01  0.51113209688E+01  0.00000000000E+00 0. -1.
</event>
<event>
 7    1  0.3980989E-008  0.4614232E+02  0.7816164E-02  0.1320468E+00
        -11   -1    0    0    0    0  0.00000000000E+00  0.00000000000E+00  0.45593999997E+02  0.45594000000E+02  0.51100000000E-03 0. -1.
         11   -1    0    0    0    0 -0.00000000000E+00 -0.00000000000E+00 -0.45593999997E+02  0.45594000000E+02  0.51100000000E-03 0.  1.
    9900012    2    1    2    0    0  0.15239752973E+02 -0.42316804508E+02 -0.24802179310E+01  0.46142317683E+02  0.99999992846E+01 0.  0.
        -12    1    1    2    0    0 -0.15239752973E+02  0.42316804508E+02  0.24802179310E+01  0.45045682317E+02  0.00000000000E+00 0.  1.
         11    1    3    3    0    0  0.65117470646E+01 -0.26195832761E+02 -0.23507751649E+01  0.27095214485E+02  0.51100000000E-03 0. -1.
        -11    1    3    3    0    0  0.41078896796E+01 -0.11961543453E+02  0.11525684393E+01  0.12699672975E+02  0.51100000000E-03 0.  1.
         12    1    3    3    0    0  0.46201162284E+01 -0.41594282943E+01 -0.12820112054E+01  0.63474302226E+01  0.00000000000E+00 0. -1.
</event>
<event>
 7    1  0.3980989E-008  0.4614231E+02  0.7816164E-02  0.1320468E+00
        -11   -1    0    0    0    0  0.00000000000E+00  0.00000000000E+00  0.45593999997E+02  0.45594000000E+02  0.51100000000E-03 0. -1.
         11   -1    0    0    0    0 -0.00000000000E+00 -0.00000000000E+00 -0.45593999997E+02  0.45594000000E+02  0.51100000000E-03 0.  1.
    9900012    2    1    2    0    0 -0.98898923837E+01  0.16517545241E+02  0.40724373820E+02  0.46142313245E+02  0.99999588202E+01 0.  0.
        -12    1    1    2    0    0  0.98898923837E+01 -0.16517545241E+02 -0.40724373820E+02  0.45045686755E+02  0.00000000000E+00 0.  1.
         11    1    3    3    0    0 -0.55564305405E+01  0.11665799895E+02  0.27460457842E+02  0.30348666407E+02  0.51100000000E-03 0. -1.
        -11    1    3    3    0    0 -0.12184247000E-01  0.38567365426E+01  0.82059597620E+01  0.90671021331E+01  0.51100000000E-03 0.  1.
        -12    1    3    3    0    0 -0.43212775962E+01  0.99500880383E+00  0.50579562165E+01  0.67265447052E+01  0.00000000000E+00 0.  1.
</event>
<event>
 7    1  0.3980989E-008  0.4614232E+02  0.7816164E-02  0.1320468E+00
        -11   -1    0    0    0    0  0.00000000000E+00  0.00000000000E+00  0.45593999997E+02  0.45594000000E+02  0.51100000000E-03 0.  1.
         11   -1    0    0    0    0 -0.00000000000E+00 -0.00000000000E+00 -0.45593999997E+02  0.45594000000E+02  0.51100000000E-03 0. -1.
    9900012    2    1    2    0    0 -0.20823823719E+02 -0.12402041546E+02 -0.37969346317E+02  0.46142317316E+02  0.99999959378E+01 0.  0.
        -12    1    1    2    0    0  0.20823823719E+02  0.12402041546E+02  0.37969346317E+02  0.45045682684E+02  0.00000000000E+00 0.  1.
         11    1    3    3    0    0 -0.45418187684E+01 -0.41532197151E+01 -0.85249321834E+01  0.10514362592E+02  0.51100000000E-03 0. -1.
        -11    1    3    3    0    0 -0.46241669115E+01  0.13356337714E+01 -0.91294814394E+01  0.10320575023E+02  0.51100000000E-03 0.  1.
        -12    1    3    3    0    0 -0.11657838039E+02 -0.95844556021E+01 -0.20314932694E+02  0.25307379700E+02  0.00000000000E+00 0.  1.
</event>
<event>
 7    1  0.3980989E-008  0.4614232E+02  0.7816164E-02  0.1320468E+00
        -11   -1    0    0    0    0  0.00000000000E+00  0.00000000000E+00  0.45593999997E+02  0.45594000000E+02  0.51100000000E-03 0. -1.
         11   -1    0    0    0    0 -0.00000000000E+00 -0.00000000000E+00 -0.45593999997E+02  0.45594000000E+02  0.51100000000E-03 0.  1.
    9900012    2    1    2    0    0  0.13340045414E+02  0.29069155741E+02  0.31719722081E+02  0.46142318786E+02  0.10000009347E+02 0.  0.
        -12    1    1    2    0    0 -0.13340045414E+02 -0.29069155741E+02 -0.31719722081E+02  0.45045681214E+02  0.00000000000E+00 0.  1.
         11    1    3    3    0    0 -0.33395345901E+00  0.89243650686E+01  0.80414585433E+01  0.12017523562E+02  0.51100000000E-03 0. -1.
        -11    1    3    3    0    0  0.82180016569E+00  0.28528056154E+01  0.21355795496E+01  0.36571239608E+01  0.51100000000E-03 0.  1.
        -12    1    3    3    0    0  0.12852198707E+02  0.17291985057E+02  0.21542683988E+02  0.30467671264E+02  0.00000000000E+00 0.  1.
</event>
<event>
 7    1  0.3980989E-008  0.4614232E+02  0.7816164E-02  0.1320468E+00
        -11   -1    0    0    0    0  0.00000000000E+00  0.00000000000E+00  0.45593999997E+02  0.45594000000E+02  0.51100000000E-03 0.  1.
         11   -1    0    0    0    0 -0.00000000000E+00 -0.00000000000E+00 -0.45593999997E+02  0.45594000000E+02  0.51100000000E-03 0. -1.
    9900012    2    1    2    0    0  0.49738427668E+01  0.36328272131E+02 -0.26165456953E+02  0.46142316461E+02  0.99999881456E+01 0.  0.
        -12    1    1    2    0    0 -0.49738427668E+01 -0.36328272131E+02  0.26165456953E+02  0.45045683539E+02  0.00000000000E+00 0.  1.
         11    1    3    3    0    0  0.11745678311E+00  0.13694047675E+02 -0.74957877152E+01  0.15611776695E+02  0.51100000000E-03 0. -1.
        -11    1    3    3    0    0  0.26640641242E+01  0.46475435317E+01 -0.14878753407E+01  0.55597366688E+01  0.51100000000E-03 0.  1.
         12    1    3    3    0    0  0.21923218595E+01  0.17986680924E+02 -0.17181793898E+02  0.24970803098E+02  0.00000000000E+00 0. -1.
</event>
<event>
 7    1  0.3980989E-008  0.4614232E+02  0.7816164E-02  0.1320468E+00
        -11   -1    0    0    0    0  0.00000000000E+00  0.00000000000E+00  0.45593999997E+02  0.45594000000E+02  0.51100000000E-03 0.  1.
         11   -1    0    0    0    0 -0.00000000000E+00 -0.00000000000E+00 -0.45593999997E+02  0.45594000000E+02  0.51100000000E-03 0. -1.
    9900012    2    1    2    0    0  0.79093576179E+01 -0.30409351172E+02 -0.32277343288E+02  0.46142318005E+02  0.10000002228E+02 0.  0.
        -12    1    1    2    0    0 -0.79093576179E+01  0.30409351172E+02  0.32277343288E+02  0.45045681995E+02  0.00000000000E+00 0.  1.
         11    1    3    3    0    0  0.47348370903E+01 -0.16532275231E+02 -0.22906725313E+02  0.28643548513E+02  0.51100000000E-03 0. -1.
        -11    1    3    3    0    0  0.20925252879E+01 -0.13339352369E+02 -0.90290345529E+01  0.16243166222E+02  0.51100000000E-03 0.  1.
        -12    1    3    3    0    0  0.10819952397E+01 -0.53772357205E+00 -0.34158342226E+00  0.12556032705E+01  0.00000000000E+00 0.  1.
</event>
<event>
 7    1  0.3980989E-008  0.4614232E+02  0.7816164E-02  0.1320468E+00
        -11   -1    0    0    0    0  0.00000000000E+00  0.00000000000E+00  0.45593999997E+02  0.45594000000E+02  0.51100000000E-03 0.  1.
         11   -1    0    0    0    0 -0.00000000000E+00 -0.00000000000E+00 -0.45593999997E+02  0.45594000000E+02  0.51100000000E-03 0. -1.
    9900012    2    1    2    0    0 -0.23436556704E+01 -0.18903206801E+02 -0.40820207951E+02  0.46142319558E+02  0.10000016389E+02 0.  0.
        -12    1    1    2    0    0  0.23436556704E+01  0.18903206801E+02  0.40820207951E+02  0.45045680442E+02  0.00000000000E+00 0.  1.
         11    1    3    3    0    0 -0.24272800633E+00 -0.55396039664E+01 -0.15195704151E+02  0.16175770581E+02  0.51100000000E-03 0. -1.
        -11    1    3    3    0    0  0.18565035708E+01 -0.98434035166E+01 -0.14239705433E+02  0.17410008885E+02  0.51100000000E-03 0.  1.
         12    1    3    3    0    0 -0.39574312349E+01 -0.35201993178E+01 -0.11384798368E+02  0.12556540093E+02  0.00000000000E+00 0. -1.
</event>
<event>
 7    1  0.3980989E-008  0.4614232E+02  0.7816164E-02  0.1320468E+00
        -11   -1    0    0    0    0  0.00000000000E+00  0.00000000000E+00  0.45593999997E+02  0.45594000000E+02  0.51100000000E-03 0.  1.
         11   -1    0    0    0    0 -0.00000000000E+00 -0.00000000000E+00 -0.45593999997E+02  0.45594000000E+02  0.51100000000E-03 0. -1.
    9900012    2    1    2    0    0 -0.83640515263E+01  0.27721452148E+02 -0.34506190682E+02  0.46142318048E+02  0.10000002613E+02 0.  0.
        -12    1    1    2    0    0  0.83640515263E+01 -0.27721452148E+02  0.34506190682E+02  0.45045681952E+02  0.00000000000E+00 0.  1.
         11    1    3    3    0    0 -0.18292916358E+01  0.13114611083E+01 -0.13162334397E+01  0.26074333848E+01  0.51100000000E-03 0. -1.
        -11    1    3    3    0    0 -0.54397482677E+01  0.16227254307E+02 -0.15480270999E+02  0.23077119275E+02  0.51100000000E-03 0.  1.
         12    1    3    3    0    0 -0.10950116228E+01  0.10182736733E+02 -0.17709686243E+02  0.20457765388E+02  0.00000000000E+00 0. -1.
</event>
<event>
 7    1  0.3980989E-008  0.4614232E+02  0.7816164E-02  0.1320468E+00
        -11   -1    0    0    0    0  0.00000000000E+00  0.00000000000E+00  0.45593999997E+02  0.45594000000E+02  0.51100000000E-03 0. -1.
         11   -1    0    0    0    0 -0.00000000000E+00 -0.00000000000E+00 -0.45593999997E+02  0.45594000000E+02  0.51100000000E-03 0.  1.
    9900012    2    1    2    0    0 -0.33242288383E+02 -0.23514867815E+02 -0.19264339589E+02  0.46142317353E+02  0.99999962815E+01 0.  0.
        -12    1    1    2    0    0  0.33242288383E+02  0.23514867815E+02  0.19264339589E+02  0.45045682647E+02  0.00000000000E+00 0.  1.
         11    1    3    3    0    0 -0.70365310251E+01 -0.66591134453E+01 -0.16373419617E+01  0.98253473071E+01  0.51100000000E-03 0. -1.
        -11    1    3    3    0    0 -0.22952420750E+02 -0.16874098536E+02 -0.15521824119E+02  0.32441884100E+02  0.51100000000E-03 0.  1.
        -12    1    3    3    0    0 -0.32533366080E+01  0.18344166366E-01 -0.21051735081E+01  0.38750859465E+01  0.00000000000E+00 0.  1.
</event>
<event>
 7    1  0.3980989E-008  0.4614232E+02  0.7816164E-02  0.1320468E+00
        -11   -1    0    0    0    0  0.00000000000E+00  0.00000000000E+00  0.45593999997E+02  0.45594000000E+02  0.51100000000E-03 0. -1.
         11   -1    0    0    0    0 -0.00000000000E+00 -0.00000000000E+00 -0.45593999997E+02  0.45594000000E+02  0.51100000000E-03 0.  1.
    9900012    2    1    2    0    0  0.14296171628E+02 -0.22204781991E+02  0.36492201018E+02  0.46142316504E+02  0.99999885371E+01 0.  0.
        -12    1    1    2    0    0 -0.14296171628E+02  0.22204781991E+02 -0.36492201018E+02  0.45045683496E+02  0.00000000000E+00 0.  1.
         11    1    3    3    0    0  0.12415272741E+02 -0.19789084487E+02  0.30199178855E+02  0.38180325639E+02  0.51100000000E-03 0. -1.
        -11    1    3    3    0    0 -0.24913882248E+00 -0.24632176245E+01  0.46626525815E+01  0.52791893862E+01  0.51100000000E-03 0.  1.
         12    1    3    3    0    0  0.21300377091E+01  0.47520121303E-01  0.16303695817E+01  0.26828014793E+01  0.00000000000E+00 0. -1.
</event>
<event>
 7    1  0.3980989E-008  0.4614232E+02  0.7816164E-02  0.1320468E+00
        -11   -1    0    0    0    0  0.00000000000E+00  0.00000000000E+00  0.45593999997E+02  0.45594000000E+02  0.51100000000E-03 0.  1.
         11   -1    0    0    0    0 -0.00000000000E+00 -0.00000000000E+00 -0.45593999997E+02  0.45594000000E+02  0.51100000000E-03 0. -1.
    9900012    2    1    2    0    0 -0.38792662161E+02 -0.48664412884E+01  0.22373212951E+02  0.46142317121E+02  0.99999941587E+01 0.  0.
        -12    1    1    2    0    0  0.38792662161E+02  0.48664412884E+01 -0.22373212951E+02  0.45045682879E+02  0.00000000000E+00 0.  1.
         11    1    3    3    0    0 -0.46406852640E+01  0.21911338077E+01  0.30424634598E+01  0.59660381534E+01  0.51100000000E-03 0. -1.
        -11    1    3    3    0    0 -0.15622870129E+02 -0.55507306310E+01  0.80442190933E+01  0.18428080277E+02  0.51100000000E-03 0.  1.
         12    1    3    3    0    0 -0.18529106767E+02 -0.15068444651E+01  0.11286530398E+02  0.21748198690E+02  0.00000000000E+00 0. -1.
</event>
<event>
 7    1  0.3980989E-008  0.4614232E+02  0.7816164E-02  0.1320468E+00
        -11   -1    0    0    0    0  0.00000000000E+00  0.00000000000E+00  0.45593999997E+02  0.45594000000E+02  0.51100000000E-03 0.  1.
         11   -1    0    0    0    0 -0.00000000000E+00 -0.00000000000E+00 -0.45593999997E+02  0.45594000000E+02  0.51100000000E-03 0. -1.
    9900012    2    1    2    0    0 -0.36274195136E+02 -0.24280462909E+02  0.11124540781E+02  0.46142317416E+02  0.99999968549E+01 0.  0.
        -12    1    1    2    0    0  0.36274195136E+02  0.24280462909E+02 -0.11124540781E+02  0.45045682584E+02  0.00000000000E+00 0.  1.
         11    1    3    3    0    0 -0.92271625907E+00  0.56298338759E+00 -0.23978451863E+00  0.11071822189E+01  0.51100000000E-03 0. -1.
        -11    1    3    3    0    0 -0.94245446870E+01 -0.37619948416E+01  0.31314524931E+01  0.10619823102E+02  0.51100000000E-03 0.  1.
         12    1    3    3    0    0 -0.25926934190E+02 -0.21081451455E+02  0.82328728065E+01  0.34415312095E+02  0.00000000000E+00 0. -1.
</event>
<event>
 7    1  0.3980989E-008  0.4614232E+02  0.7816164E-02  0.1320468E+00
        -11   -1    0    0    0    0  0.00000000000E+00  0.00000000000E+00  0.45593999997E+02  0.45594000000E+02  0.51100000000E-03 0.  1.
         11   -1    0    0    0    0 -0.00000000000E+00 -0.00000000000E+00 -0.45593999997E+02  0.45594000000E+02  0.51100000000E-03 0. -1.
    9900012    2    1    2    0    0 -0.40973688493E+02  0.96866313459E+01 -0.16013727840E+02  0.46142318132E+02  0.10000003386E+02 0.  0.
        -12    1    1    2    0    0  0.40973688493E+02 -0.96866313459E+01  0.16013727840E+02  0.45045681868E+02  0.00000000000E+00 0.  1.
         11    1    3    3    0    0 -0.12380697938E+02  0.23197607574E+01 -0.51774438659E+01  0.13618696584E+02  0.51100000000E-03 0. -1.
        -11    1    3    3    0    0 -0.25020911784E+02  0.67266808789E+01 -0.12211382716E+02  0.28642837328E+02  0.51100000000E-03 0.  1.
        -12    1    3    3    0    0 -0.35720787712E+01  0.64018970959E+00  0.13750987412E+01  0.38807842197E+01  0.00000000000E+00 0.  1.
</event>
<event>
 7    1  0.3980989E-008  0.4614232E+02  0.7816164E-02  0.1320468E+00
        -11   -1    0    0    0    0  0.00000000000E+00  0.00000000000E+00  0.45593999997E+02  0.45594000000E+02  0.51100000000E-03 0. -1.
         11   -1    0    0    0    0 -0.00000000000E+00 -0.00000000000E+00 -0.45593999997E+02  0.45594000000E+02  0.51100000000E-03 0.  1.
    9900012    2    1    2    0    0 -0.44279692648E+02 -0.71332689921E+01  0.41879379513E+01  0.46142317279E+02  0.99999956068E+01 0.  0.
        -12    1    1    2    0    0  0.44279692648E+02  0.71332689921E+01 -0.41879379513E+01  0.45045682721E+02  0.00000000000E+00 0.  1.
         11    1    3    3    0    0 -0.22812945196E+02 -0.22779718912E+00  0.19213728754E+01  0.22894847325E+02  0.51100000000E-03 0. -1.
        -11    1    3    3    0    0 -0.14898854874E+02 -0.35386022743E+01  0.36404754502E+01  0.15740096708E+02  0.51100000000E-03 0.  1.
        -12    1    3    3    0    0 -0.65678925778E+01 -0.33668695286E+01 -0.13739103742E+01  0.75073732458E+01  0.00000000000E+00 0.  1.
</event>
<event>
 7    1  0.3980989E-008  0.4614232E+02  0.7816164E-02  0.1320468E+00
        -11   -1    0    0    0    0  0.00000000000E+00  0.00000000000E+00  0.45593999997E+02  0.45594000000E+02  0.51100000000E-03 0.  1.
         11   -1    0    0    0    0 -0.00000000000E+00 -0.00000000000E+00 -0.45593999997E+02  0.45594000000E+02  0.51100000000E-03 0. -1.
    9900012    2    1    2    0    0  0.13933297406E+02  0.25524084436E+02 -0.34402002680E+02  0.46142318173E+02  0.10000003754E+02 0.  0.
        -12    1    1    2    0    0 -0.13933297406E+02 -0.25524084436E+02  0.34402002680E+02  0.45045681827E+02  0.00000000000E+00 0.  1.
         11    1    3    3    0    0  0.66696779379E+01  0.13424045417E+02 -0.19570199311E+02  0.24651212962E+02  0.51100000000E-03 0. -1.
        -11    1    3    3    0    0  0.59523629284E+01  0.44071678944E+01 -0.94725024815E+01  0.12024227909E+02  0.51100000000E-03 0.  1.
         12    1    3    3    0    0  0.13112565400E+01  0.76928711246E+01 -0.53593008867E+01  0.94668773018E+01  0.00000000000E+00 0. -1.
</event>
<event>
 7    1  0.3980989E-008  0.4614232E+02  0.7816164E-02  0.1320468E+00
        -11   -1    0    0    0    0  0.00000000000E+00  0.00000000000E+00  0.45593999997E+02  0.45594000000E+02  0.51100000000E-03 0. -1.
         11   -1    0    0    0    0 -0.00000000000E+00 -0.00000000000E+00 -0.45593999997E+02  0.45594000000E+02  0.51100000000E-03 0.  1.
    9900012    2    1    2    0    0  0.42839803931E+01 -0.15520736394E+02  0.42069796301E+02  0.46142317554E+02  0.99999981134E+01 0.  0.
        -12    1    1    2    0    0 -0.42839803931E+01  0.15520736394E+02 -0.42069796301E+02  0.45045682446E+02  0.00000000000E+00 0.  1.
         11    1    3    3    0    0  0.34093696665E+01 -0.21668950011E+01  0.12054520941E+02  0.12713406736E+02  0.51100000000E-03 0. -1.
        -11    1    3    3    0    0  0.10847466337E+01 -0.84160707835E+01  0.11666302747E+02  0.14426002313E+02  0.51100000000E-03 0.  1.
        -12    1    3    3    0    0 -0.21013590707E+00 -0.49377706093E+01  0.18348972613E+02  0.19002908505E+02  0.00000000000E+00 0.  1.
</event>
<event>
 7    1  0.3980989E-008  0.4614232E+02  0.7816164E-02  0.1320468E+00
        -11   -1    0    0    0    0  0.00000000000E+00  0.00000000000E+00  0.45593999997E+02  0.45594000000E+02  0.51100000000E-03 0.  1.
         11   -1    0    0    0    0 -0.00000000000E+00 -0.00000000000E+00 -0.45593999997E+02  0.45594000000E+02  0.51100000000E-03 0. -1.
    9900012    2    1    2    0    0 -0.11552273201E+02 -0.26223180055E+02 -0.34756342421E+02  0.46142317335E+02  0.99999961162E+01 0.  0.
        -12    1    1    2    0    0  0.11552273201E+02  0.26223180055E+02  0.34756342421E+02  0.45045682665E+02  0.00000000000E+00 0.  1.
         11    1    3    3    0    0  0.39491557811E-02 -0.16564699402E+01 -0.27765576609E+01  0.32331379439E+01  0.51100000000E-03 0. -1.
        -11    1    3    3    0    0 -0.20281759035E+01 -0.12094514225E+02 -0.18632332037E+02  0.22305931257E+02  0.51100000000E-03 0.  1.
         12    1    3    3    0    0 -0.95280464529E+01 -0.12472195889E+02 -0.13347452723E+02  0.20603248135E+02  0.00000000000E+00 0. -1.
</event>
<event>
 7    1  0.3980989E-008  0.4614232E+02  0.7816164E-02  0.1320468E+00
        -11   -1    0    0    0    0  0.00000000000E+00  0.00000000000E+00  0.45593999997E+02  0.45594000000E+02  0.51100000000E-03 0.  1.
         11   -1    0    0    0    0 -0.00000000000E+00 -0.00000000000E+00 -0.45593999997E+02  0.45594000000E+02  0.51100000000E-03 0. -1.
    9900012    2    1    2    0    0 -0.39846738005E+02  0.33623349128E+01 -0.20737541627E+02  0.46142318093E+02  0.10000003025E+02 0.  0.
        -12    1    1    2    0    0  0.39846738005E+02 -0.33623349128E+01  0.20737541627E+02  0.45045681907E+02  0.00000000000E+00 0.  1.
         11    1    3    3    0    0 -0.36134346763E+02  0.18180646981E+01 -0.20992350497E+02  0.41829118505E+02  0.51100000000E-03 0. -1.
        -11    1    3    3    0    0 -0.18442450645E+01  0.64035992390E+00 -0.63815026653E+00  0.20539076692E+01  0.51100000000E-03 0.  1.
        -12    1    3    3    0    0 -0.18681461781E+01  0.90391029076E+00  0.89295913607E+00  0.22592919190E+01  0.00000000000E+00 0.  1.
</event>
<event>
 7    1  0.3980989E-008  0.4614232E+02  0.7816164E-02  0.1320468E+00
        -11   -1    0    0    0    0  0.00000000000E+00  0.00000000000E+00  0.45593999997E+02  0.45594000000E+02  0.51100000000E-03 0. -1.
         11   -1    0    0    0    0 -0.00000000000E+00 -0.00000000000E+00 -0.45593999997E+02  0.45594000000E+02  0.51100000000E-03 0.  1.
    9900012    2    1    2    0    0  0.26912391959E+02 -0.36843671694E+01  0.35934135022E+02  0.46142318052E+02  0.10000002652E+02 0.  0.
        -12    1    1    2    0    0 -0.26912391959E+02  0.36843671694E+01 -0.35934135022E+02  0.45045681948E+02  0.00000000000E+00 0.  1.
         11    1    3    3    0    0  0.13808395730E+02 -0.20470773546E+00  0.21233867231E+02  0.25329643025E+02  0.51100000000E-03 0. -1.
        -11    1    3    3    0    0  0.88609437828E+01 -0.45054899977E+00  0.12050939846E+02  0.14964774324E+02  0.51100000000E-03 0.  1.
        -12    1    3    3    0    0  0.42430524456E+01 -0.30291104342E+01  0.26493279447E+01  0.58479007034E+01  0.00000000000E+00 0.  1.
</event>
<event>
 7    1  0.3980989E-008  0.4614232E+02  0.7816164E-02  0.1320468E+00
        -11   -1    0    0    0    0  0.00000000000E+00  0.00000000000E+00  0.45593999997E+02  0.45594000000E+02  0.51100000000E-03 0.  1.
         11   -1    0    0    0    0 -0.00000000000E+00 -0.00000000000E+00 -0.45593999997E+02  0.45594000000E+02  0.51100000000E-03 0. -1.
    9900012    2    1    2    0    0 -0.46465212238E+01  0.33431010185E+02 -0.29831038130E+02  0.46142318327E+02  0.10000005159E+02 0.  0.
        -12    1    1    2    0    0  0.46465212238E+01 -0.33431010185E+02  0.29831038130E+02  0.45045681673E+02  0.00000000000E+00 0.  1.
         11    1    3    3    0    0  0.49426489060E+00  0.23821468456E+01 -0.17633571370E+00  0.24392654471E+01  0.51100000000E-03 0.  1.
        -11    1    3    3    0    0 -0.20990095399E+01  0.41883666682E+01 -0.70523625997E+01  0.84666448428E+01  0.51100000000E-03 0. -1.
         12    1    3    3    0    0 -0.30417765746E+01  0.26860496671E+02 -0.22602339817E+02  0.35236408037E+02  0.00000000000E+00 0. -1.
</event>
<event>
 7    1  0.3980989E-008  0.4614232E+02  0.7816164E-02  0.1320468E+00
        -11   -1    0    0    0    0  0.00000000000E+00  0.00000000000E+00  0.45593999997E+02  0.45594000000E+02  0.51100000000E-03 0.  1.
         11   -1    0    0    0    0 -0.00000000000E+00 -0.00000000000E+00 -0.45593999997E+02  0.45594000000E+02  0.51100000000E-03 0. -1.
    9900012    2    1    2    0    0  0.41178194886E+02  0.43167657694E+01 -0.17743598449E+02  0.46142317780E+02  0.10000000170E+02 0.  0.
        -12    1    1    2    0    0 -0.41178194886E+02 -0.43167657694E+01  0.17743598449E+02  0.45045682220E+02  0.00000000000E+00 0.  1.
         11    1    3    3    0    0  0.13288298150E+02  0.51821889523E-01 -0.53028467198E+01  0.14307401470E+02  0.51100000000E-03 0. -1.
        -11    1    3    3    0    0  0.16559720760E+02  0.64234848670E+01 -0.78947994130E+01  0.19437421833E+02  0.51100000000E-03 0.  1.
        -12    1    3    3    0    0  0.11330175976E+02 -0.21585409871E+01 -0.45459523161E+01  0.12397494477E+02  0.00000000000E+00 0.  1.
</event>
<event>
 7    1  0.3980989E-008  0.4614232E+02  0.7816164E-02  0.1320468E+00
        -11   -1    0    0    0    0  0.00000000000E+00  0.00000000000E+00  0.45593999997E+02  0.45594000000E+02  0.51100000000E-03 0.  1.
         11   -1    0    0    0    0 -0.00000000000E+00 -0.00000000000E+00 -0.45593999997E+02  0.45594000000E+02  0.51100000000E-03 0. -1.
    9900012    2    1    2    0    0 -0.24228906100E+02  0.33856659811E+02 -0.17198842941E+02  0.46142317600E+02  0.99999985313E+01 0.  0.
        -12    1    1    2    0    0  0.24228906100E+02 -0.33856659811E+02  0.17198842941E+02  0.45045682400E+02  0.00000000000E+00 0.  1.
         11    1    3    3    0    0 -0.89068984184E+00  0.25696769216E+01 -0.94254879368E+00  0.28783617502E+01  0.51100000000E-03 0.  1.
        -11    1    3    3    0    0 -0.31715263603E+01  0.60068129046E+01 -0.67047301051E+01  0.95443065106E+01  0.51100000000E-03 0. -1.
         12    1    3    3    0    0 -0.20166689898E+02  0.25280169985E+02 -0.95515640419E+01  0.33719649339E+02  0.00000000000E+00 0. -1.
</event>
<event>
 7    1  0.3980989E-008  0.4614232E+02  0.7816164E-02  0.1320468E+00
        -11   -1    0    0    0    0  0.00000000000E+00  0.00000000000E+00  0.45593999997E+02  0.45594000000E+02  0.51100000000E-03 0.  1.
         11   -1    0    0    0    0 -0.00000000000E+00 -0.00000000000E+00 -0.45593999997E+02  0.45594000000E+02  0.51100000000E-03 0. -1.
    9900012    2    1    2    0    0  0.17971158910E+02 -0.23016145024E+02 -0.34298804481E+02  0.46142317930E+02  0.10000001539E+02 0.  0.
        -12    1    1    2    0    0 -0.17971158910E+02  0.23016145024E+02  0.34298804481E+02  0.45045682070E+02  0.00000000000E+00 0.  1.
         11    1    3    3    0    0  0.68424242428E+00 -0.27892526563E+01 -0.53791205863E+01  0.60977911262E+01  0.51100000000E-03 0.  1.
        -11    1    3    3    0    0  0.40936555260E+01 -0.19664087049E+01 -0.85107187963E+01  0.96466115010E+01  0.51100000000E-03 0. -1.
        -12    1    3    3    0    0  0.13193260960E+02 -0.18260483663E+02 -0.20408965098E+02  0.30397915303E+02  0.00000000000E+00 0.  1.
</event>
<event>
 7    1  0.3980989E-008  0.4614232E+02  0.7816164E-02  0.1320468E+00
        -11   -1    0    0    0    0  0.00000000000E+00  0.00000000000E+00  0.45593999997E+02  0.45594000000E+02  0.51100000000E-03 0.  1.
         11   -1    0    0    0    0 -0.00000000000E+00 -0.00000000000E+00 -0.45593999997E+02  0.45594000000E+02  0.51100000000E-03 0. -1.
    9900012    2    1    2    0    0 -0.39392182916E+02  0.18590505637E+02  0.11478785472E+02  0.46142317736E+02  0.99999997674E+01 0.  0.
        -12    1    1    2    0    0  0.39392182916E+02 -0.18590505637E+02 -0.11478785472E+02  0.45045682264E+02  0.00000000000E+00 0.  1.
         11    1    3    3    0    0 -0.87025364755E+01  0.91761197590E+00  0.41672524847E+01  0.96923756829E+01  0.51100000000E-03 0.  1.
        -11    1    3    3    0    0 -0.49175728483E+01  0.11245007956E+01  0.46065806975E+00  0.50654941394E+01  0.51100000000E-03 0. -1.
         12    1    3    3    0    0 -0.25772073593E+02  0.16548392865E+02  0.68508749174E+01  0.31384447913E+02  0.00000000000E+00 0. -1.
</event>
<event>
 7    1  0.3980989E-008  0.4614232E+02  0.7816164E-02  0.1320468E+00
        -11   -1    0    0    0    0  0.00000000000E+00  0.00000000000E+00  0.45593999997E+02  0.45594000000E+02  0.51100000000E-03 0.  1.
         11   -1    0    0    0    0 -0.00000000000E+00 -0.00000000000E+00 -0.45593999997E+02  0.45594000000E+02  0.51100000000E-03 0. -1.
    9900012    2    1    2    0    0  0.21898570676E+02  0.37650255117E+02  0.11490186933E+02  0.46142317590E+02  0.99999984394E+01 0.  0.
        -12    1    1    2    0    0 -0.21898570676E+02 -0.37650255117E+02 -0.11490186933E+02  0.45045682410E+02  0.00000000000E+00 0.  1.
         11    1    3    3    0    0  0.13642187041E+01  0.16823288917E+01  0.16174533069E+01  0.27032348462E+01  0.51100000000E-03 0. -1.
        -11    1    3    3    0    0  0.10256753279E+01  0.29609073983E+00 -0.87976289332E+00  0.13833519488E+01  0.51100000000E-03 0.  1.
         12    1    3    3    0    0  0.19508676644E+02  0.35671835485E+02  0.10752496519E+02  0.42055730795E+02  0.00000000000E+00 0. -1.
</event>
<event>
 7    1  0.3980989E-008  0.4614232E+02  0.7816164E-02  0.1320468E+00
        -11   -1    0    0    0    0  0.00000000000E+00  0.00000000000E+00  0.45593999997E+02  0.45594000000E+02  0.51100000000E-03 0.  1.
         11   -1    0    0    0    0 -0.00000000000E+00 -0.00000000000E+00 -0.45593999997E+02  0.45594000000E+02  0.51100000000E-03 0. -1.
    9900012    2    1    2    0    0 -0.31230980032E+02 -0.20265426071E+02 -0.25358468938E+02  0.46142317028E+02  0.99999933127E+01 0.  0.
        -12    1    1    2    0    0  0.31230980032E+02  0.20265426071E+02  0.25358468938E+02  0.45045682972E+02  0.00000000000E+00 0.  1.
         11    1    3    3    0    0 -0.76028297400E+01 -0.88245979537E+01 -0.67754662648E+01  0.13475291925E+02  0.51100000000E-03 0. -1.
        -11    1    3    3    0    0 -0.15767684766E+02 -0.67287440994E+01 -0.88301225635E+01  0.19283851918E+02  0.51100000000E-03 0.  1.
        -12    1    3    3    0    0 -0.78604655257E+01 -0.47120840178E+01 -0.97528801096E+01  0.13383173185E+02  0.00000000000E+00 0.  1.
</event>
<event>
 7    1  0.3980989E-008  0.4614232E+02  0.7816164E-02  0.1320468E+00
        -11   -1    0    0    0    0  0.00000000000E+00  0.00000000000E+00  0.45593999997E+02  0.45594000000E+02  0.51100000000E-03 0.  1.
         11   -1    0    0    0    0 -0.00000000000E+00 -0.00000000000E+00 -0.45593999997E+02  0.45594000000E+02  0.51100000000E-03 0. -1.
    9900012    2    1    2    0    0 -0.41865107397E+02 -0.14155653523E+02 -0.87203009789E+01  0.46142318818E+02  0.10000009639E+02 0.  0.
        -12    1    1    2    0    0  0.41865107397E+02  0.14155653523E+02  0.87203009789E+01  0.45045681182E+02  0.00000000000E+00 0.  1.
         11    1    3    3    0    0 -0.81218273514E+01 -0.54857453187E+01 -0.67530758671E-01  0.98011245218E+01  0.51100000000E-03 0. -1.
        -11    1    3    3    0    0 -0.22737158371E+02 -0.50532497036E+01 -0.31107653630E+01  0.23498735387E+02  0.51100000000E-03 0.  1.
         12    1    3    3    0    0 -0.11006121674E+02 -0.36166585005E+01 -0.55420048573E+01  0.12842458910E+02  0.00000000000E+00 0. -1.
</event>
<event>
 7    1  0.3980989E-008  0.4614232E+02  0.7816164E-02  0.1320468E+00
        -11   -1    0    0    0    0  0.00000000000E+00  0.00000000000E+00  0.45593999997E+02  0.45594000000E+02  0.51100000000E-03 0.  1.
         11   -1    0    0    0    0 -0.00000000000E+00 -0.00000000000E+00 -0.45593999997E+02  0.45594000000E+02  0.51100000000E-03 0. -1.
    9900012    2    1    2    0    0 -0.18253875388E+02 -0.28684511509E+02 -0.29548406924E+02  0.46142317422E+02  0.99999969080E+01 0.  0.
        -12    1    1    2    0    0  0.18253875388E+02  0.28684511509E+02  0.29548406924E+02  0.45045682578E+02  0.00000000000E+00 0.  1.
         11    1    3    3    0    0 -0.10767262328E+02 -0.14571223457E+02 -0.17790009480E+02  0.25391709840E+02  0.51100000000E-03 0. -1.
        -11    1    3    3    0    0  0.90700606089E+00 -0.28417796735E+01 -0.27540846169E+01  0.40599697099E+01  0.51100000000E-03 0.  1.
         12    1    3    3    0    0 -0.83936191218E+01 -0.11271508378E+02 -0.90043128270E+01  0.16690637872E+02  0.00000000000E+00 0. -1.
</event>
<event>
 7    1  0.3980989E-008  0.4614232E+02  0.7816164E-02  0.1320468E+00
        -11   -1    0    0    0    0  0.00000000000E+00  0.00000000000E+00  0.45593999997E+02  0.45594000000E+02  0.51100000000E-03 0.  1.
         11   -1    0    0    0    0 -0.00000000000E+00 -0.00000000000E+00 -0.45593999997E+02  0.45594000000E+02  0.51100000000E-03 0. -1.
    9900012    2    1    2    0    0  0.23343016252E+02 -0.18837839161E+02 -0.33605846754E+02  0.46142317321E+02  0.99999959831E+01 0.  0.
        -12    1    1    2    0    0 -0.23343016252E+02  0.18837839161E+02  0.33605846754E+02  0.45045682679E+02  0.00000000000E+00 0.  1.
         11    1    3    3    0    0  0.87900525602E+01 -0.78687637818E+01 -0.98448551944E+01  0.15365664370E+02  0.51100000000E-03 0. -1.
        -11    1    3    3    0    0 -0.30637403234E+00 -0.22292098499E+01 -0.19659932034E+01  0.29880380083E+01  0.51100000000E-03 0.  1.
         12    1    3    3    0    0  0.14859337724E+02 -0.87398655290E+01 -0.21794998356E+02  0.27788614942E+02  0.00000000000E+00 0. -1.
</event>
<event>
 7    1  0.3980989E-008  0.4614232E+02  0.7816164E-02  0.1320468E+00
        -11   -1    0    0    0    0  0.00000000000E+00  0.00000000000E+00  0.45593999997E+02  0.45594000000E+02  0.51100000000E-03 0.  1.
         11   -1    0    0    0    0 -0.00000000000E+00 -0.00000000000E+00 -0.45593999997E+02  0.45594000000E+02  0.51100000000E-03 0. -1.
    9900012    2    1    2    0    0  0.97655767043E+01  0.15433048958E+02 -0.41177275218E+02  0.46142317822E+02  0.10000000558E+02 0.  0.
        -12    1    1    2    0    0 -0.97655767043E+01 -0.15433048958E+02  0.41177275218E+02  0.45045682178E+02  0.00000000000E+00 0.  1.
         11    1    3    3    0    0  0.18869352837E+01  0.48575136436E+01 -0.12350110912E+02  0.13404521750E+02  0.51100000000E-03 0. -1.
        -11    1    3    3    0    0  0.39676014846E+01  0.97737609311E+01 -0.14942960332E+02  0.18290990351E+02  0.51100000000E-03 0.  1.
         12    1    3    3    0    0  0.39110399360E+01  0.80177438292E+00 -0.13884203974E+02  0.14446805721E+02  0.00000000000E+00 0. -1.
</event>
<event>
 7    1  0.3980989E-008  0.4614232E+02  0.7816164E-02  0.1320468E+00
        -11   -1    0    0    0    0  0.00000000000E+00  0.00000000000E+00  0.45593999997E+02  0.45594000000E+02  0.51100000000E-03 0. -1.
         11   -1    0    0    0    0 -0.00000000000E+00 -0.00000000000E+00 -0.45593999997E+02  0.45594000000E+02  0.51100000000E-03 0.  1.
    9900012    2    1    2    0    0  0.23192558172E+02 -0.33914914405E+02  0.18466110460E+02  0.46142318640E+02  0.10000008014E+02 0.  0.
        -12    1    1    2    0    0 -0.23192558172E+02  0.33914914405E+02 -0.18466110460E+02  0.45045681360E+02  0.00000000000E+00 0.  1.
         11    1    3    3    0    0  0.93830038945E+01 -0.11078524951E+02  0.43724872104E+01  0.15162226810E+02  0.51100000000E-03 0. -1.
        -11    1    3    3    0    0  0.11342906493E+02 -0.18919739100E+02  0.14396470521E+02  0.26341534106E+02  0.51100000000E-03 0.  1.
        -12    1    3    3    0    0  0.24666477845E+01 -0.39166503543E+01 -0.30284727162E+00  0.46385577242E+01  0.00000000000E+00 0.  1.
</event>
<event>
 7    1  0.3980989E-008  0.4614232E+02  0.7816164E-02  0.1320468E+00
        -11   -1    0    0    0    0  0.00000000000E+00  0.00000000000E+00  0.45593999997E+02  0.45594000000E+02  0.51100000000E-03 0.  1.
         11   -1    0    0    0    0 -0.00000000000E+00 -0.00000000000E+00 -0.45593999997E+02  0.45594000000E+02  0.51100000000E-03 0. -1.
    9900012    2    1    2    0    0  0.13600984014E+02  0.10107620659E+02 -0.41736828205E+02  0.46142316632E+02  0.99999897003E+01 0.  0.
        -12    1    1    2    0    0 -0.13600984014E+02 -0.10107620659E+02  0.41736828205E+02  0.45045683368E+02  0.00000000000E+00 0.  1.
         11    1    3    3    0    0  0.36111264093E+01 -0.46107268714E+00 -0.71557167222E+01  0.80285181719E+01  0.51100000000E-03 0. -1.
        -11    1    3    3    0    0  0.60745560401E+01  0.45875799597E+01 -0.10335150376E+02  0.12835943851E+02  0.51100000000E-03 0.  1.
        -12    1    3    3    0    0  0.39153015646E+01  0.59811133861E+01 -0.24245961106E+02  0.25277854609E+02  0.00000000000E+00 0.  1.
</event>
<event>
 7    1  0.4216867E-008  0.4614232E+02  0.7816164E-02  0.1320468E+00
        -11   -1    0    0    0    0  0.00000000000E+00  0.00000000000E+00  0.45593999997E+02  0.45594000000E+02  0.51100000000E-03 0.  1.
         11   -1    0    0    0    0 -0.00000000000E+00 -0.00000000000E+00 -0.45593999997E+02  0.45594000000E+02  0.51100000000E-03 0. -1.
    9900012    2    1    2    0    0  0.32682715396E+02  0.27276909740E+02 -0.14728330716E+02  0.46142318561E+02  0.10000007296E+02 0.  0.
        -12    1    1    2    0    0 -0.32682715396E+02 -0.27276909740E+02  0.14728330716E+02  0.45045681439E+02  0.00000000000E+00 0.  1.
         11    1    3    3    0    0  0.35254825457E+01  0.21869806447E+01  0.48483926893E+00  0.41769583309E+01  0.51100000000E-03 0. -1.
        -11    1    3    3    0    0  0.29679141762E+01  0.59967427656E+01 -0.22588548967E+01  0.70620014202E+01  0.51100000000E-03 0.  1.
         12    1    3    3    0    0  0.26189318674E+02  0.19093186330E+02 -0.12954315088E+02  0.34903358810E+02  0.00000000000E+00 0. -1.
</event>
<event>
 7    1  0.3980989E-008  0.4614231E+02  0.7816164E-02  0.1320468E+00
        -11   -1    0    0    0    0  0.00000000000E+00  0.00000000000E+00  0.45593999997E+02  0.45594000000E+02  0.51100000000E-03 0.  1.
         11   -1    0    0    0    0 -0.00000000000E+00 -0.00000000000E+00 -0.45593999997E+02  0.45594000000E+02  0.51100000000E-03 0. -1.
    9900012    2    1    2    0    0  0.37886083932E+01  0.18258545987E+02 -0.41004703253E+02  0.46142314924E+02  0.99999741254E+01 0.  0.
        -12    1    1    2    0    0 -0.37886083932E+01 -0.18258545987E+02  0.41004703253E+02  0.45045685076E+02  0.00000000000E+00 0.  1.
         11    1    3    3    0    0  0.26453076988E+01  0.56818298044E+01 -0.15586860714E+02  0.16799734222E+02  0.51100000000E-03 0. -1.
        -11    1    3    3    0    0  0.42614894320E+01  0.57966723861E+01 -0.12185415498E+02  0.14150832275E+02  0.51100000000E-03 0.  1.
         12    1    3    3    0    0 -0.31181887376E+01  0.67800437963E+01 -0.13232427041E+02  0.15191748427E+02  0.00000000000E+00 0. -1.
</event>
<event>
 7    1  0.3980989E-008  0.4614232E+02  0.7816164E-02  0.1320468E+00
        -11   -1    0    0    0    0  0.00000000000E+00  0.00000000000E+00  0.45593999997E+02  0.45594000000E+02  0.51100000000E-03 0. -1.
         11   -1    0    0    0    0 -0.00000000000E+00 -0.00000000000E+00 -0.45593999997E+02  0.45594000000E+02  0.51100000000E-03 0.  1.
    9900012    2    1    2    0    0  0.34836671351E+02 -0.28107634808E+02  0.50478435180E+01  0.46142317305E+02  0.99999958386E+01 0.  0.
        -12    1    1    2    0    0 -0.34836671351E+02  0.28107634808E+02 -0.50478435180E+01  0.45045682695E+02  0.00000000000E+00 0.  1.
         11    1    3    3    0    0  0.17432220130E+00 -0.87144895619E-01 -0.40724536745E+00  0.45147703500E+00  0.51100000000E-03 0. -1.
        -11    1    3    3    0    0 -0.10857077606E-01 -0.20099067821E+01  0.53457154853E-01  0.20106469301E+01  0.51100000000E-03 0.  1.
         12    1    3    3    0    0  0.34673206227E+02 -0.26010583130E+02  0.54016317306E+01  0.43680193340E+02  0.00000000000E+00 0. -1.
</event>
<event>
 7    1  0.3980989E-008  0.4614232E+02  0.7816164E-02  0.1320468E+00
        -11   -1    0    0    0    0  0.00000000000E+00  0.00000000000E+00  0.45593999997E+02  0.45594000000E+02  0.51100000000E-03 0. -1.
         11   -1    0    0    0    0 -0.00000000000E+00 -0.00000000000E+00 -0.45593999997E+02  0.45594000000E+02  0.51100000000E-03 0.  1.
    9900012    2    1    2    0    0 -0.39218378494E+01  0.25662412550E+02  0.36812677747E+02  0.46142317933E+02  0.10000001565E+02 0.  0.
        -12    1    1    2    0    0  0.39218378494E+01 -0.25662412550E+02 -0.36812677747E+02  0.45045682067E+02  0.00000000000E+00 0.  1.
         11    1    3    3    0    0 -0.36480205483E+01  0.68064584614E+01  0.71934767595E+01  0.10553768941E+02  0.51100000000E-03 0. -1.
        -11    1    3    3    0    0  0.24771028036E+01  0.10725222073E+02  0.18703789539E+02  0.21702492258E+02  0.51100000000E-03 0.  1.
        -12    1    3    3    0    0 -0.27509201047E+01  0.81307320165E+01  0.10915411448E+02  0.13886056734E+02  0.00000000000E+00 0.  1.
</event>
<event>
 7    1  0.3980989E-008  0.4614232E+02  0.7816164E-02  0.1320468E+00
        -11   -1    0    0    0    0  0.00000000000E+00  0.00000000000E+00  0.45593999997E+02  0.45594000000E+02  0.51100000000E-03 0. -1.
         11   -1    0    0    0    0 -0.00000000000E+00 -0.00000000000E+00 -0.45593999997E+02  0.45594000000E+02  0.51100000000E-03 0.  1.
    9900012    2    1    2    0    0  0.74887888968E+01  0.35580325191E+02  0.26590825367E+02  0.46142317703E+02  0.99999994739E+01 0.  0.
        -12    1    1    2    0    0 -0.74887888968E+01 -0.35580325191E+02 -0.26590825367E+02  0.45045682297E+02  0.00000000000E+00 0.  1.
         11    1    3    3    0    0  0.44676661669E+01  0.21024801676E+02  0.17236937169E+02  0.27552029503E+02  0.51100000000E-03 0. -1.
        -11    1    3    3    0    0  0.48580120410E+00  0.70030463542E+01  0.77631085053E+01  0.10466351560E+02  0.51100000000E-03 0.  1.
        -12    1    3    3    0    0  0.25353215258E+01  0.75524771613E+01  0.15907796925E+01  0.81239366406E+01  0.00000000000E+00 0.  1.
</event>
<event>
 7    1  0.3980989E-008  0.4614232E+02  0.7816164E-02  0.1320468E+00
        -11   -1    0    0    0    0  0.00000000000E+00  0.00000000000E+00  0.45593999997E+02  0.45594000000E+02  0.51100000000E-03 0.  1.
         11   -1    0    0    0    0 -0.00000000000E+00 -0.00000000000E+00 -0.45593999997E+02  0.45594000000E+02  0.51100000000E-03 0. -1.
    9900012    2    1    2    0    0  0.38794350485E+02 -0.17914586615E+02 -0.14254098919E+02  0.46142318974E+02  0.10000011060E+02 0.  0.
        -12    1    1    2    0    0 -0.38794350485E+02  0.17914586615E+02  0.14254098919E+02  0.45045681026E+02  0.00000000000E+00 0.  1.
         11    1    3    3    0    0  0.31951785239E+02 -0.10186250014E+02 -0.11428719163E+02  0.35430098664E+02  0.51100000000E-03 0. -1.
        -11    1    3    3    0    0  0.34587508823E+01 -0.42537063725E+01 -0.15462578273E+01  0.56963048636E+01  0.51100000000E-03 0.  1.
         12    1    3    3    0    0  0.33838143630E+01 -0.34746302277E+01 -0.12791219286E+01  0.50159154469E+01  0.00000000000E+00 0. -1.
</event>
<event>
 7    1  0.3980989E-008  0.4614232E+02  0.7816164E-02  0.1320468E+00
        -11   -1    0    0    0    0  0.00000000000E+00  0.00000000000E+00  0.45593999997E+02  0.45594000000E+02  0.51100000000E-03 0.  1.
         11   -1    0    0    0    0 -0.00000000000E+00 -0.00000000000E+00 -0.45593999997E+02  0.45594000000E+02  0.51100000000E-03 0. -1.
    9900012    2    1    2    0    0  0.40548299383E+02  0.18897644420E+02  0.52752263726E+01  0.46142316957E+02  0.99999926700E+01 0.  0.
        -12    1    1    2    0    0 -0.40548299383E+02 -0.18897644420E+02 -0.52752263726E+01  0.45045683043E+02  0.00000000000E+00 0.  1.
         11    1    3    3    0    0  0.24364991692E+02  0.10348285081E+02  0.47492015443E+01  0.26894139507E+02  0.51100000000E-03 0. -1.
        -11    1    3    3    0    0  0.34701721736E+01 -0.41643318628E+00  0.11489175281E+01  0.36790655417E+01  0.51100000000E-03 0.  1.
         12    1    3    3    0    0  0.12713135518E+02  0.89657925250E+01 -0.62289269973E+00  0.15569111908E+02  0.00000000000E+00 0. -1.
</event>
<event>
 7    1  0.3980989E-008  0.4614232E+02  0.7816164E-02  0.1320468E+00
        -11   -1    0    0    0    0  0.00000000000E+00  0.00000000000E+00  0.45593999997E+02  0.45594000000E+02  0.51100000000E-03 0. -1.
         11   -1    0    0    0    0 -0.00000000000E+00 -0.00000000000E+00 -0.45593999997E+02  0.45594000000E+02  0.51100000000E-03 0.  1.
    9900012    2    1    2    0    0 -0.11385136301E+02 -0.48964156516E+01  0.43307243403E+02  0.46142317122E+02  0.99999941684E+01 0.  0.
        -12    1    1    2    0    0  0.11385136301E+02  0.48964156516E+01 -0.43307243403E+02  0.45045682878E+02  0.00000000000E+00 0.  1.
         11    1    3    3    0    0 -0.27894012424E+01  0.15718336250E-01  0.38306241410E+01  0.47386377713E+01  0.51100000000E-03 0. -1.
        -11    1    3    3    0    0  0.74645558449E-01 -0.24451310658E+01  0.32235694679E+01  0.40466823774E+01  0.51100000000E-03 0.  1.
         12    1    3    3    0    0 -0.86703806175E+01 -0.24670029220E+01  0.36253049794E+02  0.37356996973E+02  0.00000000000E+00 0. -1.
</event>
<event>
 7    1  0.3980989E-008  0.4614232E+02  0.7816164E-02  0.1320468E+00
        -11   -1    0    0    0    0  0.00000000000E+00  0.00000000000E+00  0.45593999997E+02  0.45594000000E+02  0.51100000000E-03 0.  1.
         11   -1    0    0    0    0 -0.00000000000E+00 -0.00000000000E+00 -0.45593999997E+02  0.45594000000E+02  0.51100000000E-03 0. -1.
    9900012    2    1    2    0    0  0.54025920141E+01 -0.21729399811E+02 -0.39086551646E+02  0.46142319450E+02  0.10000015403E+02 0.  0.
        -12    1    1    2    0    0 -0.54025920141E+01  0.21729399811E+02  0.39086551646E+02  0.45045680550E+02  0.00000000000E+00 0.  1.
         11    1    3    3    0    0  0.60755495980E+00 -0.64536499104E+01 -0.11537911065E+02  0.13234126801E+02  0.51100000000E-03 0. -1.
        -11    1    3    3    0    0  0.13580025499E+01 -0.14386401379E+02 -0.22099489492E+02  0.26404547934E+02  0.51100000000E-03 0.  1.
        -12    1    3    3    0    0  0.34370345044E+01 -0.88934852199E+00 -0.54491510895E+01  0.65036447146E+01  0.00000000000E+00 0.  1.
</event>
<event>
 7    1  0.3980989E-008  0.4614232E+02  0.7816164E-02  0.1320468E+00
        -11   -1    0    0    0    0  0.00000000000E+00  0.00000000000E+00  0.45593999997E+02  0.45594000000E+02  0.51100000000E-03 0.  1.
         11   -1    0    0    0    0 -0.00000000000E+00 -0.00000000000E+00 -0.45593999997E+02  0.45594000000E+02  0.51100000000E-03 0. -1.
    9900012    2    1    2    0    0  0.23815628779E+02  0.13706491324E+02 -0.35693997219E+02  0.46142317454E+02  0.99999971981E+01 0.  0.
        -12    1    1    2    0    0 -0.23815628779E+02 -0.13706491324E+02  0.35693997219E+02  0.45045682546E+02  0.00000000000E+00 0.  1.
         11    1    3    3    0    0  0.25216677238E+01  0.27573726376E+01 -0.60132583834E+01  0.70796319550E+01  0.51100000000E-03 0. -1.
        -11    1    3    3    0    0  0.19495247843E+02  0.64774644252E+01 -0.24795542892E+02  0.32200018345E+02  0.51100000000E-03 0.  1.
         12    1    3    3    0    0  0.17987132118E+01  0.44716542616E+01 -0.48851959437E+01  0.68626671536E+01  0.00000000000E+00 0. -1.
</event>
<event>
 7    1  0.3980989E-008  0.4614232E+02  0.7816164E-02  0.1320468E+00
        -11   -1    0    0    0    0  0.00000000000E+00  0.00000000000E+00  0.45593999997E+02  0.45594000000E+02  0.51100000000E-03 0.  1.
         11   -1    0    0    0    0 -0.00000000000E+00 -0.00000000000E+00 -0.45593999997E+02  0.45594000000E+02  0.51100000000E-03 0. -1.
    9900012    2    1    2    0    0  0.20292854780E+02 -0.13139889189E+01 -0.40194364909E+02  0.46142317716E+02  0.99999995902E+01 0.  0.
        -12    1    1    2    0    0 -0.20292854780E+02  0.13139889189E+01  0.40194364909E+02  0.45045682284E+02  0.00000000000E+00 0.  1.
         11    1    3    3    0    0  0.43669573954E+01  0.20777692363E+01 -0.56673724602E+01  0.74502719921E+01  0.51100000000E-03 0. -1.
        -11    1    3    3    0    0  0.83252079420E+01 -0.22054820886E+01 -0.11194337902E+02  0.14123966859E+02  0.51100000000E-03 0.  1.
        -12    1    3    3    0    0  0.76006894426E+01 -0.11862760666E+01 -0.23332654547E+02  0.24568078865E+02  0.00000000000E+00 0.  1.
</event>
<event>
 7    1  0.3980989E-008  0.4614232E+02  0.7816164E-02  0.1320468E+00
        -11   -1    0    0    0    0  0.00000000000E+00  0.00000000000E+00  0.45593999997E+02  0.45594000000E+02  0.51100000000E-03 0.  1.
         11   -1    0    0    0    0 -0.00000000000E+00 -0.00000000000E+00 -0.45593999997E+02  0.45594000000E+02  0.51100000000E-03 0. -1.
    9900012    2    1    2    0    0 -0.28668301830E+02  0.65835577148E+00 -0.34739149154E+02  0.46142318230E+02  0.10000004279E+02 0.  0.
        -12    1    1    2    0    0  0.28668301830E+02 -0.65835577148E+00  0.34739149154E+02  0.45045681770E+02  0.00000000000E+00 0.  1.
         11    1    3    3    0    0 -0.14969080086E+02  0.12223081488E+01 -0.19038264452E+02  0.24249183686E+02  0.51100000000E-03 0. -1.
        -11    1    3    3    0    0 -0.21783610720E+01  0.20098091410E+01 -0.56872993939E+01  0.64132647224E+01  0.51100000000E-03 0.  1.
         12    1    3    3    0    0 -0.11520860672E+02 -0.25737615184E+01 -0.10013585309E+02  0.15479869822E+02  0.00000000000E+00 0. -1.
</event>
<event>
 7    1  0.3980989E-008  0.4614232E+02  0.7816164E-02  0.1320468E+00
        -11   -1    0    0    0    0  0.00000000000E+00  0.00000000000E+00  0.45593999997E+02  0.45594000000E+02  0.51100000000E-03 0.  1.
         11   -1    0    0    0    0 -0.00000000000E+00 -0.00000000000E+00 -0.45593999997E+02  0.45594000000E+02  0.51100000000E-03 0. -1.
    9900012    2    1    2    0    0  0.23526314489E+02  0.12855812075E+02 -0.36198814578E+02  0.46142317028E+02  0.99999933180E+01 0.  0.
        -12    1    1    2    0    0 -0.23526314489E+02 -0.12855812075E+02  0.36198814578E+02  0.45045682972E+02  0.00000000000E+00 0.  1.
         11    1    3    3    0    0  0.88926171964E+01  0.18934503480E+01 -0.68027969156E+01  0.11355256094E+02  0.51100000000E-03 0. -1.
        -11    1    3    3    0    0  0.12792837361E+01  0.20978758211E+01 -0.53649478053E+01  0.59008740923E+01  0.51100000000E-03 0.  1.
         12    1    3    3    0    0  0.13354413557E+02  0.88644859054E+01 -0.24031069857E+02  0.28886186842E+02  0.00000000000E+00 0. -1.
</event>
<event>
 7    1  0.3980989E-008  0.4614232E+02  0.7816164E-02  0.1320468E+00
        -11   -1    0    0    0    0  0.00000000000E+00  0.00000000000E+00  0.45593999997E+02  0.45594000000E+02  0.51100000000E-03 0.  1.
         11   -1    0    0    0    0 -0.00000000000E+00 -0.00000000000E+00 -0.45593999997E+02  0.45594000000E+02  0.51100000000E-03 0. -1.
    9900012    2    1    2    0    0  0.10265862102E+02  0.20751127551E+02 -0.38640862026E+02  0.46142318327E+02  0.10000005156E+02 0.  0.
        -12    1    1    2    0    0 -0.10265862102E+02 -0.20751127551E+02  0.38640862026E+02  0.45045681673E+02  0.00000000000E+00 0.  1.
         11    1    3    3    0    0  0.42391011769E+01  0.14493272815E+02 -0.24896553698E+02  0.29118092691E+02  0.51100000000E-03 0. -1.
        -11    1    3    3    0    0  0.18232112699E+01  0.51706108760E+01 -0.58700432433E+01  0.80322303319E+01  0.51100000000E-03 0.  1.
         12    1    3    3    0    0  0.42035496552E+01  0.10872438597E+01 -0.78742650848E+01  0.89919953035E+01  0.00000000000E+00 0. -1.
</event>
<event>
 7    1  0.3980989E-008  0.4614231E+02  0.7816164E-02  0.1320468E+00
        -11   -1    0    0    0    0  0.00000000000E+00  0.00000000000E+00  0.45593999997E+02  0.45594000000E+02  0.51100000000E-03 0.  1.
         11   -1    0    0    0    0 -0.00000000000E+00 -0.00000000000E+00 -0.45593999997E+02  0.45594000000E+02  0.51100000000E-03 0. -1.
    9900012    2    1    2    0    0  0.10988444721E+02  0.21675814123E+02 -0.37927920244E+02  0.46142312422E+02  0.99999513179E+01 0.  0.
        -12    1    1    2    0    0 -0.10988444721E+02 -0.21675814123E+02  0.37927920244E+02  0.45045687578E+02  0.00000000000E+00 0.  1.
         11    1    3    3    0    0  0.14765897008E+01  0.25975741526E+01 -0.12471625668E+01  0.32377651786E+01  0.51100000000E-03 0. -1.
        -11    1    3    3    0    0  0.11170443982E+00 -0.33536715188E+00 -0.18564293213E-02  0.35348651444E+00  0.51100000000E-03 0.  1.
         12    1    3    3    0    0  0.94001505803E+01  0.19413607123E+02 -0.36678901248E+02  0.42551060729E+02  0.00000000000E+00 0. -1.
</event>
<event>
 7    1  0.3980989E-008  0.4614232E+02  0.7816164E-02  0.1320468E+00
        -11   -1    0    0    0    0  0.00000000000E+00  0.00000000000E+00  0.45593999997E+02  0.45594000000E+02  0.51100000000E-03 0.  1.
         11   -1    0    0    0    0 -0.00000000000E+00 -0.00000000000E+00 -0.45593999997E+02  0.45594000000E+02  0.51100000000E-03 0. -1.
    9900012    2    1    2    0    0  0.11541643398E+02 -0.66996879174E+00 -0.43536825064E+02  0.46142317331E+02  0.99999960767E+01 0.  0.
        -12    1    1    2    0    0 -0.11541643398E+02  0.66996879174E+00  0.43536825064E+02  0.45045682669E+02  0.00000000000E+00 0.  1.
         11    1    3    3    0    0  0.38710267512E+01 -0.10154314926E+01 -0.20519397347E+02  0.20906018678E+02  0.51100000000E-03 0. -1.
        -11    1    3    3    0    0  0.33441333779E+01 -0.30623424489E+01 -0.13488744406E+02  0.14230509310E+02  0.51100000000E-03 0.  1.
        -12    1    3    3    0    0  0.43264832689E+01  0.34078051497E+01 -0.95286833112E+01  0.11005789343E+02  0.00000000000E+00 0.  1.
</event>
<event>
 7    1  0.4112688E-008  0.4614232E+02  0.7816164E-02  0.1320468E+00
        -11   -1    0    0    0    0  0.00000000000E+00  0.00000000000E+00  0.45593999997E+02  0.45594000000E+02  0.51100000000E-03 0.  1.
         11   -1    0    0    0    0 -0.00000000000E+00 -0.00000000000E+00 -0.45593999997E+02  0.45594000000E+02  0.51100000000E-03 0. -1.
    9900012    2    1    2    0    0 -0.79995026642E+01 -0.44329124477E+02  0.22397936110E+00  0.46142317782E+02  0.10000000189E+02 0.  0.
        -12    1    1    2    0    0  0.79995026642E+01  0.44329124477E+02 -0.22397936110E+00  0.45045682218E+02  0.00000000000E+00 0.  1.
         11    1    3    3    0    0 -0.47776343185E+01 -0.21739999489E+02  0.18175029864E+01  0.22332861098E+02  0.51100000000E-03 0.  1.
        -11    1    3    3    0    0 -0.50003737425E+01 -0.14896947065E+02  0.19207201072E+00  0.15714950250E+02  0.51100000000E-03 0. -1.
        -12    1    3    3    0    0  0.17785053968E+01 -0.76921779226E+01 -0.17855956360E+01  0.80945064343E+01  0.00000000000E+00 0.  1.
</event>
<event>
 7    1  0.3980989E-008  0.4614232E+02  0.7816164E-02  0.1320468E+00
        -11   -1    0    0    0    0  0.00000000000E+00  0.00000000000E+00  0.45593999997E+02  0.45594000000E+02  0.51100000000E-03 0.  1.
         11   -1    0    0    0    0 -0.00000000000E+00 -0.00000000000E+00 -0.45593999997E+02  0.45594000000E+02  0.51100000000E-03 0. -1.
    9900012    2    1    2    0    0 -0.16488899031E+02 -0.31767144591E+01 -0.41798780970E+02  0.46142318780E+02  0.10000009287E+02 0.  0.
        -12    1    1    2    0    0  0.16488899031E+02  0.31767144591E+01  0.41798780970E+02  0.45045681220E+02  0.00000000000E+00 0.  1.
         11    1    3    3    0    0 -0.89855768143E+01  0.44669767380E+00 -0.14826957488E+02  0.17342975469E+02  0.51100000000E-03 0. -1.
        -11    1    3    3    0    0  0.90536384758E+00 -0.30149905288E+00 -0.15783701359E+01  0.18444072008E+01  0.51100000000E-03 0.  1.
        -12    1    3    3    0    0 -0.84086860645E+01 -0.33219130800E+01 -0.25393453346E+02  0.26954936110E+02  0.00000000000E+00 0.  1.
</event>
<event>
 7    1  0.3980989E-008  0.4614232E+02  0.7816164E-02  0.1320468E+00
        -11   -1    0    0    0    0  0.00000000000E+00  0.00000000000E+00  0.45593999997E+02  0.45594000000E+02  0.51100000000E-03 0.  1.
         11   -1    0    0    0    0 -0.00000000000E+00 -0.00000000000E+00 -0.45593999997E+02  0.45594000000E+02  0.51100000000E-03 0. -1.
    9900012    2    1    2    0    0  0.87095655964E+01  0.47993209653E+01 -0.43934307919E+02  0.46142318443E+02  0.10000006220E+02 0.  0.
        -12    1    1    2    0    0 -0.87095655964E+01 -0.47993209653E+01  0.43934307919E+02  0.45045681557E+02  0.00000000000E+00 0.  1.
         11    1    3    3    0    0  0.18291374245E+01 -0.14562538203E+01 -0.62091935430E+01  0.66347949194E+01  0.51100000000E-03 0. -1.
        -11    1    3    3    0    0 -0.80894392624E-01 -0.42312950340E+00  0.12403713148E+00  0.44829449083E+00  0.51100000000E-03 0.  1.
         12    1    3    3    0    0  0.69613225646E+01  0.66787042890E+01 -0.37849151507E+02  0.39059229033E+02  0.00000000000E+00 0. -1.
</event>
<event>
 7    1  0.3980989E-008  0.4614232E+02  0.7816164E-02  0.1320468E+00
        -11   -1    0    0    0    0  0.00000000000E+00  0.00000000000E+00  0.45593999997E+02  0.45594000000E+02  0.51100000000E-03 0.  1.
         11   -1    0    0    0    0 -0.00000000000E+00 -0.00000000000E+00 -0.45593999997E+02  0.45594000000E+02  0.51100000000E-03 0. -1.
    9900012    2    1    2    0    0 -0.23440096025E+02  0.26149884928E+02 -0.28210970793E+02  0.46142318115E+02  0.10000003227E+02 0.  0.
        -12    1    1    2    0    0  0.23440096025E+02 -0.26149884928E+02  0.28210970793E+02  0.45045681885E+02  0.00000000000E+00 0.  1.
         11    1    3    3    0    0 -0.14897495397E+02  0.17154334915E+02 -0.23938827719E+02  0.33004151986E+02  0.51100000000E-03 0. -1.
        -11    1    3    3    0    0 -0.58350958282E+01  0.63321628668E+01 -0.32651921079E+01  0.92090232739E+01  0.51100000000E-03 0.  1.
         12    1    3    3    0    0 -0.27075047998E+01  0.26633871454E+01 -0.10069509662E+01  0.39291428551E+01  0.00000000000E+00 0. -1.
</event>
<event>
 7    1  0.3980989E-008  0.4614232E+02  0.7816164E-02  0.1320468E+00
        -11   -1    0    0    0    0  0.00000000000E+00  0.00000000000E+00  0.45593999997E+02  0.45594000000E+02  0.51100000000E-03 0.  1.
         11   -1    0    0    0    0 -0.00000000000E+00 -0.00000000000E+00 -0.45593999997E+02  0.45594000000E+02  0.51100000000E-03 0. -1.
    9900012    2    1    2    0    0  0.23664308117E+02  0.14008161718E+02 -0.35677519526E+02  0.46142317933E+02  0.10000001563E+02 0.  0.
        -12    1    1    2    0    0 -0.23664308117E+02 -0.14008161718E+02  0.35677519526E+02  0.45045682067E+02  0.00000000000E+00 0.  1.
         11    1    3    3    0    0  0.40534198254E+01  0.43045192203E+00 -0.42616803513E+01  0.58972384059E+01  0.51100000000E-03 0. -1.
        -11    1    3    3    0    0  0.11699755392E+02  0.61606842431E+01 -0.11304112294E+02  0.17396012807E+02  0.51100000000E-03 0.  1.
         12    1    3    3    0    0  0.79111328994E+01  0.74170255529E+01 -0.20111726881E+02  0.22849066719E+02  0.00000000000E+00 0. -1.
</event>
<event>
 7    1  0.3980989E-008  0.4614232E+02  0.7816164E-02  0.1320468E+00
        -11   -1    0    0    0    0  0.00000000000E+00  0.00000000000E+00  0.45593999997E+02  0.45594000000E+02  0.51100000000E-03 0. -1.
         11   -1    0    0    0    0 -0.00000000000E+00 -0.00000000000E+00 -0.45593999997E+02  0.45594000000E+02  0.51100000000E-03 0.  1.
    9900012    2    1    2    0    0 -0.38815110192E+02  0.13583498670E+02  0.18384486911E+02  0.46142316807E+02  0.99999912968E+01 0.  0.
        -12    1    1    2    0    0  0.38815110192E+02 -0.13583498670E+02 -0.18384486911E+02  0.45045683193E+02  0.00000000000E+00 0.  1.
         11    1    3    3    0    0 -0.14659774631E+02  0.52648688413E+01  0.53920446873E+01  0.16483385038E+02  0.51100000000E-03 0. -1.
        -11    1    3    3    0    0 -0.86704956228E+01  0.67144971332E+01  0.39528942745E+01  0.11657072510E+02  0.51100000000E-03 0.  1.
        -12    1    3    3    0    0 -0.15484839938E+02  0.16041326952E+01  0.90395479497E+01  0.18001859258E+02  0.00000000000E+00 0.  1.
</event>
<event>
 7    1  0.3980989E-008  0.4614232E+02  0.7816164E-02  0.1320468E+00
        -11   -1    0    0    0    0  0.00000000000E+00  0.00000000000E+00  0.45593999997E+02  0.45594000000E+02  0.51100000000E-03 0.  1.
         11   -1    0    0    0    0 -0.00000000000E+00 -0.00000000000E+00 -0.45593999997E+02  0.45594000000E+02  0.51100000000E-03 0. -1.
    9900012    2    1    2    0    0 -0.20343589914E+02 -0.39881836312E+02 -0.49689794934E+01  0.46142320125E+02  0.10000021555E+02 0.  0.
        -12    1    1    2    0    0  0.20343589914E+02  0.39881836312E+02  0.49689794934E+01  0.45045679875E+02  0.00000000000E+00 0.  1.
         11    1    3    3    0    0 -0.13039438785E+02 -0.28610684338E+02  0.41094353980E+00  0.31444667227E+02  0.51100000000E-03 0. -1.
        -11    1    3    3    0    0 -0.82073751090E+00 -0.29142317000E+00 -0.69117121852E+00  0.11118702443E+01  0.51100000000E-03 0.  1.
         12    1    3    3    0    0 -0.64834136177E+01 -0.10979728804E+02 -0.46887518147E+01  0.13585782654E+02  0.00000000000E+00 0. -1.
</event>
<event>
 7    1  0.3980989E-008  0.4614232E+02  0.7816164E-02  0.1320468E+00
        -11   -1    0    0    0    0  0.00000000000E+00  0.00000000000E+00  0.45593999997E+02  0.45594000000E+02  0.51100000000E-03 0.  1.
         11   -1    0    0    0    0 -0.00000000000E+00 -0.00000000000E+00 -0.45593999997E+02  0.45594000000E+02  0.51100000000E-03 0. -1.
    9900012    2    1    2    0    0  0.17200455201E+02 -0.13912745276E+02 -0.39238926819E+02  0.46142317430E+02  0.99999969821E+01 0.  0.
        -12    1    1    2    0    0 -0.17200455201E+02  0.13912745276E+02  0.39238926819E+02  0.45045682570E+02  0.00000000000E+00 0.  1.
         11    1    3    3    0    0 -0.66571792985E+00 -0.22982978864E+01 -0.42816757972E+01  0.49049058533E+01  0.51100000000E-03 0. -1.
        -11    1    3    3    0    0  0.25675838948E+01 -0.27814955643E+00 -0.24258891724E+01  0.35432743007E+01  0.51100000000E-03 0.  1.
         12    1    3    3    0    0  0.15298589236E+02 -0.11336297833E+02 -0.32531361850E+02  0.37694137276E+02  0.00000000000E+00 0. -1.
</event>
<event>
 7    1  0.3980989E-008  0.4614232E+02  0.7816164E-02  0.1320468E+00
        -11   -1    0    0    0    0  0.00000000000E+00  0.00000000000E+00  0.45593999997E+02  0.45594000000E+02  0.51100000000E-03 0.  1.
         11   -1    0    0    0    0 -0.00000000000E+00 -0.00000000000E+00 -0.45593999997E+02  0.45594000000E+02  0.51100000000E-03 0. -1.
    9900012    2    1    2    0    0 -0.23030790254E+02  0.21018592727E+02 -0.32510228411E+02  0.46142317729E+02  0.99999997031E+01 0.  0.
        -12    1    1    2    0    0  0.23030790254E+02 -0.21018592727E+02  0.32510228411E+02  0.45045682271E+02  0.00000000000E+00 0.  1.
         11    1    3    3    0    0 -0.67145206124E+01  0.96440388908E+01 -0.13607219408E+02  0.17979118261E+02  0.51100000000E-03 0. -1.
        -11    1    3    3    0    0 -0.77312506366E+01  0.75637435117E+01 -0.65492531149E+01  0.12644175297E+02  0.51100000000E-03 0.  1.
        -12    1    3    3    0    0 -0.85850190047E+01  0.38108103249E+01 -0.12353755888E+02  0.15519024170E+02  0.00000000000E+00 0.  1.
</event>
<event>
 7    1  0.3980989E-008  0.4614232E+02  0.7816164E-02  0.1320468E+00
        -11   -1    0    0    0    0  0.00000000000E+00  0.00000000000E+00  0.45593999997E+02  0.45594000000E+02  0.51100000000E-03 0.  1.
         11   -1    0    0    0    0 -0.00000000000E+00 -0.00000000000E+00 -0.45593999997E+02  0.45594000000E+02  0.51100000000E-03 0. -1.
    9900012    2    1    2    0    0  0.20835804397E+02  0.28521458184E+02 -0.27955480537E+02  0.46142320807E+02  0.10000027779E+02 0.  0.
        -12    1    1    2    0    0 -0.20835804397E+02 -0.28521458184E+02  0.27955480537E+02  0.45045679193E+02  0.00000000000E+00 0.  1.
         11    1    3    3    0    0  0.10074507590E+02  0.12419969549E+02 -0.88767470211E+01  0.18290652933E+02  0.51100000000E-03 0. -1.
        -11    1    3    3    0    0  0.97227453650E+01  0.11892527416E+02 -0.11762031138E+02  0.19347076330E+02  0.51100000000E-03 0.  1.
        -12    1    3    3    0    0  0.10385514424E+01  0.42089612204E+01 -0.73167023784E+01  0.85045915450E+01  0.00000000000E+00 0.  1.
</event>
<event>
 7    1  0.3980989E-008  0.4614232E+02  0.7816164E-02  0.1320468E+00
        -11   -1    0    0    0    0  0.00000000000E+00  0.00000000000E+00  0.45593999997E+02  0.45594000000E+02  0.51100000000E-03 0.  1.
         11   -1    0    0    0    0 -0.00000000000E+00 -0.00000000000E+00 -0.45593999997E+02  0.45594000000E+02  0.51100000000E-03 0. -1.
    9900012    2    1    2    0    0  0.28752430991E+02  0.12086697603E+02 -0.32501119453E+02  0.46142319713E+02  0.10000017802E+02 0.  0.
        -12    1    1    2    0    0 -0.28752430991E+02 -0.12086697603E+02  0.32501119453E+02  0.45045680287E+02  0.00000000000E+00 0.  1.
         11    1    3    3    0    0  0.21051853469E+01  0.20936228905E+00 -0.86609903988E+00  0.22859933773E+01  0.51100000000E-03 0. -1.
        -11    1    3    3    0    0  0.45229202133E+01  0.12566585943E+01 -0.13671018918E+01  0.48892704898E+01  0.51100000000E-03 0.  1.
         12    1    3    3    0    0  0.22124325430E+02  0.10620676719E+02 -0.30267918521E+02  0.38967055846E+02  0.00000000000E+00 0. -1.
</event>
<event>
 7    1  0.3980989E-008  0.4614232E+02  0.7816164E-02  0.1320468E+00
        -11   -1    0    0    0    0  0.00000000000E+00  0.00000000000E+00  0.45593999997E+02  0.45594000000E+02  0.51100000000E-03 0.  1.
         11   -1    0    0    0    0 -0.00000000000E+00 -0.00000000000E+00 -0.45593999997E+02  0.45594000000E+02  0.51100000000E-03 0. -1.
    9900012    2    1    2    0    0 -0.19447395363E+02 -0.40605844229E+02  0.14414411068E+01  0.46142317361E+02  0.99999963518E+01 0.  0.
        -12    1    1    2    0    0  0.19447395363E+02  0.40605844229E+02 -0.14414411068E+01  0.45045682639E+02  0.00000000000E+00 0.  1.
         11    1    3    3    0    0 -0.37551617852E+01 -0.16220084136E+02 -0.19986429458E+01  0.16768629739E+02  0.51100000000E-03 0. -1.
        -11    1    3    3    0    0 -0.30115686818E+01 -0.53252195437E+01  0.19947953050E+01  0.64348051784E+01  0.51100000000E-03 0.  1.
        -12    1    3    3    0    0 -0.12680664896E+02 -0.19060540549E+02  0.14452887475E+01  0.22938882444E+02  0.00000000000E+00 0.  1.
</event>
<event>
 7    1  0.3980989E-008  0.4614232E+02  0.7816164E-02  0.1320468E+00
        -11   -1    0    0    0    0  0.00000000000E+00  0.00000000000E+00  0.45593999997E+02  0.45594000000E+02  0.51100000000E-03 0. -1.
         11   -1    0    0    0    0 -0.00000000000E+00 -0.00000000000E+00 -0.45593999997E+02  0.45594000000E+02  0.51100000000E-03 0.  1.
    9900012    2    1    2    0    0 -0.18180416006E+02  0.21141483999E+02  0.35378290197E+02  0.46142319973E+02  0.10000020172E+02 0.  0.
        -12    1    1    2    0    0  0.18180416006E+02 -0.21141483999E+02 -0.35378290197E+02  0.45045680027E+02  0.00000000000E+00 0.  1.
         11    1    3    3    0    0 -0.73557471859E+01  0.39907237287E+01  0.11023188307E+02  0.13839926779E+02  0.51100000000E-03 0. -1.
        -11    1    3    3    0    0 -0.13743927983E+01  0.17419482279E+01  0.34007460257E+00  0.22447695180E+01  0.51100000000E-03 0.  1.
        -12    1    3    3    0    0 -0.94502760215E+01  0.15408812042E+02  0.24015027287E+02  0.30057623676E+02  0.00000000000E+00 0.  1.
</event>
<event>
 7    1  0.3980989E-008  0.4614232E+02  0.7816164E-02  0.1320468E+00
        -11   -1    0    0    0    0  0.00000000000E+00  0.00000000000E+00  0.45593999997E+02  0.45594000000E+02  0.51100000000E-03 0. -1.
         11   -1    0    0    0    0 -0.00000000000E+00 -0.00000000000E+00 -0.45593999997E+02  0.45594000000E+02  0.51100000000E-03 0.  1.
    9900012    2    1    2    0    0  0.38270894584E+02 -0.21298946126E+02 -0.10526493232E+02  0.46142317209E+02  0.99999949640E+01 0.  0.
        -12    1    1    2    0    0 -0.38270894584E+02  0.21298946126E+02  0.10526493232E+02  0.45045682791E+02  0.00000000000E+00 0.  1.
         11    1    3    3    0    0  0.48304306126E+01 -0.24067959833E+01 -0.11927885412E+00  0.53981436174E+01  0.51100000000E-03 0. -1.
        -11    1    3    3    0    0 -0.32009487763E+00 -0.34293083273E+00  0.52315102094E+00  0.70267313778E+00  0.51100000000E-03 0.  1.
        -12    1    3    3    0    0  0.33760558849E+02 -0.18549219310E+02 -0.10930365399E+02  0.40041500454E+02  0.00000000000E+00 0.  1.
</event>
<event>
 7    1  0.3980989E-008  0.4614232E+02  0.7816164E-02  0.1320468E+00
        -11   -1    0    0    0    0  0.00000000000E+00  0.00000000000E+00  0.45593999997E+02  0.45594000000E+02  0.51100000000E-03 0.  1.
         11   -1    0    0    0    0 -0.00000000000E+00 -0.00000000000E+00 -0.45593999997E+02  0.45594000000E+02  0.51100000000E-03 0. -1.
    9900012    2    1    2    0    0  0.40810168932E+02 -0.11103015999E+02 -0.15503762244E+02  0.46142317674E+02  0.99999992048E+01 0.  0.
        -12    1    1    2    0    0 -0.40810168932E+02  0.11103015999E+02  0.15503762244E+02  0.45045682326E+02  0.00000000000E+00 0.  1.
         11    1    3    3    0    0  0.18907285342E+02 -0.30764158428E+01 -0.87859007375E+01  0.21074672607E+02  0.51100000000E-03 0. -1.
        -11    1    3    3    0    0  0.72255262287E+01  0.33275832829E+00 -0.14781769555E+01  0.73826800527E+01  0.51100000000E-03 0.  1.
         12    1    3    3    0    0  0.14677357361E+02 -0.83593584849E+01 -0.52396845508E+01  0.17684965014E+02  0.00000000000E+00 0. -1.
</event>
<event>
 7    1  0.3980989E-008  0.4614232E+02  0.7816164E-02  0.1320468E+00
        -11   -1    0    0    0    0  0.00000000000E+00  0.00000000000E+00  0.45593999997E+02  0.45594000000E+02  0.51100000000E-03 0.  1.
         11   -1    0    0    0    0 -0.00000000000E+00 -0.00000000000E+00 -0.45593999997E+02  0.45594000000E+02  0.51100000000E-03 0. -1.
    9900012    2    1    2    0    0 -0.11812651892E+02 -0.13159781490E+02 -0.41429396921E+02  0.46142317379E+02  0.99999965153E+01 0.  0.
        -12    1    1    2    0    0  0.11812651892E+02  0.13159781490E+02  0.41429396921E+02  0.45045682621E+02  0.00000000000E+00 0.  1.
         11    1    3    3    0    0 -0.27288899199E+01 -0.56376128239E+01 -0.18045027312E+02  0.19101113305E+02  0.51100000000E-03 0. -1.
        -11    1    3    3    0    0  0.22768334643E+00 -0.14163209997E+01 -0.75418683064E+01  0.76770816521E+01  0.51100000000E-03 0.  1.
         12    1    3    3    0    0 -0.93114453188E+01 -0.61058476663E+01 -0.15842501302E+02  0.19364122421E+02  0.00000000000E+00 0. -1.
</event>
<event>
 7    1  0.3980989E-008  0.4614232E+02  0.7816164E-02  0.1320468E+00
        -11   -1    0    0    0    0  0.00000000000E+00  0.00000000000E+00  0.45593999997E+02  0.45594000000E+02  0.51100000000E-03 0.  1.
         11   -1    0    0    0    0 -0.00000000000E+00 -0.00000000000E+00 -0.45593999997E+02  0.45594000000E+02  0.51100000000E-03 0. -1.
    9900012    2    1    2    0    0 -0.27232328986E+02  0.22582409622E+02 -0.27884557678E+02  0.46142317374E+02  0.99999964668E+01 0.  0.
        -12    1    1    2    0    0  0.27232328986E+02 -0.22582409622E+02  0.27884557678E+02  0.45045682626E+02  0.00000000000E+00 0.  1.
         11    1    3    3    0    0 -0.89012192992E+01  0.71459391863E+01 -0.13620850928E+02  0.17771430222E+02  0.51100000000E-03 0. -1.
        -11    1    3    3    0    0 -0.15146457707E+01 -0.59339493016E-01 -0.17069902247E+01  0.22828685627E+01  0.51100000000E-03 0.  1.
        -12    1    3    3    0    0 -0.16816463916E+02  0.15495809929E+02 -0.12556716526E+02  0.26088018589E+02  0.00000000000E+00 0.  1.
</event>
<event>
 7    1  0.3980989E-008  0.4614232E+02  0.7816164E-02  0.1320468E+00
        -11   -1    0    0    0    0  0.00000000000E+00  0.00000000000E+00  0.45593999997E+02  0.45594000000E+02  0.51100000000E-03 0.  1.
         11   -1    0    0    0    0 -0.00000000000E+00 -0.00000000000E+00 -0.45593999997E+02  0.45594000000E+02  0.51100000000E-03 0. -1.
    9900012    2    1    2    0    0 -0.17182967157E+02 -0.81044911605E+01 -0.40843314950E+02  0.46142317483E+02  0.99999974625E+01 0.  0.
        -12    1    1    2    0    0  0.17182967157E+02  0.81044911605E+01  0.40843314950E+02  0.45045682517E+02  0.00000000000E+00 0.  1.
         11    1    3    3    0    0  0.20845929369E+00 -0.19529392259E+01 -0.18901826994E+01  0.27258425845E+01  0.51100000000E-03 0. -1.
        -11    1    3    3    0    0 -0.11216996005E+01  0.61922003622E+00 -0.12112102738E+01  0.17631432260E+01  0.51100000000E-03 0.  1.
         12    1    3    3    0    0 -0.16269726850E+02 -0.67707719708E+01 -0.37741921977E+02  0.41653331672E+02  0.00000000000E+00 0. -1.
</event>
<event>
 7    1  0.3980989E-008  0.4614232E+02  0.7816164E-02  0.1320468E+00
        -11   -1    0    0    0    0  0.00000000000E+00  0.00000000000E+00  0.45593999997E+02  0.45594000000E+02  0.51100000000E-03 0. -1.
         11   -1    0    0    0    0 -0.00000000000E+00 -0.00000000000E+00 -0.45593999997E+02  0.45594000000E+02  0.51100000000E-03 0.  1.
    9900012    2    1    2    0    0  0.70581362683E+01 -0.43146190762E+02  0.10849074624E+02  0.46142317798E+02  0.10000000340E+02 0.  0.
        -12    1    1    2    0    0 -0.70581362683E+01  0.43146190762E+02 -0.10849074624E+02  0.45045682202E+02  0.00000000000E+00 0.  1.
         11    1    3    3    0    0  0.16414387183E+01 -0.17825700489E+02  0.12072676922E+01  0.17941778467E+02  0.51100000000E-03 0. -1.
        -11    1    3    3    0    0  0.29842249663E+01 -0.70608824814E+01  0.62458835402E+00  0.76910188492E+01  0.51100000000E-03 0.  1.
        -12    1    3    3    0    0  0.24324725837E+01 -0.18259607791E+02  0.90172185778E+01  0.20509520483E+02  0.00000000000E+00 0.  1.
</event>
<event>
 7    1  0.3980989E-008  0.4614232E+02  0.7816164E-02  0.1320468E+00
        -11   -1    0    0    0    0  0.00000000000E+00  0.00000000000E+00  0.45593999997E+02  0.45594000000E+02  0.51100000000E-03 0.  1.
         11   -1    0    0    0    0 -0.00000000000E+00 -0.00000000000E+00 -0.45593999997E+02  0.45594000000E+02  0.51100000000E-03 0. -1.
    9900012    2    1    2    0    0 -0.43512989306E+02 -0.74990795315E+01 -0.89161051346E+01  0.46142319154E+02  0.10000012699E+02 0.  0.
        -12    1    1    2    0    0  0.43512989306E+02  0.74990795315E+01  0.89161051346E+01  0.45045680846E+02  0.00000000000E+00 0.  1.
         11    1    3    3    0    0 -0.21319362430E+02 -0.13916198135E+00 -0.48994842499E+01  0.21875546317E+02  0.51100000000E-03 0. -1.
        -11    1    3    3    0    0 -0.66060612933E+01 -0.24082506545E+01  0.11286910104E+01  0.71213524477E+01  0.51100000000E-03 0.  1.
        -12    1    3    3    0    0 -0.15587565582E+02 -0.49516668956E+01 -0.51453118952E+01  0.17145420389E+02  0.00000000000E+00 0.  1.
</event>
<event>
 7    1  0.3980989E-008  0.4614232E+02  0.7816164E-02  0.1320468E+00
        -11   -1    0    0    0    0  0.00000000000E+00  0.00000000000E+00  0.45593999997E+02  0.45594000000E+02  0.51100000000E-03 0. -1.
         11   -1    0    0    0    0 -0.00000000000E+00 -0.00000000000E+00 -0.45593999997E+02  0.45594000000E+02  0.51100000000E-03 0.  1.
    9900012    2    1    2    0    0  0.17322133729E+02 -0.22754995779E+02  0.34803266917E+02  0.46142317211E+02  0.99999949837E+01 0.  0.
        -12    1    1    2    0    0 -0.17322133729E+02  0.22754995779E+02 -0.34803266917E+02  0.45045682789E+02  0.00000000000E+00 0.  1.
         11    1    3    3    0    0  0.10752204289E+02 -0.11905340847E+02  0.13834588714E+02  0.21183552179E+02  0.51100000000E-03 0.  1.
        -11    1    3    3    0    0  0.91227637788E+00 -0.55203741060E+01  0.68762547005E+01  0.88650807908E+01  0.51100000000E-03 0. -1.
        -12    1    3    3    0    0  0.56576530623E+01 -0.53292808254E+01  0.14092423502E+02  0.16093684241E+02  0.00000000000E+00 0.  1.
</event>
<event>
 7    1  0.3980989E-008  0.4614232E+02  0.7816164E-02  0.1320468E+00
        -11   -1    0    0    0    0  0.00000000000E+00  0.00000000000E+00  0.45593999997E+02  0.45594000000E+02  0.51100000000E-03 0.  1.
         11   -1    0    0    0    0 -0.00000000000E+00 -0.00000000000E+00 -0.45593999997E+02  0.45594000000E+02  0.51100000000E-03 0. -1.
    9900012    2    1    2    0    0 -0.34122389472E+02 -0.28976799416E+02  0.50120936320E+01  0.46142318184E+02  0.10000003855E+02 0.  0.
        -12    1    1    2    0    0  0.34122389472E+02  0.28976799416E+02 -0.50120936320E+01  0.45045681816E+02  0.00000000000E+00 0.  1.
         11    1    3    3    0    0 -0.17195818721E+02 -0.12262979526E+02  0.59730350421E+01  0.21948895103E+02  0.51100000000E-03 0. -1.
        -11    1    3    3    0    0 -0.15144254627E+02 -0.14750765584E+02  0.53790262881E+00  0.21147644621E+02  0.51100000000E-03 0.  1.
         12    1    3    3    0    0 -0.17823161243E+01 -0.19630543063E+01 -0.14988440390E+01  0.30457784604E+01  0.00000000000E+00 0. -1.
</event>
<event>
 7    1  0.3980989E-008  0.4614232E+02  0.7816164E-02  0.1320468E+00
        -11   -1    0    0    0    0  0.00000000000E+00  0.00000000000E+00  0.45593999997E+02  0.45594000000E+02  0.51100000000E-03 0.  1.
         11   -1    0    0    0    0 -0.00000000000E+00 -0.00000000000E+00 -0.45593999997E+02  0.45594000000E+02  0.51100000000E-03 0. -1.
    9900012    2    1    2    0    0  0.50555428176E+01 -0.15820360368E+02 -0.41872081070E+02  0.46142317760E+02  0.99999999912E+01 0.  0.
        -12    1    1    2    0    0 -0.50555428176E+01  0.15820360368E+02  0.41872081070E+02  0.45045682240E+02  0.00000000000E+00 0.  1.
         11    1    3    3    0    0 -0.19096524556E+01 -0.24247674211E+01 -0.45970078347E+01  0.55370344807E+01  0.51100000000E-03 0. -1.
        -11    1    3    3    0    0  0.71795245586E+01 -0.82260031882E+01 -0.24545154695E+02  0.26864052572E+02  0.51100000000E-03 0.  1.
        -12    1    3    3    0    0 -0.21432928529E+00 -0.51695897583E+01 -0.12729918540E+02  0.13741230707E+02  0.00000000000E+00 0.  1.
</event>
<event>
 7    1  0.3980989E-008  0.4614232E+02  0.7816164E-02  0.1320468E+00
        -11   -1    0    0    0    0  0.00000000000E+00  0.00000000000E+00  0.45593999997E+02  0.45594000000E+02  0.51100000000E-03 0.  1.
         11   -1    0    0    0    0 -0.00000000000E+00 -0.00000000000E+00 -0.45593999997E+02  0.45594000000E+02  0.51100000000E-03 0. -1.
    9900012    2    1    2    0    0 -0.87314968572E+01  0.98593146660E+00 -0.44180339265E+02  0.46142317900E+02  0.10000001268E+02 0.  0.
        -12    1    1    2    0    0  0.87314968572E+01 -0.98593146660E+00  0.44180339265E+02  0.45045682100E+02  0.00000000000E+00 0.  1.
         11    1    3    3    0    0 -0.87976392348E+00 -0.46765049835E+00 -0.13605997636E+00  0.10055814875E+01  0.51100000000E-03 0. -1.
        -11    1    3    3    0    0  0.44931683101E-01  0.19571657487E+01 -0.86565581738E+01  0.88751628888E+01  0.51100000000E-03 0.  1.
         12    1    3    3    0    0 -0.78966646169E+01 -0.50358378373E+00 -0.35387721115E+02  0.36261573524E+02  0.00000000000E+00 0. -1.
</event>
<event>
 7    1  0.3980989E-008  0.4614232E+02  0.7816164E-02  0.1320468E+00
        -11   -1    0    0    0    0  0.00000000000E+00  0.00000000000E+00  0.45593999997E+02  0.45594000000E+02  0.51100000000E-03 0.  1.
         11   -1    0    0    0    0 -0.00000000000E+00 -0.00000000000E+00 -0.45593999997E+02  0.45594000000E+02  0.51100000000E-03 0. -1.
    9900012    2    1    2    0    0 -0.15522428416E+02  0.97529713351E+01 -0.41146654923E+02  0.46142318241E+02  0.10000004379E+02 0.  0.
        -12    1    1    2    0    0  0.15522428416E+02 -0.97529713351E+01  0.41146654923E+02  0.45045681759E+02  0.00000000000E+00 0.  1.
         11    1    3    3    0    0 -0.62514780943E+00  0.15712158990E+01 -0.11971433751E+01  0.20718787866E+01  0.51100000000E-03 0. -1.
        -11    1    3    3    0    0 -0.11598877118E+01  0.39140015125E+01 -0.67497940811E+01  0.78882487120E+01  0.51100000000E-03 0.  1.
         12    1    3    3    0    0 -0.13737392894E+02  0.42677539236E+01 -0.33199717466E+02  0.36182190743E+02  0.00000000000E+00 0. -1.
</event>
<event>
 7    1  0.3980989E-008  0.4614232E+02  0.7816164E-02  0.1320468E+00
        -11   -1    0    0    0    0  0.00000000000E+00  0.00000000000E+00  0.45593999997E+02  0.45594000000E+02  0.51100000000E-03 0. -1.
         11   -1    0    0    0    0 -0.00000000000E+00 -0.00000000000E+00 -0.45593999997E+02  0.45594000000E+02  0.51100000000E-03 0.  1.
    9900012    2    1    2    0    0 -0.37236119964E+02  0.21371420338E+02 -0.13632578691E+02  0.46142318309E+02  0.10000004995E+02 0.  0.
        -12    1    1    2    0    0  0.37236119964E+02 -0.21371420338E+02  0.13632578691E+02  0.45045681691E+02  0.00000000000E+00 0.  1.
         11    1    3    3    0    0 -0.28373392197E+02  0.12958832063E+02 -0.12696630417E+02  0.33677665260E+02  0.51100000000E-03 0.  1.
        -11    1    3    3    0    0 -0.78997155573E+01  0.67074002985E+01 -0.13856013157E+01  0.10455363022E+02  0.51100000000E-03 0. -1.
        -12    1    3    3    0    0 -0.96301221053E+00  0.17051879769E+01  0.44965304204E+00  0.20092900269E+01  0.00000000000E+00 0.  1.
</event>
<event>
 7    1  0.3980989E-008  0.4614232E+02  0.7816164E-02  0.1320468E+00
        -11   -1    0    0    0    0  0.00000000000E+00  0.00000000000E+00  0.45593999997E+02  0.45594000000E+02  0.51100000000E-03 0. -1.
         11   -1    0    0    0    0 -0.00000000000E+00 -0.00000000000E+00 -0.45593999997E+02  0.45594000000E+02  0.51100000000E-03 0.  1.
    9900012    2    1    2    0    0  0.45217839892E+01 -0.44568079889E+02 -0.47279270379E+01  0.46142316861E+02  0.99999917907E+01 0.  0.
        -12    1    1    2    0    0 -0.45217839892E+01  0.44568079889E+02  0.47279270379E+01  0.45045683139E+02  0.00000000000E+00 0.  1.
         11    1    3    3    0    0 -0.63380527331E+00 -0.32513205051E+00  0.30120801565E+00  0.77339931766E+00  0.51100000000E-03 0.  1.
        -11    1    3    3    0    0  0.16524115339E+01 -0.24556983906E+02 -0.60584588490E+01  0.25347205887E+02  0.51100000000E-03 0. -1.
         12    1    3    3    0    0  0.35031777286E+01 -0.19685963932E+02  0.10293237955E+01  0.20021711656E+02  0.00000000000E+00 0. -1.
</event>
<event>
 7    1  0.3980989E-008  0.4614232E+02  0.7816164E-02  0.1320468E+00
        -11   -1    0    0    0    0  0.00000000000E+00  0.00000000000E+00  0.45593999997E+02  0.45594000000E+02  0.51100000000E-03 0.  1.
         11   -1    0    0    0    0 -0.00000000000E+00 -0.00000000000E+00 -0.45593999997E+02  0.45594000000E+02  0.51100000000E-03 0. -1.
    9900012    2    1    2    0    0  0.31795507216E+02  0.26448840951E+02 -0.17849875376E+02  0.46142317436E+02  0.99999970324E+01 0.  0.
        -12    1    1    2    0    0 -0.31795507216E+02 -0.26448840951E+02  0.17849875376E+02  0.45045682564E+02  0.00000000000E+00 0.  1.
         11    1    3    3    0    0  0.12065320663E+02  0.15708450836E+02 -0.10243425203E+02  0.22299218608E+02  0.51100000000E-03 0. -1.
        -11    1    3    3    0    0  0.85185516315E+01  0.47161186773E+01 -0.45815359423E+01  0.10760946479E+02  0.51100000000E-03 0.  1.
         12    1    3    3    0    0  0.11211634922E+02  0.60242714369E+01 -0.30249142302E+01  0.13082152348E+02  0.00000000000E+00 0. -1.
</event>
<event>
 7    1  0.3980989E-008  0.4614232E+02  0.7816164E-02  0.1320468E+00
        -11   -1    0    0    0    0  0.00000000000E+00  0.00000000000E+00  0.45593999997E+02  0.45594000000E+02  0.51100000000E-03 0.  1.
         11   -1    0    0    0    0 -0.00000000000E+00 -0.00000000000E+00 -0.45593999997E+02  0.45594000000E+02  0.51100000000E-03 0. -1.
    9900012    2    1    2    0    0  0.30332573885E+02  0.16373831963E+02 -0.28999069308E+02  0.46142318383E+02  0.10000005670E+02 0.  0.
        -12    1    1    2    0    0 -0.30332573885E+02 -0.16373831963E+02  0.28999069308E+02  0.45045681617E+02  0.00000000000E+00 0.  1.
         11    1    3    3    0    0  0.31829122384E+01  0.30765111708E+01 -0.14631549493E+01  0.46622606070E+01  0.51100000000E-03 0. -1.
        -11    1    3    3    0    0  0.59662290274E+01  0.16725410277E+01 -0.94392830280E+01  0.11291295171E+02  0.51100000000E-03 0.  1.
         12    1    3    3    0    0  0.21183432619E+02  0.11624779764E+02 -0.18096631331E+02  0.30188762605E+02  0.00000000000E+00 0. -1.
</event>
<event>
 7    1  0.3980989E-008  0.4614232E+02  0.7816164E-02  0.1320468E+00
        -11   -1    0    0    0    0  0.00000000000E+00  0.00000000000E+00  0.45593999997E+02  0.45594000000E+02  0.51100000000E-03 0.  1.
         11   -1    0    0    0    0 -0.00000000000E+00 -0.00000000000E+00 -0.45593999997E+02  0.45594000000E+02  0.51100000000E-03 0. -1.
    9900012    2    1    2    0    0 -0.40258888966E+02  0.89826183646E+01 -0.18101047094E+02  0.46142317861E+02  0.10000000909E+02 0.  0.
        -12    1    1    2    0    0  0.40258888966E+02 -0.89826183646E+01  0.18101047094E+02  0.45045682139E+02  0.00000000000E+00 0.  1.
         11    1    3    3    0    0 -0.23671949950E+02  0.74387967921E+01 -0.15277569536E+02  0.29139338416E+02  0.51100000000E-03 0. -1.
        -11    1    3    3    0    0 -0.53009905451E+01 -0.36119302510E+00 -0.11405240158E+01  0.54343128777E+01  0.51100000000E-03 0.  1.
         12    1    3    3    0    0 -0.11285948471E+02  0.19050145976E+01 -0.16829535428E+01  0.11568666567E+02  0.00000000000E+00 0. -1.
</event>
<event>
 7    1  0.3980989E-008  0.4614232E+02  0.7816164E-02  0.1320468E+00
        -11   -1    0    0    0    0  0.00000000000E+00  0.00000000000E+00  0.45593999997E+02  0.45594000000E+02  0.51100000000E-03 0.  1.
         11   -1    0    0    0    0 -0.00000000000E+00 -0.00000000000E+00 -0.45593999997E+02  0.45594000000E+02  0.51100000000E-03 0. -1.
    9900012    2    1    2    0    0 -0.25243463471E+02 -0.36962158278E+02 -0.50675354917E+01  0.46142317537E+02  0.99999979595E+01 0.  0.
        -12    1    1    2    0    0  0.25243463471E+02  0.36962158278E+02  0.50675354917E+01  0.45045682463E+02  0.00000000000E+00 0.  1.
         11    1    3    3    0    0 -0.15255352791E+02 -0.22601004015E+02 -0.18789539779E+01  0.27332428352E+02  0.51100000000E-03 0. -1.
        -11    1    3    3    0    0 -0.53256123714E+01 -0.36385471235E+01  0.70003219873E+00  0.64877744752E+01  0.51100000000E-03 0.  1.
         12    1    3    3    0    0 -0.46624983083E+01 -0.10722607139E+02 -0.38886137125E+01  0.12322114711E+02  0.00000000000E+00 0. -1.
</event>
<event>
 7    1  0.3980989E-008  0.4614232E+02  0.7816164E-02  0.1320468E+00
        -11   -1    0    0    0    0  0.00000000000E+00  0.00000000000E+00  0.45593999997E+02  0.45594000000E+02  0.51100000000E-03 0. -1.
         11   -1    0    0    0    0 -0.00000000000E+00 -0.00000000000E+00 -0.45593999997E+02  0.45594000000E+02  0.51100000000E-03 0.  1.
    9900012    2    1    2    0    0  0.21389804763E+02  0.39465216856E+02  0.37531825755E+01  0.46142317979E+02  0.10000001986E+02 0.  0.
        -12    1    1    2    0    0 -0.21389804763E+02 -0.39465216856E+02 -0.37531825755E+01  0.45045682021E+02  0.00000000000E+00 0.  1.
         11    1    3    3    0    0  0.10432705824E+01  0.21941088201E+01  0.15017560829E+01  0.28561860262E+01  0.51100000000E-03 0. -1.
        -11    1    3    3    0    0  0.54780161021E+01  0.40187755544E+01  0.66391680088E+00  0.68264194972E+01  0.51100000000E-03 0.  1.
         12    1    3    3    0    0  0.14868518079E+02  0.33252332482E+02  0.15875096917E+01  0.36459712456E+02  0.00000000000E+00 0. -1.
</event>
<event>
 7    1  0.3980989E-008  0.4614232E+02  0.7816164E-02  0.1320468E+00
        -11   -1    0    0    0    0  0.00000000000E+00  0.00000000000E+00  0.45593999997E+02  0.45594000000E+02  0.51100000000E-03 0.  1.
         11   -1    0    0    0    0 -0.00000000000E+00 -0.00000000000E+00 -0.45593999997E+02  0.45594000000E+02  0.51100000000E-03 0. -1.
    9900012    2    1    2    0    0 -0.14750899452E+02 -0.29171627872E+02 -0.30992590027E+02  0.46142317144E+02  0.99999943771E+01 0.  0.
        -12    1    1    2    0    0  0.14750899452E+02  0.29171627872E+02  0.30992590027E+02  0.45045682856E+02  0.00000000000E+00 0.  1.
         11    1    3    3    0    0 -0.26413369740E+01 -0.35560117551E+01 -0.14214705105E+01  0.46521456647E+01  0.51100000000E-03 0. -1.
        -11    1    3    3    0    0  0.69669736999E+00 -0.16486970072E+01 -0.95939211445E+00  0.20307689522E+01  0.51100000000E-03 0.  1.
         12    1    3    3    0    0 -0.12806259848E+02 -0.23966919109E+02 -0.28611727402E+02  0.39459402528E+02  0.00000000000E+00 0. -1.
</event>
<event>
 7    1  0.3980989E-008  0.4614232E+02  0.7816164E-02  0.1320468E+00
        -11   -1    0    0    0    0  0.00000000000E+00  0.00000000000E+00  0.45593999997E+02  0.45594000000E+02  0.51100000000E-03 0.  1.
         11   -1    0    0    0    0 -0.00000000000E+00 -0.00000000000E+00 -0.45593999997E+02  0.45594000000E+02  0.51100000000E-03 0. -1.
    9900012    2    1    2    0    0 -0.21256234940E+02  0.81523292177E+01 -0.38869339353E+02  0.46142317219E+02  0.99999950536E+01 0.  0.
        -12    1    1    2    0    0  0.21256234940E+02 -0.81523292177E+01  0.38869339353E+02  0.45045682781E+02  0.00000000000E+00 0.  1.
         11    1    3    3    0    0 -0.28213651897E+01  0.23182628171E+01 -0.65681252760E+01  0.75149659963E+01  0.51100000000E-03 0. -1.
        -11    1    3    3    0    0 -0.24937703801E+01  0.12023848610E+01 -0.58526758567E+00  0.28296922926E+01  0.51100000000E-03 0.  1.
         12    1    3    3    0    0 -0.15941099370E+02  0.46316815395E+01 -0.31715946491E+02  0.35797658930E+02  0.00000000000E+00 0. -1.
</event>
<event>
 7    1  0.3980989E-008  0.4614231E+02  0.7816164E-02  0.1320468E+00
        -11   -1    0    0    0    0  0.00000000000E+00  0.00000000000E+00  0.45593999997E+02  0.45594000000E+02  0.51100000000E-03 0.  1.
         11   -1    0    0    0    0 -0.00000000000E+00 -0.00000000000E+00 -0.45593999997E+02  0.45594000000E+02  0.51100000000E-03 0. -1.
    9900012    2    1    2    0    0  0.32764557410E+02  0.13701490950E+02 -0.27710410745E+02  0.46142312746E+02  0.99999542679E+01 0.  0.
        -12    1    1    2    0    0 -0.32764557410E+02 -0.13701490950E+02  0.27710410745E+02  0.45045687254E+02  0.00000000000E+00 0.  1.
         11    1    3    3    0    0  0.42673149326E+01 -0.26706347069E+00 -0.32773725120E+01  0.53872507344E+01  0.51100000000E-03 0. -1.
        -11    1    3    3    0    0  0.34835682661E+01  0.25364543532E+01 -0.69138846882E+01  0.81468184154E+01  0.51100000000E-03 0.  1.
         12    1    3    3    0    0  0.25013674211E+02  0.11432100067E+02 -0.17519153545E+02  0.32608243596E+02  0.00000000000E+00 0. -1.
</event>
<event>
 7    1  0.3980989E-008  0.4614232E+02  0.7816164E-02  0.1320468E+00
        -11   -1    0    0    0    0  0.00000000000E+00  0.00000000000E+00  0.45593999997E+02  0.45594000000E+02  0.51100000000E-03 0.  1.
         11   -1    0    0    0    0 -0.00000000000E+00 -0.00000000000E+00 -0.45593999997E+02  0.45594000000E+02  0.51100000000E-03 0. -1.
    9900012    2    1    2    0    0  0.22936559004E+02  0.37916767936E+02 -0.80837178585E+01  0.46142317365E+02  0.99999963878E+01 0.  0.
        -12    1    1    2    0    0 -0.22936559004E+02 -0.37916767936E+02  0.80837178585E+01  0.45045682635E+02  0.00000000000E+00 0.  1.
         11    1    3    3    0    0  0.19346536272E+02  0.28945484082E+02 -0.51051170577E+01  0.35187948717E+02  0.51100000000E-03 0. -1.
        -11    1    3    3    0    0  0.27744694751E+00  0.61211352452E+01 -0.12421669477E+01  0.62520598594E+01  0.51100000000E-03 0.  1.
         12    1    3    3    0    0  0.33125757842E+01  0.28501486086E+01 -0.17364338531E+01  0.47023087886E+01  0.00000000000E+00 0. -1.
</event>
<event>
 7    1  0.3980989E-008  0.4614232E+02  0.7816164E-02  0.1320468E+00
        -11   -1    0    0    0    0  0.00000000000E+00  0.00000000000E+00  0.45593999997E+02  0.45594000000E+02  0.51100000000E-03 0.  1.
         11   -1    0    0    0    0 -0.00000000000E+00 -0.00000000000E+00 -0.45593999997E+02  0.45594000000E+02  0.51100000000E-03 0. -1.
    9900012    2    1    2    0    0 -0.16774690400E+01  0.33812357108E+02 -0.29715722479E+02  0.46142316988E+02  0.99999929502E+01 0.  0.
        -12    1    1    2    0    0  0.16774690400E+01 -0.33812357108E+02  0.29715722479E+02  0.45045683012E+02  0.00000000000E+00 0.  1.
         11    1    3    3    0    0 -0.13531105110E+01  0.22904260432E+02 -0.24084768800E+02  0.33264277271E+02  0.51100000000E-03 0. -1.
        -11    1    3    3    0    0 -0.85468348893E+00  0.22278775931E+00 -0.43527901679E+00  0.98467575146E+00  0.51100000000E-03 0.  1.
         12    1    3    3    0    0  0.53032495986E+00  0.10685308917E+02 -0.51956746623E+01  0.11893363965E+02  0.00000000000E+00 0. -1.
</event>
<event>
 7    1  0.3980989E-008  0.4614232E+02  0.7816164E-02  0.1320468E+00
        -11   -1    0    0    0    0  0.00000000000E+00  0.00000000000E+00  0.45593999997E+02  0.45594000000E+02  0.51100000000E-03 0. -1.
         11   -1    0    0    0    0 -0.00000000000E+00 -0.00000000000E+00 -0.45593999997E+02  0.45594000000E+02  0.51100000000E-03 0.  1.
    9900012    2    1    2    0    0 -0.12478301279E+02  0.24988120388E+02  0.35341184349E+02  0.46142317915E+02  0.10000001406E+02 0.  0.
        -12    1    1    2    0    0  0.12478301279E+02 -0.24988120388E+02 -0.35341184349E+02  0.45045682085E+02  0.00000000000E+00 0.  1.
         11    1    3    3    0    0 -0.37038079597E+01  0.31630623970E+01  0.99040449632E+01  0.11036904640E+02  0.51100000000E-03 0.  1.
        -11    1    3    3    0    0  0.27649277532E+00  0.78950312994E-01 -0.15250588401E+00  0.32548381297E+00  0.51100000000E-03 0. -1.
         12    1    3    3    0    0 -0.90509860946E+01  0.21746107678E+02  0.25589645270E+02  0.34779929463E+02  0.00000000000E+00 0. -1.
</event>
<event>
 7    1  0.3980989E-008  0.4614232E+02  0.7816164E-02  0.1320468E+00
        -11   -1    0    0    0    0  0.00000000000E+00  0.00000000000E+00  0.45593999997E+02  0.45594000000E+02  0.51100000000E-03 0.  1.
         11   -1    0    0    0    0 -0.00000000000E+00 -0.00000000000E+00 -0.45593999997E+02  0.45594000000E+02  0.51100000000E-03 0. -1.
    9900012    2    1    2    0    0  0.10812539988E+02  0.43678156539E+02  0.21026585529E+01  0.46142317048E+02  0.99999934963E+01 0.  0.
        -12    1    1    2    0    0 -0.10812539988E+02 -0.43678156539E+02 -0.21026585529E+01  0.45045682952E+02  0.00000000000E+00 0.  1.
         11    1    3    3    0    0  0.97406873691E+01  0.28677592157E+02  0.45554564095E+01  0.30627397306E+02  0.51100000000E-03 0. -1.
        -11    1    3    3    0    0  0.85033636091E+00  0.18235135570E+01 -0.10273508716E+01  0.22591422473E+01  0.51100000000E-03 0.  1.
        -12    1    3    3    0    0  0.22151625844E+00  0.13177050825E+02 -0.14254469851E+01  0.13255777495E+02  0.00000000000E+00 0.  1.
</event>
<event>
 7    1  0.3980989E-008  0.4614232E+02  0.7816164E-02  0.1320468E+00
        -11   -1    0    0    0    0  0.00000000000E+00  0.00000000000E+00  0.45593999997E+02  0.45594000000E+02  0.51100000000E-03 0.  1.
         11   -1    0    0    0    0 -0.00000000000E+00 -0.00000000000E+00 -0.45593999997E+02  0.45594000000E+02  0.51100000000E-03 0. -1.
    9900012    2    1    2    0    0 -0.27008122218E+02  0.10837777283E+02 -0.34383387369E+02  0.46142318641E+02  0.10000008020E+02 0.  0.
        -12    1    1    2    0    0  0.27008122218E+02 -0.10837777283E+02  0.34383387369E+02  0.45045681359E+02  0.00000000000E+00 0.  1.
         11    1    3    3    0    0 -0.39776838081E+01 -0.41267536137E+00 -0.33564949411E+01  0.52209508695E+01  0.51100000000E-03 0. -1.
        -11    1    3    3    0    0 -0.62785778417E+01  0.11567230339E+01 -0.12225293195E+02  0.13791894063E+02  0.51100000000E-03 0.  1.
         12    1    3    3    0    0 -0.16751860568E+02  0.10093729611E+02 -0.18801599233E+02  0.27129473708E+02  0.00000000000E+00 0. -1.
</event>
<event>
 7    1  0.3980989E-008  0.4614232E+02  0.7816164E-02  0.1320468E+00
        -11   -1    0    0    0    0  0.00000000000E+00  0.00000000000E+00  0.45593999997E+02  0.45594000000E+02  0.51100000000E-03 0.  1.
         11   -1    0    0    0    0 -0.00000000000E+00 -0.00000000000E+00 -0.45593999997E+02  0.45594000000E+02  0.51100000000E-03 0. -1.
    9900012    2    1    2    0    0  0.26753758634E+02  0.36109517184E+02  0.30745025690E+01  0.46142318760E+02  0.10000009110E+02 0.  0.
        -12    1    1    2    0    0 -0.26753758634E+02 -0.36109517184E+02 -0.30745025690E+01  0.45045681240E+02  0.00000000000E+00 0.  1.
         11    1    3    3    0    0  0.57015649995E+01  0.69227283778E+01 -0.62578583338E+00  0.89901957602E+01  0.51100000000E-03 0. -1.
        -11    1    3    3    0    0  0.15981057176E+02  0.17348919695E+02 -0.53940113131E+00  0.23593858457E+02  0.51100000000E-03 0.  1.
         12    1    3    3    0    0  0.50711364588E+01  0.11837869111E+02  0.42396895337E+01  0.13558264543E+02  0.00000000000E+00 0. -1.
</event>
<event>
 7    1  0.3980989E-008  0.4614232E+02  0.7816164E-02  0.1320468E+00
        -11   -1    0    0    0    0  0.00000000000E+00  0.00000000000E+00  0.45593999997E+02  0.45594000000E+02  0.51100000000E-03 0.  1.
         11   -1    0    0    0    0 -0.00000000000E+00 -0.00000000000E+00 -0.45593999997E+02  0.45594000000E+02  0.51100000000E-03 0. -1.
    9900012    2    1    2    0    0  0.18528615218E+02 -0.38581911795E+01 -0.40876868720E+02  0.46142316328E+02  0.99999869346E+01 0.  0.
        -12    1    1    2    0    0 -0.18528615218E+02  0.38581911795E+01  0.40876868720E+02  0.45045683672E+02  0.00000000000E+00 0.  1.
         11    1    3    3    0    0  0.38793463528E+01 -0.55326134180E+00 -0.59543147579E+01  0.71280636034E+01  0.51100000000E-03 0. -1.
        -11    1    3    3    0    0  0.54255993361E+01 -0.50607141004E+01 -0.20532784309E+02  0.21832159470E+02  0.51100000000E-03 0.  1.
        -12    1    3    3    0    0  0.92236695288E+01  0.17557842627E+01 -0.14389769653E+02  0.17182093255E+02  0.00000000000E+00 0.  1.
</event>
<event>
 7    1  0.3980989E-008  0.4614232E+02  0.7816164E-02  0.1320468E+00
        -11   -1    0    0    0    0  0.00000000000E+00  0.00000000000E+00  0.45593999997E+02  0.45594000000E+02  0.51100000000E-03 0. -1.
         11   -1    0    0    0    0 -0.00000000000E+00 -0.00000000000E+00 -0.45593999997E+02  0.45594000000E+02  0.51100000000E-03 0.  1.
    9900012    2    1    2    0    0  0.17081087327E+02 -0.20698496206E+02  0.36179032010E+02  0.46142316004E+02  0.99999839761E+01 0.  0.
        -12    1    1    2    0    0 -0.17081087327E+02  0.20698496206E+02 -0.36179032010E+02  0.45045683996E+02  0.00000000000E+00 0.  1.
         11    1    3    3    0    0  0.85681143868E+00 -0.20768168146E+01  0.15284754997E+01  0.27172654521E+01  0.51100000000E-03 0. -1.
        -11    1    3    3    0    0  0.16690429073E+02 -0.18955227362E+02  0.34616838335E+02  0.42850864210E+02  0.51100000000E-03 0.  1.
        -12    1    3    3    0    0 -0.46615318434E+00  0.33354797055E+00  0.33718176050E-01  0.57418634199E+00  0.00000000000E+00 0.  1.
</event>
<event>
 7    1  0.3980989E-008  0.4614232E+02  0.7816164E-02  0.1320468E+00
        -11   -1    0    0    0    0  0.00000000000E+00  0.00000000000E+00  0.45593999997E+02  0.45594000000E+02  0.51100000000E-03 0.  1.
         11   -1    0    0    0    0 -0.00000000000E+00 -0.00000000000E+00 -0.45593999997E+02  0.45594000000E+02  0.51100000000E-03 0. -1.
    9900012    2    1    2    0    0 -0.34726381254E+02  0.20415995186E+01 -0.28618592265E+02  0.46142317556E+02  0.99999981326E+01 0.  0.
        -12    1    1    2    0    0  0.34726381254E+02 -0.20415995186E+01  0.28618592265E+02  0.45045682444E+02  0.00000000000E+00 0.  1.
         11    1    3    3    0    0 -0.28536804549E+02  0.15151970261E+01 -0.25205637348E+02  0.38104713492E+02  0.51100000000E-03 0. -1.
        -11    1    3    3    0    0  0.35986241365E+00 -0.52426152990E+00 -0.40794575682E+00  0.75549395108E+00  0.51100000000E-03 0.  1.
         12    1    3    3    0    0 -0.65494391183E+01  0.10506640224E+01 -0.30050091604E+01  0.72821101135E+01  0.00000000000E+00 0. -1.
</event>
<event>
 7    1  0.3980989E-008  0.4614232E+02  0.7816164E-02  0.1320468E+00
        -11   -1    0    0    0    0  0.00000000000E+00  0.00000000000E+00  0.45593999997E+02  0.45594000000E+02  0.51100000000E-03 0.  1.
         11   -1    0    0    0    0 -0.00000000000E+00 -0.00000000000E+00 -0.45593999997E+02  0.45594000000E+02  0.51100000000E-03 0. -1.
    9900012    2    1    2    0    0 -0.31403087583E+02 -0.47330202566E+01 -0.31946176681E+02  0.46142316578E+02  0.99999892084E+01 0.  0.
        -12    1    1    2    0    0  0.31403087583E+02  0.47330202566E+01  0.31946176681E+02  0.45045683422E+02  0.00000000000E+00 0.  1.
         11    1    3    3    0    0 -0.43370281519E+01 -0.37597602949E+01 -0.57725215836E+01  0.81404923905E+01  0.51100000000E-03 0. -1.
        -11    1    3    3    0    0 -0.36717895695E+01  0.33709272660E+00 -0.15152087661E+01  0.39864179429E+01  0.51100000000E-03 0.  1.
         12    1    3    3    0    0 -0.23394269861E+02 -0.13103526883E+01 -0.24658446331E+02  0.34015406244E+02  0.00000000000E+00 0. -1.
</event>
<event>
 7    1  0.3980989E-008  0.4614232E+02  0.7816164E-02  0.1320468E+00
        -11   -1    0    0    0    0  0.00000000000E+00  0.00000000000E+00  0.45593999997E+02  0.45594000000E+02  0.51100000000E-03 0.  1.
         11   -1    0    0    0    0 -0.00000000000E+00 -0.00000000000E+00 -0.45593999997E+02  0.45594000000E+02  0.51100000000E-03 0. -1.
    9900012    2    1    2    0    0  0.32619241820E+02 -0.23478872959E+02 -0.20343084715E+02  0.46142317542E+02  0.99999980039E+01 0.  0.
        -12    1    1    2    0    0 -0.32619241820E+02  0.23478872959E+02  0.20343084715E+02  0.45045682458E+02  0.00000000000E+00 0.  1.
         11    1    3    3    0    0  0.80563570287E+01 -0.59809485617E+01 -0.40781240187E+01  0.10830869312E+02  0.51100000000E-03 0. -1.
        -11    1    3    3    0    0  0.20583535187E+00  0.81782784452E+00 -0.67488990414E+00  0.10801329637E+01  0.51100000000E-03 0.  1.
        -12    1    3    3    0    0  0.24357049439E+02 -0.18315752242E+02 -0.15590070792E+02  0.34231315267E+02  0.00000000000E+00 0.  1.
</event>
<event>
 7    1  0.3980989E-008  0.4614232E+02  0.7816164E-02  0.1320468E+00
        -11   -1    0    0    0    0  0.00000000000E+00  0.00000000000E+00  0.45593999997E+02  0.45594000000E+02  0.51100000000E-03 0.  1.
         11   -1    0    0    0    0 -0.00000000000E+00 -0.00000000000E+00 -0.45593999997E+02  0.45594000000E+02  0.51100000000E-03 0. -1.
    9900012    2    1    2    0    0  0.11849613894E+02 -0.27953852323E+02 -0.33275852135E+02  0.46142317138E+02  0.99999943223E+01 0.  0.
        -12    1    1    2    0    0 -0.11849613894E+02  0.27953852323E+02  0.33275852135E+02  0.45045682862E+02  0.00000000000E+00 0.  1.
         11    1    3    3    0    0  0.76390065113E+01 -0.21436774882E+02 -0.20348734790E+02  0.30528032129E+02  0.51100000000E-03 0. -1.
        -11    1    3    3    0    0 -0.67879638799E+00 -0.98338054077E-01 -0.11235688317E+01  0.13163746009E+01  0.51100000000E-03 0.  1.
        -12    1    3    3    0    0  0.48894037706E+01 -0.64187393865E+01 -0.11803548514E+02  0.14297910409E+02  0.00000000000E+00 0.  1.
</event>
<event>
 7    1  0.3980989E-008  0.4614232E+02  0.7816164E-02  0.1320468E+00
        -11   -1    0    0    0    0  0.00000000000E+00  0.00000000000E+00  0.45593999997E+02  0.45594000000E+02  0.51100000000E-03 0.  1.
         11   -1    0    0    0    0 -0.00000000000E+00 -0.00000000000E+00 -0.45593999997E+02  0.45594000000E+02  0.51100000000E-03 0. -1.
    9900012    2    1    2    0    0  0.17794136922E+02 -0.35328623150E+02 -0.21549258150E+02  0.46142318195E+02  0.10000003959E+02 0.  0.
        -12    1    1    2    0    0 -0.17794136922E+02  0.35328623150E+02  0.21549258150E+02  0.45045681805E+02  0.00000000000E+00 0.  1.
         11    1    3    3    0    0  0.44731288750E+01 -0.77979778354E+01 -0.62779004057E+01  0.10964915596E+02  0.51100000000E-03 0. -1.
        -11    1    3    3    0    0 -0.98196008265E+00 -0.38561734040E+01 -0.12774505301E+01  0.41792581930E+01  0.51100000000E-03 0.  1.
        -12    1    3    3    0    0  0.14302968129E+02 -0.23674471910E+02 -0.13993907214E+02  0.30998144407E+02  0.00000000000E+00 0.  1.
</event>
<event>
 7    1  0.3980989E-008  0.4614232E+02  0.7816164E-02  0.1320468E+00
        -11   -1    0    0    0    0  0.00000000000E+00  0.00000000000E+00  0.45593999997E+02  0.45594000000E+02  0.51100000000E-03 0. -1.
         11   -1    0    0    0    0 -0.00000000000E+00 -0.00000000000E+00 -0.45593999997E+02  0.45594000000E+02  0.51100000000E-03 0.  1.
    9900012    2    1    2    0    0  0.33191784507E+02 -0.18695932309E+02  0.24039156770E+02  0.46142317611E+02  0.99999986301E+01 0.  0.
        -12    1    1    2    0    0 -0.33191784507E+02  0.18695932309E+02 -0.24039156770E+02  0.45045682389E+02  0.00000000000E+00 0.  1.
         11    1    3    3    0    0  0.81206637764E+00 -0.90071287837E+00  0.11458664055E+00  0.12181403245E+01  0.51100000000E-03 0. -1.
        -11    1    3    3    0    0  0.18295500266E+01 -0.41984042278E+01  0.31121188987E+01  0.55370692303E+01  0.51100000000E-03 0.  1.
         12    1    3    3    0    0  0.30550168103E+02 -0.13596815203E+02  0.20812451231E+02  0.39387108056E+02  0.00000000000E+00 0. -1.
</event>
<event>
 7    1  0.3980989E-008  0.4614232E+02  0.7816164E-02  0.1320468E+00
        -11   -1    0    0    0    0  0.00000000000E+00  0.00000000000E+00  0.45593999997E+02  0.45594000000E+02  0.51100000000E-03 0.  1.
         11   -1    0    0    0    0 -0.00000000000E+00 -0.00000000000E+00 -0.45593999997E+02  0.45594000000E+02  0.51100000000E-03 0. -1.
    9900012    2    1    2    0    0 -0.28776165492E+01  0.13494431890E+02 -0.42880451823E+02  0.46142317436E+02  0.99999970389E+01 0.  0.
        -12    1    1    2    0    0  0.28776165492E+01 -0.13494431890E+02  0.42880451823E+02  0.45045682564E+02  0.00000000000E+00 0.  1.
         11    1    3    3    0    0 -0.16709311140E+01  0.80559486840E+01 -0.24805517140E+02  0.26134345234E+02  0.51100000000E-03 0. -1.
        -11    1    3    3    0    0  0.26742626086E+01  0.17133255100E+01 -0.74528804511E+01  0.81013944530E+01  0.51100000000E-03 0.  1.
        -12    1    3    3    0    0 -0.38809480438E+01  0.37251576959E+01 -0.10622054233E+02  0.11906577749E+02  0.00000000000E+00 0.  1.
</event>
<event>
 7    1  0.3980989E-008  0.4614232E+02  0.7816164E-02  0.1320468E+00
        -11   -1    0    0    0    0  0.00000000000E+00  0.00000000000E+00  0.45593999997E+02  0.45594000000E+02  0.51100000000E-03 0.  1.
         11   -1    0    0    0    0 -0.00000000000E+00 -0.00000000000E+00 -0.45593999997E+02  0.45594000000E+02  0.51100000000E-03 0. -1.
    9900012    2    1    2    0    0 -0.24954969239E+02 -0.37485288647E+02 -0.11027989401E+01  0.46142317408E+02  0.99999967788E+01 0.  0.
        -12    1    1    2    0    0  0.24954969239E+02  0.37485288647E+02  0.11027989401E+01  0.45045682592E+02  0.00000000000E+00 0.  1.
         11    1    3    3    0    0 -0.11498059523E+02 -0.17785377371E+02 -0.25012720567E+01  0.21325603935E+02  0.51100000000E-03 0. -1.
        -11    1    3    3    0    0 -0.99790655192E+01 -0.15980573034E+02  0.37466625263E+01  0.19209319183E+02  0.51100000000E-03 0.  1.
        -12    1    3    3    0    0 -0.34778441967E+01 -0.37193382417E+01 -0.23481894097E+01  0.56073942894E+01  0.00000000000E+00 0.  1.
</event>
<event>
 7    1  0.3980989E-008  0.4614232E+02  0.7816164E-02  0.1320468E+00
        -11   -1    0    0    0    0  0.00000000000E+00  0.00000000000E+00  0.45593999997E+02  0.45594000000E+02  0.51100000000E-03 0. -1.
         11   -1    0    0    0    0 -0.00000000000E+00 -0.00000000000E+00 -0.45593999997E+02  0.45594000000E+02  0.51100000000E-03 0.  1.
    9900012    2    1    2    0    0 -0.35362627667E+02  0.26862278889E+02  0.75509057547E+01  0.46142316074E+02  0.99999846173E+01 0.  0.
        -12    1    1    2    0    0  0.35362627667E+02 -0.26862278889E+02 -0.75509057547E+01  0.45045683926E+02  0.00000000000E+00 0.  1.
         11    1    3    3    0    0 -0.98636302618E+01  0.44210441104E+01  0.26827946023E+01  0.11137065148E+02  0.51100000000E-03 0. -1.
        -11    1    3    3    0    0 -0.19772467580E+02  0.13870907270E+02  0.51427456243E+01  0.24694136461E+02  0.51100000000E-03 0.  1.
        -12    1    3    3    0    0 -0.57265298251E+01  0.85703275081E+01 -0.27463447188E+00  0.10311114466E+02  0.00000000000E+00 0.  1.
</event>
<event>
 7    1  0.3980989E-008  0.4614232E+02  0.7816164E-02  0.1320468E+00
        -11   -1    0    0    0    0  0.00000000000E+00  0.00000000000E+00  0.45593999997E+02  0.45594000000E+02  0.51100000000E-03 0.  1.
         11   -1    0    0    0    0 -0.00000000000E+00 -0.00000000000E+00 -0.45593999997E+02  0.45594000000E+02  0.51100000000E-03 0. -1.
    9900012    2    1    2    0    0  0.43514956179E+02  0.11629084314E+02 -0.57139228117E+00  0.46142317606E+02  0.99999985839E+01 0.  0.
        -12    1    1    2    0    0 -0.43514956179E+02 -0.11629084314E+02  0.57139228117E+00  0.45045682394E+02  0.00000000000E+00 0.  1.
         11    1    3    3    0    0  0.48656503660E+01  0.28635121716E+01  0.85457247939E+00  0.57100393891E+01  0.51100000000E-03 0.  1.
        -11    1    3    3    0    0  0.20712365844E+02  0.70658230140E+01  0.23924461857E+01  0.22014807579E+02  0.51100000000E-03 0. -1.
        -12    1    3    3    0    0  0.17936939969E+02  0.16997491280E+01 -0.38184109462E+01  0.18417470638E+02  0.00000000000E+00 0.  1.
</event>
<event>
 7    1  0.3980989E-008  0.4614232E+02  0.7816164E-02  0.1320468E+00
        -11   -1    0    0    0    0  0.00000000000E+00  0.00000000000E+00  0.45593999997E+02  0.45594000000E+02  0.51100000000E-03 0. -1.
         11   -1    0    0    0    0 -0.00000000000E+00 -0.00000000000E+00 -0.45593999997E+02  0.45594000000E+02  0.51100000000E-03 0.  1.
    9900012    2    1    2    0    0 -0.10197139604E+02 -0.34062107598E+02 -0.27656911296E+02  0.46142316827E+02  0.99999914787E+01 0.  0.
        -12    1    1    2    0    0  0.10197139604E+02  0.34062107598E+02  0.27656911296E+02  0.45045683173E+02  0.00000000000E+00 0.  1.
         11    1    3    3    0    0  0.10939069297E+01 -0.45894559054E+01 -0.43042938687E+01  0.63864453218E+01  0.51100000000E-03 0. -1.
        -11    1    3    3    0    0 -0.79068192853E+01 -0.20671487908E+02 -0.19745940100E+02  0.29660248722E+02  0.51100000000E-03 0.  1.
         12    1    3    3    0    0 -0.33842272488E+01 -0.88011637851E+01 -0.36066773270E+01  0.10095622783E+02  0.00000000000E+00 0. -1.
</event>
<event>
 7    1  0.3980989E-008  0.4614232E+02  0.7816164E-02  0.1320468E+00
        -11   -1    0    0    0    0  0.00000000000E+00  0.00000000000E+00  0.45593999997E+02  0.45594000000E+02  0.51100000000E-03 0. -1.
         11   -1    0    0    0    0 -0.00000000000E+00 -0.00000000000E+00 -0.45593999997E+02  0.45594000000E+02  0.51100000000E-03 0.  1.
    9900012    2    1    2    0    0  0.38194681747E+01 -0.35054451193E+02  0.28030522310E+02  0.46142322443E+02  0.10000042694E+02 0.  0.
        -12    1    1    2    0    0 -0.38194681747E+01  0.35054451193E+02 -0.28030522310E+02  0.45045677557E+02  0.00000000000E+00 0.  1.
         11    1    3    3    0    0 -0.15708039239E+01 -0.33574873632E+01  0.29504224660E+01  0.47376301407E+01  0.51100000000E-03 0.  1.
        -11    1    3    3    0    0  0.42183555006E+01 -0.29408862379E+02  0.25006330287E+02  0.38832876075E+02  0.51100000000E-03 0. -1.
         12    1    3    3    0    0  0.11719165980E+01 -0.22881014506E+01  0.73769557614E-01  0.25718162276E+01  0.00000000000E+00 0. -1.
</event>
<event>
 7    1  0.3980989E-008  0.4614232E+02  0.7816164E-02  0.1320468E+00
        -11   -1    0    0    0    0  0.00000000000E+00  0.00000000000E+00  0.45593999997E+02  0.45594000000E+02  0.51100000000E-03 0.  1.
         11   -1    0    0    0    0 -0.00000000000E+00 -0.00000000000E+00 -0.45593999997E+02  0.45594000000E+02  0.51100000000E-03 0. -1.
    9900012    2    1    2    0    0 -0.21888563871E+02 -0.13552530234E+02 -0.36963945909E+02  0.46142316509E+02  0.99999885784E+01 0.  0.
        -12    1    1    2    0    0  0.21888563871E+02  0.13552530234E+02  0.36963945909E+02  0.45045683491E+02  0.00000000000E+00 0.  1.
         11    1    3    3    0    0  0.13390581406E+00 -0.75193628317E+00 -0.14888513340E+01  0.16733252812E+01  0.51100000000E-03 0. -1.
        -11    1    3    3    0    0 -0.16619833100E+01  0.11669330665E+01 -0.37872979352E+01  0.42973884180E+01  0.51100000000E-03 0.  1.
         12    1    3    3    0    0 -0.20360486375E+02 -0.13967527018E+02 -0.31687796639E+02  0.40171602809E+02  0.00000000000E+00 0. -1.
</event>
<event>
 7    1  0.3980989E-008  0.4614232E+02  0.7816164E-02  0.1320468E+00
        -11   -1    0    0    0    0  0.00000000000E+00  0.00000000000E+00  0.45593999997E+02  0.45594000000E+02  0.51100000000E-03 0.  1.
         11   -1    0    0    0    0 -0.00000000000E+00 -0.00000000000E+00 -0.45593999997E+02  0.45594000000E+02  0.51100000000E-03 0. -1.
    9900012    2    1    2    0    0  0.23072876915E+02  0.11972792653E+02 -0.36788692949E+02  0.46142319387E+02  0.10000014823E+02 0.  0.
        -12    1    1    2    0    0 -0.23072876915E+02 -0.11972792653E+02  0.36788692949E+02  0.45045680613E+02  0.00000000000E+00 0.  1.
         11    1    3    3    0    0  0.12789241037E+02  0.86441281141E+01 -0.16692173962E+02  0.22735749581E+02  0.51100000000E-03 0. -1.
        -11    1    3    3    0    0  0.43019616680E+01  0.12030250904E+01 -0.36207316297E+01  0.57501166385E+01  0.51100000000E-03 0.  1.
        -12    1    3    3    0    0  0.59816742098E+01  0.21256394482E+01 -0.16475787357E+02  0.17656453167E+02  0.00000000000E+00 0.  1.
</event>
<event>
 7    1  0.3980989E-008  0.4614232E+02  0.7816164E-02  0.1320468E+00
        -11   -1    0    0    0    0  0.00000000000E+00  0.00000000000E+00  0.45593999997E+02  0.45594000000E+02  0.51100000000E-03 0.  1.
         11   -1    0    0    0    0 -0.00000000000E+00 -0.00000000000E+00 -0.45593999997E+02  0.45594000000E+02  0.51100000000E-03 0. -1.
    9900012    2    1    2    0    0 -0.44902540503E+01  0.17022549591E+02 -0.41463042309E+02  0.46142318148E+02  0.10000003527E+02 0.  0.
        -12    1    1    2    0    0  0.44902540503E+01 -0.17022549591E+02  0.41463042309E+02  0.45045681852E+02  0.00000000000E+00 0.  1.
         11    1    3    3    0    0 -0.98361699190E+00  0.59313933292E+01 -0.17501520497E+02  0.18505462684E+02  0.51100000000E-03 0. -1.
        -11    1    3    3    0    0 -0.43863515341E+01  0.11807287209E+02 -0.22512884983E+02  0.25796939771E+02  0.51100000000E-03 0.  1.
        -12    1    3    3    0    0  0.87971447564E+00 -0.71613094738E+00 -0.14486368295E+01  0.18399156927E+01  0.00000000000E+00 0.  1.
</event>
<event>
 7    1  0.3980989E-008  0.4614232E+02  0.7816164E-02  0.1320468E+00
        -11   -1    0    0    0    0  0.00000000000E+00  0.00000000000E+00  0.45593999997E+02  0.45594000000E+02  0.51100000000E-03 0. -1.
         11   -1    0    0    0    0 -0.00000000000E+00 -0.00000000000E+00 -0.45593999997E+02  0.45594000000E+02  0.51100000000E-03 0.  1.
    9900012    2    1    2    0    0 -0.16186404857E+02  0.41465354128E+02 -0.69092843559E+01  0.46142317572E+02  0.99999982731E+01 0.  0.
        -12    1    1    2    0    0  0.16186404857E+02 -0.41465354128E+02  0.69092843559E+01  0.45045682428E+02  0.00000000000E+00 0.  1.
         11    1    3    3    0    0 -0.12136804184E+02  0.20384390775E+02 -0.34268051606E+01  0.23970156381E+02  0.51100000000E-03 0. -1.
        -11    1    3    3    0    0 -0.20083068646E+01  0.59929339230E+01 -0.28505733132E+01  0.69335648799E+01  0.51100000000E-03 0.  1.
         12    1    3    3    0    0 -0.20412938083E+01  0.15088029429E+02 -0.63190588213E+00  0.15238596311E+02  0.00000000000E+00 0. -1.
</event>
<event>
 7    1  0.3980989E-008  0.4614232E+02  0.7816164E-02  0.1320468E+00
        -11   -1    0    0    0    0  0.00000000000E+00  0.00000000000E+00  0.45593999997E+02  0.45594000000E+02  0.51100000000E-03 0. -1.
         11   -1    0    0    0    0 -0.00000000000E+00 -0.00000000000E+00 -0.45593999997E+02  0.45594000000E+02  0.51100000000E-03 0.  1.
    9900012    2    1    2    0    0  0.37678380264E+02 -0.13217132240E+02  0.20850914439E+02  0.46142317000E+02  0.99999930634E+01 0.  0.
        -12    1    1    2    0    0 -0.37678380264E+02  0.13217132240E+02 -0.20850914439E+02  0.45045683000E+02  0.00000000000E+00 0.  1.
         11    1    3    3    0    0  0.20054958831E+02 -0.45636940246E+01  0.11857698123E+02  0.23740970534E+02  0.51100000000E-03 0. -1.
        -11    1    3    3    0    0 -0.32699692684E+00 -0.62261833090E+00  0.88490478701E+00  0.11303262004E+01  0.51100000000E-03 0.  1.
        -12    1    3    3    0    0  0.17950418360E+02 -0.80308198841E+01  0.81083115293E+01  0.21271020266E+02  0.00000000000E+00 0.  1.
</event>
<event>
 7    1  0.3980989E-008  0.4614231E+02  0.7816164E-02  0.1320468E+00
        -11   -1    0    0    0    0  0.00000000000E+00  0.00000000000E+00  0.45593999997E+02  0.45594000000E+02  0.51100000000E-03 0.  1.
         11   -1    0    0    0    0 -0.00000000000E+00 -0.00000000000E+00 -0.45593999997E+02  0.45594000000E+02  0.51100000000E-03 0. -1.
    9900012    2    1    2    0    0 -0.19403795285E+02 -0.13217093724E+02 -0.38443665967E+02  0.46142308853E+02  0.99999187655E+01 0.  0.
        -12    1    1    2    0    0  0.19403795285E+02  0.13217093724E+02  0.38443665967E+02  0.45045691147E+02  0.00000000000E+00 0.  1.
         11    1    3    3    0    0 -0.55881726073E+01 -0.22115268887E+01 -0.11953733970E+02  0.13379472349E+02  0.51100000000E-03 0. -1.
        -11    1    3    3    0    0 -0.36518564241E+01  0.54561046352E+00 -0.71693076731E+01  0.80642866326E+01  0.51100000000E-03 0.  1.
         12    1    3    3    0    0 -0.10163766254E+02 -0.11551177299E+02 -0.19320624324E+02  0.24698549871E+02  0.00000000000E+00 0. -1.
</event>
<event>
 7    1  0.3980989E-008  0.4614232E+02  0.7816164E-02  0.1320468E+00
        -11   -1    0    0    0    0  0.00000000000E+00  0.00000000000E+00  0.45593999997E+02  0.45594000000E+02  0.51100000000E-03 0. -1.
         11   -1    0    0    0    0 -0.00000000000E+00 -0.00000000000E+00 -0.45593999997E+02  0.45594000000E+02  0.51100000000E-03 0.  1.
    9900012    2    1    2    0    0  0.21261464699E+02  0.39033231563E+02 -0.73123487707E+01  0.46142317721E+02  0.99999996374E+01 0.  0.
        -12    1    1    2    0    0 -0.21261464699E+02 -0.39033231563E+02  0.73123487707E+01  0.45045682279E+02  0.00000000000E+00 0.  1.
         11    1    3    3    0    0  0.51938951817E+01  0.93229247063E+01  0.64679738912E+00  0.10691670560E+02  0.51100000000E-03 0. -1.
        -11    1    3    3    0    0 -0.72925360474E-01  0.49426943893E+01 -0.17430422755E+01  0.52415400952E+01  0.51100000000E-03 0.  1.
        -12    1    3    3    0    0  0.16140494878E+02  0.24767612468E+02 -0.62161038843E+01  0.30209107066E+02  0.00000000000E+00 0.  1.
</event>
<event>
 7    1  0.3980989E-008  0.4614232E+02  0.7816164E-02  0.1320468E+00
        -11   -1    0    0    0    0  0.00000000000E+00  0.00000000000E+00  0.45593999997E+02  0.45594000000E+02  0.51100000000E-03 0. -1.
         11   -1    0    0    0    0 -0.00000000000E+00 -0.00000000000E+00 -0.45593999997E+02  0.45594000000E+02  0.51100000000E-03 0.  1.
    9900012    2    1    2    0    0  0.44655434754E+02 -0.13434718925E+01 -0.57620035751E+01  0.46142318131E+02  0.10000003374E+02 0.  0.
        -12    1    1    2    0    0 -0.44655434754E+02  0.13434718925E+01  0.57620035751E+01  0.45045681869E+02  0.00000000000E+00 0.  1.
         11    1    3    3    0    0  0.10090367777E+02 -0.35432747101E+01 -0.13289009492E-01  0.10694414168E+02  0.51100000000E-03 0. -1.
        -11    1    3    3    0    0  0.52594027947E+01 -0.89939297140E+00  0.37636671972E+00  0.53490071642E+01  0.51100000000E-03 0.  1.
        -12    1    3    3    0    0  0.29305664183E+02  0.30991957890E+01 -0.61250812853E+01  0.30098896799E+02  0.00000000000E+00 0.  1.
</event>
<event>
 7    1  0.3980989E-008  0.4614232E+02  0.7816164E-02  0.1320468E+00
        -11   -1    0    0    0    0  0.00000000000E+00  0.00000000000E+00  0.45593999997E+02  0.45594000000E+02  0.51100000000E-03 0. -1.
         11   -1    0    0    0    0 -0.00000000000E+00 -0.00000000000E+00 -0.45593999997E+02  0.45594000000E+02  0.51100000000E-03 0.  1.
    9900012    2    1    2    0    0  0.40294809452E+02  0.85743313462E+01  0.18218744163E+02  0.46142318013E+02  0.10000002299E+02 0.  0.
        -12    1    1    2    0    0 -0.40294809452E+02 -0.85743313462E+01 -0.18218744163E+02  0.45045681987E+02  0.00000000000E+00 0.  1.
         11    1    3    3    0    0  0.24851694255E+02  0.58331396547E+01  0.10279417670E+02  0.27519059822E+02  0.51100000000E-03 0. -1.
        -11    1    3    3    0    0  0.89709981499E+01 -0.14951037294E+01  0.38834667651E+01  0.98891585761E+01  0.51100000000E-03 0.  1.
        -12    1    3    3    0    0  0.64721170464E+01  0.42362954209E+01  0.40558597276E+01  0.87340996150E+01  0.00000000000E+00 0.  1.
</event>
<event>
 7    1  0.3980989E-008  0.4614232E+02  0.7816164E-02  0.1320468E+00
        -11   -1    0    0    0    0  0.00000000000E+00  0.00000000000E+00  0.45593999997E+02  0.45594000000E+02  0.51100000000E-03 0.  1.
         11   -1    0    0    0    0 -0.00000000000E+00 -0.00000000000E+00 -0.45593999997E+02  0.45594000000E+02  0.51100000000E-03 0. -1.
    9900012    2    1    2    0    0 -0.21719737485E+02 -0.16687924961E+02 -0.35761418734E+02  0.46142324228E+02  0.10000058966E+02 0.  0.
        -12    1    1    2    0    0  0.21719737485E+02  0.16687924961E+02  0.35761418734E+02  0.45045675772E+02  0.00000000000E+00 0.  1.
         11    1    3    3    0    0 -0.17353099093E+02 -0.14104373999E+02 -0.25138368817E+02  0.33645222559E+02  0.51100000000E-03 0. -1.
        -11    1    3    3    0    0 -0.51913223192E+01 -0.21085530734E+01 -0.86452724144E+01  0.10302259891E+02  0.51100000000E-03 0.  1.
         12    1    3    3    0    0  0.82468392756E+00 -0.47499788851E+00 -0.19777775032E+01  0.21948417771E+01  0.00000000000E+00 0. -1.
</event>
<event>
 7    1  0.3980989E-008  0.4614232E+02  0.7816164E-02  0.1320468E+00
        -11   -1    0    0    0    0  0.00000000000E+00  0.00000000000E+00  0.45593999997E+02  0.45594000000E+02  0.51100000000E-03 0.  1.
         11   -1    0    0    0    0 -0.00000000000E+00 -0.00000000000E+00 -0.45593999997E+02  0.45594000000E+02  0.51100000000E-03 0. -1.
    9900012    2    1    2    0    0 -0.10289914891E+02 -0.22511737296E+02 -0.37635790853E+02  0.46142318545E+02  0.10000007152E+02 0.  0.
        -12    1    1    2    0    0  0.10289914891E+02  0.22511737296E+02  0.37635790853E+02  0.45045681455E+02  0.00000000000E+00 0.  1.
         11    1    3    3    0    0 -0.42388029790E+01 -0.76048618036E+01 -0.19675036951E+02  0.21515307412E+02  0.51100000000E-03 0.  1.
        -11    1    3    3    0    0 -0.17655426753E+01 -0.88129272410E+01 -0.12473013235E+02  0.15374032877E+02  0.51100000000E-03 0. -1.
        -12    1    3    3    0    0 -0.42855692370E+01 -0.60939482514E+01 -0.54877406673E+01  0.92529782561E+01  0.00000000000E+00 0.  1.
</event>
<event>
 7    1  0.3980989E-008  0.4614232E+02  0.7816164E-02  0.1320468E+00
        -11   -1    0    0    0    0  0.00000000000E+00  0.00000000000E+00  0.45593999997E+02  0.45594000000E+02  0.51100000000E-03 0. -1.
         11   -1    0    0    0    0 -0.00000000000E+00 -0.00000000000E+00 -0.45593999997E+02  0.45594000000E+02  0.51100000000E-03 0.  1.
    9900012    2    1    2    0    0  0.19203161140E+02 -0.38527658142E+02 -0.13265435754E+02  0.46142316240E+02  0.99999861258E+01 0.  0.
        -12    1    1    2    0    0 -0.19203161140E+02  0.38527658142E+02  0.13265435754E+02  0.45045683760E+02  0.00000000000E+00 0.  1.
         11    1    3    3    0    0  0.25158622349E+00 -0.38673373987E+01 -0.16313518829E+01  0.42048666341E+01  0.51100000000E-03 0. -1.
        -11    1    3    3    0    0  0.13276331402E+02 -0.16063444197E+02 -0.64386340975E+01  0.21811722175E+02  0.51100000000E-03 0.  1.
         12    1    3    3    0    0  0.56752435151E+01 -0.18596876547E+02 -0.51954497737E+01  0.20125727430E+02  0.00000000000E+00 0. -1.
</event>
<event>
 7    1  0.3980989E-008  0.4614232E+02  0.7816164E-02  0.1320468E+00
        -11   -1    0    0    0    0  0.00000000000E+00  0.00000000000E+00  0.45593999997E+02  0.45594000000E+02  0.51100000000E-03 0.  1.
         11   -1    0    0    0    0 -0.00000000000E+00 -0.00000000000E+00 -0.45593999997E+02  0.45594000000E+02  0.51100000000E-03 0. -1.
    9900012    2    1    2    0    0  0.43219898751E+02  0.12312639295E+02 -0.30907227459E+01  0.46142319835E+02  0.10000018913E+02 0.  0.
        -12    1    1    2    0    0 -0.43219898751E+02 -0.12312639295E+02  0.30907227459E+01  0.45045680165E+02  0.00000000000E+00 0.  1.
         11    1    3    3    0    0  0.99002305148E+01  0.79247812582E+00  0.27275030851E+01  0.10299604806E+02  0.51100000000E-03 0.  1.
        -11    1    3    3    0    0  0.26050032982E+01  0.20616741803E+00 -0.10205870890E+00  0.26151411872E+01  0.51100000000E-03 0. -1.
         12    1    3    3    0    0  0.30714664938E+02  0.11313993751E+02 -0.57161671221E+01  0.33227573842E+02  0.00000000000E+00 0. -1.
</event>
<event>
 7    1  0.3980989E-008  0.4614232E+02  0.7816164E-02  0.1320468E+00
        -11   -1    0    0    0    0  0.00000000000E+00  0.00000000000E+00  0.45593999997E+02  0.45594000000E+02  0.51100000000E-03 0.  1.
         11   -1    0    0    0    0 -0.00000000000E+00 -0.00000000000E+00 -0.45593999997E+02  0.45594000000E+02  0.51100000000E-03 0. -1.
    9900012    2    1    2    0    0 -0.62595164413E+01 -0.43933151192E+02 -0.77337048804E+01  0.46142317511E+02  0.99999977179E+01 0.  0.
        -12    1    1    2    0    0  0.62595164413E+01  0.43933151192E+02  0.77337048804E+01  0.45045682489E+02  0.00000000000E+00 0.  1.
         11    1    3    3    0    0 -0.12830554192E+00 -0.24524032272E+02 -0.50643740932E+01  0.25041815158E+02  0.51100000000E-03 0. -1.
        -11    1    3    3    0    0 -0.76212526025E+00 -0.99995182314E+01 -0.42926968445E+00  0.10037702551E+02  0.51100000000E-03 0.  1.
        -12    1    3    3    0    0 -0.53690856392E+01 -0.94096006886E+01 -0.22400611028E+01  0.11062799802E+02  0.00000000000E+00 0.  1.
</event>
<event>
 7    1  0.3980989E-008  0.4614232E+02  0.7816164E-02  0.1320468E+00
        -11   -1    0    0    0    0  0.00000000000E+00  0.00000000000E+00  0.45593999997E+02  0.45594000000E+02  0.51100000000E-03 0. -1.
         11   -1    0    0    0    0 -0.00000000000E+00 -0.00000000000E+00 -0.45593999997E+02  0.45594000000E+02  0.51100000000E-03 0.  1.
    9900012    2    1    2    0    0 -0.24665058651E+02 -0.19543572479E+02 -0.32230375547E+02  0.46142318172E+02  0.10000003744E+02 0.  0.
        -12    1    1    2    0    0  0.24665058651E+02  0.19543572479E+02  0.32230375547E+02  0.45045681828E+02  0.00000000000E+00 0.  1.
         11    1    3    3    0    0 -0.10189389871E+02 -0.13686734381E+02 -0.14684328884E+02  0.22511772009E+02  0.51100000000E-03 0. -1.
        -11    1    3    3    0    0 -0.64679752216E+01 -0.28090876430E+01 -0.60400585105E+01  0.92848254656E+01  0.51100000000E-03 0.  1.
         12    1    3    3    0    0 -0.80076935583E+01 -0.30477504555E+01 -0.11505988152E+02  0.14345720697E+02  0.00000000000E+00 0. -1.
</event>
<event>
 7    1  0.3980989E-008  0.4614232E+02  0.7816164E-02  0.1320468E+00
        -11   -1    0    0    0    0  0.00000000000E+00  0.00000000000E+00  0.45593999997E+02  0.45594000000E+02  0.51100000000E-03 0.  1.
         11   -1    0    0    0    0 -0.00000000000E+00 -0.00000000000E+00 -0.45593999997E+02  0.45594000000E+02  0.51100000000E-03 0. -1.
    9900012    2    1    2    0    0 -0.88437068926E+01  0.27068794215E+02 -0.34902474897E+02  0.46142317346E+02  0.99999962135E+01 0.  0.
        -12    1    1    2    0    0  0.88437068926E+01 -0.27068794215E+02  0.34902474897E+02  0.45045682654E+02  0.00000000000E+00 0.  1.
         11    1    3    3    0    0 -0.19919415410E+01  0.88827958497E+01 -0.12650729914E+02  0.15585662027E+02  0.51100000000E-03 0.  1.
        -11    1    3    3    0    0  0.13781592981E+01  0.63267217003E+01 -0.61250404964E+01  0.89130719658E+01  0.51100000000E-03 0. -1.
        -12    1    3    3    0    0 -0.82299246498E+01  0.11859276665E+02 -0.16126704486E+02  0.21643583353E+02  0.00000000000E+00 0.  1.
</event>
<event>
 7    1  0.3980989E-008  0.4614232E+02  0.7816164E-02  0.1320468E+00
        -11   -1    0    0    0    0  0.00000000000E+00  0.00000000000E+00  0.45593999997E+02  0.45594000000E+02  0.51100000000E-03 0. -1.
         11   -1    0    0    0    0 -0.00000000000E+00 -0.00000000000E+00 -0.45593999997E+02  0.45594000000E+02  0.51100000000E-03 0.  1.
    9900012    2    1    2    0    0  0.30588060544E+02  0.95646469765E+01  0.31654409208E+02  0.46142317167E+02  0.99999945801E+01 0.  0.
        -12    1    1    2    0    0 -0.30588060544E+02 -0.95646469765E+01 -0.31654409208E+02  0.45045682833E+02  0.00000000000E+00 0.  1.
         11    1    3    3    0    0  0.24216134227E+01  0.15345474612E+01  0.59293725818E+01  0.65860843416E+01  0.51100000000E-03 0.  1.
        -11    1    3    3    0    0  0.79384760480E+01  0.49092726815E+01  0.57832098207E+01  0.10980249374E+02  0.51100000000E-03 0. -1.
        -12    1    3    3    0    0  0.20227971073E+02  0.31208268338E+01  0.19941826805E+02  0.28575983451E+02  0.00000000000E+00 0.  1.
</event>
<event>
 7    1  0.3980989E-008  0.4614232E+02  0.7816164E-02  0.1320468E+00
        -11   -1    0    0    0    0  0.00000000000E+00  0.00000000000E+00  0.45593999997E+02  0.45594000000E+02  0.51100000000E-03 0.  1.
         11   -1    0    0    0    0 -0.00000000000E+00 -0.00000000000E+00 -0.45593999997E+02  0.45594000000E+02  0.51100000000E-03 0. -1.
    9900012    2    1    2    0    0  0.32311018123E+02 -0.13655084464E+02 -0.28260402815E+02  0.46142316621E+02  0.99999896044E+01 0.  0.
        -12    1    1    2    0    0 -0.32311018123E+02  0.13655084464E+02  0.28260402815E+02  0.45045683379E+02  0.00000000000E+00 0.  1.
         11    1    3    3    0    0  0.16588817071E+02 -0.74010756147E+01 -0.10447178436E+02  0.20954911348E+02  0.51100000000E-03 0. -1.
        -11    1    3    3    0    0  0.13205492230E+02 -0.42698680751E+01 -0.11183760159E+02  0.17823952704E+02  0.51100000000E-03 0.  1.
        -12    1    3    3    0    0  0.25167088210E+01 -0.19841407743E+01 -0.66294642198E+01  0.73634525695E+01  0.00000000000E+00 0.  1.
</event>
<event>
 7    1  0.3980989E-008  0.4614230E+02  0.7816164E-02  0.1320468E+00
        -11   -1    0    0    0    0  0.00000000000E+00  0.00000000000E+00  0.45593999997E+02  0.45594000000E+02  0.51100000000E-03 0. -1.
         11   -1    0    0    0    0 -0.00000000000E+00 -0.00000000000E+00 -0.45593999997E+02  0.45594000000E+02  0.51100000000E-03 0.  1.
    9900012    2    1    2    0    0 -0.41350681805E+02 -0.79137735737E+01 -0.16018991028E+02  0.46142303519E+02  0.99998701262E+01 0.  0.
        -12    1    1    2    0    0  0.41350681805E+02  0.79137735737E+01  0.16018991028E+02  0.45045696481E+02  0.00000000000E+00 0.  1.
         11    1    3    3    0    0 -0.15889678479E+02 -0.21919264833E+01 -0.34830114422E+01  0.16413951165E+02  0.51100000000E-03 0. -1.
        -11    1    3    3    0    0 -0.55693698210E+01 -0.40351881426E+01 -0.20370569277E+01  0.71728812020E+01  0.51100000000E-03 0.  1.
         12    1    3    3    0    0 -0.19891633505E+02 -0.16866589478E+01 -0.10498922658E+02  0.22555471152E+02  0.00000000000E+00 0. -1.
</event>
<event>
 7    1  0.3980989E-008  0.4614232E+02  0.7816164E-02  0.1320468E+00
        -11   -1    0    0    0    0  0.00000000000E+00  0.00000000000E+00  0.45593999997E+02  0.45594000000E+02  0.51100000000E-03 0.  1.
         11   -1    0    0    0    0 -0.00000000000E+00 -0.00000000000E+00 -0.45593999997E+02  0.45594000000E+02  0.51100000000E-03 0. -1.
    9900012    2    1    2    0    0  0.22842151469E+02 -0.19614338008E+02 -0.33505631329E+02  0.46142317966E+02  0.10000001866E+02 0.  0.
        -12    1    1    2    0    0 -0.22842151469E+02  0.19614338008E+02  0.33505631329E+02  0.45045682034E+02  0.00000000000E+00 0.  1.
         11    1    3    3    0    0  0.13647594898E+02 -0.88980020345E+01 -0.14962516183E+02  0.22120311424E+02  0.51100000000E-03 0. -1.
        -11    1    3    3    0    0  0.54161131456E+01 -0.36530043080E+01 -0.12063965328E+02  0.13719255876E+02  0.51100000000E-03 0.  1.
        -12    1    3    3    0    0  0.37784434252E+01 -0.70633316651E+01 -0.64791498167E+01  0.10302750666E+02  0.00000000000E+00 0.  1.
</event>
<event>
 7    1  0.3980989E-008  0.4614232E+02  0.7816164E-02  0.1320468E+00
        -11   -1    0    0    0    0  0.00000000000E+00  0.00000000000E+00  0.45593999997E+02  0.45594000000E+02  0.51100000000E-03 0.  1.
         11   -1    0    0    0    0 -0.00000000000E+00 -0.00000000000E+00 -0.45593999997E+02  0.45594000000E+02  0.51100000000E-03 0. -1.
    9900012    2    1    2    0    0 -0.14953892241E+02 -0.41741058536E+02  0.79484995916E+01  0.46142317559E+02  0.99999981536E+01 0.  0.
        -12    1    1    2    0    0  0.14953892241E+02  0.41741058536E+02 -0.79484995916E+01  0.45045682441E+02  0.00000000000E+00 0.  1.
         11    1    3    3    0    0 -0.12683856937E+02 -0.28607976473E+02  0.52068530211E+01  0.31723932028E+02  0.51100000000E-03 0.  1.
        -11    1    3    3    0    0 -0.44383266921E+00 -0.85258530412E+01 -0.40649237378E+00  0.85470693123E+01  0.51100000000E-03 0. -1.
        -12    1    3    3    0    0 -0.18262026353E+01 -0.46072290213E+01  0.31481389443E+01  0.58713162180E+01  0.00000000000E+00 0.  1.
</event>
<event>
 7    1  0.3980989E-008  0.4614232E+02  0.7816164E-02  0.1320468E+00
        -11   -1    0    0    0    0  0.00000000000E+00  0.00000000000E+00  0.45593999997E+02  0.45594000000E+02  0.51100000000E-03 0.  1.
         11   -1    0    0    0    0 -0.00000000000E+00 -0.00000000000E+00 -0.45593999997E+02  0.45594000000E+02  0.51100000000E-03 0. -1.
    9900012    2    1    2    0    0 -0.17516635668E+02  0.92410691019E+01 -0.40458417815E+02  0.46142318128E+02  0.10000003342E+02 0.  0.
        -12    1    1    2    0    0  0.17516635668E+02 -0.92410691019E+01  0.40458417815E+02  0.45045681872E+02  0.00000000000E+00 0.  1.
         11    1    3    3    0    0 -0.20702423077E+01  0.33794025387E+01 -0.58277035113E+01  0.70475806634E+01  0.51100000000E-03 0. -1.
        -11    1    3    3    0    0 -0.21107274196E+01  0.38054533409E+01 -0.11773074948E+02  0.12551571191E+02  0.51100000000E-03 0.  1.
         12    1    3    3    0    0 -0.13335665940E+02  0.20562132224E+01 -0.22857639356E+02  0.26543166273E+02  0.00000000000E+00 0. -1.
</event>
<event>
 7    1  0.3980989E-008  0.4614232E+02  0.7816164E-02  0.1320468E+00
        -11   -1    0    0    0    0  0.00000000000E+00  0.00000000000E+00  0.45593999997E+02  0.45594000000E+02  0.51100000000E-03 0.  1.
         11   -1    0    0    0    0 -0.00000000000E+00 -0.00000000000E+00 -0.45593999997E+02  0.45594000000E+02  0.51100000000E-03 0. -1.
    9900012    2    1    2    0    0 -0.27481489179E+02 -0.13640407739E+02 -0.32982124515E+02  0.46142317540E+02  0.99999979828E+01 0.  0.
        -12    1    1    2    0    0  0.27481489179E+02  0.13640407739E+02  0.32982124515E+02  0.45045682460E+02  0.00000000000E+00 0.  1.
         11    1    3    3    0    0 -0.27232592676E+01  0.33300318583E+00 -0.55296565454E+01  0.61728546016E+01  0.51100000000E-03 0. -1.
        -11    1    3    3    0    0 -0.20464800063E+02 -0.97510453938E+01 -0.24062883486E+02  0.33059239099E+02  0.51100000000E-03 0.  1.
        -12    1    3    3    0    0 -0.42934298480E+01 -0.42223655305E+01 -0.33895844837E+01  0.69102238390E+01  0.00000000000E+00 0.  1.
</event>
<event>
 7    1  0.3980989E-008  0.4614232E+02  0.7816164E-02  0.1320468E+00
        -11   -1    0    0    0    0  0.00000000000E+00  0.00000000000E+00  0.45593999997E+02  0.45594000000E+02  0.51100000000E-03 0. -1.
         11   -1    0    0    0    0 -0.00000000000E+00 -0.00000000000E+00 -0.45593999997E+02  0.45594000000E+02  0.51100000000E-03 0.  1.
    9900012    2    1    2    0    0  0.27979551712E+02  0.17012517917E+02  0.30932703148E+02  0.46142320918E+02  0.10000028790E+02 0.  0.
        -12    1    1    2    0    0 -0.27979551712E+02 -0.17012517917E+02 -0.30932703148E+02  0.45045679082E+02  0.00000000000E+00 0.  1.
         11    1    3    3    0    0  0.47766263395E+00  0.72712072358E+00  0.10691795475E+00  0.87652601142E+00  0.51100000000E-03 0. -1.
        -11    1    3    3    0    0  0.13348629200E+02  0.29116851212E+01  0.12093614278E+02  0.18246076793E+02  0.51100000000E-03 0.  1.
         12    1    3    3    0    0  0.14153259878E+02  0.13373712072E+02  0.18732170915E+02  0.27019718114E+02  0.00000000000E+00 0. -1.
</event>
<event>
 7    1  0.3980989E-008  0.4614232E+02  0.7816164E-02  0.1320468E+00
        -11   -1    0    0    0    0  0.00000000000E+00  0.00000000000E+00  0.45593999997E+02  0.45594000000E+02  0.51100000000E-03 0. -1.
         11   -1    0    0    0    0 -0.00000000000E+00 -0.00000000000E+00 -0.45593999997E+02  0.45594000000E+02  0.51100000000E-03 0.  1.
    9900012    2    1    2    0    0 -0.96819535759E+00  0.34996638574E+02  0.28344510362E+02  0.46142318948E+02  0.10000010827E+02 0.  0.
        -12    1    1    2    0    0  0.96819535759E+00 -0.34996638574E+02 -0.28344510362E+02  0.45045681052E+02  0.00000000000E+00 0.  1.
         11    1    3    3    0    0  0.38020341496E+00  0.26872823979E+02  0.18533480607E+02  0.32646334050E+02  0.51100000000E-03 0. -1.
        -11    1    3    3    0    0  0.70184015251E+00  0.54894030759E+01  0.79122100460E+01  0.96555265937E+01  0.51100000000E-03 0.  1.
        -12    1    3    3    0    0 -0.20502389251E+01  0.26344115191E+01  0.18988197094E+01  0.38404583047E+01  0.00000000000E+00 0.  1.
</event>
<event>
 7    1  0.3980989E-008  0.4614232E+02  0.7816164E-02  0.1320468E+00
        -11   -1    0    0    0    0  0.00000000000E+00  0.00000000000E+00  0.45593999997E+02  0.45594000000E+02  0.51100000000E-03 0.  1.
         11   -1    0    0    0    0 -0.00000000000E+00 -0.00000000000E+00 -0.45593999997E+02  0.45594000000E+02  0.51100000000E-03 0. -1.
    9900012    2    1    2    0    0 -0.10021214291E+02 -0.80342517508E+01 -0.43175682840E+02  0.46142317346E+02  0.99999962163E+01 0.  0.
        -12    1    1    2    0    0  0.10021214291E+02  0.80342517508E+01  0.43175682840E+02  0.45045682654E+02  0.00000000000E+00 0.  1.
         11    1    3    3    0    0 -0.41032756580E+01 -0.13661160911E+01 -0.10134547238E+02  0.11018720083E+02  0.51100000000E-03 0. -1.
        -11    1    3    3    0    0 -0.18562491116E+01  0.13134542416E+01 -0.12646363119E+02  0.12849175974E+02  0.51100000000E-03 0.  1.
        -12    1    3    3    0    0 -0.40616895216E+01 -0.79815899012E+01 -0.20394772483E+02  0.22274421289E+02  0.00000000000E+00 0.  1.
</event>
<event>
 7    1  0.4251076E-008  0.4614232E+02  0.7816164E-02  0.1320468E+00
        -11   -1    0    0    0    0  0.00000000000E+00  0.00000000000E+00  0.45593999997E+02  0.45594000000E+02  0.51100000000E-03 0.  1.
         11   -1    0    0    0    0 -0.00000000000E+00 -0.00000000000E+00 -0.45593999997E+02  0.45594000000E+02  0.51100000000E-03 0. -1.
    9900012    2    1    2    0    0 -0.64189936956E+01 -0.35945681980E+02 -0.26378362166E+02  0.46142317370E+02  0.99999964293E+01 0.  0.
        -12    1    1    2    0    0  0.64189936956E+01  0.35945681980E+02  0.26378362166E+02  0.45045682630E+02  0.00000000000E+00 0.  1.
         11    1    3    3    0    0 -0.33880275402E+01 -0.11394214194E+02 -0.51918590113E+01  0.12971593887E+02  0.51100000000E-03 0. -1.
        -11    1    3    3    0    0 -0.11645058479E+01 -0.38497384770E+00 -0.58000140496E+00  0.13567168548E+01  0.51100000000E-03 0.  1.
         12    1    3    3    0    0 -0.18664603075E+01 -0.24166493939E+02 -0.20606501750E+02  0.31814006628E+02  0.00000000000E+00 0. -1.
</event>
<event>
 7    1  0.3980989E-008  0.4614232E+02  0.7816164E-02  0.1320468E+00
        -11   -1    0    0    0    0  0.00000000000E+00  0.00000000000E+00  0.45593999997E+02  0.45594000000E+02  0.51100000000E-03 0.  1.
         11   -1    0    0    0    0 -0.00000000000E+00 -0.00000000000E+00 -0.45593999997E+02  0.45594000000E+02  0.51100000000E-03 0. -1.
    9900012    2    1    2    0    0 -0.38668592190E+02  0.16145290224E+02 -0.16528236279E+02  0.46142323039E+02  0.10000048128E+02 0.  0.
        -12    1    1    2    0    0  0.38668592190E+02 -0.16145290224E+02  0.16528236279E+02  0.45045676961E+02  0.00000000000E+00 0.  1.
         11    1    3    3    0    0 -0.77393983934E+01 -0.33333846600E+00 -0.46334688753E+01  0.90265406499E+01  0.51100000000E-03 0. -1.
        -11    1    3    3    0    0 -0.16143138537E+02  0.10177341449E+02 -0.62637575020E+01  0.20085165150E+02  0.51100000000E-03 0.  1.
         12    1    3    3    0    0 -0.14786055260E+02  0.63012872408E+01 -0.56310099022E+01  0.17030617239E+02  0.00000000000E+00 0. -1.
</event>
<event>
 7    1  0.3980989E-008  0.4614232E+02  0.7816164E-02  0.1320468E+00
        -11   -1    0    0    0    0  0.00000000000E+00  0.00000000000E+00  0.45593999997E+02  0.45594000000E+02  0.51100000000E-03 0. -1.
         11   -1    0    0    0    0 -0.00000000000E+00 -0.00000000000E+00 -0.45593999997E+02  0.45594000000E+02  0.51100000000E-03 0.  1.
    9900012    2    1    2    0    0 -0.42259553098E+01  0.41649791337E+02  0.16629783156E+02  0.46142317582E+02  0.99999983697E+01 0.  0.
        -12    1    1    2    0    0  0.42259553098E+01 -0.41649791337E+02 -0.16629783156E+02  0.45045682418E+02  0.00000000000E+00 0.  1.
         11    1    3    3    0    0  0.10866750489E+01  0.12569817672E+02  0.90170274641E+01  0.15507674342E+02  0.51100000000E-03 0. -1.
        -11    1    3    3    0    0 -0.11702206186E+01  0.36751255637E+01  0.26470392368E+00  0.38660099112E+01  0.51100000000E-03 0.  1.
        -12    1    3    3    0    0 -0.41424097401E+01  0.25404848101E+02  0.73480517683E+01  0.26768633329E+02  0.00000000000E+00 0.  1.
</event>
<event>
 7    1  0.3980989E-008  0.4614231E+02  0.7816164E-02  0.1320468E+00
        -11   -1    0    0    0    0  0.00000000000E+00  0.00000000000E+00  0.45593999997E+02  0.45594000000E+02  0.51100000000E-03 0. -1.
         11   -1    0    0    0    0 -0.00000000000E+00 -0.00000000000E+00 -0.45593999997E+02  0.45594000000E+02  0.51100000000E-03 0.  1.
    9900012    2    1    2    0    0  0.31188585035E+02  0.17557013112E+02  0.27352096785E+02  0.46142314919E+02  0.99999740840E+01 0.  0.
        -12    1    1    2    0    0 -0.31188585035E+02 -0.17557013112E+02 -0.27352096785E+02  0.45045685081E+02  0.00000000000E+00 0.  1.
         11    1    3    3    0    0  0.56373983644E+01  0.19738819334E+01  0.11507654584E+01  0.60828226678E+01  0.51100000000E-03 0. -1.
        -11    1    3    3    0    0  0.37161091873E+01  0.39212548457E+01  0.62865405674E+01  0.82889263251E+01  0.51100000000E-03 0.  1.
         12    1    3    3    0    0  0.21835077483E+02  0.11661876332E+02  0.19914790760E+02  0.31770565926E+02  0.00000000000E+00 0. -1.
</event>
<event>
 7    1  0.3980989E-008  0.4614232E+02  0.7816164E-02  0.1320468E+00
        -11   -1    0    0    0    0  0.00000000000E+00  0.00000000000E+00  0.45593999997E+02  0.45594000000E+02  0.51100000000E-03 0.  1.
         11   -1    0    0    0    0 -0.00000000000E+00 -0.00000000000E+00 -0.45593999997E+02  0.45594000000E+02  0.51100000000E-03 0. -1.
    9900012    2    1    2    0    0 -0.24731195356E+01 -0.34725426350E+02 -0.28585694209E+02  0.46142317978E+02  0.10000001980E+02 0.  0.
        -12    1    1    2    0    0  0.24731195356E+01  0.34725426350E+02  0.28585694209E+02  0.45045682022E+02  0.00000000000E+00 0.  1.
         11    1    3    3    0    0 -0.50392345016E+00 -0.30567236196E+01 -0.64527483085E+01  0.71578948808E+01  0.51100000000E-03 0. -1.
        -11    1    3    3    0    0 -0.14926805894E+01 -0.25128381164E+01 -0.22996673091E+01  0.37189945866E+01  0.51100000000E-03 0.  1.
         12    1    3    3    0    0 -0.47651549609E+00 -0.29155864614E+02 -0.19833278591E+02  0.35265428511E+02  0.00000000000E+00 0. -1.
</event>
<event>
 7    1  0.3980989E-008  0.4614232E+02  0.7816164E-02  0.1320468E+00
        -11   -1    0    0    0    0  0.00000000000E+00  0.00000000000E+00  0.45593999997E+02  0.45594000000E+02  0.51100000000E-03 0.  1.
         11   -1    0    0    0    0 -0.00000000000E+00 -0.00000000000E+00 -0.45593999997E+02  0.45594000000E+02  0.51100000000E-03 0. -1.
    9900012    2    1    2    0    0 -0.56582761205E+01  0.17158589770E+02 -0.41263545762E+02  0.46142317628E+02  0.99999987838E+01 0.  0.
        -12    1    1    2    0    0  0.56582761205E+01 -0.17158589770E+02  0.41263545762E+02  0.45045682372E+02  0.00000000000E+00 0.  1.
         11    1    3    3    0    0 -0.27800067065E+01  0.17073490899E+02 -0.31668589433E+02  0.36085067350E+02  0.51100000000E-03 0. -1.
        -11    1    3    3    0    0 -0.66389933514E+00  0.40116353574E+00 -0.23277859684E+01  0.24536263541E+01  0.51100000000E-03 0.  1.
         12    1    3    3    0    0 -0.22143700789E+01 -0.31606466426E+00 -0.72671703607E+01  0.76036239235E+01  0.00000000000E+00 0. -1.
</event>
<event>
 7    1  0.3980989E-008  0.4614232E+02  0.7816164E-02  0.1320468E+00
        -11   -1    0    0    0    0  0.00000000000E+00  0.00000000000E+00  0.45593999997E+02  0.45594000000E+02  0.51100000000E-03 0.  1.
         11   -1    0    0    0    0 -0.00000000000E+00 -0.00000000000E+00 -0.45593999997E+02  0.45594000000E+02  0.51100000000E-03 0. -1.
    9900012    2    1    2    0    0 -0.36495708933E+02  0.75151417923E+01 -0.25312039240E+02  0.46142318107E+02  0.10000003154E+02 0.  0.
        -12    1    1    2    0    0  0.36495708933E+02 -0.75151417923E+01  0.25312039240E+02  0.45045681893E+02  0.00000000000E+00 0.  1.
         11    1    3    3    0    0 -0.11808153126E+02  0.34394264578E+01 -0.60995830300E+01  0.13728330124E+02  0.51100000000E-03 0. -1.
        -11    1    3    3    0    0 -0.78632837149E+01  0.42065122568E+01 -0.93074416411E+01  0.12890091012E+02  0.51100000000E-03 0.  1.
         12    1    3    3    0    0 -0.16824272093E+02 -0.13079692231E+00 -0.99050145692E+01  0.19523896970E+02  0.00000000000E+00 0. -1.
</event>
<event>
 7    1  0.3980989E-008  0.4614232E+02  0.7816164E-02  0.1320468E+00
        -11   -1    0    0    0    0  0.00000000000E+00  0.00000000000E+00  0.45593999997E+02  0.45594000000E+02  0.51100000000E-03 0.  1.
         11   -1    0    0    0    0 -0.00000000000E+00 -0.00000000000E+00 -0.45593999997E+02  0.45594000000E+02  0.51100000000E-03 0. -1.
    9900012    2    1    2    0    0 -0.19928330079E+02  0.40255164464E+02 -0.33907067091E+01  0.46142317657E+02  0.99999990528E+01 0.  0.
        -12    1    1    2    0    0  0.19928330079E+02 -0.40255164464E+02  0.33907067091E+01  0.45045682343E+02  0.00000000000E+00 0.  1.
         11    1    3    3    0    0 -0.61020863563E+01  0.12746777817E+02 -0.51466284069E+01  0.15040066052E+02  0.51100000000E-03 0. -1.
        -11    1    3    3    0    0 -0.63942147228E+01  0.12395263523E+02  0.28101361743E+01  0.14227628239E+02  0.51100000000E-03 0.  1.
        -12    1    3    3    0    0 -0.74320289995E+01  0.15113123123E+02 -0.10542144765E+01  0.16874623366E+02  0.00000000000E+00 0.  1.
</event>
<event>
 7    1  0.3980989E-008  0.4614232E+02  0.7816164E-02  0.1320468E+00
        -11   -1    0    0    0    0  0.00000000000E+00  0.00000000000E+00  0.45593999997E+02  0.45594000000E+02  0.51100000000E-03 0.  1.
         11   -1    0    0    0    0 -0.00000000000E+00 -0.00000000000E+00 -0.45593999997E+02  0.45594000000E+02  0.51100000000E-03 0. -1.
    9900012    2    1    2    0    0 -0.26308931034E+02  0.28992093369E+02 -0.22280309085E+02  0.46142317599E+02  0.99999985192E+01 0.  0.
        -12    1    1    2    0    0  0.26308931034E+02 -0.28992093369E+02  0.22280309085E+02  0.45045682401E+02  0.00000000000E+00 0.  1.
         11    1    3    3    0    0 -0.16554421076E+02  0.19844931006E+02 -0.19204963598E+02  0.32197837985E+02  0.51100000000E-03 0. -1.
        -11    1    3    3    0    0  0.12561028907E-01  0.27032968428E+00 -0.39179740664E+00  0.47617369375E+00  0.51100000000E-03 0.  1.
         12    1    3    3    0    0 -0.97670709867E+01  0.88768326789E+01 -0.26835480798E+01  0.13468305920E+02  0.00000000000E+00 0. -1.
</event>
<event>
 7    1  0.3980989E-008  0.4614232E+02  0.7816164E-02  0.1320468E+00
        -11   -1    0    0    0    0  0.00000000000E+00  0.00000000000E+00  0.45593999997E+02  0.45594000000E+02  0.51100000000E-03 0.  1.
         11   -1    0    0    0    0 -0.00000000000E+00 -0.00000000000E+00 -0.45593999997E+02  0.45594000000E+02  0.51100000000E-03 0. -1.
    9900012    2    1    2    0    0  0.38128588177E+02  0.21752051465E+02 -0.10108047370E+02  0.46142316511E+02  0.99999886015E+01 0.  0.
        -12    1    1    2    0    0 -0.38128588177E+02 -0.21752051465E+02  0.10108047370E+02  0.45045683489E+02  0.00000000000E+00 0.  1.
         11    1    3    3    0    0  0.12576749021E+02  0.74941787841E+01 -0.72804467191E+01  0.16350603545E+02  0.51100000000E-03 0. -1.
        -11    1    3    3    0    0  0.19128561376E+02  0.85730743978E+01 -0.32067593204E+01  0.21205724947E+02  0.51100000000E-03 0.  1.
         12    1    3    3    0    0  0.64232777806E+01  0.56847982834E+01  0.37915866935E+00  0.85859880192E+01  0.00000000000E+00 0. -1.
</event>
<event>
 7    1  0.3980989E-008  0.4614232E+02  0.7816164E-02  0.1320468E+00
        -11   -1    0    0    0    0  0.00000000000E+00  0.00000000000E+00  0.45593999997E+02  0.45594000000E+02  0.51100000000E-03 0.  1.
         11   -1    0    0    0    0 -0.00000000000E+00 -0.00000000000E+00 -0.45593999997E+02  0.45594000000E+02  0.51100000000E-03 0. -1.
    9900012    2    1    2    0    0  0.10214533235E+02  0.78438185101E+01 -0.43165394979E+02  0.46142317613E+02  0.99999986501E+01 0.  0.
        -12    1    1    2    0    0 -0.10214533235E+02 -0.78438185101E+01  0.43165394979E+02  0.45045682387E+02  0.00000000000E+00 0.  1.
         11    1    3    3    0    0  0.10534829516E+01  0.25453257938E+01 -0.16389596520E+02  0.16619488081E+02  0.51100000000E-03 0. -1.
        -11    1    3    3    0    0  0.47226498170E+01  0.60566838506E+01 -0.13874973689E+02  0.15858806251E+02  0.51100000000E-03 0.  1.
        -12    1    3    3    0    0  0.44384004666E+01 -0.75819113436E+00 -0.12900824769E+02  0.13664023281E+02  0.00000000000E+00 0.  1.
</event>
<event>
 7    1  0.3980989E-008  0.4614232E+02  0.7816164E-02  0.1320468E+00
        -11   -1    0    0    0    0  0.00000000000E+00  0.00000000000E+00  0.45593999997E+02  0.45594000000E+02  0.51100000000E-03 0. -1.
         11   -1    0    0    0    0 -0.00000000000E+00 -0.00000000000E+00 -0.45593999997E+02  0.45594000000E+02  0.51100000000E-03 0.  1.
    9900012    2    1    2    0    0 -0.20493765904E+02  0.17800030525E+02  0.35948268554E+02  0.46142317192E+02  0.99999948070E+01 0.  0.
        -12    1    1    2    0    0  0.20493765904E+02 -0.17800030525E+02 -0.35948268554E+02  0.45045682808E+02  0.00000000000E+00 0.  1.
         11    1    3    3    0    0 -0.62671751465E+01  0.54267651315E+01  0.82205745074E+01  0.11674977927E+02  0.51100000000E-03 0. -1.
        -11    1    3    3    0    0 -0.83081009739E+01  0.95035277771E+01  0.23418603463E+02  0.26603995385E+02  0.51100000000E-03 0.  1.
        -12    1    3    3    0    0 -0.59184897840E+01  0.28697376168E+01  0.43090905830E+01  0.78633438794E+01  0.00000000000E+00 0.  1.
</event>
<event>
 7    1  0.3980989E-008  0.4614232E+02  0.7816164E-02  0.1320468E+00
        -11   -1    0    0    0    0  0.00000000000E+00  0.00000000000E+00  0.45593999997E+02  0.45594000000E+02  0.51100000000E-03 0. -1.
         11   -1    0    0    0    0 -0.00000000000E+00 -0.00000000000E+00 -0.45593999997E+02  0.45594000000E+02  0.51100000000E-03 0.  1.
    9900012    2    1    2    0    0  0.31414133166E+02 -0.31827582055E+02 -0.54102454087E+01  0.46142317661E+02  0.99999990832E+01 0.  0.
        -12    1    1    2    0    0 -0.31414133166E+02  0.31827582055E+02  0.54102454087E+01  0.45045682339E+02  0.00000000000E+00 0.  1.
         11    1    3    3    0    0  0.11171435630E+02 -0.96945222394E+01 -0.36817243250E+01  0.15242697588E+02  0.51100000000E-03 0. -1.
        -11    1    3    3    0    0  0.94197481500E+01 -0.78836107748E+01 -0.38690769452E+01  0.12878382302E+02  0.51100000000E-03 0.  1.
        -12    1    3    3    0    0  0.10822949386E+02 -0.14249449041E+02  0.21405558616E+01  0.18021237770E+02  0.00000000000E+00 0.  1.
</event>
<event>
 7    1  0.3980989E-008  0.4614232E+02  0.7816164E-02  0.1320468E+00
        -11   -1    0    0    0    0  0.00000000000E+00  0.00000000000E+00  0.45593999997E+02  0.45594000000E+02  0.51100000000E-03 0.  1.
         11   -1    0    0    0    0 -0.00000000000E+00 -0.00000000000E+00 -0.45593999997E+02  0.45594000000E+02  0.51100000000E-03 0. -1.
    9900012    2    1    2    0    0  0.34559893715E+02  0.28641690225E+02 -0.37922006055E+01  0.46142318099E+02  0.10000003078E+02 0.  0.
        -12    1    1    2    0    0 -0.34559893715E+02 -0.28641690225E+02  0.37922006055E+01  0.45045681901E+02  0.00000000000E+00 0.  1.
         11    1    3    3    0    0  0.50977364875E+01  0.29163469058E+01  0.69605595562E+00  0.59140925530E+01  0.51100000000E-03 0. -1.
        -11    1    3    3    0    0  0.28633464988E+02  0.25133389640E+02 -0.27309233347E+01  0.38197127307E+02  0.51100000000E-03 0.  1.
        -12    1    3    3    0    0  0.82869223971E+00  0.59195367938E+00 -0.17573332265E+01  0.20310982388E+01  0.00000000000E+00 0.  1.
</event>
<event>
 7    1  0.3980989E-008  0.4614232E+02  0.7816164E-02  0.1320468E+00
        -11   -1    0    0    0    0  0.00000000000E+00  0.00000000000E+00  0.45593999997E+02  0.45594000000E+02  0.51100000000E-03 0.  1.
         11   -1    0    0    0    0 -0.00000000000E+00 -0.00000000000E+00 -0.45593999997E+02  0.45594000000E+02  0.51100000000E-03 0. -1.
    9900012    2    1    2    0    0  0.49236743931E+01  0.86176754903E+01 -0.43938666076E+02  0.46142320108E+02  0.10000021405E+02 0.  0.
        -12    1    1    2    0    0 -0.49236743931E+01 -0.86176754903E+01  0.43938666076E+02  0.45045679892E+02  0.00000000000E+00 0.  1.
         11    1    3    3    0    0  0.15479688228E+00  0.57558756550E+01 -0.15330020738E+02  0.16375701595E+02  0.51100000000E-03 0.  1.
        -11    1    3    3    0    0  0.15582049136E+01 -0.13700059065E+01 -0.32370510247E+01  0.38449211090E+01  0.51100000000E-03 0. -1.
         12    1    3    3    0    0  0.32106725971E+01  0.42318057419E+01 -0.25371594313E+02  0.25921697405E+02  0.00000000000E+00 0. -1.
</event>
<event>
 7    1  0.3980989E-008  0.4614232E+02  0.7816164E-02  0.1320468E+00
        -11   -1    0    0    0    0  0.00000000000E+00  0.00000000000E+00  0.45593999997E+02  0.45594000000E+02  0.51100000000E-03 0.  1.
         11   -1    0    0    0    0 -0.00000000000E+00 -0.00000000000E+00 -0.45593999997E+02  0.45594000000E+02  0.51100000000E-03 0. -1.
    9900012    2    1    2    0    0 -0.41037815279E+02 -0.10656718008E+01 -0.18543886474E+02  0.46142315803E+02  0.99999821453E+01 0.  0.
        -12    1    1    2    0    0  0.41037815279E+02  0.10656718008E+01  0.18543886474E+02  0.45045684197E+02  0.00000000000E+00 0.  1.
         11    1    3    3    0    0 -0.22013820699E+02  0.22991222266E+00 -0.13023492439E+02  0.25578751279E+02  0.51100000000E-03 0. -1.
        -11    1    3    3    0    0 -0.18826809066E+02 -0.12906144299E+01 -0.61941185851E+01  0.19861559116E+02  0.51100000000E-03 0.  1.
        -12    1    3    3    0    0 -0.19718551286E+00 -0.49695936095E-02  0.67372455024E+00  0.70200540806E+00  0.00000000000E+00 0.  1.
</event>
<event>
 7    1  0.3980989E-008  0.4614232E+02  0.7816164E-02  0.1320468E+00
        -11   -1    0    0    0    0  0.00000000000E+00  0.00000000000E+00  0.45593999997E+02  0.45594000000E+02  0.51100000000E-03 0.  1.
         11   -1    0    0    0    0 -0.00000000000E+00 -0.00000000000E+00 -0.45593999997E+02  0.45594000000E+02  0.51100000000E-03 0. -1.
    9900012    2    1    2    0    0  0.28827221009E+02  0.15579987229E+02 -0.30909040658E+02  0.46142317992E+02  0.10000002107E+02 0.  0.
        -12    1    1    2    0    0 -0.28827221009E+02 -0.15579987229E+02  0.30909040658E+02  0.45045682008E+02  0.00000000000E+00 0.  1.
         11    1    3    3    0    0  0.84423102213E+01  0.70479493843E+01 -0.12140780628E+02  0.16381231545E+02  0.51100000000E-03 0. -1.
        -11    1    3    3    0    0  0.60365086173E+01  0.16811164859E+01 -0.94283776750E+01  0.11320772711E+02  0.51100000000E-03 0.  1.
        -12    1    3    3    0    0  0.14348402170E+02  0.68509213590E+01 -0.93398823548E+01  0.18440313737E+02  0.00000000000E+00 0.  1.
</event>
<event>
 7    1  0.3980989E-008  0.4614232E+02  0.7816164E-02  0.1320468E+00
        -11   -1    0    0    0    0  0.00000000000E+00  0.00000000000E+00  0.45593999997E+02  0.45594000000E+02  0.51100000000E-03 0. -1.
         11   -1    0    0    0    0 -0.00000000000E+00 -0.00000000000E+00 -0.45593999997E+02  0.45594000000E+02  0.51100000000E-03 0.  1.
    9900012    2    1    2    0    0 -0.11049672544E+02  0.33821736567E+02  0.27624415181E+02  0.46142318278E+02  0.10000004709E+02 0.  0.
        -12    1    1    2    0    0  0.11049672544E+02 -0.33821736567E+02 -0.27624415181E+02  0.45045681722E+02  0.00000000000E+00 0.  1.
         11    1    3    3    0    0  0.62258291132E+00  0.54154102248E+01  0.14540773804E+01  0.56416858007E+01  0.51100000000E-03 0.  1.
        -11    1    3    3    0    0 -0.17805021758E+01  0.74052970689E+01  0.52464911260E+01  0.92484745809E+01  0.51100000000E-03 0. -1.
         12    1    3    3    0    0 -0.98917532797E+01  0.21001029273E+02  0.20923846675E+02  0.31252157896E+02  0.00000000000E+00 0. -1.
</event>
<event>
 7    1  0.3980989E-008  0.4614232E+02  0.7816164E-02  0.1320468E+00
        -11   -1    0    0    0    0  0.00000000000E+00  0.00000000000E+00  0.45593999997E+02  0.45594000000E+02  0.51100000000E-03 0.  1.
         11   -1    0    0    0    0 -0.00000000000E+00 -0.00000000000E+00 -0.45593999997E+02  0.45594000000E+02  0.51100000000E-03 0. -1.
    9900012    2    1    2    0    0 -0.29580271889E+02  0.30589634152E+02 -0.14778200916E+02  0.46142318466E+02  0.10000006424E+02 0.  0.
        -12    1    1    2    0    0  0.29580271889E+02 -0.30589634152E+02  0.14778200916E+02  0.45045681534E+02  0.00000000000E+00 0.  1.
         11    1    3    3    0    0 -0.12324051342E+02  0.18533401910E+02 -0.54983074036E+01  0.22925981165E+02  0.51100000000E-03 0. -1.
        -11    1    3    3    0    0 -0.40489322125E+01  0.21034780439E+01 -0.80313631344E+00  0.46328716949E+01  0.51100000000E-03 0.  1.
        -12    1    3    3    0    0 -0.13207288335E+02  0.99527541980E+01 -0.84767571993E+01  0.18583465605E+02  0.00000000000E+00 0.  1.
</event>
<event>
 7    1  0.3980989E-008  0.4614232E+02  0.7816164E-02  0.1320468E+00
        -11   -1    0    0    0    0  0.00000000000E+00  0.00000000000E+00  0.45593999997E+02  0.45594000000E+02  0.51100000000E-03 0. -1.
         11   -1    0    0    0    0 -0.00000000000E+00 -0.00000000000E+00 -0.45593999997E+02  0.45594000000E+02  0.51100000000E-03 0.  1.
    9900012    2    1    2    0    0  0.11859846867E+02  0.43115820817E+02  0.54298760167E+01  0.46142317343E+02  0.99999961902E+01 0.  0.
        -12    1    1    2    0    0 -0.11859846867E+02 -0.43115820817E+02 -0.54298760167E+01  0.45045682657E+02  0.00000000000E+00 0.  1.
         11    1    3    3    0    0  0.14151802259E+01  0.30825017497E+01  0.31838136016E+01  0.46520126203E+01  0.51100000000E-03 0.  1.
        -11    1    3    3    0    0  0.41904451262E+01  0.14263326806E+02 -0.12269940544E+00  0.14866653199E+02  0.51100000000E-03 0. -1.
        -12    1    3    3    0    0  0.62542215147E+01  0.25769992262E+02  0.23687618206E+01  0.26623651524E+02  0.00000000000E+00 0.  1.
</event>
<event>
 7    1  0.3980989E-008  0.4614232E+02  0.7816164E-02  0.1320468E+00
        -11   -1    0    0    0    0  0.00000000000E+00  0.00000000000E+00  0.45593999997E+02  0.45594000000E+02  0.51100000000E-03 0.  1.
         11   -1    0    0    0    0 -0.00000000000E+00 -0.00000000000E+00 -0.45593999997E+02  0.45594000000E+02  0.51100000000E-03 0. -1.
    9900012    2    1    2    0    0 -0.87145686245E+01  0.18626813132E+02 -0.40077569149E+02  0.46142318490E+02  0.10000006649E+02 0.  0.
        -12    1    1    2    0    0  0.87145686245E+01 -0.18626813132E+02  0.40077569149E+02  0.45045681510E+02  0.00000000000E+00 0.  1.
         11    1    3    3    0    0 -0.72831477491E+00  0.11959700580E+02 -0.22438712013E+02  0.25437387394E+02  0.51100000000E-03 0. -1.
        -11    1    3    3    0    0 -0.18116680752E+01  0.44669459891E+00 -0.48900392589E+01  0.52339432070E+01  0.51100000000E-03 0.  1.
         12    1    3    3    0    0 -0.61745857743E+01  0.62204179527E+01 -0.12748817877E+02  0.15470987889E+02  0.00000000000E+00 0. -1.
</event>
<event>
 7    1  0.3980989E-008  0.4614232E+02  0.7816164E-02  0.1320468E+00
        -11   -1    0    0    0    0  0.00000000000E+00  0.00000000000E+00  0.45593999997E+02  0.45594000000E+02  0.51100000000E-03 0.  1.
         11   -1    0    0    0    0 -0.00000000000E+00 -0.00000000000E+00 -0.45593999997E+02  0.45594000000E+02  0.51100000000E-03 0. -1.
    9900012    2    1    2    0    0  0.15404537506E+02  0.32343045380E+01 -0.42206078813E+02  0.46142316629E+02  0.99999896779E+01 0.  0.
        -12    1    1    2    0    0 -0.15404537506E+02 -0.32343045380E+01  0.42206078813E+02  0.45045683371E+02  0.00000000000E+00 0.  1.
         11    1    3    3    0    0  0.13579201279E+02  0.26312903462E+01 -0.40065059223E+02  0.42385461741E+02  0.51100000000E-03 0. -1.
        -11    1    3    3    0    0 -0.37086332785E+00  0.68522225233E+00 -0.15438677529E+00  0.79429508405E+00  0.51100000000E-03 0.  1.
         12    1    3    3    0    0  0.21961995550E+01 -0.82208060531E-01 -0.19866328146E+01  0.29625598037E+01  0.00000000000E+00 0. -1.
</event>
<event>
 7    1  0.3980989E-008  0.4614232E+02  0.7816164E-02  0.1320468E+00
        -11   -1    0    0    0    0  0.00000000000E+00  0.00000000000E+00  0.45593999997E+02  0.45594000000E+02  0.51100000000E-03 0. -1.
         11   -1    0    0    0    0 -0.00000000000E+00 -0.00000000000E+00 -0.45593999997E+02  0.45594000000E+02  0.51100000000E-03 0.  1.
    9900012    2    1    2    0    0  0.37696127820E+02  0.19240772537E+00  0.24659242434E+02  0.46142319732E+02  0.10000017976E+02 0.  0.
        -12    1    1    2    0    0 -0.37696127820E+02 -0.19240772537E+00 -0.24659242434E+02  0.45045680268E+02  0.00000000000E+00 0.  1.
         11    1    3    3    0    0  0.49854294882E+01 -0.57522711107E+00  0.86823006462E+00  0.50930557740E+01  0.51100000000E-03 0. -1.
        -11    1    3    3    0    0  0.20426945086E+02 -0.26457766756E+01  0.16258168098E+02  0.26240965110E+02  0.51100000000E-03 0.  1.
         12    1    3    3    0    0  0.12283753246E+02  0.34134115120E+01  0.75328442712E+01  0.14808298848E+02  0.00000000000E+00 0. -1.
</event>
<event>
 7    1  0.3980989E-008  0.4614232E+02  0.7816164E-02  0.1320468E+00
        -11   -1    0    0    0    0  0.00000000000E+00  0.00000000000E+00  0.45593999997E+02  0.45594000000E+02  0.51100000000E-03 0.  1.
         11   -1    0    0    0    0 -0.00000000000E+00 -0.00000000000E+00 -0.45593999997E+02  0.45594000000E+02  0.51100000000E-03 0. -1.
    9900012    2    1    2    0    0 -0.23379100418E+01 -0.28703654621E+02 -0.34637376228E+02  0.46142318254E+02  0.10000004496E+02 0.  0.
        -12    1    1    2    0    0  0.23379100418E+01  0.28703654621E+02  0.34637376228E+02  0.45045681746E+02  0.00000000000E+00 0.  1.
         11    1    3    3    0    0 -0.35511612546E+00 -0.11257729977E+02 -0.10084539945E+02  0.15118218739E+02  0.51100000000E-03 0. -1.
        -11    1    3    3    0    0  0.11505193807E+01 -0.14793899289E+02 -0.19818140672E+02  0.24757662470E+02  0.51100000000E-03 0.  1.
         12    1    3    3    0    0 -0.31333132971E+01 -0.26520253548E+01 -0.47346956115E+01  0.62664370446E+01  0.00000000000E+00 0. -1.
</event>
<event>
 7    1  0.3980989E-008  0.4614232E+02  0.7816164E-02  0.1320468E+00
        -11   -1    0    0    0    0  0.00000000000E+00  0.00000000000E+00  0.45593999997E+02  0.45594000000E+02  0.51100000000E-03 0.  1.
         11   -1    0    0    0    0 -0.00000000000E+00 -0.00000000000E+00 -0.45593999997E+02  0.45594000000E+02  0.51100000000E-03 0. -1.
    9900012    2    1    2    0    0  0.18458425111E+02  0.20201821418E+02  0.35781090452E+02  0.46142317853E+02  0.10000000835E+02 0.  0.
        -12    1    1    2    0    0 -0.18458425111E+02 -0.20201821418E+02 -0.35781090452E+02  0.45045682147E+02  0.00000000000E+00 0.  1.
         11    1    3    3    0    0  0.12962696587E+01  0.13018896594E+01  0.16974418142E+01  0.25013077954E+01  0.51100000000E-03 0. -1.
        -11    1    3    3    0    0  0.73875402943E+00  0.48451199145E+00  0.67890710683E+01  0.68463125562E+01  0.51100000000E-03 0.  1.
        -12    1    3    3    0    0  0.16423401423E+02  0.18415419767E+02  0.27294577569E+02  0.36794697501E+02  0.00000000000E+00 0.  1.
</event>
<event>
 7    1  0.3980989E-008  0.4614232E+02  0.7816164E-02  0.1320468E+00
        -11   -1    0    0    0    0  0.00000000000E+00  0.00000000000E+00  0.45593999997E+02  0.45594000000E+02  0.51100000000E-03 0.  1.
         11   -1    0    0    0    0 -0.00000000000E+00 -0.00000000000E+00 -0.45593999997E+02  0.45594000000E+02  0.51100000000E-03 0. -1.
    9900012    2    1    2    0    0 -0.34336319568E+02 -0.21714072842E+02 -0.19458408194E+02  0.46142318184E+02  0.10000003856E+02 0.  0.
        -12    1    1    2    0    0  0.34336319568E+02  0.21714072842E+02  0.19458408194E+02  0.45045681816E+02  0.00000000000E+00 0.  1.
         11    1    3    3    0    0 -0.56187782989E+01 -0.30228453550E+01 -0.23449283999E+01  0.67975696447E+01  0.51100000000E-03 0. -1.
        -11    1    3    3    0    0 -0.10188069543E+02 -0.18573933566E+01 -0.58396303933E+01  0.11888984586E+02  0.51100000000E-03 0.  1.
         12    1    3    3    0    0 -0.18529471726E+02 -0.16833834130E+02 -0.11273849400E+02  0.27455763953E+02  0.00000000000E+00 0. -1.
</event>
<event>
 7    1  0.3980989E-008  0.4614232E+02  0.7816164E-02  0.1320468E+00
        -11   -1    0    0    0    0  0.00000000000E+00  0.00000000000E+00  0.45593999997E+02  0.45594000000E+02  0.51100000000E-03 0. -1.
         11   -1    0    0    0    0 -0.00000000000E+00 -0.00000000000E+00 -0.45593999997E+02  0.45594000000E+02  0.51100000000E-03 0.  1.
    9900012    2    1    2    0    0  0.72151794252E+01  0.14000362596E+02  0.42202422876E+02  0.46142318036E+02  0.10000002510E+02 0.  0.
        -12    1    1    2    0    0 -0.72151794252E+01 -0.14000362596E+02 -0.42202422876E+02  0.45045681964E+02  0.00000000000E+00 0.  1.
         11    1    3    3    0    0  0.99765248068E+00  0.20757927437E+01  0.17834784525E+01  0.29129060470E+01  0.51100000000E-03 0. -1.
        -11    1    3    3    0    0 -0.13893634381E+01  0.16172825949E+01  0.99701791178E+01  0.10195607175E+02  0.51100000000E-03 0.  1.
         12    1    3    3    0    0  0.76068903825E+01  0.10307287258E+02  0.30448765306E+02  0.33033804815E+02  0.00000000000E+00 0. -1.
</event>
<event>
 7    1  0.3980989E-008  0.4614232E+02  0.7816164E-02  0.1320468E+00
        -11   -1    0    0    0    0  0.00000000000E+00  0.00000000000E+00  0.45593999997E+02  0.45594000000E+02  0.51100000000E-03 0.  1.
         11   -1    0    0    0    0 -0.00000000000E+00 -0.00000000000E+00 -0.45593999997E+02  0.45594000000E+02  0.51100000000E-03 0. -1.
    9900012    2    1    2    0    0  0.36644611803E+02 -0.26128231274E+02 -0.18977656736E+01  0.46142316986E+02  0.99999929300E+01 0.  0.
        -12    1    1    2    0    0 -0.36644611803E+02  0.26128231274E+02  0.18977656736E+01  0.45045683014E+02  0.00000000000E+00 0.  1.
         11    1    3    3    0    0  0.16268762319E+02 -0.11347251730E+02 -0.25860118999E+01  0.20003004950E+02  0.51100000000E-03 0. -1.
        -11    1    3    3    0    0  0.13927216250E+02 -0.65301982057E+01  0.22696351497E+01  0.15548700429E+02  0.51100000000E-03 0.  1.
         12    1    3    3    0    0  0.64486332340E+01 -0.82507813374E+01 -0.15813889234E+01  0.10590611606E+02  0.00000000000E+00 0. -1.
</event>
<event>
 7    1  0.3980989E-008  0.4614232E+02  0.7816164E-02  0.1320468E+00
        -11   -1    0    0    0    0  0.00000000000E+00  0.00000000000E+00  0.45593999997E+02  0.45594000000E+02  0.51100000000E-03 0.  1.
         11   -1    0    0    0    0 -0.00000000000E+00 -0.00000000000E+00 -0.45593999997E+02  0.45594000000E+02  0.51100000000E-03 0. -1.
    9900012    2    1    2    0    0 -0.23974779236E+02 -0.32350053969E+02 -0.20193995043E+02  0.46142317999E+02  0.10000002165E+02 0.  0.
        -12    1    1    2    0    0  0.23974779236E+02  0.32350053969E+02  0.20193995043E+02  0.45045682001E+02  0.00000000000E+00 0.  1.
         11    1    3    3    0    0 -0.60938062537E+01 -0.12589848048E+02 -0.59131035069E+01  0.15185636038E+02  0.51100000000E-03 0.  1.
        -11    1    3    3    0    0 -0.10877090286E+02 -0.16247397293E+02 -0.91223280630E+01  0.21575585310E+02  0.51100000000E-03 0. -1.
         12    1    3    3    0    0 -0.70038826956E+01 -0.35128086270E+01 -0.51585634732E+01  0.93810966508E+01  0.00000000000E+00 0. -1.
</event>
<event>
 7    1  0.3980989E-008  0.4614232E+02  0.7816164E-02  0.1320468E+00
        -11   -1    0    0    0    0  0.00000000000E+00  0.00000000000E+00  0.45593999997E+02  0.45594000000E+02  0.51100000000E-03 0.  1.
         11   -1    0    0    0    0 -0.00000000000E+00 -0.00000000000E+00 -0.45593999997E+02  0.45594000000E+02  0.51100000000E-03 0. -1.
    9900012    2    1    2    0    0  0.97058597157E+01 -0.29050453157E+02 -0.33030001173E+02  0.46142317421E+02  0.99999969030E+01 0.  0.
        -12    1    1    2    0    0 -0.97058597157E+01  0.29050453157E+02  0.33030001173E+02  0.45045682579E+02  0.00000000000E+00 0.  1.
         11    1    3    3    0    0  0.18447616770E+01 -0.73426360939E+01 -0.63594746227E+01  0.98873842946E+01  0.51100000000E-03 0. -1.
        -11    1    3    3    0    0 -0.30251784751E+00 -0.57897037480E+00  0.54198762501E+00  0.84880774604E+00  0.51100000000E-03 0.  1.
         12    1    3    3    0    0  0.81636158863E+01 -0.21128846688E+02 -0.27212514176E+02  0.35406125381E+02  0.00000000000E+00 0. -1.
</event>
<event>
 7    1  0.3980989E-008  0.4614232E+02  0.7816164E-02  0.1320468E+00
        -11   -1    0    0    0    0  0.00000000000E+00  0.00000000000E+00  0.45593999997E+02  0.45594000000E+02  0.51100000000E-03 0.  1.
         11   -1    0    0    0    0 -0.00000000000E+00 -0.00000000000E+00 -0.45593999997E+02  0.45594000000E+02  0.51100000000E-03 0. -1.
    9900012    2    1    2    0    0  0.12712040904E+02 -0.13097012977E+02 -0.41182346392E+02  0.46142318883E+02  0.10000010234E+02 0.  0.
        -12    1    1    2    0    0 -0.12712040904E+02  0.13097012977E+02  0.41182346392E+02  0.45045681117E+02  0.00000000000E+00 0.  1.
         11    1    3    3    0    0  0.24684733339E-02 -0.20470752850E+00  0.32745875397E+00  0.38618747035E+00  0.51100000000E-03 0. -1.
        -11    1    3    3    0    0  0.55312060926E+01 -0.41678474352E+01 -0.91145862941E+01  0.11447308708E+02  0.51100000000E-03 0.  1.
         12    1    3    3    0    0  0.71783663383E+01 -0.87244580136E+01 -0.32395218852E+02  0.34308822705E+02  0.00000000000E+00 0. -1.
</event>
<event>
 7    1  0.3980989E-008  0.4614232E+02  0.7816164E-02  0.1320468E+00
        -11   -1    0    0    0    0  0.00000000000E+00  0.00000000000E+00  0.45593999997E+02  0.45594000000E+02  0.51100000000E-03 0.  1.
         11   -1    0    0    0    0 -0.00000000000E+00 -0.00000000000E+00 -0.45593999997E+02  0.45594000000E+02  0.51100000000E-03 0. -1.
    9900012    2    1    2    0    0 -0.25802450853E+02  0.28720048937E+02  0.23205723931E+02  0.46142319806E+02  0.10000018651E+02 0.  0.
        -12    1    1    2    0    0  0.25802450853E+02 -0.28720048937E+02 -0.23205723931E+02  0.45045680194E+02  0.00000000000E+00 0.  1.
         11    1    3    3    0    0 -0.71849762576E+01  0.12415905574E+02  0.77167213002E+01  0.16288842283E+02  0.51100000000E-03 0. -1.
        -11    1    3    3    0    0 -0.55530651056E+01  0.56881800163E+01  0.84667793490E+01  0.11613710724E+02  0.51100000000E-03 0.  1.
         12    1    3    3    0    0 -0.13064409490E+02  0.10615963347E+02  0.70222232814E+01  0.18239766800E+02  0.00000000000E+00 0. -1.
</event>
<event>
 7    1  0.3980989E-008  0.4614232E+02  0.7816164E-02  0.1320468E+00
        -11   -1    0    0    0    0  0.00000000000E+00  0.00000000000E+00  0.45593999997E+02  0.45594000000E+02  0.51100000000E-03 0.  1.
         11   -1    0    0    0    0 -0.00000000000E+00 -0.00000000000E+00 -0.45593999997E+02  0.45594000000E+02  0.51100000000E-03 0. -1.
    9900012    2    1    2    0    0  0.17569070011E+02 -0.20813503236E+02 -0.35878120858E+02  0.46142315475E+02  0.99999791526E+01 0.  0.
        -12    1    1    2    0    0 -0.17569070011E+02  0.20813503236E+02  0.35878120858E+02  0.45045684525E+02  0.00000000000E+00 0.  1.
         11    1    3    3    0    0  0.88614648771E+01 -0.90233726939E+01 -0.10515837668E+02  0.16447785767E+02  0.51100000000E-03 0. -1.
        -11    1    3    3    0    0  0.22340119276E+01 -0.47730936133E+01 -0.13335623849E+02  0.14339180438E+02  0.51100000000E-03 0.  1.
         12    1    3    3    0    0  0.64735932060E+01 -0.70170369291E+01 -0.12026659342E+02  0.15355349270E+02  0.00000000000E+00 0. -1.
</event>
<event>
 7    1  0.3980989E-008  0.4614232E+02  0.7816164E-02  0.1320468E+00
        -11   -1    0    0    0    0  0.00000000000E+00  0.00000000000E+00  0.45593999997E+02  0.45594000000E+02  0.51100000000E-03 0.  1.
         11   -1    0    0    0    0 -0.00000000000E+00 -0.00000000000E+00 -0.45593999997E+02  0.45594000000E+02  0.51100000000E-03 0. -1.
    9900012    2    1    2    0    0  0.20569147664E+02 -0.44994409198E+01 -0.39821836273E+02  0.46142318205E+02  0.10000004046E+02 0.  0.
        -12    1    1    2    0    0 -0.20569147664E+02  0.44994409198E+01  0.39821836273E+02  0.45045681795E+02  0.00000000000E+00 0.  1.
         11    1    3    3    0    0  0.59877028162E+01 -0.42785512990E+01 -0.88073524527E+01  0.11477283813E+02  0.51100000000E-03 0. -1.
        -11    1    3    3    0    0  0.30601795010E+01 -0.97597614958E+00 -0.31309012440E+01  0.44855067588E+01  0.51100000000E-03 0.  1.
        -12    1    3    3    0    0  0.11521265347E+02  0.75508652877E+00 -0.27883582576E+02  0.30179527633E+02  0.00000000000E+00 0.  1.
</event>
<event>
 7    1  0.3980989E-008  0.4614232E+02  0.7816164E-02  0.1320468E+00
        -11   -1    0    0    0    0  0.00000000000E+00  0.00000000000E+00  0.45593999997E+02  0.45594000000E+02  0.51100000000E-03 0.  1.
         11   -1    0    0    0    0 -0.00000000000E+00 -0.00000000000E+00 -0.45593999997E+02  0.45594000000E+02  0.51100000000E-03 0. -1.
    9900012    2    1    2    0    0 -0.40304099587E+02 -0.19424004335E+02 -0.52345982449E+01  0.46142318668E+02  0.10000008265E+02 0.  0.
        -12    1    1    2    0    0  0.40304099587E+02  0.19424004335E+02  0.52345982449E+01  0.45045681332E+02  0.00000000000E+00 0.  1.
         11    1    3    3    0    0 -0.55210021076E+01 -0.11326334233E+01 -0.23341655174E+01  0.61002173459E+01  0.51100000000E-03 0. -1.
        -11    1    3    3    0    0 -0.12210382594E+02 -0.60238306791E+01 -0.43966674662E+01  0.14307713451E+02  0.51100000000E-03 0.  1.
        -12    1    3    3    0    0 -0.22572714886E+02 -0.12267540232E+02  0.14962347386E+01  0.25734387870E+02  0.00000000000E+00 0.  1.
</event>
<event>
 7    1  0.3980989E-008  0.4614232E+02  0.7816164E-02  0.1320468E+00
        -11   -1    0    0    0    0  0.00000000000E+00  0.00000000000E+00  0.45593999997E+02  0.45594000000E+02  0.51100000000E-03 0.  1.
         11   -1    0    0    0    0 -0.00000000000E+00 -0.00000000000E+00 -0.45593999997E+02  0.45594000000E+02  0.51100000000E-03 0. -1.
    9900012    2    1    2    0    0  0.14026261391E+02  0.17512565017E+02 -0.39060049431E+02  0.46142318701E+02  0.10000008572E+02 0.  0.
        -12    1    1    2    0    0 -0.14026261391E+02 -0.17512565017E+02  0.39060049431E+02  0.45045681299E+02  0.00000000000E+00 0.  1.
         11    1    3    3    0    0  0.39132498146E+01  0.29636061460E+01 -0.36071918425E+01  0.60916597697E+01  0.51100000000E-03 0. -1.
        -11    1    3    3    0    0  0.54272077369E+01  0.30755585573E+01 -0.12010851422E+02  0.13534186211E+02  0.51100000000E-03 0.  1.
         12    1    3    3    0    0  0.46858038397E+01  0.11473400314E+02 -0.23442006167E+02  0.26516472720E+02  0.00000000000E+00 0. -1.
</event>
<event>
 7    1  0.3980989E-008  0.4614232E+02  0.7816164E-02  0.1320468E+00
        -11   -1    0    0    0    0  0.00000000000E+00  0.00000000000E+00  0.45593999997E+02  0.45594000000E+02  0.51100000000E-03 0.  1.
         11   -1    0    0    0    0 -0.00000000000E+00 -0.00000000000E+00 -0.45593999997E+02  0.45594000000E+02  0.51100000000E-03 0. -1.
    9900012    2    1    2    0    0  0.32167831538E+02  0.24307302598E+02 -0.20087288228E+02  0.46142317701E+02  0.99999994476E+01 0.  0.
        -12    1    1    2    0    0 -0.32167831538E+02 -0.24307302598E+02  0.20087288228E+02  0.45045682299E+02  0.00000000000E+00 0.  1.
         11    1    3    3    0    0  0.88801270759E+01  0.41586614325E+01 -0.46433352368E+01  0.10849501564E+02  0.51100000000E-03 0.  1.
        -11    1    3    3    0    0  0.16273300175E+01  0.29306510363E+01  0.45092672411E+00  0.33823444020E+01  0.51100000000E-03 0. -1.
         12    1    3    3    0    0  0.21660374445E+02  0.17217990129E+02 -0.15894879716E+02  0.31910471735E+02  0.00000000000E+00 0. -1.
</event>
<event>
 7    1  0.3980989E-008  0.4614232E+02  0.7816164E-02  0.1320468E+00
        -11   -1    0    0    0    0  0.00000000000E+00  0.00000000000E+00  0.45593999997E+02  0.45594000000E+02  0.51100000000E-03 0. -1.
         11   -1    0    0    0    0 -0.00000000000E+00 -0.00000000000E+00 -0.45593999997E+02  0.45594000000E+02  0.51100000000E-03 0.  1.
    9900012    2    1    2    0    0  0.23076870237E+02 -0.23366094432E+02  0.30831759645E+02  0.46142315281E+02  0.99999773875E+01 0.  0.
        -12    1    1    2    0    0 -0.23076870237E+02  0.23366094432E+02 -0.30831759645E+02  0.45045684719E+02  0.00000000000E+00 0.  1.
         11    1    3    3    0    0  0.25080244944E+01 -0.66932486196E+01  0.60249993117E+01  0.93482822441E+01  0.51100000000E-03 0. -1.
        -11    1    3    3    0    0  0.13556736737E+02 -0.10877742240E+02  0.20027497456E+02  0.26518126664E+02  0.51100000000E-03 0.  1.
        -12    1    3    3    0    0  0.70121090063E+01 -0.57951035721E+01  0.47792628777E+01  0.10275906373E+02  0.00000000000E+00 0.  1.
</event>
<event>
 7    1  0.3980989E-008  0.4614232E+02  0.7816164E-02  0.1320468E+00
        -11   -1    0    0    0    0  0.00000000000E+00  0.00000000000E+00  0.45593999997E+02  0.45594000000E+02  0.51100000000E-03 0.  1.
         11   -1    0    0    0    0 -0.00000000000E+00 -0.00000000000E+00 -0.45593999997E+02  0.45594000000E+02  0.51100000000E-03 0. -1.
    9900012    2    1    2    0    0 -0.32614636376E+02  0.25420549349E+02 -0.17866023586E+02  0.46142316145E+02  0.99999852659E+01 0.  0.
        -12    1    1    2    0    0  0.32614636376E+02 -0.25420549349E+02  0.17866023586E+02  0.45045683855E+02  0.00000000000E+00 0.  1.
         11    1    3    3    0    0 -0.72497133477E+01  0.81401887313E+01 -0.35938373012E+01  0.11477660172E+02  0.51100000000E-03 0. -1.
        -11    1    3    3    0    0 -0.11270493898E+01  0.33789941299E+01 -0.82738013436E+00  0.36568292009E+01  0.51100000000E-03 0.  1.
         12    1    3    3    0    0 -0.24237873638E+02  0.13901366488E+02 -0.13444806150E+02  0.31007826773E+02  0.00000000000E+00 0. -1.
</event>
<event>
 7    1  0.3980989E-008  0.4614232E+02  0.7816164E-02  0.1320468E+00
        -11   -1    0    0    0    0  0.00000000000E+00  0.00000000000E+00  0.45593999997E+02  0.45594000000E+02  0.51100000000E-03 0.  1.
         11   -1    0    0    0    0 -0.00000000000E+00 -0.00000000000E+00 -0.45593999997E+02  0.45594000000E+02  0.51100000000E-03 0. -1.
    9900012    2    1    2    0    0 -0.33360187841E+02  0.28451785011E+02  0.10329921837E+02  0.46142317762E+02  0.10000000011E+02 0.  0.
        -12    1    1    2    0    0  0.33360187841E+02 -0.28451785011E+02 -0.10329921837E+02  0.45045682238E+02  0.00000000000E+00 0.  1.
         11    1    3    3    0    0 -0.20129407825E+02  0.16007386727E+02  0.22258082650E+01  0.25814408998E+02  0.51100000000E-03 0. -1.
        -11    1    3    3    0    0 -0.56927445802E+01  0.71542305371E+01  0.22498833170E+01  0.94155366621E+01  0.51100000000E-03 0.  1.
        -12    1    3    3    0    0 -0.75380354357E+01  0.52901677463E+01  0.58542302549E+01  0.10912372102E+02  0.00000000000E+00 0.  1.
</event>
<event>
 7    1  0.3980989E-008  0.4614232E+02  0.7816164E-02  0.1320468E+00
        -11   -1    0    0    0    0  0.00000000000E+00  0.00000000000E+00  0.45593999997E+02  0.45594000000E+02  0.51100000000E-03 0.  1.
         11   -1    0    0    0    0 -0.00000000000E+00 -0.00000000000E+00 -0.45593999997E+02  0.45594000000E+02  0.51100000000E-03 0. -1.
    9900012    2    1    2    0    0 -0.20708232577E+02  0.21101522057E+02 -0.33985413309E+02  0.46142318216E+02  0.10000004148E+02 0.  0.
        -12    1    1    2    0    0  0.20708232577E+02 -0.21101522057E+02  0.33985413309E+02  0.45045681784E+02  0.00000000000E+00 0.  1.
         11    1    3    3    0    0 -0.10910324104E+02  0.62144258136E+01 -0.16697872959E+02  0.20891941553E+02  0.51100000000E-03 0. -1.
        -11    1    3    3    0    0 -0.28126801030E+01  0.18961163544E+01 -0.17139414568E+01  0.38005291960E+01  0.51100000000E-03 0.  1.
         12    1    3    3    0    0 -0.69852283706E+01  0.12990979889E+02 -0.15573598894E+02  0.21449847467E+02  0.00000000000E+00 0. -1.
</event>
<event>
 7    1  0.3980989E-008  0.4614232E+02  0.7816164E-02  0.1320468E+00
        -11   -1    0    0    0    0  0.00000000000E+00  0.00000000000E+00  0.45593999997E+02  0.45594000000E+02  0.51100000000E-03 0.  1.
         11   -1    0    0    0    0 -0.00000000000E+00 -0.00000000000E+00 -0.45593999997E+02  0.45594000000E+02  0.51100000000E-03 0. -1.
    9900012    2    1    2    0    0  0.34500335784E+02  0.27523760536E+02 -0.90157018975E+01  0.46142318254E+02  0.10000004499E+02 0.  0.
        -12    1    1    2    0    0 -0.34500335784E+02 -0.27523760536E+02  0.90157018975E+01  0.45045681746E+02  0.00000000000E+00 0.  1.
         11    1    3    3    0    0  0.11385126850E+02  0.69772210101E+01 -0.13817722953E+01  0.13424307109E+02  0.51100000000E-03 0. -1.
        -11    1    3    3    0    0  0.48291726644E+01  0.30647644222E+01 -0.43956117085E+01  0.72135353426E+01  0.51100000000E-03 0.  1.
        -12    1    3    3    0    0  0.18286036269E+02  0.17481775103E+02 -0.32383178937E+01  0.25504475803E+02  0.00000000000E+00 0.  1.
</event>
<event>
 7    1  0.3980989E-008  0.4614232E+02  0.7816164E-02  0.1320468E+00
        -11   -1    0    0    0    0  0.00000000000E+00  0.00000000000E+00  0.45593999997E+02  0.45594000000E+02  0.51100000000E-03 0.  1.
         11   -1    0    0    0    0 -0.00000000000E+00 -0.00000000000E+00 -0.45593999997E+02  0.45594000000E+02  0.51100000000E-03 0. -1.
    9900012    2    1    2    0    0  0.17397824012E+02  0.10901675781E+02 -0.40094671756E+02  0.46142317428E+02  0.99999969614E+01 0.  0.
        -12    1    1    2    0    0 -0.17397824012E+02 -0.10901675781E+02  0.40094671756E+02  0.45045682572E+02  0.00000000000E+00 0.  1.
         11    1    3    3    0    0  0.88347722654E+01  0.62170919487E+01 -0.15070454600E+02  0.18542492696E+02  0.51100000000E-03 0. -1.
        -11    1    3    3    0    0  0.72918311852E+01  0.63115771580E+00 -0.17299171048E+02  0.18783782402E+02  0.51100000000E-03 0.  1.
        -12    1    3    3    0    0  0.12712205612E+01  0.40534261168E+01 -0.77250461077E+01  0.88160423301E+01  0.00000000000E+00 0.  1.
</event>
<event>
 7    1  0.3980989E-008  0.4614232E+02  0.7816164E-02  0.1320468E+00
        -11   -1    0    0    0    0  0.00000000000E+00  0.00000000000E+00  0.45593999997E+02  0.45594000000E+02  0.51100000000E-03 0. -1.
         11   -1    0    0    0    0 -0.00000000000E+00 -0.00000000000E+00 -0.45593999997E+02  0.45594000000E+02  0.51100000000E-03 0.  1.
    9900012    2    1    2    0    0 -0.20005991075E+02 -0.39855748088E+02  0.63555632502E+01  0.46142317424E+02  0.99999969227E+01 0.  0.
        -12    1    1    2    0    0  0.20005991075E+02  0.39855748088E+02 -0.63555632502E+01  0.45045682576E+02  0.00000000000E+00 0.  1.
         11    1    3    3    0    0 -0.44226919196E+01 -0.97938024502E+01  0.29154102194E+00  0.10750058915E+02  0.51100000000E-03 0. -1.
        -11    1    3    3    0    0 -0.16387012059E+02 -0.26173509137E+02  0.50085260096E+01  0.31283735036E+02  0.51100000000E-03 0.  1.
        -12    1    3    3    0    0  0.80371290413E+00 -0.38884365012E+01  0.10554962187E+01  0.41085234725E+01  0.00000000000E+00 0.  1.
</event>
<event>
 7    1  0.3980989E-008  0.4614232E+02  0.7816164E-02  0.1320468E+00
        -11   -1    0    0    0    0  0.00000000000E+00  0.00000000000E+00  0.45593999997E+02  0.45594000000E+02  0.51100000000E-03 0.  1.
         11   -1    0    0    0    0 -0.00000000000E+00 -0.00000000000E+00 -0.45593999997E+02  0.45594000000E+02  0.51100000000E-03 0. -1.
    9900012    2    1    2    0    0 -0.18198811659E+01  0.15609325516E+02 -0.42215524144E+02  0.46142317751E+02  0.99999999118E+01 0.  0.
        -12    1    1    2    0    0  0.18198811659E+01 -0.15609325516E+02  0.42215524144E+02  0.45045682249E+02  0.00000000000E+00 0.  1.
         11    1    3    3    0    0 -0.63924417358E+00  0.10676972367E+02 -0.30151708339E+02  0.31992684915E+02  0.51100000000E-03 0. -1.
        -11    1    3    3    0    0 -0.34698863603E+00 -0.37077740853E+00 -0.61176865711E+01  0.61387267608E+01  0.51100000000E-03 0.  1.
        -12    1    3    3    0    0 -0.83364835631E+00  0.53031305580E+01 -0.59461292335E+01  0.80109060760E+01  0.00000000000E+00 0.  1.
</event>
<event>
 7    1  0.3980989E-008  0.4614232E+02  0.7816164E-02  0.1320468E+00
        -11   -1    0    0    0    0  0.00000000000E+00  0.00000000000E+00  0.45593999997E+02  0.45594000000E+02  0.51100000000E-03 0.  1.
         11   -1    0    0    0    0 -0.00000000000E+00 -0.00000000000E+00 -0.45593999997E+02  0.45594000000E+02  0.51100000000E-03 0. -1.
    9900012    2    1    2    0    0  0.46055907610E+01  0.42653685273E+02 -0.13731902184E+02  0.46142317951E+02  0.10000001734E+02 0.  0.
        -12    1    1    2    0    0 -0.46055907610E+01 -0.42653685273E+02  0.13731902184E+02  0.45045682049E+02  0.00000000000E+00 0.  1.
         11    1    3    3    0    0  0.26368698995E+01  0.12122082895E+02 -0.75518616634E+01  0.14523380854E+02  0.51100000000E-03 0. -1.
        -11    1    3    3    0    0  0.31395439471E+01  0.27903758842E+02 -0.61324751645E+01  0.28741672631E+02  0.51100000000E-03 0.  1.
        -12    1    3    3    0    0 -0.11708230855E+01  0.26278435363E+01 -0.47565355757E-01  0.28772644668E+01  0.00000000000E+00 0.  1.
</event>
<event>
 7    1  0.3980989E-008  0.4614232E+02  0.7816164E-02  0.1320468E+00
        -11   -1    0    0    0    0  0.00000000000E+00  0.00000000000E+00  0.45593999997E+02  0.45594000000E+02  0.51100000000E-03 0. -1.
         11   -1    0    0    0    0 -0.00000000000E+00 -0.00000000000E+00 -0.45593999997E+02  0.45594000000E+02  0.51100000000E-03 0.  1.
    9900012    2    1    2    0    0 -0.14404247148E+02  0.13921323953E+02  0.40346349773E+02  0.46142317227E+02  0.99999951301E+01 0.  0.
        -12    1    1    2    0    0  0.14404247148E+02 -0.13921323953E+02 -0.40346349773E+02  0.45045682773E+02  0.00000000000E+00 0.  1.
         11    1    3    3    0    0 -0.11554995722E+02  0.96632206556E+01  0.25456891452E+02  0.29579538235E+02  0.51100000000E-03 0. -1.
        -11    1    3    3    0    0 -0.17394810590E+01  0.45612462516E+00  0.10490572122E+02  0.10643587165E+02  0.51100000000E-03 0.  1.
        -12    1    3    3    0    0 -0.11097703674E+01  0.38019786725E+01  0.43988861990E+01  0.59191918271E+01  0.00000000000E+00 0.  1.
</event>
<event>
 7    1  0.3980989E-008  0.4614232E+02  0.7816164E-02  0.1320468E+00
        -11   -1    0    0    0    0  0.00000000000E+00  0.00000000000E+00  0.45593999997E+02  0.45594000000E+02  0.51100000000E-03 0. -1.
         11   -1    0    0    0    0 -0.00000000000E+00 -0.00000000000E+00 -0.45593999997E+02  0.45594000000E+02  0.51100000000E-03 0.  1.
    9900012    2    1    2    0    0  0.22908635315E+02  0.20244629312E+02 -0.33082667857E+02  0.46142317626E+02  0.99999987697E+01 0.  0.
        -12    1    1    2    0    0 -0.22908635315E+02 -0.20244629312E+02  0.33082667857E+02  0.45045682374E+02  0.00000000000E+00 0.  1.
         11    1    3    3    0    0  0.10109525433E+02  0.12722438983E+02 -0.14568915905E+02  0.21824671111E+02  0.51100000000E-03 0. -1.
        -11    1    3    3    0    0  0.39824136858E+00  0.17121958646E+01 -0.81010020959E+00  0.19355809146E+01  0.51100000000E-03 0.  1.
         12    1    3    3    0    0  0.12400868513E+02  0.58099944640E+01 -0.17703651742E+02  0.22382065601E+02  0.00000000000E+00 0. -1.
</event>
<event>
 7    1  0.3980989E-008  0.4614232E+02  0.7816164E-02  0.1320468E+00
        -11   -1    0    0    0    0  0.00000000000E+00  0.00000000000E+00  0.45593999997E+02  0.45594000000E+02  0.51100000000E-03 0.  1.
         11   -1    0    0    0    0 -0.00000000000E+00 -0.00000000000E+00 -0.45593999997E+02  0.45594000000E+02  0.51100000000E-03 0. -1.
    9900012    2    1    2    0    0  0.71694598847E+01  0.10392314229E+02 -0.43240168112E+02  0.46142317760E+02  0.99999999900E+01 0.  0.
        -12    1    1    2    0    0 -0.71694598847E+01 -0.10392314229E+02  0.43240168112E+02  0.45045682240E+02  0.00000000000E+00 0.  1.
         11    1    3    3    0    0  0.40982107141E+01  0.19336499208E+01 -0.11505133448E+02  0.12365372174E+02  0.51100000000E-03 0. -1.
        -11    1    3    3    0    0  0.34893335567E+01  0.44524680609E+00 -0.86972688784E+01  0.93816938552E+01  0.51100000000E-03 0.  1.
         12    1    3    3    0    0 -0.41808438618E+00  0.80134175022E+01 -0.23037765786E+02  0.24395251731E+02  0.00000000000E+00 0. -1.
</event>
<event>
 7    1  0.3980989E-008  0.4614232E+02  0.7816164E-02  0.1320468E+00
        -11   -1    0    0    0    0  0.00000000000E+00  0.00000000000E+00  0.45593999997E+02  0.45594000000E+02  0.51100000000E-03 0.  1.
         11   -1    0    0    0    0 -0.00000000000E+00 -0.00000000000E+00 -0.45593999997E+02  0.45594000000E+02  0.51100000000E-03 0. -1.
    9900012    2    1    2    0    0  0.11659630984E+02 -0.74345802247E+01 -0.42870660147E+02  0.46142317863E+02  0.10000000926E+02 0.  0.
        -12    1    1    2    0    0 -0.11659630984E+02  0.74345802247E+01  0.42870660147E+02  0.45045682137E+02  0.00000000000E+00 0.  1.
         11    1    3    3    0    0  0.22657186275E+01 -0.51704495250E+01 -0.12353226111E+02  0.13581944809E+02  0.51100000000E-03 0. -1.
        -11    1    3    3    0    0  0.10234005763E+02 -0.18916454104E+01 -0.27385286753E+02  0.29296196461E+02  0.51100000000E-03 0.  1.
        -12    1    3    3    0    0 -0.84009340626E+00 -0.37248528924E+00 -0.31321472835E+01  0.32641765925E+01  0.00000000000E+00 0.  1.
</event>
<event>
 7    1  0.3980989E-008  0.4614233E+02  0.7816164E-02  0.1320468E+00
        -11   -1    0    0    0    0  0.00000000000E+00  0.00000000000E+00  0.45593999997E+02  0.45594000000E+02  0.51100000000E-03 0.  1.
         11   -1    0    0    0    0 -0.00000000000E+00 -0.00000000000E+00 -0.45593999997E+02  0.45594000000E+02  0.51100000000E-03 0. -1.
    9900012    2    1    2    0    0  0.40758849598E+02 -0.17007690642E+02  0.88637961687E+01  0.46142331573E+02  0.10000125947E+02 0.  0.
        -12    1    1    2    0    0 -0.40758849598E+02  0.17007690642E+02 -0.88637961687E+01  0.45045668427E+02  0.00000000000E+00 0.  1.
         11    1    3    3    0    0  0.14921010673E+02 -0.84332729063E+01  0.35293261420E+01  0.17498936959E+02  0.51100000000E-03 0. -1.
        -11    1    3    3    0    0  0.17042525602E+02 -0.67943420838E+01  0.29034901374E+00  0.18349252466E+02  0.51100000000E-03 0.  1.
        -12    1    3    3    0    0  0.87953133222E+01 -0.17800756519E+01  0.50441210129E+01  0.10294142148E+02  0.00000000000E+00 0.  1.
</event>
<event>
 7    1  0.3980989E-008  0.4614232E+02  0.7816164E-02  0.1320468E+00
        -11   -1    0    0    0    0  0.00000000000E+00  0.00000000000E+00  0.45593999997E+02  0.45594000000E+02  0.51100000000E-03 0.  1.
         11   -1    0    0    0    0 -0.00000000000E+00 -0.00000000000E+00 -0.45593999997E+02  0.45594000000E+02  0.51100000000E-03 0. -1.
    9900012    2    1    2    0    0  0.16067273777E+02  0.35562976938E+02 -0.22499569923E+02  0.46142320274E+02  0.10000022914E+02 0.  0.
        -12    1    1    2    0    0 -0.16067273777E+02 -0.35562976938E+02  0.22499569923E+02  0.45045679726E+02  0.00000000000E+00 0.  1.
         11    1    3    3    0    0  0.28465996025E+01  0.31351108577E+01 -0.28395512051E+01  0.50985390745E+01  0.51100000000E-03 0.  1.
        -11    1    3    3    0    0  0.82451317160E+01  0.27168609341E+02 -0.17996279605E+02  0.33615199098E+02  0.51100000000E-03 0. -1.
         12    1    3    3    0    0  0.49755424580E+01  0.52592567394E+01 -0.16637391123E+01  0.74285821013E+01  0.00000000000E+00 0. -1.
</event>
<event>
 7    1  0.3980989E-008  0.4614232E+02  0.7816164E-02  0.1320468E+00
        -11   -1    0    0    0    0  0.00000000000E+00  0.00000000000E+00  0.45593999997E+02  0.45594000000E+02  0.51100000000E-03 0.  1.
         11   -1    0    0    0    0 -0.00000000000E+00 -0.00000000000E+00 -0.45593999997E+02  0.45594000000E+02  0.51100000000E-03 0. -1.
    9900012    2    1    2    0    0 -0.22282401051E+02  0.39133872342E+02 -0.10714995453E+01  0.46142317939E+02  0.10000001618E+02 0.  0.
        -12    1    1    2    0    0  0.22282401051E+02 -0.39133872342E+02  0.10714995453E+01  0.45045682061E+02  0.00000000000E+00 0.  1.
         11    1    3    3    0    0 -0.70147767828E+01  0.13470304791E+02  0.24456010391E+01  0.15383015608E+02  0.51100000000E-03 0. -1.
        -11    1    3    3    0    0 -0.31192277318E+01  0.17407666432E+01 -0.14296666057E+01  0.38475702740E+01  0.51100000000E-03 0.  1.
         12    1    3    3    0    0 -0.12148396537E+02  0.23922800908E+02 -0.20874339787E+01  0.26911732057E+02  0.00000000000E+00 0. -1.
</event>
<event>
 7    1  0.3980989E-008  0.4614232E+02  0.7816164E-02  0.1320468E+00
        -11   -1    0    0    0    0  0.00000000000E+00  0.00000000000E+00  0.45593999997E+02  0.45594000000E+02  0.51100000000E-03 0. -1.
         11   -1    0    0    0    0 -0.00000000000E+00 -0.00000000000E+00 -0.45593999997E+02  0.45594000000E+02  0.51100000000E-03 0.  1.
    9900012    2    1    2    0    0  0.25813698112E+02  0.27056994825E+02  0.25113451330E+02  0.46142318555E+02  0.10000007237E+02 0.  0.
        -12    1    1    2    0    0 -0.25813698112E+02 -0.27056994825E+02 -0.25113451330E+02  0.45045681445E+02  0.00000000000E+00 0.  1.
         11    1    3    3    0    0  0.18659106691E+02  0.17031266771E+02  0.17575038983E+02  0.30775124791E+02  0.51100000000E-03 0. -1.
        -11    1    3    3    0    0  0.66389114202E+01  0.72805119967E+01  0.77930934144E+01  0.12562376567E+02  0.51100000000E-03 0.  1.
        -12    1    3    3    0    0  0.51568000005E+00  0.27452160575E+01 -0.25468106764E+00  0.28048171974E+01  0.00000000000E+00 0.  1.
</event>
<event>
 7    1  0.3980989E-008  0.4614232E+02  0.7816164E-02  0.1320468E+00
        -11   -1    0    0    0    0  0.00000000000E+00  0.00000000000E+00  0.45593999997E+02  0.45594000000E+02  0.51100000000E-03 0. -1.
         11   -1    0    0    0    0 -0.00000000000E+00 -0.00000000000E+00 -0.45593999997E+02  0.45594000000E+02  0.51100000000E-03 0.  1.
    9900012    2    1    2    0    0  0.25307899073E+02  0.19635375930E+02  0.31671371039E+02  0.46142317777E+02  0.10000000148E+02 0.  0.
        -12    1    1    2    0    0 -0.25307899073E+02 -0.19635375930E+02 -0.31671371039E+02  0.45045682223E+02  0.00000000000E+00 0.  1.
         11    1    3    3    0    0  0.10746284065E+02  0.10155987187E+02  0.17998157974E+02  0.23292925700E+02  0.51100000000E-03 0. -1.
        -11    1    3    3    0    0  0.92229540003E+01  0.66003686838E+01  0.53222794177E+01  0.12528144544E+02  0.51100000000E-03 0.  1.
        -12    1    3    3    0    0  0.53386610075E+01  0.28790200586E+01  0.83509336476E+01  0.10321247533E+02  0.00000000000E+00 0.  1.
</event>
<event>
 7    1  0.3980989E-008  0.4614232E+02  0.7816164E-02  0.1320468E+00
        -11   -1    0    0    0    0  0.00000000000E+00  0.00000000000E+00  0.45593999997E+02  0.45594000000E+02  0.51100000000E-03 0. -1.
         11   -1    0    0    0    0 -0.00000000000E+00 -0.00000000000E+00 -0.45593999997E+02  0.45594000000E+02  0.51100000000E-03 0.  1.
    9900012    2    1    2    0    0 -0.24301476108E+02 -0.23934302136E+02  0.29422790800E+02  0.46142321203E+02  0.10000031389E+02 0.  0.
        -12    1    1    2    0    0  0.24301476108E+02  0.23934302136E+02 -0.29422790800E+02  0.45045678797E+02  0.00000000000E+00 0.  1.
         11    1    3    3    0    0 -0.12481840262E+02 -0.85771488478E+01  0.87940869387E+01  0.17512846257E+02  0.51100000000E-03 0. -1.
        -11    1    3    3    0    0 -0.95143283781E+01 -0.11955634740E+02  0.13440182071E+02  0.20349401487E+02  0.51100000000E-03 0.  1.
        -12    1    3    3    0    0 -0.23053074682E+01 -0.34015185487E+01  0.71885217905E+01  0.82800734594E+01  0.00000000000E+00 0.  1.
</event>
<event>
 7    1  0.3980989E-008  0.4614232E+02  0.7816164E-02  0.1320468E+00
        -11   -1    0    0    0    0  0.00000000000E+00  0.00000000000E+00  0.45593999997E+02  0.45594000000E+02  0.51100000000E-03 0.  1.
         11   -1    0    0    0    0 -0.00000000000E+00 -0.00000000000E+00 -0.45593999997E+02  0.45594000000E+02  0.51100000000E-03 0. -1.
    9900012    2    1    2    0    0  0.16325283532E+02  0.23849239447E+02 -0.34551590523E+02  0.46142317496E+02  0.99999975858E+01 0.  0.
        -12    1    1    2    0    0 -0.16325283532E+02 -0.23849239447E+02  0.34551590523E+02  0.45045682504E+02  0.00000000000E+00 0.  1.
         11    1    3    3    0    0  0.23994330559E+01  0.47005981057E+01 -0.92445213334E+01  0.10644908477E+02  0.51100000000E-03 0. -1.
        -11    1    3    3    0    0  0.38358905179E+01  0.89820527928E+01 -0.14804271555E+02  0.17735776977E+02  0.51100000000E-03 0.  1.
        -12    1    3    3    0    0  0.10089959958E+02  0.10166588548E+02 -0.10502797634E+02  0.17761632042E+02  0.00000000000E+00 0.  1.
</event>
<event>
 7    1  0.3980989E-008  0.4614232E+02  0.7816164E-02  0.1320468E+00
        -11   -1    0    0    0    0  0.00000000000E+00  0.00000000000E+00  0.45593999997E+02  0.45594000000E+02  0.51100000000E-03 0.  1.
         11   -1    0    0    0    0 -0.00000000000E+00 -0.00000000000E+00 -0.45593999997E+02  0.45594000000E+02  0.51100000000E-03 0. -1.
    9900012    2    1    2    0    0 -0.42507361644E+02 -0.29862349543E+01 -0.14605482305E+02  0.46142317560E+02  0.99999981626E+01 0.  0.
        -12    1    1    2    0    0  0.42507361644E+02  0.29862349543E+01  0.14605482305E+02  0.45045682440E+02  0.00000000000E+00 0.  1.
         11    1    3    3    0    0 -0.11440788781E+02  0.51398661485E+00 -0.10415823624E+01  0.11499596699E+02  0.51100000000E-03 0. -1.
        -11    1    3    3    0    0 -0.14629099443E+02 -0.44311858973E+01 -0.49848367469E+01  0.16077765909E+02  0.51100000000E-03 0.  1.
         12    1    3    3    0    0 -0.16437473420E+02  0.93096432816E+00 -0.85790631959E+01  0.18564954951E+02  0.00000000000E+00 0. -1.
</event>
<event>
 7    1  0.3980989E-008  0.4614232E+02  0.7816164E-02  0.1320468E+00
        -11   -1    0    0    0    0  0.00000000000E+00  0.00000000000E+00  0.45593999997E+02  0.45594000000E+02  0.51100000000E-03 0.  1.
         11   -1    0    0    0    0 -0.00000000000E+00 -0.00000000000E+00 -0.45593999997E+02  0.45594000000E+02  0.51100000000E-03 0. -1.
    9900012    2    1    2    0    0 -0.38929953537E+02  0.21535352303E+02 -0.70569779322E+01  0.46142316314E+02  0.99999868035E+01 0.  0.
        -12    1    1    2    0    0  0.38929953537E+02 -0.21535352303E+02  0.70569779322E+01  0.45045683686E+02  0.00000000000E+00 0.  1.
         11    1    3    3    0    0 -0.57424946261E+01  0.72205371507E+00  0.60147168841E+00  0.58188808676E+01  0.51100000000E-03 0. -1.
        -11    1    3    3    0    0 -0.42079327206E+01  0.70886122313E+00 -0.14759941282E+01  0.45152786118E+01  0.51100000000E-03 0.  1.
         12    1    3    3    0    0 -0.28979526190E+02  0.20104437365E+02 -0.61824554924E+01  0.35808156835E+02  0.00000000000E+00 0. -1.
</event>
<event>
 7    1  0.3980989E-008  0.4614232E+02  0.7816164E-02  0.1320468E+00
        -11   -1    0    0    0    0  0.00000000000E+00  0.00000000000E+00  0.45593999997E+02  0.45594000000E+02  0.51100000000E-03 0. -1.
         11   -1    0    0    0    0 -0.00000000000E+00 -0.00000000000E+00 -0.45593999997E+02  0.45594000000E+02  0.51100000000E-03 0.  1.
    9900012    2    1    2    0    0 -0.14188319474E+02 -0.39951073211E+02 -0.15222244585E+02  0.46142318848E+02  0.10000009915E+02 0.  0.
        -12    1    1    2    0    0  0.14188319474E+02  0.39951073211E+02  0.15222244585E+02  0.45045681152E+02  0.00000000000E+00 0.  1.
         11    1    3    3    0    0  0.94393863329E+00 -0.20166031931E+01 -0.10729144272E+01  0.24716096397E+01  0.51100000000E-03 0. -1.
        -11    1    3    3    0    0 -0.14157524305E+01 -0.10873973295E+02 -0.42015976314E+01  0.11743128760E+02  0.51100000000E-03 0.  1.
        -12    1    3    3    0    0 -0.13716505676E+02 -0.27060496723E+02 -0.99477325266E+01  0.31927580448E+02  0.00000000000E+00 0.  1.
</event>
<event>
 7    1  0.3980989E-008  0.4614232E+02  0.7816164E-02  0.1320468E+00
        -11   -1    0    0    0    0  0.00000000000E+00  0.00000000000E+00  0.45593999997E+02  0.45594000000E+02  0.51100000000E-03 0. -1.
         11   -1    0    0    0    0 -0.00000000000E+00 -0.00000000000E+00 -0.45593999997E+02  0.45594000000E+02  0.51100000000E-03 0.  1.
    9900012    2    1    2    0    0  0.42502570147E+02 -0.41995330068E+01  0.14318132599E+02  0.46142317990E+02  0.10000002089E+02 0.  0.
        -12    1    1    2    0    0 -0.42502570147E+02  0.41995330068E+01 -0.14318132599E+02  0.45045682010E+02  0.00000000000E+00 0.  1.
         11    1    3    3    0    0  0.67981593318E+01  0.21699015309E+01  0.83639423609E+00  0.71849146504E+01  0.51100000000E-03 0. -1.
        -11    1    3    3    0    0  0.29749896712E+02 -0.55237653764E+01  0.93848997870E+01  0.31680351680E+02  0.51100000000E-03 0.  1.
        -12    1    3    3    0    0  0.59545141041E+01 -0.84566916129E+00  0.40968385759E+01  0.72770516600E+01  0.00000000000E+00 0.  1.
</event>
<event>
 7    1  0.3980989E-008  0.4614232E+02  0.7816164E-02  0.1320468E+00
        -11   -1    0    0    0    0  0.00000000000E+00  0.00000000000E+00  0.45593999997E+02  0.45594000000E+02  0.51100000000E-03 0.  1.
         11   -1    0    0    0    0 -0.00000000000E+00 -0.00000000000E+00 -0.45593999997E+02  0.45594000000E+02  0.51100000000E-03 0. -1.
    9900012    2    1    2    0    0  0.29234915094E+01  0.92516331729E+01 -0.43988339650E+02  0.46142317142E+02  0.99999943561E+01 0.  0.
        -12    1    1    2    0    0 -0.29234915094E+01 -0.92516331729E+01  0.43988339650E+02  0.45045682858E+02  0.00000000000E+00 0.  1.
         11    1    3    3    0    0 -0.78808299023E+00  0.38916218887E+01 -0.16407193825E+02  0.16880811746E+02  0.51100000000E-03 0. -1.
        -11    1    3    3    0    0  0.37660914200E+00  0.56828363474E+01 -0.11475965683E+02  0.12811489063E+02  0.51100000000E-03 0.  1.
         12    1    3    3    0    0  0.33349653576E+01 -0.32282506327E+00 -0.16105180142E+02  0.16450016333E+02  0.00000000000E+00 0. -1.
</event>
<event>
 7    1  0.3980989E-008  0.4614232E+02  0.7816164E-02  0.1320468E+00
        -11   -1    0    0    0    0  0.00000000000E+00  0.00000000000E+00  0.45593999997E+02  0.45594000000E+02  0.51100000000E-03 0.  1.
         11   -1    0    0    0    0 -0.00000000000E+00 -0.00000000000E+00 -0.45593999997E+02  0.45594000000E+02  0.51100000000E-03 0. -1.
    9900012    2    1    2    0    0 -0.20300269034E+02  0.36193904571E+02 -0.17521810587E+02  0.46142317663E+02  0.99999991088E+01 0.  0.
        -12    1    1    2    0    0  0.20300269034E+02 -0.36193904571E+02  0.17521810587E+02  0.45045682337E+02  0.00000000000E+00 0.  1.
         11    1    3    3    0    0 -0.20494587862E+01  0.89141519161E+01 -0.23752616348E+01  0.94500927929E+01  0.51100000000E-03 0. -1.
        -11    1    3    3    0    0 -0.23937399988E+01  0.30355327686E+01  0.27160294073E+00  0.38753346681E+01  0.51100000000E-03 0.  1.
         12    1    3    3    0    0 -0.15857070249E+02  0.24244219886E+02 -0.15418151893E+02  0.32816890202E+02  0.00000000000E+00 0. -1.
</event>
<event>
 7    1  0.3980989E-008  0.4614232E+02  0.7816164E-02  0.1320468E+00
        -11   -1    0    0    0    0  0.00000000000E+00  0.00000000000E+00  0.45593999997E+02  0.45594000000E+02  0.51100000000E-03 0. -1.
         11   -1    0    0    0    0 -0.00000000000E+00 -0.00000000000E+00 -0.45593999997E+02  0.45594000000E+02  0.51100000000E-03 0.  1.
    9900012    2    1    2    0    0 -0.16579978781E+02 -0.41621650189E+02  0.46749750887E+01  0.46142324814E+02  0.10000064316E+02 0.  0.
        -12    1    1    2    0    0  0.16579978781E+02  0.41621650189E+02 -0.46749750887E+01  0.45045675186E+02  0.00000000000E+00 0.  1.
         11    1    3    3    0    0 -0.89921103769E+01 -0.16769206804E+02  0.52510482749E+01  0.19739246544E+02  0.51100000000E-03 0. -1.
        -11    1    3    3    0    0 -0.78174313326E+01 -0.24950746611E+02 -0.58336753250E+00  0.26153246587E+02  0.51100000000E-03 0.  1.
         12    1    3    3    0    0  0.22956292879E+00  0.98303226160E-01  0.72943463526E-02  0.24983168342E+00  0.00000000000E+00 0. -1.
</event>
<event>
 7    1  0.3980989E-008  0.4614232E+02  0.7816164E-02  0.1320468E+00
        -11   -1    0    0    0    0  0.00000000000E+00  0.00000000000E+00  0.45593999997E+02  0.45594000000E+02  0.51100000000E-03 0.  1.
         11   -1    0    0    0    0 -0.00000000000E+00 -0.00000000000E+00 -0.45593999997E+02  0.45594000000E+02  0.51100000000E-03 0. -1.
    9900012    2    1    2    0    0  0.28467286946E+02 -0.31478265892E+02 -0.15094565403E+02  0.46142317029E+02  0.99999933209E+01 0.  0.
        -12    1    1    2    0    0 -0.28467286946E+02  0.31478265892E+02  0.15094565403E+02  0.45045682971E+02  0.00000000000E+00 0.  1.
         11    1    3    3    0    0  0.96966145023E+01 -0.80275029592E+01 -0.21801069718E+01  0.12775680148E+02  0.51100000000E-03 0. -1.
        -11    1    3    3    0    0  0.99132913324E+01 -0.73330776671E+01 -0.43108571837E+01  0.13062574901E+02  0.51100000000E-03 0.  1.
        -12    1    3    3    0    0  0.88573811116E+01 -0.16117685266E+02 -0.86036012475E+01  0.20304061980E+02  0.00000000000E+00 0.  1.
</event>
<event>
 7    1  0.3980989E-008  0.4614232E+02  0.7816164E-02  0.1320468E+00
        -11   -1    0    0    0    0  0.00000000000E+00  0.00000000000E+00  0.45593999997E+02  0.45594000000E+02  0.51100000000E-03 0.  1.
         11   -1    0    0    0    0 -0.00000000000E+00 -0.00000000000E+00 -0.45593999997E+02  0.45594000000E+02  0.51100000000E-03 0. -1.
    9900012    2    1    2    0    0  0.73071865585E+01 -0.25109330554E+02 -0.36677513560E+02  0.46142318107E+02  0.10000003158E+02 0.  0.
        -12    1    1    2    0    0 -0.73071865585E+01  0.25109330554E+02  0.36677513560E+02  0.45045681893E+02  0.00000000000E+00 0.  1.
         11    1    3    3    0    0  0.26445867830E+01 -0.11310469947E+01 -0.22491743743E+01  0.36512863739E+01  0.51100000000E-03 0.  1.
        -11    1    3    3    0    0 -0.12820103696E+00 -0.43090620800E+01 -0.36338161651E+01  0.56381798214E+01  0.51100000000E-03 0. -1.
         12    1    3    3    0    0  0.47908008125E+01 -0.19669221479E+02 -0.30794523020E+02  0.36852851912E+02  0.00000000000E+00 0. -1.
</event>
<event>
 7    1  0.3980989E-008  0.4614232E+02  0.7816164E-02  0.1320468E+00
        -11   -1    0    0    0    0  0.00000000000E+00  0.00000000000E+00  0.45593999997E+02  0.45594000000E+02  0.51100000000E-03 0. -1.
         11   -1    0    0    0    0 -0.00000000000E+00 -0.00000000000E+00 -0.45593999997E+02  0.45594000000E+02  0.51100000000E-03 0.  1.
    9900012    2    1    2    0    0 -0.14734712200E+01  0.83864298793E+01  0.44233585646E+02  0.46142318491E+02  0.10000006654E+02 0.  0.
        -12    1    1    2    0    0  0.14734712200E+01 -0.83864298793E+01 -0.44233585646E+02  0.45045681509E+02  0.00000000000E+00 0.  1.
         11    1    3    3    0    0 -0.64782765926E+00  0.22867646543E+01  0.22362863463E+01  0.32634261359E+01  0.51100000000E-03 0. -1.
        -11    1    3    3    0    0  0.18184281889E+01  0.32169503757E-01  0.57006471092E+01  0.59837357629E+01  0.51100000000E-03 0.  1.
         12    1    3    3    0    0 -0.26440717496E+01  0.60674957212E+01  0.36296652190E+02  0.36895156592E+02  0.00000000000E+00 0. -1.
</event>
<event>
 7    1  0.3980989E-008  0.4614232E+02  0.7816164E-02  0.1320468E+00
        -11   -1    0    0    0    0  0.00000000000E+00  0.00000000000E+00  0.45593999997E+02  0.45594000000E+02  0.51100000000E-03 0.  1.
         11   -1    0    0    0    0 -0.00000000000E+00 -0.00000000000E+00 -0.45593999997E+02  0.45594000000E+02  0.51100000000E-03 0. -1.
    9900012    2    1    2    0    0 -0.26157007354E+01  0.40596307116E+02 -0.19344545343E+02  0.46142317895E+02  0.10000001217E+02 0.  0.
        -12    1    1    2    0    0  0.26157007354E+01 -0.40596307116E+02  0.19344545343E+02  0.45045682105E+02  0.00000000000E+00 0.  1.
         11    1    3    3    0    0  0.16528108029E+01  0.92040498225E+01 -0.47439465096E+01  0.10485768710E+02  0.51100000000E-03 0. -1.
        -11    1    3    3    0    0 -0.53699507945E+01  0.25928367264E+02 -0.14255249619E+02  0.30072059166E+02  0.51100000000E-03 0.  1.
        -12    1    3    3    0    0  0.11014392562E+01  0.54638900299E+01 -0.34534921394E+00  0.55844900191E+01  0.00000000000E+00 0.  1.
</event>
<event>
 7    1  0.3980989E-008  0.4614232E+02  0.7816164E-02  0.1320468E+00
        -11   -1    0    0    0    0  0.00000000000E+00  0.00000000000E+00  0.45593999997E+02  0.45594000000E+02  0.51100000000E-03 0.  1.
         11   -1    0    0    0    0 -0.00000000000E+00 -0.00000000000E+00 -0.45593999997E+02  0.45594000000E+02  0.51100000000E-03 0. -1.
    9900012    2    1    2    0    0  0.14987507735E+02  0.19027931674E+02 -0.37979281798E+02  0.46142318544E+02  0.10000007143E+02 0.  0.
        -12    1    1    2    0    0 -0.14987507735E+02 -0.19027931674E+02  0.37979281798E+02  0.45045681456E+02  0.00000000000E+00 0.  1.
         11    1    3    3    0    0  0.54610363549E+01  0.13341836286E+02 -0.16781186813E+02  0.22123194722E+02  0.51100000000E-03 0. -1.
        -11    1    3    3    0    0  0.29977519655E+01  0.88282756434E+00 -0.70965965557E+01  0.77541978496E+01  0.51100000000E-03 0.  1.
         12    1    3    3    0    0  0.65287194142E+01  0.48032678235E+01 -0.14101498429E+02  0.16264925973E+02  0.00000000000E+00 0. -1.
</event>
<event>
 7    1  0.3980989E-008  0.4614232E+02  0.7816164E-02  0.1320468E+00
        -11   -1    0    0    0    0  0.00000000000E+00  0.00000000000E+00  0.45593999997E+02  0.45594000000E+02  0.51100000000E-03 0.  1.
         11   -1    0    0    0    0 -0.00000000000E+00 -0.00000000000E+00 -0.45593999997E+02  0.45594000000E+02  0.51100000000E-03 0. -1.
    9900012    2    1    2    0    0 -0.21577333297E+02  0.38964812766E+02 -0.67287086669E+01  0.46142318004E+02  0.10000002218E+02 0.  0.
        -12    1    1    2    0    0  0.21577333297E+02 -0.38964812766E+02  0.67287086669E+01  0.45045681996E+02  0.00000000000E+00 0.  1.
         11    1    3    3    0    0 -0.53275916749E+01  0.15116739400E+02 -0.51137498693E+01  0.16824074451E+02  0.51100000000E-03 0. -1.
        -11    1    3    3    0    0 -0.57292874401E+00  0.14614817262E+01  0.10036706186E+01  0.18632045388E+01  0.51100000000E-03 0.  1.
         12    1    3    3    0    0 -0.15676812878E+02  0.22386591640E+02 -0.26186294162E+01  0.27455039014E+02  0.00000000000E+00 0. -1.
</event>
<event>
 7    1  0.3980989E-008  0.4614232E+02  0.7816164E-02  0.1320468E+00
        -11   -1    0    0    0    0  0.00000000000E+00  0.00000000000E+00  0.45593999997E+02  0.45594000000E+02  0.51100000000E-03 0. -1.
         11   -1    0    0    0    0 -0.00000000000E+00 -0.00000000000E+00 -0.45593999997E+02  0.45594000000E+02  0.51100000000E-03 0.  1.
    9900012    2    1    2    0    0  0.73568153058E+01  0.12821274562E+02  0.42551214087E+02  0.46142316155E+02  0.99999853513E+01 0.  0.
        -12    1    1    2    0    0 -0.73568153058E+01 -0.12821274562E+02 -0.42551214087E+02  0.45045683845E+02  0.00000000000E+00 0.  1.
         11    1    3    3    0    0  0.51958022272E+01  0.93761213861E+01  0.24545263567E+02  0.26783912650E+02  0.51100000000E-03 0. -1.
        -11    1    3    3    0    0 -0.68980129627E-01  0.17665508529E+01  0.15520974124E+02  0.15621334713E+02  0.51100000000E-03 0.  1.
        -12    1    3    3    0    0  0.22299932082E+01  0.16786023234E+01  0.24849763954E+01  0.37370687917E+01  0.00000000000E+00 0.  1.
</event>
<event>
 7    1  0.3980989E-008  0.4614232E+02  0.7816164E-02  0.1320468E+00
        -11   -1    0    0    0    0  0.00000000000E+00  0.00000000000E+00  0.45593999997E+02  0.45594000000E+02  0.51100000000E-03 0. -1.
         11   -1    0    0    0    0 -0.00000000000E+00 -0.00000000000E+00 -0.45593999997E+02  0.45594000000E+02  0.51100000000E-03 0.  1.
    9900012    2    1    2    0    0 -0.27465593638E+02  0.21602257412E+02  0.28427049354E+02  0.46142317697E+02  0.99999994142E+01 0.  0.
        -12    1    1    2    0    0  0.27465593638E+02 -0.21602257412E+02 -0.28427049354E+02  0.45045682303E+02  0.00000000000E+00 0.  1.
         11    1    3    3    0    0 -0.13654531781E+02  0.11499730500E+02  0.98436603988E+01  0.20385967969E+02  0.51100000000E-03 0. -1.
        -11    1    3    3    0    0 -0.51818435344E+01  0.66466956957E+01  0.10271855870E+02  0.13286876584E+02  0.51100000000E-03 0.  1.
        -12    1    3    3    0    0 -0.86292183230E+01  0.34558312166E+01  0.83115330847E+01  0.12469473144E+02  0.00000000000E+00 0.  1.
</event>
<event>
 7    1  0.3980989E-008  0.4614232E+02  0.7816164E-02  0.1320468E+00
        -11   -1    0    0    0    0  0.00000000000E+00  0.00000000000E+00  0.45593999997E+02  0.45594000000E+02  0.51100000000E-03 0.  1.
         11   -1    0    0    0    0 -0.00000000000E+00 -0.00000000000E+00 -0.45593999997E+02  0.45594000000E+02  0.51100000000E-03 0. -1.
    9900012    2    1    2    0    0 -0.17165859584E+02  0.35687471017E+02 -0.21467444480E+02  0.46142317684E+02  0.99999992938E+01 0.  0.
        -12    1    1    2    0    0  0.17165859584E+02 -0.35687471017E+02  0.21467444480E+02  0.45045682316E+02  0.00000000000E+00 0.  1.
         11    1    3    3    0    0 -0.88732018657E+01  0.11132998823E+02 -0.61923087805E+01  0.15524885263E+02  0.51100000000E-03 0. -1.
        -11    1    3    3    0    0 -0.35219672134E+01  0.67546390236E+01 -0.72551777403E+01  0.10519838672E+02  0.51100000000E-03 0.  1.
         12    1    3    3    0    0 -0.47706905051E+01  0.17799833171E+02 -0.80199579589E+01  0.20097593748E+02  0.00000000000E+00 0. -1.
</event>
<event>
 7    1  0.3980989E-008  0.4614232E+02  0.7816164E-02  0.1320468E+00
        -11   -1    0    0    0    0  0.00000000000E+00  0.00000000000E+00  0.45593999997E+02  0.45594000000E+02  0.51100000000E-03 0.  1.
         11   -1    0    0    0    0 -0.00000000000E+00 -0.00000000000E+00 -0.45593999997E+02  0.45594000000E+02  0.51100000000E-03 0. -1.
    9900012    2    1    2    0    0  0.32288573155E+02 -0.26137908531E+02  0.17417555264E+02  0.46142318185E+02  0.10000003864E+02 0.  0.
        -12    1    1    2    0    0 -0.32288573155E+02  0.26137908531E+02 -0.17417555264E+02  0.45045681815E+02  0.00000000000E+00 0.  1.
         11    1    3    3    0    0  0.20288924490E+02 -0.19192928037E+02  0.11789837863E+02  0.30315164863E+02  0.51100000000E-03 0. -1.
        -11    1    3    3    0    0  0.15281825182E+01 -0.27967346681E+01 -0.10546995523E+00  0.31887600702E+01  0.51100000000E-03 0.  1.
         12    1    3    3    0    0  0.10471466147E+02 -0.41482458262E+01  0.57331873567E+01  0.12638393251E+02  0.00000000000E+00 0. -1.
</event>
<event>
 7    1  0.3980989E-008  0.4614232E+02  0.7816164E-02  0.1320468E+00
        -11   -1    0    0    0    0  0.00000000000E+00  0.00000000000E+00  0.45593999997E+02  0.45594000000E+02  0.51100000000E-03 0.  1.
         11   -1    0    0    0    0 -0.00000000000E+00 -0.00000000000E+00 -0.45593999997E+02  0.45594000000E+02  0.51100000000E-03 0. -1.
    9900012    2    1    2    0    0 -0.18719177007E+01 -0.27718763189E+02 -0.35458135454E+02  0.46142320091E+02  0.10000021244E+02 0.  0.
        -12    1    1    2    0    0  0.18719177007E+01  0.27718763189E+02  0.35458135454E+02  0.45045679909E+02  0.00000000000E+00 0.  1.
         11    1    3    3    0    0  0.80878317239E+00 -0.44095418278E+01 -0.61928969434E+01  0.76452705749E+01  0.51100000000E-03 0. -1.
        -11    1    3    3    0    0 -0.52318635565E+00  0.68254938172E-01 -0.38967445586E+01  0.39323022665E+01  0.51100000000E-03 0.  1.
         12    1    3    3    0    0 -0.21575145174E+01 -0.23377476299E+02 -0.25368493952E+02  0.34564747249E+02  0.00000000000E+00 0. -1.
</event>
<event>
 7    1  0.3980989E-008  0.4614232E+02  0.7816164E-02  0.1320468E+00
        -11   -1    0    0    0    0  0.00000000000E+00  0.00000000000E+00  0.45593999997E+02  0.45594000000E+02  0.51100000000E-03 0.  1.
         11   -1    0    0    0    0 -0.00000000000E+00 -0.00000000000E+00 -0.45593999997E+02  0.45594000000E+02  0.51100000000E-03 0. -1.
    9900012    2    1    2    0    0  0.34909269249E+02 -0.28278257322E+02 -0.32858489879E+01  0.46142315187E+02  0.99999765288E+01 0.  0.
        -12    1    1    2    0    0 -0.34909269249E+02  0.28278257322E+02  0.32858489879E+01  0.45045684813E+02  0.00000000000E+00 0.  1.
         11    1    3    3    0    0  0.99669791672E+01 -0.93748146373E+01 -0.31937509223E+01  0.14050902762E+02  0.51100000000E-03 0. -1.
        -11    1    3    3    0    0  0.33839417304E+01 -0.43682946668E-01  0.61246985952E+00  0.34391989509E+01  0.51100000000E-03 0.  1.
        -12    1    3    3    0    0  0.21558348351E+02 -0.18859759738E+02 -0.70456792507E+00  0.28652213475E+02  0.00000000000E+00 0.  1.
</event>
<event>
 7    1  0.3980989E-008  0.4614232E+02  0.7816164E-02  0.1320468E+00
        -11   -1    0    0    0    0  0.00000000000E+00  0.00000000000E+00  0.45593999997E+02  0.45594000000E+02  0.51100000000E-03 0.  1.
         11   -1    0    0    0    0 -0.00000000000E+00 -0.00000000000E+00 -0.45593999997E+02  0.45594000000E+02  0.51100000000E-03 0. -1.
    9900012    2    1    2    0    0  0.42314319745E+01 -0.42293939592E+02 -0.14914121726E+02  0.46142319079E+02  0.10000012019E+02 0.  0.
        -12    1    1    2    0    0 -0.42314319745E+01  0.42293939592E+02  0.14914121726E+02  0.45045680921E+02  0.00000000000E+00 0.  1.
         11    1    3    3    0    0  0.26647778734E+01 -0.20451179163E+02 -0.72943268145E+01  0.21875990817E+02  0.51100000000E-03 0. -1.
        -11    1    3    3    0    0  0.16876157435E+01 -0.17999184281E+02 -0.89822582751E+01  0.20186620462E+02  0.51100000000E-03 0.  1.
        -12    1    3    3    0    0 -0.12096164239E+00 -0.38435761481E+01  0.13624633635E+01  0.40797078010E+01  0.00000000000E+00 0.  1.
</event>
<event>
 7    1  0.3980989E-008  0.4614232E+02  0.7816164E-02  0.1320468E+00
        -11   -1    0    0    0    0  0.00000000000E+00  0.00000000000E+00  0.45593999997E+02  0.45594000000E+02  0.51100000000E-03 0.  1.
         11   -1    0    0    0    0 -0.00000000000E+00 -0.00000000000E+00 -0.45593999997E+02  0.45594000000E+02  0.51100000000E-03 0. -1.
    9900012    2    1    2    0    0 -0.36259721709E+02  0.26719894003E+02 -0.62718718962E+00  0.46142317435E+02  0.99999970307E+01 0.  0.
        -12    1    1    2    0    0  0.36259721709E+02 -0.26719894003E+02  0.62718718962E+00  0.45045682565E+02  0.00000000000E+00 0.  1.
         11    1    3    3    0    0 -0.16483916084E+02  0.11096600204E+02  0.42056206158E+01  0.20311111997E+02  0.51100000000E-03 0. -1.
        -11    1    3    3    0    0 -0.52832905340E+00  0.11645824067E+01 -0.58821924989E-02  0.12788348729E+01  0.51100000000E-03 0.  1.
         12    1    3    3    0    0 -0.19247476571E+02  0.14458711392E+02 -0.48269256129E+01  0.24552370565E+02  0.00000000000E+00 0. -1.
</event>
<event>
 7    1  0.3980989E-008  0.4614232E+02  0.7816164E-02  0.1320468E+00
        -11   -1    0    0    0    0  0.00000000000E+00  0.00000000000E+00  0.45593999997E+02  0.45594000000E+02  0.51100000000E-03 0.  1.
         11   -1    0    0    0    0 -0.00000000000E+00 -0.00000000000E+00 -0.45593999997E+02  0.45594000000E+02  0.51100000000E-03 0. -1.
    9900012    2    1    2    0    0  0.11123080844E+02 -0.17384151134E+02 -0.40039755151E+02  0.46142316181E+02  0.99999855922E+01 0.  0.
        -12    1    1    2    0    0 -0.11123080844E+02  0.17384151134E+02  0.40039755151E+02  0.45045683819E+02  0.00000000000E+00 0.  1.
         11    1    3    3    0    0  0.10745353637E+01 -0.29109648038E+01 -0.48162257379E+01  0.57292558815E+01  0.51100000000E-03 0. -1.
        -11    1    3    3    0    0  0.10507627037E+02 -0.15286001647E+02 -0.31331475282E+02  0.36410622295E+02  0.51100000000E-03 0.  1.
        -12    1    3    3    0    0 -0.45908155656E+00  0.81281531706E+00 -0.38920541320E+01  0.40024380047E+01  0.00000000000E+00 0.  1.
</event>
<event>
 7    1  0.3980989E-008  0.4614232E+02  0.7816164E-02  0.1320468E+00
        -11   -1    0    0    0    0  0.00000000000E+00  0.00000000000E+00  0.45593999997E+02  0.45594000000E+02  0.51100000000E-03 0.  1.
         11   -1    0    0    0    0 -0.00000000000E+00 -0.00000000000E+00 -0.45593999997E+02  0.45594000000E+02  0.51100000000E-03 0. -1.
    9900012    2    1    2    0    0  0.38980170194E+02 -0.14080322643E+02 -0.17646648222E+02  0.46142319325E+02  0.10000014258E+02 0.  0.
        -12    1    1    2    0    0 -0.38980170194E+02  0.14080322643E+02  0.17646648222E+02  0.45045680675E+02  0.00000000000E+00 0.  1.
         11    1    3    3    0    0  0.78165331420E+01 -0.59457036872E+01 -0.55167584624E+01  0.11264289010E+02  0.51100000000E-03 0.  1.
        -11    1    3    3    0    0  0.14561356324E+02 -0.57381990242E+01 -0.81150287689E+01  0.17629909762E+02  0.51100000000E-03 0. -1.
        -12    1    3    3    0    0  0.16602280728E+02 -0.23964199315E+01 -0.40148609904E+01  0.17248120553E+02  0.00000000000E+00 0.  1.
</event>
<event>
 7    1  0.3980989E-008  0.4614232E+02  0.7816164E-02  0.1320468E+00
        -11   -1    0    0    0    0  0.00000000000E+00  0.00000000000E+00  0.45593999997E+02  0.45594000000E+02  0.51100000000E-03 0.  1.
         11   -1    0    0    0    0 -0.00000000000E+00 -0.00000000000E+00 -0.45593999997E+02  0.45594000000E+02  0.51100000000E-03 0. -1.
    9900012    2    1    2    0    0 -0.34061467207E+02 -0.14168801524E+02 -0.25849081208E+02  0.46142317807E+02  0.10000000421E+02 0.  0.
        -12    1    1    2    0    0  0.34061467207E+02  0.14168801524E+02  0.25849081208E+02  0.45045682193E+02  0.00000000000E+00 0.  1.
         11    1    3    3    0    0 -0.15537063616E+02 -0.90162316301E+01 -0.11168702478E+02  0.21152604897E+02  0.51100000000E-03 0. -1.
        -11    1    3    3    0    0 -0.11570006987E+02 -0.57905257048E+01 -0.11522920212E+02  0.17325499707E+02  0.51100000000E-03 0.  1.
        -12    1    3    3    0    0 -0.69543966034E+01  0.63795581066E+00 -0.31574585177E+01  0.76642132032E+01  0.00000000000E+00 0.  1.
</event>
<event>
 7    1  0.3980989E-008  0.4614232E+02  0.7816164E-02  0.1320468E+00
        -11   -1    0    0    0    0  0.00000000000E+00  0.00000000000E+00  0.45593999997E+02  0.45594000000E+02  0.51100000000E-03 0. -1.
         11   -1    0    0    0    0 -0.00000000000E+00 -0.00000000000E+00 -0.45593999997E+02  0.45594000000E+02  0.51100000000E-03 0.  1.
    9900012    2    1    2    0    0  0.22301066338E+02 -0.16075582312E+02  0.35684055440E+02  0.46142315200E+02  0.99999766456E+01 0.  0.
        -12    1    1    2    0    0 -0.22301066338E+02  0.16075582312E+02 -0.35684055440E+02  0.45045684800E+02  0.00000000000E+00 0.  1.
         11    1    3    3    0    0  0.16750806322E+02 -0.15496547103E+02  0.26143822483E+02  0.34702045168E+02  0.51100000000E-03 0. -1.
        -11    1    3    3    0    0  0.94577804883E+00 -0.76937375039E+00  0.54958720536E+00  0.13373400625E+01  0.51100000000E-03 0.  1.
        -12    1    3    3    0    0  0.46044819669E+01  0.19033854125E+00  0.89906457511E+01  0.10102929969E+02  0.00000000000E+00 0.  1.
</event>
<event>
 7    1  0.3980989E-008  0.4614231E+02  0.7816164E-02  0.1320468E+00
        -11   -1    0    0    0    0  0.00000000000E+00  0.00000000000E+00  0.45593999997E+02  0.45594000000E+02  0.51100000000E-03 0. -1.
         11   -1    0    0    0    0 -0.00000000000E+00 -0.00000000000E+00 -0.45593999997E+02  0.45594000000E+02  0.51100000000E-03 0.  1.
    9900012    2    1    2    0    0  0.31631714434E+02  0.10209750377E+02  0.30402464098E+02  0.46142310040E+02  0.99999295884E+01 0.  0.
        -12    1    1    2    0    0 -0.31631714434E+02 -0.10209750377E+02 -0.30402464098E+02  0.45045689960E+02  0.00000000000E+00 0.  1.
         11    1    3    3    0    0  0.81448332808E+01  0.68858770422E+01  0.83746897097E+01  0.13560569302E+02  0.51100000000E-03 0. -1.
        -11    1    3    3    0    0  0.13815213229E+01 -0.22465645010E+00  0.25389632782E+01  0.28992079048E+01  0.51100000000E-03 0.  1.
         12    1    3    3    0    0  0.22105359830E+02  0.35485297851E+01  0.19488811110E+02  0.29682532832E+02  0.00000000000E+00 0. -1.
</event>
<event>
 7    1  0.3980989E-008  0.4614232E+02  0.7816164E-02  0.1320468E+00
        -11   -1    0    0    0    0  0.00000000000E+00  0.00000000000E+00  0.45593999997E+02  0.45594000000E+02  0.51100000000E-03 0. -1.
         11   -1    0    0    0    0 -0.00000000000E+00 -0.00000000000E+00 -0.45593999997E+02  0.45594000000E+02  0.51100000000E-03 0.  1.
    9900012    2    1    2    0    0  0.24039817498E+02 -0.24834637553E+02  0.28886700880E+02  0.46142317238E+02  0.99999952301E+01 0.  0.
        -12    1    1    2    0    0 -0.24039817498E+02  0.24834637553E+02 -0.28886700880E+02  0.45045682762E+02  0.00000000000E+00 0.  1.
         11    1    3    3    0    0  0.26847998270E+01 -0.24888895988E+01  0.11524764556E+00  0.36627863474E+01  0.51100000000E-03 0. -1.
        -11    1    3    3    0    0  0.24247503195E+01 -0.18827600174E+01  0.48831198038E+01  0.57679336572E+01  0.51100000000E-03 0.  1.
         12    1    3    3    0    0  0.18930267352E+02 -0.20462987937E+02  0.23888333431E+02  0.36711597233E+02  0.00000000000E+00 0. -1.
</event>
<event>
 7    1  0.3980989E-008  0.4614232E+02  0.7816164E-02  0.1320468E+00
        -11   -1    0    0    0    0  0.00000000000E+00  0.00000000000E+00  0.45593999997E+02  0.45594000000E+02  0.51100000000E-03 0.  1.
         11   -1    0    0    0    0 -0.00000000000E+00 -0.00000000000E+00 -0.45593999997E+02  0.45594000000E+02  0.51100000000E-03 0. -1.
    9900012    2    1    2    0    0  0.84298609446E+01 -0.12310413655E+02 -0.42502996043E+02  0.46142317493E+02  0.99999975511E+01 0.  0.
        -12    1    1    2    0    0 -0.84298609446E+01  0.12310413655E+02  0.42502996043E+02  0.45045682507E+02  0.00000000000E+00 0.  1.
         11    1    3    3    0    0  0.23583244633E+01 -0.77832615590E+01 -0.19050747320E+02  0.20714049061E+02  0.51100000000E-03 0. -1.
        -11    1    3    3    0    0  0.17091778431E+01 -0.43756466927E+01 -0.71758796029E+01  0.85767605315E+01  0.51100000000E-03 0.  1.
         12    1    3    3    0    0  0.43623586381E+01 -0.15150540319E+00 -0.16276369120E+02  0.16851507900E+02  0.00000000000E+00 0. -1.
</event>
<event>
 7    1  0.3980989E-008  0.4614232E+02  0.7816164E-02  0.1320468E+00
        -11   -1    0    0    0    0  0.00000000000E+00  0.00000000000E+00  0.45593999997E+02  0.45594000000E+02  0.51100000000E-03 0.  1.
         11   -1    0    0    0    0 -0.00000000000E+00 -0.00000000000E+00 -0.45593999997E+02  0.45594000000E+02  0.51100000000E-03 0. -1.
    9900012    2    1    2    0    0 -0.33494924392E+02 -0.98829595443E+01 -0.28452252528E+02  0.46142317373E+02  0.99999964649E+01 0.  0.
        -12    1    1    2    0    0  0.33494924392E+02  0.98829595443E+01  0.28452252528E+02  0.45045682627E+02  0.00000000000E+00 0.  1.
         11    1    3    3    0    0 -0.78458038699E+01 -0.44127942238E+01 -0.72794486965E+01  0.11576690581E+02  0.51100000000E-03 0. -1.
        -11    1    3    3    0    0 -0.10735209713E+02 -0.55863621351E+01 -0.69433319913E+01  0.13952133489E+02  0.51100000000E-03 0.  1.
        -12    1    3    3    0    0 -0.14913910809E+02  0.11619681461E+00 -0.14229471840E+02  0.20613493303E+02  0.00000000000E+00 0.  1.
</event>
<event>
 7    1  0.3980989E-008  0.4614232E+02  0.7816164E-02  0.1320468E+00
        -11   -1    0    0    0    0  0.00000000000E+00  0.00000000000E+00  0.45593999997E+02  0.45594000000E+02  0.51100000000E-03 0.  1.
         11   -1    0    0    0    0 -0.00000000000E+00 -0.00000000000E+00 -0.45593999997E+02  0.45594000000E+02  0.51100000000E-03 0. -1.
    9900012    2    1    2    0    0 -0.23659642649E+02  0.37378090361E+02  0.84978202376E+01  0.46142320095E+02  0.10000021287E+02 0.  0.
        -12    1    1    2    0    0  0.23659642649E+02 -0.37378090361E+02 -0.84978202376E+01  0.45045679905E+02  0.00000000000E+00 0.  1.
         11    1    3    3    0    0 -0.22218386499E+01  0.69207467262E+00  0.76234356895E-02  0.23271426077E+01  0.51100000000E-03 0. -1.
        -11    1    3    3    0    0 -0.18207377425E+02  0.27736883027E+02  0.86923525140E+01  0.34298691888E+02  0.51100000000E-03 0.  1.
         12    1    3    3    0    0 -0.32304265733E+01  0.89491326615E+01 -0.20215571210E+00  0.95164855997E+01  0.00000000000E+00 0. -1.
</event>
<event>
 7    1  0.3980989E-008  0.4614232E+02  0.7816164E-02  0.1320468E+00
        -11   -1    0    0    0    0  0.00000000000E+00  0.00000000000E+00  0.45593999997E+02  0.45594000000E+02  0.51100000000E-03 0. -1.
         11   -1    0    0    0    0 -0.00000000000E+00 -0.00000000000E+00 -0.45593999997E+02  0.45594000000E+02  0.51100000000E-03 0.  1.
    9900012    2    1    2    0    0 -0.38790367346E+02  0.48290607050E+01 -0.22385286235E+02  0.46142318010E+02  0.10000002267E+02 0.  0.
        -12    1    1    2    0    0  0.38790367346E+02 -0.48290607050E+01  0.22385286235E+02  0.45045681990E+02  0.00000000000E+00 0.  1.
         11    1    3    3    0    0 -0.65658478689E+01 -0.81593092008E+00 -0.41230672390E+01  0.77958825814E+01  0.51100000000E-03 0. -1.
        -11    1    3    3    0    0 -0.14436927268E+02 -0.15585480890E+01 -0.74834365247E+01  0.16335720479E+02  0.51100000000E-03 0.  1.
         12    1    3    3    0    0 -0.17787592209E+02  0.72035397141E+01 -0.10778782472E+02  0.22010714949E+02  0.00000000000E+00 0. -1.
</event>
<event>
 7    1  0.3980989E-008  0.4614233E+02  0.7816164E-02  0.1320468E+00
        -11   -1    0    0    0    0  0.00000000000E+00  0.00000000000E+00  0.45593999997E+02  0.45594000000E+02  0.51100000000E-03 0.  1.
         11   -1    0    0    0    0 -0.00000000000E+00 -0.00000000000E+00 -0.45593999997E+02  0.45594000000E+02  0.51100000000E-03 0. -1.
    9900012    2    1    2    0    0  0.19175016947E+01  0.17011805233E+02 -0.41665745746E+02  0.46142326528E+02  0.10000079942E+02 0.  0.
        -12    1    1    2    0    0 -0.19175016947E+01 -0.17011805233E+02  0.41665745746E+02  0.45045673472E+02  0.00000000000E+00 0.  1.
         11    1    3    3    0    0 -0.15798597293E+01  0.94418312249E+00 -0.97685596691E+01  0.99404324253E+01  0.51100000000E-03 0.  1.
        -11    1    3    3    0    0 -0.42255080431E+00  0.57645679164E+01 -0.78497120342E+01  0.97481676086E+01  0.51100000000E-03 0. -1.
        -12    1    3    3    0    0  0.39199122283E+01  0.10303054194E+02 -0.24047474042E+02  0.26453726494E+02  0.00000000000E+00 0.  1.
</event>
<event>
 7    1  0.3980989E-008  0.4614232E+02  0.7816164E-02  0.1320468E+00
        -11   -1    0    0    0    0  0.00000000000E+00  0.00000000000E+00  0.45593999997E+02  0.45594000000E+02  0.51100000000E-03 0.  1.
         11   -1    0    0    0    0 -0.00000000000E+00 -0.00000000000E+00 -0.45593999997E+02  0.45594000000E+02  0.51100000000E-03 0. -1.
    9900012    2    1    2    0    0  0.30188033187E+02  0.31340963862E+02  0.11642169968E+02  0.46142317798E+02  0.10000000334E+02 0.  0.
        -12    1    1    2    0    0 -0.30188033187E+02 -0.31340963862E+02 -0.11642169968E+02  0.45045682202E+02  0.00000000000E+00 0.  1.
         11    1    3    3    0    0  0.10680355738E+02  0.10744321433E+02  0.41391243916E+01  0.15704865257E+02  0.51100000000E-03 0. -1.
        -11    1    3    3    0    0  0.13752950462E+02  0.12024412534E+02  0.83337083492E+01  0.20079363494E+02  0.51100000000E-03 0.  1.
         12    1    3    3    0    0  0.57547269873E+01  0.85722298947E+01 -0.83066277278E+00  0.10358089047E+02  0.00000000000E+00 0. -1.
</event>
<event>
 7    1  0.3980989E-008  0.4614232E+02  0.7816164E-02  0.1320468E+00
        -11   -1    0    0    0    0  0.00000000000E+00  0.00000000000E+00  0.45593999997E+02  0.45594000000E+02  0.51100000000E-03 0.  1.
         11   -1    0    0    0    0 -0.00000000000E+00 -0.00000000000E+00 -0.45593999997E+02  0.45594000000E+02  0.51100000000E-03 0. -1.
    9900012    2    1    2    0    0  0.24699314324E+02 -0.29994616180E+02 -0.22789918491E+02  0.46142317491E+02  0.99999975376E+01 0.  0.
        -12    1    1    2    0    0 -0.24699314324E+02  0.29994616180E+02  0.22789918491E+02  0.45045682509E+02  0.00000000000E+00 0.  1.
         11    1    3    3    0    0  0.15237258191E+02 -0.12836963281E+02 -0.12532181815E+02  0.23537570919E+02  0.51100000000E-03 0.  1.
        -11    1    3    3    0    0  0.53110686620E+01 -0.11693550145E+02 -0.88574800310E+01  0.15601330651E+02  0.51100000000E-03 0. -1.
        -12    1    3    3    0    0  0.41509874708E+01 -0.54641027547E+01 -0.14002566454E+01  0.70034159216E+01  0.00000000000E+00 0.  1.
</event>
<event>
 7    1  0.3980989E-008  0.4614232E+02  0.7816164E-02  0.1320468E+00
        -11   -1    0    0    0    0  0.00000000000E+00  0.00000000000E+00  0.45593999997E+02  0.45594000000E+02  0.51100000000E-03 0.  1.
         11   -1    0    0    0    0 -0.00000000000E+00 -0.00000000000E+00 -0.45593999997E+02  0.45594000000E+02  0.51100000000E-03 0. -1.
    9900012    2    1    2    0    0  0.32839221998E+02 -0.33925823102E+01 -0.30646197140E+02  0.46142317462E+02  0.99999972755E+01 0.  0.
        -12    1    1    2    0    0 -0.32839221998E+02  0.33925823102E+01  0.30646197140E+02  0.45045682538E+02  0.00000000000E+00 0.  1.
         11    1    3    3    0    0  0.26624424483E+02 -0.46303420238E+01 -0.22005343358E+02  0.34850181963E+02  0.51100000000E-03 0. -1.
        -11    1    3    3    0    0  0.62710995890E+01  0.14529673436E+01 -0.65294735911E+01  0.91690691892E+01  0.51100000000E-03 0.  1.
         12    1    3    3    0    0 -0.56302074106E-01 -0.21520763003E+00 -0.21113801904E+01  0.21230663098E+01  0.00000000000E+00 0. -1.
</event>
<event>
 7    1  0.3980989E-008  0.4614232E+02  0.7816164E-02  0.1320468E+00
        -11   -1    0    0    0    0  0.00000000000E+00  0.00000000000E+00  0.45593999997E+02  0.45594000000E+02  0.51100000000E-03 0.  1.
         11   -1    0    0    0    0 -0.00000000000E+00 -0.00000000000E+00 -0.45593999997E+02  0.45594000000E+02  0.51100000000E-03 0. -1.
    9900012    2    1    2    0    0 -0.47581814555E+01  0.31001299005E+01 -0.44686266485E+02  0.46142317537E+02  0.99999979571E+01 0.  0.
        -12    1    1    2    0    0  0.47581814555E+01 -0.31001299005E+01  0.44686266485E+02  0.45045682463E+02  0.00000000000E+00 0.  1.
         11    1    3    3    0    0 -0.19515057206E+01  0.38965604627E+01 -0.87330384075E+01  0.97599958046E+01  0.51100000000E-03 0. -1.
        -11    1    3    3    0    0 -0.95807735491E-01  0.16935629041E+01 -0.73484752421E+01  0.75417122113E+01  0.51100000000E-03 0.  1.
        -12    1    3    3    0    0 -0.27108679994E+01 -0.24899934663E+01 -0.28604752836E+02  0.28840609521E+02  0.00000000000E+00 0.  1.
</event>
<event>
 7    1  0.3980989E-008  0.4614232E+02  0.7816164E-02  0.1320468E+00
        -11   -1    0    0    0    0  0.00000000000E+00  0.00000000000E+00  0.45593999997E+02  0.45594000000E+02  0.51100000000E-03 0. -1.
         11   -1    0    0    0    0 -0.00000000000E+00 -0.00000000000E+00 -0.45593999997E+02  0.45594000000E+02  0.51100000000E-03 0.  1.
    9900012    2    1    2    0    0 -0.21327211271E+02 -0.29053163640E+02 -0.27021791505E+02  0.46142317919E+02  0.10000001436E+02 0.  0.
        -12    1    1    2    0    0  0.21327211271E+02  0.29053163640E+02  0.27021791505E+02  0.45045682081E+02  0.00000000000E+00 0.  1.
         11    1    3    3    0    0 -0.17062486552E+01 -0.12873727951E+01  0.22841504699E+00  0.21496015635E+01  0.51100000000E-03 0. -1.
        -11    1    3    3    0    0 -0.15402088483E+02 -0.16913561529E+02 -0.18719607332E+02  0.29558697403E+02  0.51100000000E-03 0.  1.
        -12    1    3    3    0    0 -0.42188741323E+01 -0.10852229316E+02 -0.85305992194E+01  0.14434018952E+02  0.00000000000E+00 0.  1.
</event>
<event>
 7    1  0.3980989E-008  0.4614232E+02  0.7816164E-02  0.1320468E+00
        -11   -1    0    0    0    0  0.00000000000E+00  0.00000000000E+00  0.45593999997E+02  0.45594000000E+02  0.51100000000E-03 0.  1.
         11   -1    0    0    0    0 -0.00000000000E+00 -0.00000000000E+00 -0.45593999997E+02  0.45594000000E+02  0.51100000000E-03 0. -1.
    9900012    2    1    2    0    0 -0.14760016156E+02  0.42523351462E+02 -0.17378083381E+01  0.46142317917E+02  0.10000001419E+02 0.  0.
        -12    1    1    2    0    0  0.14760016156E+02 -0.42523351462E+02  0.17378083381E+01  0.45045682083E+02  0.00000000000E+00 0.  1.
         11    1    3    3    0    0 -0.44189498376E+01  0.94561254864E+01  0.16892845732E+01  0.10573509801E+02  0.51100000000E-03 0. -1.
        -11    1    3    3    0    0 -0.49332543323E+01  0.13291767715E+02  0.21070834064E+01  0.14333453458E+02  0.51100000000E-03 0.  1.
         12    1    3    3    0    0 -0.54078119862E+01  0.19775458261E+02 -0.55341763177E+01  0.21235354657E+02  0.00000000000E+00 0. -1.
</event>
<event>
 7    1  0.3980989E-008  0.4614232E+02  0.7816164E-02  0.1320468E+00
        -11   -1    0    0    0    0  0.00000000000E+00  0.00000000000E+00  0.45593999997E+02  0.45594000000E+02  0.51100000000E-03 0. -1.
         11   -1    0    0    0    0 -0.00000000000E+00 -0.00000000000E+00 -0.45593999997E+02  0.45594000000E+02  0.51100000000E-03 0.  1.
    9900012    2    1    2    0    0 -0.26572550567E+02 -0.13823239749E+02  0.33644184187E+02  0.46142317294E+02  0.99999957443E+01 0.  0.
        -12    1    1    2    0    0  0.26572550567E+02  0.13823239749E+02 -0.33644184187E+02  0.45045682706E+02  0.00000000000E+00 0.  1.
         11    1    3    3    0    0 -0.74241429286E+01 -0.43476509885E+01  0.82870645724E+01  0.11945518274E+02  0.51100000000E-03 0. -1.
        -11    1    3    3    0    0 -0.12520129777E+02 -0.46487782069E+01  0.96453056510E+01  0.16474122429E+02  0.51100000000E-03 0.  1.
        -12    1    3    3    0    0 -0.66282778612E+01 -0.48268105533E+01  0.15711813964E+02  0.17722676591E+02  0.00000000000E+00 0.  1.
</event>
<event>
 7    1  0.3980989E-008  0.4614232E+02  0.7816164E-02  0.1320468E+00
        -11   -1    0    0    0    0  0.00000000000E+00  0.00000000000E+00  0.45593999997E+02  0.45594000000E+02  0.51100000000E-03 0.  1.
         11   -1    0    0    0    0 -0.00000000000E+00 -0.00000000000E+00 -0.45593999997E+02  0.45594000000E+02  0.51100000000E-03 0. -1.
    9900012    2    1    2    0    0  0.33799492567E+02  0.13222643096E+02 -0.26680884520E+02  0.46142316667E+02  0.99999900190E+01 0.  0.
        -12    1    1    2    0    0 -0.33799492567E+02 -0.13222643096E+02  0.26680884520E+02  0.45045683333E+02  0.00000000000E+00 0.  1.
         11    1    3    3    0    0  0.17022416667E+02  0.10098855857E+02 -0.10998578984E+02  0.22643283745E+02  0.51100000000E-03 0. -1.
        -11    1    3    3    0    0  0.20227101867E+01  0.10062538180E+01 -0.38671405868E+01  0.44786917537E+01  0.51100000000E-03 0.  1.
        -12    1    3    3    0    0  0.14754365713E+02  0.21175334207E+01 -0.11815164949E+02  0.19020341168E+02  0.00000000000E+00 0.  1.
</event>
<event>
 7    1  0.3980989E-008  0.4614232E+02  0.7816164E-02  0.1320468E+00
        -11   -1    0    0    0    0  0.00000000000E+00  0.00000000000E+00  0.45593999997E+02  0.45594000000E+02  0.51100000000E-03 0.  1.
         11   -1    0    0    0    0 -0.00000000000E+00 -0.00000000000E+00 -0.45593999997E+02  0.45594000000E+02  0.51100000000E-03 0. -1.
    9900012    2    1    2    0    0 -0.39577978286E+02  0.88146245616E+01 -0.19621398714E+02  0.46142320309E+02  0.10000023230E+02 0.  0.
        -12    1    1    2    0    0  0.39577978286E+02 -0.88146245616E+01  0.19621398714E+02  0.45045679691E+02  0.00000000000E+00 0.  1.
         11    1    3    3    0    0 -0.23765330667E+02  0.52863299996E+01 -0.13091871090E+02  0.27642961409E+02  0.51100000000E-03 0. -1.
        -11    1    3    3    0    0  0.59573059814E-01  0.37248133295E+00  0.68431859059E+00  0.78139841784E+00  0.51100000000E-03 0.  1.
        -12    1    3    3    0    0 -0.15872220679E+02  0.31558132290E+01 -0.72138462147E+01  0.17717960481E+02  0.00000000000E+00 0.  1.
</event>
<event>
 7    1  0.3980989E-008  0.4614232E+02  0.7816164E-02  0.1320468E+00
        -11   -1    0    0    0    0  0.00000000000E+00  0.00000000000E+00  0.45593999997E+02  0.45594000000E+02  0.51100000000E-03 0.  1.
         11   -1    0    0    0    0 -0.00000000000E+00 -0.00000000000E+00 -0.45593999997E+02  0.45594000000E+02  0.51100000000E-03 0. -1.
    9900012    2    1    2    0    0  0.63690591882E+01 -0.27674295446E+02 -0.34966869470E+02  0.46142317589E+02  0.99999984307E+01 0.  0.
        -12    1    1    2    0    0 -0.63690591882E+01  0.27674295446E+02  0.34966869470E+02  0.45045682411E+02  0.00000000000E+00 0.  1.
         11    1    3    3    0    0  0.17238877421E+01 -0.14605076382E+02 -0.13531883783E+02  0.19984792319E+02  0.51100000000E-03 0. -1.
        -11    1    3    3    0    0  0.32996609650E+00 -0.41542548266E+01 -0.26998309057E+01  0.49654604992E+01  0.51100000000E-03 0.  1.
         12    1    3    3    0    0  0.43152053496E+01 -0.89149642368E+01 -0.18735154781E+02  0.21192064770E+02  0.00000000000E+00 0. -1.
</event>
<event>
 7    1  0.3980989E-008  0.4614232E+02  0.7816164E-02  0.1320468E+00
        -11   -1    0    0    0    0  0.00000000000E+00  0.00000000000E+00  0.45593999997E+02  0.45594000000E+02  0.51100000000E-03 0.  1.
         11   -1    0    0    0    0 -0.00000000000E+00 -0.00000000000E+00 -0.45593999997E+02  0.45594000000E+02  0.51100000000E-03 0. -1.
    9900012    2    1    2    0    0  0.31493984455E+02 -0.22811926447E+02 -0.22734519840E+02  0.46142318326E+02  0.10000005155E+02 0.  0.
        -12    1    1    2    0    0 -0.31493984455E+02  0.22811926447E+02  0.22734519840E+02  0.45045681674E+02  0.00000000000E+00 0.  1.
         11    1    3    3    0    0  0.24126609668E+01 -0.32560668535E+01 -0.26687711543E+01  0.48523441789E+01  0.51100000000E-03 0.  1.
        -11    1    3    3    0    0  0.11843572276E+02 -0.91354999514E+01 -0.38867619601E+01  0.15454270685E+02  0.51100000000E-03 0. -1.
         12    1    3    3    0    0  0.17237751213E+02 -0.10420359643E+02 -0.16178986725E+02  0.25835703462E+02  0.00000000000E+00 0. -1.
</event>
<event>
 7    1  0.3980989E-008  0.4614232E+02  0.7816164E-02  0.1320468E+00
        -11   -1    0    0    0    0  0.00000000000E+00  0.00000000000E+00  0.45593999997E+02  0.45594000000E+02  0.51100000000E-03 0. -1.
         11   -1    0    0    0    0 -0.00000000000E+00 -0.00000000000E+00 -0.45593999997E+02  0.45594000000E+02  0.51100000000E-03 0.  1.
    9900012    2    1    2    0    0 -0.45345965807E+01  0.38481677342E+02  0.22971964728E+02  0.46142320732E+02  0.10000027094E+02 0.  0.
        -12    1    1    2    0    0  0.45345965807E+01 -0.38481677342E+02 -0.22971964728E+02  0.45045679268E+02  0.00000000000E+00 0.  1.
         11    1    3    3    0    0 -0.45139484076E+01  0.25464083359E+02  0.15554585557E+02  0.30178475834E+02  0.51100000000E-03 0. -1.
        -11    1    3    3    0    0 -0.19542039724E+01  0.10837385916E+02  0.46789116964E+01  0.11964951382E+02  0.51100000000E-03 0.  1.
        -12    1    3    3    0    0  0.19335557992E+01  0.21802080673E+01  0.27384674743E+01  0.39988935161E+01  0.00000000000E+00 0.  1.
</event>
<event>
 7    1  0.3980989E-008  0.4614232E+02  0.7816164E-02  0.1320468E+00
        -11   -1    0    0    0    0  0.00000000000E+00  0.00000000000E+00  0.45593999997E+02  0.45594000000E+02  0.51100000000E-03 0.  1.
         11   -1    0    0    0    0 -0.00000000000E+00 -0.00000000000E+00 -0.45593999997E+02  0.45594000000E+02  0.51100000000E-03 0. -1.
    9900012    2    1    2    0    0  0.21109848139E+02  0.38576379768E+02 -0.97647719346E+01  0.46142317239E+02  0.99999952366E+01 0.  0.
        -12    1    1    2    0    0 -0.21109848139E+02 -0.38576379768E+02  0.97647719346E+01  0.45045682761E+02  0.00000000000E+00 0.  1.
         11    1    3    3    0    0  0.94381074997E+01  0.24421624613E+02 -0.80650096590E+01  0.27395948660E+02  0.51100000000E-03 0. -1.
        -11    1    3    3    0    0  0.87113075686E+01  0.11801180737E+02 -0.25025689471E+01  0.14880107457E+02  0.51100000000E-03 0.  1.
        -12    1    3    3    0    0  0.29604330709E+01  0.23535744189E+01  0.80280667142E+00  0.38662611221E+01  0.00000000000E+00 0.  1.
</event>
<event>
 7    1  0.3980989E-008  0.4614232E+02  0.7816164E-02  0.1320468E+00
        -11   -1    0    0    0    0  0.00000000000E+00  0.00000000000E+00  0.45593999997E+02  0.45594000000E+02  0.51100000000E-03 0.  1.
         11   -1    0    0    0    0 -0.00000000000E+00 -0.00000000000E+00 -0.45593999997E+02  0.45594000000E+02  0.51100000000E-03 0. -1.
    9900012    2    1    2    0    0  0.98205688179E+00 -0.35501553002E+02 -0.27709002857E+02  0.46142317181E+02  0.99999947088E+01 0.  0.
        -12    1    1    2    0    0 -0.98205688179E+00  0.35501553002E+02  0.27709002857E+02  0.45045682819E+02  0.00000000000E+00 0.  1.
         11    1    3    3    0    0 -0.31762204384E+00 -0.15146368842E+02 -0.15270056900E+02  0.21510183887E+02  0.51100000000E-03 0. -1.
        -11    1    3    3    0    0 -0.23671441855E+01 -0.81082702810E+01 -0.43140309014E+01  0.94846339637E+01  0.51100000000E-03 0.  1.
         12    1    3    3    0    0  0.36668231111E+01 -0.12246913879E+02 -0.81249150560E+01  0.15147499330E+02  0.00000000000E+00 0. -1.
</event>
<event>
 7    1  0.3980989E-008  0.4614232E+02  0.7816164E-02  0.1320468E+00
        -11   -1    0    0    0    0  0.00000000000E+00  0.00000000000E+00  0.45593999997E+02  0.45594000000E+02  0.51100000000E-03 0.  1.
         11   -1    0    0    0    0 -0.00000000000E+00 -0.00000000000E+00 -0.45593999997E+02  0.45594000000E+02  0.51100000000E-03 0. -1.
    9900012    2    1    2    0    0 -0.22375749474E+01  0.82827035033E+01 -0.44221073211E+02  0.46142320575E+02  0.10000025656E+02 0.  0.
        -12    1    1    2    0    0  0.22375749474E+01 -0.82827035033E+01  0.44221073211E+02  0.45045679425E+02  0.00000000000E+00 0.  1.
         11    1    3    3    0    0 -0.31369952075E+01  0.21573001856E+01 -0.19655320526E+02  0.20020647049E+02  0.51100000000E-03 0. -1.
        -11    1    3    3    0    0  0.11711570397E+01  0.63020811308E+00 -0.47750091011E+00  0.14130741161E+01  0.51100000000E-03 0.  1.
         12    1    3    3    0    0 -0.27173677955E+00  0.54951952047E+01 -0.24088251775E+02  0.24708599410E+02  0.00000000000E+00 0. -1.
</event>
<event>
 7    1  0.3980989E-008  0.4614232E+02  0.7816164E-02  0.1320468E+00
        -11   -1    0    0    0    0  0.00000000000E+00  0.00000000000E+00  0.45593999997E+02  0.45594000000E+02  0.51100000000E-03 0.  1.
         11   -1    0    0    0    0 -0.00000000000E+00 -0.00000000000E+00 -0.45593999997E+02  0.45594000000E+02  0.51100000000E-03 0. -1.
    9900012    2    1    2    0    0  0.36726437761E+02  0.12697412986E+02 -0.22782844088E+02  0.46142317500E+02  0.99999976194E+01 0.  0.
        -12    1    1    2    0    0 -0.36726437761E+02 -0.12697412986E+02  0.22782844088E+02  0.45045682500E+02  0.00000000000E+00 0.  1.
         11    1    3    3    0    0  0.46008820158E+01  0.98972420673E-01 -0.33757115784E+01  0.57073058255E+01  0.51100000000E-03 0. -1.
        -11    1    3    3    0    0  0.13029320593E+02  0.37018296315E+01 -0.33684099268E+01  0.13957540021E+02  0.51100000000E-03 0.  1.
        -12    1    3    3    0    0  0.19096235153E+02  0.88966109335E+01 -0.16038722583E+02  0.26477471654E+02  0.00000000000E+00 0.  1.
</event>
<event>
 7    1  0.4002045E-008  0.4614232E+02  0.7816164E-02  0.1320468E+00
        -11   -1    0    0    0    0  0.00000000000E+00  0.00000000000E+00  0.45593999997E+02  0.45594000000E+02  0.51100000000E-03 0.  1.
         11   -1    0    0    0    0 -0.00000000000E+00 -0.00000000000E+00 -0.45593999997E+02  0.45594000000E+02  0.51100000000E-03 0. -1.
    9900012    2    1    2    0    0 -0.35694998592E+02 -0.10003569008E+02 -0.25591194718E+02  0.46142316917E+02  0.99999923016E+01 0.  0.
        -12    1    1    2    0    0  0.35694998592E+02  0.10003569008E+02  0.25591194718E+02  0.45045683083E+02  0.00000000000E+00 0.  1.
         11    1    3    3    0    0 -0.24099667434E+02 -0.84440845152E+01 -0.15833422676E+02  0.30046527381E+02  0.51100000000E-03 0. -1.
        -11    1    3    3    0    0 -0.87829977713E+01 -0.30331326064E+01 -0.87533656675E+01  0.12765670920E+02  0.51100000000E-03 0.  1.
        -12    1    3    3    0    0 -0.28123333859E+01  0.14736481131E+01 -0.10044063735E+01  0.33301186162E+01  0.00000000000E+00 0.  1.
</event>
<event>
 7    1  0.3980989E-008  0.4614232E+02  0.7816164E-02  0.1320468E+00
        -11   -1    0    0    0    0  0.00000000000E+00  0.00000000000E+00  0.45593999997E+02  0.45594000000E+02  0.51100000000E-03 0.  1.
         11   -1    0    0    0    0 -0.00000000000E+00 -0.00000000000E+00 -0.45593999997E+02  0.45594000000E+02  0.51100000000E-03 0. -1.
    9900012    2    1    2    0    0 -0.27662422877E+02 -0.28099616564E+02 -0.21778788789E+02  0.46142315061E+02  0.99999753816E+01 0.  0.
        -12    1    1    2    0    0  0.27662422877E+02  0.28099616564E+02  0.21778788789E+02  0.45045684939E+02  0.00000000000E+00 0.  1.
         11    1    3    3    0    0 -0.10977607823E+02 -0.12170436211E+02 -0.50887584625E+01  0.17161668160E+02  0.51100000000E-03 0. -1.
        -11    1    3    3    0    0 -0.47816557175E+01 -0.81424204443E+01 -0.60019253867E+01  0.11188670640E+02  0.51100000000E-03 0.  1.
        -12    1    3    3    0    0 -0.11903159337E+02 -0.77867599089E+01 -0.10688104940E+02  0.17791976261E+02  0.00000000000E+00 0.  1.
</event>
<event>
 7    1  0.3980989E-008  0.4614232E+02  0.7816164E-02  0.1320468E+00
        -11   -1    0    0    0    0  0.00000000000E+00  0.00000000000E+00  0.45593999997E+02  0.45594000000E+02  0.51100000000E-03 0.  1.
         11   -1    0    0    0    0 -0.00000000000E+00 -0.00000000000E+00 -0.45593999997E+02  0.45594000000E+02  0.51100000000E-03 0. -1.
    9900012    2    1    2    0    0  0.35049744529E+02 -0.16278317699E+02  0.23144011831E+02  0.46142317606E+02  0.99999985876E+01 0.  0.
        -12    1    1    2    0    0 -0.35049744529E+02  0.16278317699E+02 -0.23144011831E+02  0.45045682394E+02  0.00000000000E+00 0.  1.
         11    1    3    3    0    0  0.94523515423E+01 -0.59790714162E+01  0.97915422506E+01  0.14865078021E+02  0.51100000000E-03 0. -1.
        -11    1    3    3    0    0  0.35721816745E+00 -0.13800313522E+01  0.16350677374E+00  0.14348609962E+01  0.51100000000E-03 0.  1.
         12    1    3    3    0    0  0.25240174819E+02 -0.89192149304E+01  0.13188962807E+02  0.29842378589E+02  0.00000000000E+00 0. -1.
</event>
<event>
 7    1  0.3980989E-008  0.4614232E+02  0.7816164E-02  0.1320468E+00
        -11   -1    0    0    0    0  0.00000000000E+00  0.00000000000E+00  0.45593999997E+02  0.45594000000E+02  0.51100000000E-03 0.  1.
         11   -1    0    0    0    0 -0.00000000000E+00 -0.00000000000E+00 -0.45593999997E+02  0.45594000000E+02  0.51100000000E-03 0. -1.
    9900012    2    1    2    0    0 -0.27546254244E+01  0.44695610910E+02 -0.48814067744E+01  0.46142315102E+02  0.99999757521E+01 0.  0.
        -12    1    1    2    0    0  0.27546254244E+01 -0.44695610910E+02  0.48814067744E+01  0.45045684898E+02  0.00000000000E+00 0.  1.
         11    1    3    3    0    0 -0.10676174769E+01  0.34483333231E+02 -0.46863892891E+01  0.34816696032E+02  0.51100000000E-03 0. -1.
        -11    1    3    3    0    0 -0.61297101122E+00  0.86121204813E+01 -0.17977272375E+01  0.88190802313E+01  0.51100000000E-03 0.  1.
        -12    1    3    3    0    0 -0.10740369362E+01  0.16001571978E+01  0.16027097522E+01  0.25065388383E+01  0.00000000000E+00 0.  1.
</event>
<event>
 7    1  0.3980989E-008  0.4614232E+02  0.7816164E-02  0.1320468E+00
        -11   -1    0    0    0    0  0.00000000000E+00  0.00000000000E+00  0.45593999997E+02  0.45594000000E+02  0.51100000000E-03 0.  1.
         11   -1    0    0    0    0 -0.00000000000E+00 -0.00000000000E+00 -0.45593999997E+02  0.45594000000E+02  0.51100000000E-03 0. -1.
    9900012    2    1    2    0    0  0.29320159276E+02  0.15596313608E+02 -0.30433480770E+02  0.46142317744E+02  0.99999998483E+01 0.  0.
        -12    1    1    2    0    0 -0.29320159276E+02 -0.15596313608E+02  0.30433480770E+02  0.45045682256E+02  0.00000000000E+00 0.  1.
         11    1    3    3    0    0  0.20389705871E+02  0.91031667013E+01 -0.18304726655E+02  0.28873357402E+02  0.51100000000E-03 0. -1.
        -11    1    3    3    0    0  0.30722309941E+01  0.19603320462E+00 -0.10694679336E+01  0.32589560017E+01  0.51100000000E-03 0.  1.
        -12    1    3    3    0    0  0.58582224103E+01  0.62971137017E+01 -0.11059286182E+02  0.14010004341E+02  0.00000000000E+00 0.  1.
</event>
<event>
 7    1  0.3980989E-008  0.4614232E+02  0.7816164E-02  0.1320468E+00
        -11   -1    0    0    0    0  0.00000000000E+00  0.00000000000E+00  0.45593999997E+02  0.45594000000E+02  0.51100000000E-03 0. -1.
         11   -1    0    0    0    0 -0.00000000000E+00 -0.00000000000E+00 -0.45593999997E+02  0.45594000000E+02  0.51100000000E-03 0.  1.
    9900012    2    1    2    0    0 -0.19245897375E+02 -0.40708455165E+02 -0.12371926840E+01  0.46142317261E+02  0.99999954394E+01 0.  0.
        -12    1    1    2    0    0  0.19245897375E+02  0.40708455165E+02  0.12371926840E+01  0.45045682739E+02  0.00000000000E+00 0.  1.
         11    1    3    3    0    0 -0.12692203649E+02 -0.28031537546E+02  0.21087168357E+01  0.30843245899E+02  0.51100000000E-03 0. -1.
        -11    1    3    3    0    0 -0.53831218287E+01 -0.12463620110E+02 -0.24177907259E+01  0.13790052180E+02  0.51100000000E-03 0.  1.
         12    1    3    3    0    0 -0.11705718977E+01 -0.21329750865E+00 -0.92811879373E+00  0.15090191815E+01  0.00000000000E+00 0. -1.
</event>
<event>
 7    1  0.3980989E-008  0.4614232E+02  0.7816164E-02  0.1320468E+00
        -11   -1    0    0    0    0  0.00000000000E+00  0.00000000000E+00  0.45593999997E+02  0.45594000000E+02  0.51100000000E-03 0. -1.
         11   -1    0    0    0    0 -0.00000000000E+00 -0.00000000000E+00 -0.45593999997E+02  0.45594000000E+02  0.51100000000E-03 0.  1.
    9900012    2    1    2    0    0 -0.11674012357E+02 -0.41937443971E+02  0.11579366596E+02  0.46142317609E+02  0.99999986099E+01 0.  0.
        -12    1    1    2    0    0  0.11674012357E+02  0.41937443971E+02 -0.11579366596E+02  0.45045682391E+02  0.00000000000E+00 0.  1.
         11    1    3    3    0    0 -0.48760217661E+01 -0.16153515247E+02  0.54364884587E+01  0.17727578800E+02  0.51100000000E-03 0. -1.
        -11    1    3    3    0    0 -0.36680129395E+01 -0.30466440120E+01  0.62488150187E+00  0.48090368903E+01  0.51100000000E-03 0.  1.
         12    1    3    3    0    0 -0.31299776517E+01 -0.22737284712E+02  0.55179966350E+01  0.23605701918E+02  0.00000000000E+00 0. -1.
</event>
<event>
 7    1  0.3980989E-008  0.4614232E+02  0.7816164E-02  0.1320468E+00
        -11   -1    0    0    0    0  0.00000000000E+00  0.00000000000E+00  0.45593999997E+02  0.45594000000E+02  0.51100000000E-03 0.  1.
         11   -1    0    0    0    0 -0.00000000000E+00 -0.00000000000E+00 -0.45593999997E+02  0.45594000000E+02  0.51100000000E-03 0. -1.
    9900012    2    1    2    0    0  0.15835822343E+02  0.11921093088E+02 -0.40450312742E+02  0.46142317292E+02  0.99999957238E+01 0.  0.
        -12    1    1    2    0    0 -0.15835822343E+02 -0.11921093088E+02  0.40450312742E+02  0.45045682708E+02  0.00000000000E+00 0.  1.
         11    1    3    3    0    0  0.62419868459E+01  0.45392659396E+01 -0.12847308572E+02  0.14987350428E+02  0.51100000000E-03 0. -1.
        -11    1    3    3    0    0  0.77019002218E+01  0.45015521867E+01 -0.25730321488E+02  0.27232933798E+02  0.51100000000E-03 0.  1.
        -12    1    3    3    0    0  0.18919352755E+01  0.28802749621E+01 -0.18726826823E+01  0.39220330662E+01  0.00000000000E+00 0.  1.
</event>
<event>
 7    1  0.3980989E-008  0.4614232E+02  0.7816164E-02  0.1320468E+00
        -11   -1    0    0    0    0  0.00000000000E+00  0.00000000000E+00  0.45593999997E+02  0.45594000000E+02  0.51100000000E-03 0. -1.
         11   -1    0    0    0    0 -0.00000000000E+00 -0.00000000000E+00 -0.45593999997E+02  0.45594000000E+02  0.51100000000E-03 0.  1.
    9900012    2    1    2    0    0  0.35841186003E+02 -0.27215935596E+02  0.19533871099E+01  0.46142317791E+02  0.10000000271E+02 0.  0.
        -12    1    1    2    0    0 -0.35841186003E+02  0.27215935596E+02 -0.19533871099E+01  0.45045682209E+02  0.00000000000E+00 0.  1.
         11    1    3    3    0    0  0.19715784508E+01 -0.27254454813E+01  0.98889158266E+00  0.35061490959E+01  0.51100000000E-03 0. -1.
        -11    1    3    3    0    0  0.37258444657E+01 -0.28421406888E+01 -0.25902550820E+01  0.53543535865E+01  0.51100000000E-03 0.  1.
        -12    1    3    3    0    0  0.30143763087E+02 -0.21648349426E+02  0.35547506092E+01  0.37281815108E+02  0.00000000000E+00 0.  1.
</event>
<event>
 7    1  0.3980989E-008  0.4614232E+02  0.7816164E-02  0.1320468E+00
        -11   -1    0    0    0    0  0.00000000000E+00  0.00000000000E+00  0.45593999997E+02  0.45594000000E+02  0.51100000000E-03 0.  1.
         11   -1    0    0    0    0 -0.00000000000E+00 -0.00000000000E+00 -0.45593999997E+02  0.45594000000E+02  0.51100000000E-03 0. -1.
    9900012    2    1    2    0    0  0.28356134870E+02  0.23902050352E+02 -0.25568248329E+02  0.46142315208E+02  0.99999767156E+01 0.  0.
        -12    1    1    2    0    0 -0.28356134870E+02 -0.23902050352E+02  0.25568248329E+02  0.45045684792E+02  0.00000000000E+00 0.  1.
         11    1    3    3    0    0  0.43383734096E+01  0.38176162491E+01 -0.88183228034E+00  0.58457938810E+01  0.51100000000E-03 0. -1.
        -11    1    3    3    0    0  0.21192565573E+01  0.84058384224E+00 -0.32067612238E+00  0.23023168739E+01  0.51100000000E-03 0.  1.
         12    1    3    3    0    0  0.21898504903E+02  0.19243850261E+02 -0.24365739926E+02  0.37994204453E+02  0.00000000000E+00 0. -1.
</event>
<event>
 7    1  0.3980989E-008  0.4614232E+02  0.7816164E-02  0.1320468E+00
        -11   -1    0    0    0    0  0.00000000000E+00  0.00000000000E+00  0.45593999997E+02  0.45594000000E+02  0.51100000000E-03 0.  1.
         11   -1    0    0    0    0 -0.00000000000E+00 -0.00000000000E+00 -0.45593999997E+02  0.45594000000E+02  0.51100000000E-03 0. -1.
    9900012    2    1    2    0    0  0.10939350586E+02  0.78551057287E+01 -0.42985363178E+02  0.46142317357E+02  0.99999963161E+01 0.  0.
        -12    1    1    2    0    0 -0.10939350586E+02 -0.78551057287E+01  0.42985363178E+02  0.45045682643E+02  0.00000000000E+00 0.  1.
         11    1    3    3    0    0 -0.32981986302E+00  0.86229368056E+00 -0.85027965961E+00  0.12551124628E+01  0.51100000000E-03 0.  1.
        -11    1    3    3    0    0  0.10847599990E+02  0.36386026682E+01 -0.26069381749E+02  0.28469677201E+02  0.51100000000E-03 0. -1.
         12    1    3    3    0    0  0.42157045933E+00  0.33542093799E+01 -0.16065701769E+02  0.16417527693E+02  0.00000000000E+00 0. -1.
</event>
<event>
 7    1  0.3980989E-008  0.4614232E+02  0.7816164E-02  0.1320468E+00
        -11   -1    0    0    0    0  0.00000000000E+00  0.00000000000E+00  0.45593999997E+02  0.45594000000E+02  0.51100000000E-03 0. -1.
         11   -1    0    0    0    0 -0.00000000000E+00 -0.00000000000E+00 -0.45593999997E+02  0.45594000000E+02  0.51100000000E-03 0.  1.
    9900012    2    1    2    0    0 -0.39509864078E+02  0.13040212530E+01  0.21595917436E+02  0.46142317845E+02  0.10000000765E+02 0.  0.
        -12    1    1    2    0    0  0.39509864078E+02 -0.13040212530E+01 -0.21595917436E+02  0.45045682155E+02  0.00000000000E+00 0.  1.
         11    1    3    3    0    0 -0.14623061940E+02  0.48939481696E+00  0.70699355014E+01  0.16249844186E+02  0.51100000000E-03 0. -1.
        -11    1    3    3    0    0 -0.23227353545E+02  0.13397910919E+01  0.10538056394E+02  0.25541253409E+02  0.51100000000E-03 0.  1.
        -12    1    3    3    0    0 -0.16594485925E+01 -0.52516465581E+00  0.39879255412E+01  0.43512202506E+01  0.00000000000E+00 0.  1.
</event>
<event>
 7    1  0.3980989E-008  0.4614232E+02  0.7816164E-02  0.1320468E+00
        -11   -1    0    0    0    0  0.00000000000E+00  0.00000000000E+00  0.45593999997E+02  0.45594000000E+02  0.51100000000E-03 0.  1.
         11   -1    0    0    0    0 -0.00000000000E+00 -0.00000000000E+00 -0.45593999997E+02  0.45594000000E+02  0.51100000000E-03 0. -1.
    9900012    2    1    2    0    0 -0.63303513570E+01 -0.42345143755E+02 -0.13997460627E+02  0.46142318165E+02  0.10000003685E+02 0.  0.
        -12    1    1    2    0    0  0.63303513570E+01  0.42345143755E+02  0.13997460627E+02  0.45045681835E+02  0.00000000000E+00 0.  1.
         11    1    3    3    0    0 -0.76855250541E+00 -0.84130968906E+00 -0.26059258879E+00  0.11689241656E+01  0.51100000000E-03 0. -1.
        -11    1    3    3    0    0  0.73848812772E+00 -0.79035101362E+01  0.47259349772E+00  0.79519923330E+01  0.51100000000E-03 0.  1.
        -12    1    3    3    0    0 -0.63002869793E+01 -0.33600323930E+02 -0.14209461536E+02  0.37021401667E+02  0.00000000000E+00 0.  1.
</event>
<event>
 7    1  0.3980989E-008  0.4614232E+02  0.7816164E-02  0.1320468E+00
        -11   -1    0    0    0    0  0.00000000000E+00  0.00000000000E+00  0.45593999997E+02  0.45594000000E+02  0.51100000000E-03 0.  1.
         11   -1    0    0    0    0 -0.00000000000E+00 -0.00000000000E+00 -0.45593999997E+02  0.45594000000E+02  0.51100000000E-03 0. -1.
    9900012    2    1    2    0    0 -0.13170282636E+02 -0.13620137540E+02 -0.40867456558E+02  0.46142317667E+02  0.99999991428E+01 0.  0.
        -12    1    1    2    0    0  0.13170282636E+02  0.13620137540E+02  0.40867456558E+02  0.45045682333E+02  0.00000000000E+00 0.  1.
         11    1    3    3    0    0 -0.70450376448E+01 -0.11332174916E+02 -0.30037132009E+02  0.32867613898E+02  0.51100000000E-03 0. -1.
        -11    1    3    3    0    0 -0.66472069783E-02 -0.14526338177E+01 -0.15197817065E+01  0.21023619788E+01  0.51100000000E-03 0.  1.
        -12    1    3    3    0    0 -0.61185977841E+01 -0.83532880561E+00 -0.93105428424E+01  0.11172341790E+02  0.00000000000E+00 0.  1.
</event>
<event>
 7    1  0.3980989E-008  0.4614232E+02  0.7816164E-02  0.1320468E+00
        -11   -1    0    0    0    0  0.00000000000E+00  0.00000000000E+00  0.45593999997E+02  0.45594000000E+02  0.51100000000E-03 0. -1.
         11   -1    0    0    0    0 -0.00000000000E+00 -0.00000000000E+00 -0.45593999997E+02  0.45594000000E+02  0.51100000000E-03 0.  1.
    9900012    2    1    2    0    0  0.62652115760E+01  0.43872073439E+02  0.80685681929E+01  0.46142317669E+02  0.99999991644E+01 0.  0.
        -12    1    1    2    0    0 -0.62652115760E+01 -0.43872073439E+02 -0.80685681929E+01  0.45045682331E+02  0.00000000000E+00 0.  1.
         11    1    3    3    0    0  0.23006522673E+01  0.53162175801E+01  0.25672946060E+00  0.57983687784E+01  0.51100000000E-03 0. -1.
        -11    1    3    3    0    0  0.36877954168E+01  0.12317358622E+02 -0.35494322202E+00  0.12862470347E+02  0.51100000000E-03 0.  1.
         12    1    3    3    0    0  0.27676389179E+00  0.26238497237E+02  0.81667819543E+01  0.27481478544E+02  0.00000000000E+00 0. -1.
</event>
<event>
 7    1  0.3980989E-008  0.4614232E+02  0.7816164E-02  0.1320468E+00
        -11   -1    0    0    0    0  0.00000000000E+00  0.00000000000E+00  0.45593999997E+02  0.45594000000E+02  0.51100000000E-03 0.  1.
         11   -1    0    0    0    0 -0.00000000000E+00 -0.00000000000E+00 -0.45593999997E+02  0.45594000000E+02  0.51100000000E-03 0. -1.
    9900012    2    1    2    0    0  0.20390320486E+02  0.37967379899E+01 -0.39986661822E+02  0.46142317493E+02  0.99999975528E+01 0.  0.
        -12    1    1    2    0    0 -0.20390320486E+02 -0.37967379899E+01  0.39986661822E+02  0.45045682507E+02  0.00000000000E+00 0.  1.
         11    1    3    3    0    0  0.70096208382E+01 -0.10180054692E+01 -0.14970290169E+02  0.16561422265E+02  0.51100000000E-03 0.  1.
        -11    1    3    3    0    0  0.12904602599E+02  0.25693117659E+01 -0.18740116550E+02  0.22898080700E+02  0.51100000000E-03 0. -1.
         12    1    3    3    0    0  0.47609704822E+00  0.22454316932E+01 -0.62762551036E+01  0.66828145278E+01  0.00000000000E+00 0. -1.
</event>
<event>
 7    1  0.3980989E-008  0.4614232E+02  0.7816164E-02  0.1320468E+00
        -11   -1    0    0    0    0  0.00000000000E+00  0.00000000000E+00  0.45593999997E+02  0.45594000000E+02  0.51100000000E-03 0.  1.
         11   -1    0    0    0    0 -0.00000000000E+00 -0.00000000000E+00 -0.45593999997E+02  0.45594000000E+02  0.51100000000E-03 0. -1.
    9900012    2    1    2    0    0  0.28873750378E+02 -0.64988884741E+01 -0.33958569807E+02  0.46142317902E+02  0.10000001286E+02 0.  0.
        -12    1    1    2    0    0 -0.28873750378E+02  0.64988884741E+01  0.33958569807E+02  0.45045682098E+02  0.00000000000E+00 0.  1.
         11    1    3    3    0    0  0.10765164158E+02 -0.63124964643E+01 -0.12249113693E+02  0.17486484995E+02  0.51100000000E-03 0. -1.
        -11    1    3    3    0    0  0.10058214715E+02 -0.74481689032E+00 -0.15416093008E+02  0.18422224603E+02  0.51100000000E-03 0.  1.
        -12    1    3    3    0    0  0.80503715055E+01  0.55842488053E+00 -0.62933631067E+01  0.10233608304E+02  0.00000000000E+00 0.  1.
</event>
<event>
 7    1  0.3980989E-008  0.4614232E+02  0.7816164E-02  0.1320468E+00
        -11   -1    0    0    0    0  0.00000000000E+00  0.00000000000E+00  0.45593999997E+02  0.45594000000E+02  0.51100000000E-03 0. -1.
         11   -1    0    0    0    0 -0.00000000000E+00 -0.00000000000E+00 -0.45593999997E+02  0.45594000000E+02  0.51100000000E-03 0.  1.
    9900012    2    1    2    0    0 -0.13351921106E+02  0.42848260310E+02  0.38556758921E+01  0.46142318238E+02  0.10000004347E+02 0.  0.
        -12    1    1    2    0    0  0.13351921106E+02 -0.42848260310E+02 -0.38556758921E+01  0.45045681762E+02  0.00000000000E+00 0.  1.
         11    1    3    3    0    0 -0.29243517398E+01  0.16425544234E+02 -0.55567833500E+00  0.16693085849E+02  0.51100000000E-03 0. -1.
        -11    1    3    3    0    0 -0.55386208420E+01  0.20091356271E+02  0.49874478913E+01  0.21429268638E+02  0.51100000000E-03 0.  1.
        -12    1    3    3    0    0 -0.48889485239E+01  0.63313598052E+01 -0.57609366429E+00  0.80199637506E+01  0.00000000000E+00 0.  1.
</event>
<event>
 7    1  0.3980989E-008  0.4614232E+02  0.7816164E-02  0.1320468E+00
        -11   -1    0    0    0    0  0.00000000000E+00  0.00000000000E+00  0.45593999997E+02  0.45594000000E+02  0.51100000000E-03 0.  1.
         11   -1    0    0    0    0 -0.00000000000E+00 -0.00000000000E+00 -0.45593999997E+02  0.45594000000E+02  0.51100000000E-03 0. -1.
    9900012    2    1    2    0    0  0.35793426711E+01 -0.39171325668E+02 -0.21952425909E+02  0.46142318167E+02  0.10000003700E+02 0.  0.
        -12    1    1    2    0    0 -0.35793426711E+01  0.39171325668E+02  0.21952425909E+02  0.45045681833E+02  0.00000000000E+00 0.  1.
         11    1    3    3    0    0  0.69066874287E+00 -0.18720980022E+02 -0.11331223557E+02  0.21894034435E+02  0.51100000000E-03 0. -1.
        -11    1    3    3    0    0  0.28909078947E+01 -0.91270674013E+01 -0.83408821995E+01  0.12697677895E+02  0.51100000000E-03 0.  1.
        -12    1    3    3    0    0 -0.22339664528E-02 -0.11323278244E+02 -0.22803201527E+01  0.11550605836E+02  0.00000000000E+00 0.  1.
</event>
<event>
 7    1  0.3980989E-008  0.4614232E+02  0.7816164E-02  0.1320468E+00
        -11   -1    0    0    0    0  0.00000000000E+00  0.00000000000E+00  0.45593999997E+02  0.45594000000E+02  0.51100000000E-03 0.  1.
         11   -1    0    0    0    0 -0.00000000000E+00 -0.00000000000E+00 -0.45593999997E+02  0.45594000000E+02  0.51100000000E-03 0. -1.
    9900012    2    1    2    0    0 -0.17791525874E+02 -0.69380773797E+01 -0.40797524198E+02  0.46142319949E+02  0.10000019948E+02 0.  0.
        -12    1    1    2    0    0  0.17791525874E+02  0.69380773797E+01  0.40797524198E+02  0.45045680051E+02  0.00000000000E+00 0.  1.
         11    1    3    3    0    0 -0.73693179794E+01 -0.35632403823E+01 -0.25318357988E+02  0.26608697468E+02  0.51100000000E-03 0. -1.
        -11    1    3    3    0    0 -0.35927209945E+01 -0.23696459634E+01 -0.29153258078E+01  0.51982680734E+01  0.51100000000E-03 0.  1.
         12    1    3    3    0    0 -0.68294868997E+01 -0.10051910340E+01 -0.12563840402E+02  0.14335354407E+02  0.00000000000E+00 0. -1.
</event>
<event>
 7    1  0.3980989E-008  0.4614232E+02  0.7816164E-02  0.1320468E+00
        -11   -1    0    0    0    0  0.00000000000E+00  0.00000000000E+00  0.45593999997E+02  0.45594000000E+02  0.51100000000E-03 0.  1.
         11   -1    0    0    0    0 -0.00000000000E+00 -0.00000000000E+00 -0.45593999997E+02  0.45594000000E+02  0.51100000000E-03 0. -1.
    9900012    2    1    2    0    0 -0.45542642977E+01  0.15942010556E+02 -0.41883463075E+02  0.46142317598E+02  0.99999985144E+01 0.  0.
        -12    1    1    2    0    0  0.45542642977E+01 -0.15942010556E+02  0.41883463075E+02  0.45045682402E+02  0.00000000000E+00 0.  1.
         11    1    3    3    0    0 -0.33132460972E+01  0.12851107009E+01 -0.89020004310E+01  0.95851302104E+01  0.51100000000E-03 0. -1.
        -11    1    3    3    0    0 -0.18602487506E+01  0.15331223507E+01 -0.31995637841E+01  0.40060202478E+01  0.51100000000E-03 0.  1.
         12    1    3    3    0    0  0.61923055006E+00  0.13123777504E+02 -0.29781898860E+02  0.32551167140E+02  0.00000000000E+00 0. -1.
</event>
<event>
 7    1  0.3980989E-008  0.4614232E+02  0.7816164E-02  0.1320468E+00
        -11   -1    0    0    0    0  0.00000000000E+00  0.00000000000E+00  0.45593999997E+02  0.45594000000E+02  0.51100000000E-03 0. -1.
         11   -1    0    0    0    0 -0.00000000000E+00 -0.00000000000E+00 -0.45593999997E+02  0.45594000000E+02  0.51100000000E-03 0.  1.
    9900012    2    1    2    0    0 -0.43760134743E+02  0.50946934780E+01 -0.93919228836E+01  0.46142317523E+02  0.99999978324E+01 0.  0.
        -12    1    1    2    0    0  0.43760134743E+02 -0.50946934780E+01  0.93919228836E+01  0.45045682477E+02  0.00000000000E+00 0.  1.
         11    1    3    3    0    0 -0.88249625058E+01  0.35316097032E+01  0.33007118469E+00  0.95111081148E+01  0.51100000000E-03 0. -1.
        -11    1    3    3    0    0 -0.28931232115E+01 -0.70212972177E+00 -0.20230852657E+01  0.35994475016E+01  0.51100000000E-03 0.  1.
         12    1    3    3    0    0 -0.32042049025E+02  0.22652134966E+01 -0.76989088026E+01  0.33031761907E+02  0.00000000000E+00 0. -1.
</event>
<event>
 7    1  0.3980989E-008  0.4614232E+02  0.7816164E-02  0.1320468E+00
        -11   -1    0    0    0    0  0.00000000000E+00  0.00000000000E+00  0.45593999997E+02  0.45594000000E+02  0.51100000000E-03 0.  1.
         11   -1    0    0    0    0 -0.00000000000E+00 -0.00000000000E+00 -0.45593999997E+02  0.45594000000E+02  0.51100000000E-03 0. -1.
    9900012    2    1    2    0    0 -0.14383503704E+01 -0.16025321302E+02 -0.42074143596E+02  0.46142319475E+02  0.10000015630E+02 0.  0.
        -12    1    1    2    0    0  0.14383503704E+01  0.16025321302E+02  0.42074143596E+02  0.45045680525E+02  0.00000000000E+00 0.  1.
         11    1    3    3    0    0  0.68580820374E+00 -0.74073564750E+01 -0.23517257245E+02  0.24665778955E+02  0.51100000000E-03 0. -1.
        -11    1    3    3    0    0 -0.39130004318E+00 -0.69011229490E+01 -0.17504581157E+02  0.18819909018E+02  0.51100000000E-03 0.  1.
        -12    1    3    3    0    0 -0.17328585310E+01 -0.17168418776E+01 -0.10523051932E+01  0.26566315026E+01  0.00000000000E+00 0.  1.
</event>
<event>
 7    1  0.3980989E-008  0.4614232E+02  0.7816164E-02  0.1320468E+00
        -11   -1    0    0    0    0  0.00000000000E+00  0.00000000000E+00  0.45593999997E+02  0.45594000000E+02  0.51100000000E-03 0.  1.
         11   -1    0    0    0    0 -0.00000000000E+00 -0.00000000000E+00 -0.45593999997E+02  0.45594000000E+02  0.51100000000E-03 0. -1.
    9900012    2    1    2    0    0 -0.10478432347E+02  0.87697643699E+01 -0.42923270939E+02  0.46142317636E+02  0.99999988601E+01 0.  0.
        -12    1    1    2    0    0  0.10478432347E+02 -0.87697643699E+01  0.42923270939E+02  0.45045682364E+02  0.00000000000E+00 0.  1.
         11    1    3    3    0    0 -0.76583769251E+01  0.64397387104E+01 -0.18638803143E+02  0.21154809256E+02  0.51100000000E-03 0. -1.
        -11    1    3    3    0    0 -0.34717103670E+01  0.51390648308E+00 -0.19753067684E+02  0.20062416503E+02  0.51100000000E-03 0.  1.
         12    1    3    3    0    0  0.65165494466E+00  0.18161191764E+01 -0.45314001121E+01  0.49250918779E+01  0.00000000000E+00 0. -1.
</event>
<event>
 7    1  0.3980989E-008  0.4614232E+02  0.7816164E-02  0.1320468E+00
        -11   -1    0    0    0    0  0.00000000000E+00  0.00000000000E+00  0.45593999997E+02  0.45594000000E+02  0.51100000000E-03 0. -1.
         11   -1    0    0    0    0 -0.00000000000E+00 -0.00000000000E+00 -0.45593999997E+02  0.45594000000E+02  0.51100000000E-03 0.  1.
    9900012    2    1    2    0    0 -0.25364731617E+02 -0.30815337048E+02  0.20884415020E+02  0.46142318763E+02  0.10000009136E+02 0.  0.
        -12    1    1    2    0    0  0.25364731617E+02  0.30815337048E+02 -0.20884415020E+02  0.45045681237E+02  0.00000000000E+00 0.  1.
         11    1    3    3    0    0 -0.18299572208E+02 -0.18908801888E+02  0.16219006726E+02  0.30910731329E+02  0.51100000000E-03 0. -1.
        -11    1    3    3    0    0 -0.60558573968E+01 -0.75319229917E+01  0.16018285806E+01  0.97963834054E+01  0.51100000000E-03 0.  1.
         12    1    3    3    0    0 -0.10093020119E+01 -0.43746121681E+01  0.30635797135E+01  0.54352040287E+01  0.00000000000E+00 0. -1.
</event>
<event>
 7    1  0.3980989E-008  0.4614232E+02  0.7816164E-02  0.1320468E+00
        -11   -1    0    0    0    0  0.00000000000E+00  0.00000000000E+00  0.45593999997E+02  0.45594000000E+02  0.51100000000E-03 0. -1.
         11   -1    0    0    0    0 -0.00000000000E+00 -0.00000000000E+00 -0.45593999997E+02  0.45594000000E+02  0.51100000000E-03 0.  1.
    9900012    2    1    2    0    0  0.19199496797E+02  0.80506767719E+01  0.39945955352E+02  0.46142318489E+02  0.10000006641E+02 0.  0.
        -12    1    1    2    0    0 -0.19199496797E+02 -0.80506767719E+01 -0.39945955352E+02  0.45045681511E+02  0.00000000000E+00 0.  1.
         11    1    3    3    0    0  0.16082570039E+01 -0.89620752870E+00  0.19954598470E+01  0.27150577871E+01  0.51100000000E-03 0. -1.
        -11    1    3    3    0    0  0.54755083207E+01  0.60437711707E+01  0.10611380786E+02  0.13383189597E+02  0.51100000000E-03 0.  1.
         12    1    3    3    0    0  0.12115731472E+02  0.29031131299E+01  0.27339114720E+02  0.30044071106E+02  0.00000000000E+00 0. -1.
</event>
<event>
 7    1  0.3980989E-008  0.4614232E+02  0.7816164E-02  0.1320468E+00
        -11   -1    0    0    0    0  0.00000000000E+00  0.00000000000E+00  0.45593999997E+02  0.45594000000E+02  0.51100000000E-03 0.  1.
         11   -1    0    0    0    0 -0.00000000000E+00 -0.00000000000E+00 -0.45593999997E+02  0.45594000000E+02  0.51100000000E-03 0. -1.
    9900012    2    1    2    0    0 -0.32496223988E+02 -0.27224766594E+02  0.15228953582E+02  0.46142317446E+02  0.99999971271E+01 0.  0.
        -12    1    1    2    0    0  0.32496223988E+02  0.27224766594E+02 -0.15228953582E+02  0.45045682554E+02  0.00000000000E+00 0.  1.
         11    1    3    3    0    0 -0.86843694248E+01 -0.57114186223E+01  0.28940328710E+01  0.10789532034E+02  0.51100000000E-03 0. -1.
        -11    1    3    3    0    0 -0.43977257228E+01 -0.19179282107E+01 -0.69168040909E+00  0.48473562076E+01  0.51100000000E-03 0.  1.
         12    1    3    3    0    0 -0.19414128840E+02 -0.19595419761E+02  0.13026601120E+02  0.30505429205E+02  0.00000000000E+00 0. -1.
</event>
<event>
 7    1  0.3980989E-008  0.4614232E+02  0.7816164E-02  0.1320468E+00
        -11   -1    0    0    0    0  0.00000000000E+00  0.00000000000E+00  0.45593999997E+02  0.45594000000E+02  0.51100000000E-03 0. -1.
         11   -1    0    0    0    0 -0.00000000000E+00 -0.00000000000E+00 -0.45593999997E+02  0.45594000000E+02  0.51100000000E-03 0.  1.
    9900012    2    1    2    0    0  0.18786011180E+02 -0.21715434735E+02  0.34707911952E+02  0.46142317922E+02  0.10000001471E+02 0.  0.
        -12    1    1    2    0    0 -0.18786011180E+02  0.21715434735E+02 -0.34707911952E+02  0.45045682078E+02  0.00000000000E+00 0.  1.
         11    1    3    3    0    0  0.79781437468E+01 -0.13924517114E+02  0.16221194086E+02  0.22818196518E+02  0.51100000000E-03 0. -1.
        -11    1    3    3    0    0  0.10268808909E+02 -0.51092221437E+01  0.15359355624E+02  0.19169308614E+02  0.51100000000E-03 0.  1.
        -12    1    3    3    0    0  0.53905852415E+00 -0.26816954779E+01  0.31273622424E+01  0.41548127904E+01  0.00000000000E+00 0.  1.
</event>
<event>
 7    1  0.3980989E-008  0.4614232E+02  0.7816164E-02  0.1320468E+00
        -11   -1    0    0    0    0  0.00000000000E+00  0.00000000000E+00  0.45593999997E+02  0.45594000000E+02  0.51100000000E-03 0.  1.
         11   -1    0    0    0    0 -0.00000000000E+00 -0.00000000000E+00 -0.45593999997E+02  0.45594000000E+02  0.51100000000E-03 0. -1.
    9900012    2    1    2    0    0  0.22734653263E+01  0.44028076506E+02 -0.92451783831E+01  0.46142317757E+02  0.99999999591E+01 0.  0.
        -12    1    1    2    0    0 -0.22734653263E+01 -0.44028076506E+02  0.92451783831E+01  0.45045682243E+02  0.00000000000E+00 0.  1.
         11    1    3    3    0    0 -0.78661964295E+00  0.25229110181E+01 -0.21590013853E+01  0.34124972837E+01  0.51100000000E-03 0. -1.
        -11    1    3    3    0    0  0.21596059266E+01  0.95080175586E+01 -0.41130553554E+01  0.10582226622E+02  0.51100000000E-03 0.  1.
         12    1    3    3    0    0  0.90047904261E+00  0.31997147930E+02 -0.29731216424E+01  0.32147593851E+02  0.00000000000E+00 0. -1.
</event>
<event>
 7    1  0.3980989E-008  0.4614232E+02  0.7816164E-02  0.1320468E+00
        -11   -1    0    0    0    0  0.00000000000E+00  0.00000000000E+00  0.45593999997E+02  0.45594000000E+02  0.51100000000E-03 0. -1.
         11   -1    0    0    0    0 -0.00000000000E+00 -0.00000000000E+00 -0.45593999997E+02  0.45594000000E+02  0.51100000000E-03 0.  1.
    9900012    2    1    2    0    0  0.13341774724E+02  0.79263213019E+00  0.43017232994E+02  0.46142317044E+02  0.99999934626E+01 0.  0.
        -12    1    1    2    0    0 -0.13341774724E+02 -0.79263213019E+00 -0.43017232994E+02  0.45045682956E+02  0.00000000000E+00 0.  1.
         11    1    3    3    0    0  0.45990917175E+01 -0.30330788939E+01  0.26335337060E+02  0.26905411919E+02  0.51100000000E-03 0. -1.
        -11    1    3    3    0    0  0.13786595475E+01  0.71636826706E+00  0.33398837901E+01  0.36835729441E+01  0.51100000000E-03 0.  1.
         12    1    3    3    0    0  0.73640234590E+01  0.31093427570E+01  0.13342012144E+02  0.15553332181E+02  0.00000000000E+00 0. -1.
</event>
<event>
 7    1  0.3980989E-008  0.4614232E+02  0.7816164E-02  0.1320468E+00
        -11   -1    0    0    0    0  0.00000000000E+00  0.00000000000E+00  0.45593999997E+02  0.45594000000E+02  0.51100000000E-03 0.  1.
         11   -1    0    0    0    0 -0.00000000000E+00 -0.00000000000E+00 -0.45593999997E+02  0.45594000000E+02  0.51100000000E-03 0. -1.
    9900012    2    1    2    0    0 -0.36532464231E+02  0.23332603952E+01 -0.26249732987E+02  0.46142317313E+02  0.99999959136E+01 0.  0.
        -12    1    1    2    0    0  0.36532464231E+02 -0.23332603952E+01  0.26249732987E+02  0.45045682687E+02  0.00000000000E+00 0.  1.
         11    1    3    3    0    0 -0.22564190843E+02  0.36569849215E+01 -0.14414995947E+02  0.27024217945E+02  0.51100000000E-03 0. -1.
        -11    1    3    3    0    0 -0.78534035952E+01 -0.65229466796E+00 -0.31754859857E+01  0.84961843123E+01  0.51100000000E-03 0.  1.
         12    1    3    3    0    0 -0.61148697932E+01 -0.67142985839E+00 -0.86592510540E+01  0.10621915056E+02  0.00000000000E+00 0. -1.
</event>
<event>
 7    1  0.3980989E-008  0.4614232E+02  0.7816164E-02  0.1320468E+00
        -11   -1    0    0    0    0  0.00000000000E+00  0.00000000000E+00  0.45593999997E+02  0.45594000000E+02  0.51100000000E-03 0.  1.
         11   -1    0    0    0    0 -0.00000000000E+00 -0.00000000000E+00 -0.45593999997E+02  0.45594000000E+02  0.51100000000E-03 0. -1.
    9900012    2    1    2    0    0 -0.62214152176E+01 -0.41925034520E+02 -0.15254473740E+02  0.46142317677E+02  0.99999992344E+01 0.  0.
        -12    1    1    2    0    0  0.62214152176E+01  0.41925034520E+02  0.15254473740E+02  0.45045682323E+02  0.00000000000E+00 0.  1.
         11    1    3    3    0    0  0.23402377869E+01 -0.94791830721E+01 -0.28580037834E+01  0.10173485661E+02  0.51100000000E-03 0. -1.
        -11    1    3    3    0    0 -0.43817901094E+01 -0.97961178118E+01 -0.40980849741E+01  0.11487310802E+02  0.51100000000E-03 0.  1.
         12    1    3    3    0    0 -0.41798628950E+01 -0.22649733636E+02 -0.82983849827E+01  0.24481521214E+02  0.00000000000E+00 0. -1.
</event>
<event>
 7    1  0.3980989E-008  0.4614231E+02  0.7816164E-02  0.1320468E+00
        -11   -1    0    0    0    0  0.00000000000E+00  0.00000000000E+00  0.45593999997E+02  0.45594000000E+02  0.51100000000E-03 0.  1.
         11   -1    0    0    0    0 -0.00000000000E+00 -0.00000000000E+00 -0.45593999997E+02  0.45594000000E+02  0.51100000000E-03 0. -1.
    9900012    2    1    2    0    0  0.15101629586E+02 -0.40513741776E+02 -0.12636924190E+02  0.46142308287E+02  0.99999136104E+01 0.  0.
        -12    1    1    2    0    0 -0.15101629586E+02  0.40513741776E+02  0.12636924190E+02  0.45045691713E+02  0.00000000000E+00 0.  1.
         11    1    3    3    0    0  0.71115749297E+01 -0.23095398841E+02 -0.66271564219E+01  0.25057756246E+02  0.51100000000E-03 0. -1.
        -11    1    3    3    0    0  0.80559252867E+01 -0.17614070370E+02 -0.49316863162E+01  0.19986869125E+02  0.51100000000E-03 0.  1.
        -12    1    3    3    0    0 -0.65870629865E-01  0.19572743465E+00 -0.10780814514E+01  0.10976829161E+01  0.00000000000E+00 0.  1.
</event>
<event>
 7    1  0.3980989E-008  0.4614232E+02  0.7816164E-02  0.1320468E+00
        -11   -1    0    0    0    0  0.00000000000E+00  0.00000000000E+00  0.45593999997E+02  0.45594000000E+02  0.51100000000E-03 0.  1.
         11   -1    0    0    0    0 -0.00000000000E+00 -0.00000000000E+00 -0.45593999997E+02  0.45594000000E+02  0.51100000000E-03 0. -1.
    9900012    2    1    2    0    0 -0.33789424181E+01 -0.28127714298E+02 -0.35021820273E+02  0.46142318090E+02  0.10000003002E+02 0.  0.
        -12    1    1    2    0    0  0.33789424181E+01  0.28127714298E+02  0.35021820273E+02  0.45045681910E+02  0.00000000000E+00 0.  1.
         11    1    3    3    0    0 -0.42232830874E+01 -0.87845770688E+01 -0.10816613781E+02  0.14560358796E+02  0.51100000000E-03 0. -1.
        -11    1    3    3    0    0 -0.20302309811E+01 -0.62389115216E+01 -0.54895457070E+01  0.85545874910E+01  0.51100000000E-03 0.  1.
         12    1    3    3    0    0  0.28745716503E+01 -0.13104225707E+02 -0.18715660785E+02  0.23027371804E+02  0.00000000000E+00 0. -1.
</event>
<event>
 7    1  0.3980989E-008  0.4614232E+02  0.7816164E-02  0.1320468E+00
        -11   -1    0    0    0    0  0.00000000000E+00  0.00000000000E+00  0.45593999997E+02  0.45594000000E+02  0.51100000000E-03 0. -1.
         11   -1    0    0    0    0 -0.00000000000E+00 -0.00000000000E+00 -0.45593999997E+02  0.45594000000E+02  0.51100000000E-03 0.  1.
    9900012    2    1    2    0    0  0.28981297602E+02 -0.32592910454E+02 -0.11264993584E+02  0.46142317599E+02  0.99999985211E+01 0.  0.
        -12    1    1    2    0    0 -0.28981297602E+02  0.32592910454E+02  0.11264993584E+02  0.45045682401E+02  0.00000000000E+00 0.  1.
         11    1    3    3    0    0  0.10942674819E+02 -0.14118991755E+02 -0.94608137270E+00  0.17888072300E+02  0.51100000000E-03 0. -1.
        -11    1    3    3    0    0  0.11571245523E+01 -0.14714817251E+01 -0.23491916222E+01  0.30038137818E+01  0.51100000000E-03 0.  1.
        -12    1    3    3    0    0  0.16881498230E+02 -0.17002436973E+02 -0.79697205895E+01  0.25250431517E+02  0.00000000000E+00 0.  1.
</event>
<event>
 7    1  0.3980989E-008  0.4614232E+02  0.7816164E-02  0.1320468E+00
        -11   -1    0    0    0    0  0.00000000000E+00  0.00000000000E+00  0.45593999997E+02  0.45594000000E+02  0.51100000000E-03 0.  1.
         11   -1    0    0    0    0 -0.00000000000E+00 -0.00000000000E+00 -0.45593999997E+02  0.45594000000E+02  0.51100000000E-03 0. -1.
    9900012    2    1    2    0    0  0.12166974302E+02  0.33018566835E+02 -0.28122098059E+02  0.46142318534E+02  0.10000007051E+02 0.  0.
        -12    1    1    2    0    0 -0.12166974302E+02 -0.33018566835E+02  0.28122098059E+02  0.45045681466E+02  0.00000000000E+00 0.  1.
         11    1    3    3    0    0  0.10602788066E+01  0.25873134530E+01 -0.10657905105E+01  0.29923722571E+01  0.51100000000E-03 0. -1.
        -11    1    3    3    0    0 -0.20892122248E+00  0.23402239017E+01 -0.54889005468E+01  0.59706218655E+01  0.51100000000E-03 0.  1.
         12    1    3    3    0    0  0.11315616717E+02  0.28091029480E+02 -0.21567407001E+02  0.37179324412E+02  0.00000000000E+00 0. -1.
</event>
<event>
 7    1  0.3980989E-008  0.4614232E+02  0.7816164E-02  0.1320468E+00
        -11   -1    0    0    0    0  0.00000000000E+00  0.00000000000E+00  0.45593999997E+02  0.45594000000E+02  0.51100000000E-03 0. -1.
         11   -1    0    0    0    0 -0.00000000000E+00 -0.00000000000E+00 -0.45593999997E+02  0.45594000000E+02  0.51100000000E-03 0.  1.
    9900012    2    1    2    0    0 -0.10974517958E+02 -0.43536992428E+02  0.36337057593E+01  0.46142316837E+02  0.99999915748E+01 0.  0.
        -12    1    1    2    0    0  0.10974517958E+02  0.43536992428E+02 -0.36337057593E+01  0.45045683163E+02  0.00000000000E+00 0.  1.
         11    1    3    3    0    0 -0.82473661533E+01 -0.34951679462E+02  0.55167372823E+01  0.36332813491E+02  0.51100000000E-03 0. -1.
        -11    1    3    3    0    0 -0.26098240465E+01 -0.32192516311E+01 -0.72041949521E-01  0.41448706761E+01  0.51100000000E-03 0.  1.
         12    1    3    3    0    0 -0.11732775815E+00 -0.53660613347E+01 -0.18109895735E+01  0.56646326700E+01  0.00000000000E+00 0. -1.
</event>
<event>
 7    1  0.3980989E-008  0.4614232E+02  0.7816164E-02  0.1320468E+00
        -11   -1    0    0    0    0  0.00000000000E+00  0.00000000000E+00  0.45593999997E+02  0.45594000000E+02  0.51100000000E-03 0. -1.
         11   -1    0    0    0    0 -0.00000000000E+00 -0.00000000000E+00 -0.45593999997E+02  0.45594000000E+02  0.51100000000E-03 0.  1.
    9900012    2    1    2    0    0 -0.42351922090E+02  0.17583123225E+01  0.15242591644E+02  0.46142316889E+02  0.99999920487E+01 0.  0.
        -12    1    1    2    0    0  0.42351922090E+02 -0.17583123225E+01 -0.15242591644E+02  0.45045683111E+02  0.00000000000E+00 0.  1.
         11    1    3    3    0    0 -0.13535106324E+02  0.46972545937E+01  0.35744322894E+01  0.14766173180E+02  0.51100000000E-03 0. -1.
        -11    1    3    3    0    0 -0.31376985198E+01 -0.60145935981E+00  0.34227014556E+00  0.32131066706E+01  0.51100000000E-03 0.  1.
         12    1    3    3    0    0 -0.25679117246E+02 -0.23374829115E+01  0.11325889209E+02  0.28163037039E+02  0.00000000000E+00 0. -1.
</event>
<event>
 7    1  0.3980989E-008  0.4614232E+02  0.7816164E-02  0.1320468E+00
        -11   -1    0    0    0    0  0.00000000000E+00  0.00000000000E+00  0.45593999997E+02  0.45594000000E+02  0.51100000000E-03 0.  1.
         11   -1    0    0    0    0 -0.00000000000E+00 -0.00000000000E+00 -0.45593999997E+02  0.45594000000E+02  0.51100000000E-03 0. -1.
    9900012    2    1    2    0    0  0.16537016912E+02 -0.10068816515E+01 -0.41888267089E+02  0.46142315870E+02  0.99999827548E+01 0.  0.
        -12    1    1    2    0    0 -0.16537016912E+02  0.10068816515E+01  0.41888267089E+02  0.45045684130E+02  0.00000000000E+00 0.  1.
         11    1    3    3    0    0  0.10136439880E+02  0.29060102942E+01 -0.31737917396E+02  0.33443799278E+02  0.51100000000E-03 0. -1.
        -11    1    3    3    0    0  0.14942320481E+01 -0.44542079215E+00 -0.14780782084E+01  0.21484516626E+01  0.51100000000E-03 0.  1.
         12    1    3    3    0    0  0.49063449834E+01 -0.34674711535E+01 -0.86722714853E+01  0.10550064929E+02  0.00000000000E+00 0. -1.
</event>
<event>
 7    1  0.3980989E-008  0.4614232E+02  0.7816164E-02  0.1320468E+00
        -11   -1    0    0    0    0  0.00000000000E+00  0.00000000000E+00  0.45593999997E+02  0.45594000000E+02  0.51100000000E-03 0. -1.
         11   -1    0    0    0    0 -0.00000000000E+00 -0.00000000000E+00 -0.45593999997E+02  0.45594000000E+02  0.51100000000E-03 0.  1.
    9900012    2    1    2    0    0 -0.34263663095E+00 -0.32292842191E+02  0.31403318895E+02  0.46142317696E+02  0.99999994056E+01 0.  0.
        -12    1    1    2    0    0  0.34263663095E+00  0.32292842191E+02 -0.31403318895E+02  0.45045682304E+02  0.00000000000E+00 0.  1.
         11    1    3    3    0    0 -0.21842872892E+00 -0.46292164466E+01  0.47339031456E+01  0.66247411476E+01  0.51100000000E-03 0. -1.
        -11    1    3    3    0    0  0.27047788464E+01 -0.21701600760E+02  0.16504612473E+02  0.27398495165E+02  0.51100000000E-03 0.  1.
        -12    1    3    3    0    0 -0.28289867484E+01 -0.59620249844E+01  0.10164803276E+02  0.12119081384E+02  0.00000000000E+00 0.  1.
</event>
<event>
 7    1  0.3980989E-008  0.4614232E+02  0.7816164E-02  0.1320468E+00
        -11   -1    0    0    0    0  0.00000000000E+00  0.00000000000E+00  0.45593999997E+02  0.45594000000E+02  0.51100000000E-03 0.  1.
         11   -1    0    0    0    0 -0.00000000000E+00 -0.00000000000E+00 -0.45593999997E+02  0.45594000000E+02  0.51100000000E-03 0. -1.
    9900012    2    1    2    0    0  0.21834201132E+02  0.25485355135E+01 -0.39317760848E+02  0.46142315518E+02  0.99999795499E+01 0.  0.
        -12    1    1    2    0    0 -0.21834201132E+02 -0.25485355135E+01  0.39317760848E+02  0.45045684482E+02  0.00000000000E+00 0.  1.
         11    1    3    3    0    0 -0.10082777917E+00 -0.12475412484E+01 -0.98704106277E+00  0.15939810940E+01  0.51100000000E-03 0. -1.
        -11    1    3    3    0    0  0.45975686986E+01  0.26796193488E+01 -0.94122002731E+01  0.10812377723E+02  0.51100000000E-03 0.  1.
         12    1    3    3    0    0  0.17337460212E+02  0.11164574130E+01 -0.28918519512E+02  0.33735956701E+02  0.00000000000E+00 0. -1.
</event>
<event>
 7    1  0.3980989E-008  0.4614232E+02  0.7816164E-02  0.1320468E+00
        -11   -1    0    0    0    0  0.00000000000E+00  0.00000000000E+00  0.45593999997E+02  0.45594000000E+02  0.51100000000E-03 0.  1.
         11   -1    0    0    0    0 -0.00000000000E+00 -0.00000000000E+00 -0.45593999997E+02  0.45594000000E+02  0.51100000000E-03 0. -1.
    9900012    2    1    2    0    0 -0.19616769522E+02 -0.39391036162E+02 -0.96250804480E+01  0.46142317077E+02  0.99999937591E+01 0.  0.
        -12    1    1    2    0    0  0.19616769522E+02  0.39391036162E+02  0.96250804480E+01  0.45045682923E+02  0.00000000000E+00 0.  1.
         11    1    3    3    0    0 -0.10321574216E+02 -0.15467194899E+02 -0.20166421822E+01  0.18703899548E+02  0.51100000000E-03 0. -1.
        -11    1    3    3    0    0 -0.39823039461E+01 -0.98360822675E+01 -0.96219586863E-01  0.10612092987E+02  0.51100000000E-03 0.  1.
         12    1    3    3    0    0 -0.53128913600E+01 -0.14087758995E+02 -0.75122186790E+01  0.16826324542E+02  0.00000000000E+00 0. -1.
</event>
<event>
 7    1  0.3980989E-008  0.4614232E+02  0.7816164E-02  0.1320468E+00
        -11   -1    0    0    0    0  0.00000000000E+00  0.00000000000E+00  0.45593999997E+02  0.45594000000E+02  0.51100000000E-03 0.  1.
         11   -1    0    0    0    0 -0.00000000000E+00 -0.00000000000E+00 -0.45593999997E+02  0.45594000000E+02  0.51100000000E-03 0. -1.
    9900012    2    1    2    0    0 -0.12352509402E+02 -0.11512894182E+02 -0.41761014926E+02  0.46142316648E+02  0.99999898532E+01 0.  0.
        -12    1    1    2    0    0  0.12352509402E+02  0.11512894182E+02  0.41761014926E+02  0.45045683352E+02  0.00000000000E+00 0.  1.
         11    1    3    3    0    0 -0.76276874139E+01 -0.39500601255E+01 -0.23502389501E+02  0.25022927543E+02  0.51100000000E-03 0. -1.
        -11    1    3    3    0    0  0.45533042555E+00 -0.30533838779E+01 -0.26574238720E+01  0.40733746204E+01  0.51100000000E-03 0.  1.
        -12    1    3    3    0    0 -0.51801524135E+01 -0.45094501782E+01 -0.15601201553E+02  0.17046014485E+02  0.00000000000E+00 0.  1.
</event>
<event>
 7    1  0.3980989E-008  0.4614232E+02  0.7816164E-02  0.1320468E+00
        -11   -1    0    0    0    0  0.00000000000E+00  0.00000000000E+00  0.45593999997E+02  0.45594000000E+02  0.51100000000E-03 0.  1.
         11   -1    0    0    0    0 -0.00000000000E+00 -0.00000000000E+00 -0.45593999997E+02  0.45594000000E+02  0.51100000000E-03 0. -1.
    9900012    2    1    2    0    0 -0.19019620068E+02 -0.36104754506E+02 -0.19073915583E+02  0.46142317619E+02  0.99999987075E+01 0.  0.
        -12    1    1    2    0    0  0.19019620068E+02  0.36104754506E+02  0.19073915583E+02  0.45045682381E+02  0.00000000000E+00 0.  1.
         11    1    3    3    0    0 -0.11365162868E+01 -0.83045734772E+01 -0.41129746577E+01  0.93367109147E+01  0.51100000000E-03 0. -1.
        -11    1    3    3    0    0 -0.27197584208E+01 -0.80193061946E+01 -0.57421359524E+01  0.10231250328E+02  0.51100000000E-03 0.  1.
         12    1    3    3    0    0 -0.15163345361E+02 -0.19780874834E+02 -0.92188049733E+01  0.26574356377E+02  0.00000000000E+00 0. -1.
</event>
<event>
 7    1  0.3980989E-008  0.4614232E+02  0.7816164E-02  0.1320468E+00
        -11   -1    0    0    0    0  0.00000000000E+00  0.00000000000E+00  0.45593999997E+02  0.45594000000E+02  0.51100000000E-03 0. -1.
         11   -1    0    0    0    0 -0.00000000000E+00 -0.00000000000E+00 -0.45593999997E+02  0.45594000000E+02  0.51100000000E-03 0.  1.
    9900012    2    1    2    0    0 -0.35765812719E+02 -0.21305095447E+02  0.17205025419E+02  0.46142319284E+02  0.10000013887E+02 0.  0.
        -12    1    1    2    0    0  0.35765812719E+02  0.21305095447E+02 -0.17205025419E+02  0.45045680716E+02  0.00000000000E+00 0.  1.
         11    1    3    3    0    0 -0.11346199632E+02 -0.66201215580E+01  0.20566087600E+01  0.13296311345E+02  0.51100000000E-03 0. -1.
        -11    1    3    3    0    0 -0.19499480652E+02 -0.88816787701E+01  0.12401449882E+02  0.24757017650E+02  0.51100000000E-03 0.  1.
        -12    1    3    3    0    0 -0.49201324348E+01 -0.58032951194E+01  0.27469667776E+01  0.80889902890E+01  0.00000000000E+00 0.  1.
</event>
<event>
 7    1  0.3980989E-008  0.4614232E+02  0.7816164E-02  0.1320468E+00
        -11   -1    0    0    0    0  0.00000000000E+00  0.00000000000E+00  0.45593999997E+02  0.45594000000E+02  0.51100000000E-03 0.  1.
         11   -1    0    0    0    0 -0.00000000000E+00 -0.00000000000E+00 -0.45593999997E+02  0.45594000000E+02  0.51100000000E-03 0. -1.
    9900012    2    1    2    0    0  0.20183564121E+02 -0.51956478799E+01 -0.39934229122E+02  0.46142315711E+02  0.99999813040E+01 0.  0.
        -12    1    1    2    0    0 -0.20183564121E+02  0.51956478799E+01  0.39934229122E+02  0.45045684289E+02  0.00000000000E+00 0.  1.
         11    1    3    3    0    0  0.27590536316E+01  0.20429835004E+01 -0.71726964385E+01  0.79519640960E+01  0.51100000000E-03 0. -1.
        -11    1    3    3    0    0  0.11468474875E+01  0.86217622826E+00 -0.21024339945E+01  0.25453557650E+01  0.51100000000E-03 0.  1.
         12    1    3    3    0    0  0.16277663001E+02 -0.81008076085E+01 -0.30659098689E+02  0.35644995850E+02  0.00000000000E+00 0. -1.
</event>
<event>
 7    1  0.3980989E-008  0.4614232E+02  0.7816164E-02  0.1320468E+00
        -11   -1    0    0    0    0  0.00000000000E+00  0.00000000000E+00  0.45593999997E+02  0.45594000000E+02  0.51100000000E-03 0.  1.
         11   -1    0    0    0    0 -0.00000000000E+00 -0.00000000000E+00 -0.45593999997E+02  0.45594000000E+02  0.51100000000E-03 0. -1.
    9900012    2    1    2    0    0 -0.98030174741E+01 -0.23159060617E+02 -0.37372078254E+02  0.46142317929E+02  0.10000001532E+02 0.  0.
        -12    1    1    2    0    0  0.98030174741E+01  0.23159060617E+02  0.37372078254E+02  0.45045682071E+02  0.00000000000E+00 0.  1.
         11    1    3    3    0    0 -0.53082208849E+01 -0.56246491496E+01 -0.10193360806E+02  0.12795252705E+02  0.51100000000E-03 0. -1.
        -11    1    3    3    0    0 -0.52058119023E+01 -0.76263909325E+01 -0.10995840690E+02  0.14358649970E+02  0.51100000000E-03 0.  1.
         12    1    3    3    0    0  0.71101531307E+00 -0.99080205344E+01 -0.16182876758E+02  0.18988415254E+02  0.00000000000E+00 0. -1.
</event>
<event>
 7    1  0.3980989E-008  0.4614231E+02  0.7816164E-02  0.1320468E+00
        -11   -1    0    0    0    0  0.00000000000E+00  0.00000000000E+00  0.45593999997E+02  0.45594000000E+02  0.51100000000E-03 0.  1.
         11   -1    0    0    0    0 -0.00000000000E+00 -0.00000000000E+00 -0.45593999997E+02  0.45594000000E+02  0.51100000000E-03 0. -1.
    9900012    2    1    2    0    0 -0.21858865371E+02 -0.13090988876E+02 -0.37147409034E+02  0.46142312271E+02  0.99999499356E+01 0.  0.
        -12    1    1    2    0    0  0.21858865371E+02  0.13090988876E+02  0.37147409034E+02  0.45045687729E+02  0.00000000000E+00 0.  1.
         11    1    3    3    0    0 -0.20601500573E+02 -0.11360214020E+02 -0.34704585071E+02  0.41927133383E+02  0.51100000000E-03 0. -1.
        -11    1    3    3    0    0 -0.20404341056E+01 -0.79541358677E+00 -0.18087204070E+01  0.28403386920E+01  0.51100000000E-03 0.  1.
         12    1    3    3    0    0  0.78306930839E+00 -0.93536126927E+00 -0.63410355589E+00  0.13748401963E+01  0.00000000000E+00 0. -1.
</event>
<event>
 7    1  0.3980989E-008  0.4614232E+02  0.7816164E-02  0.1320468E+00
        -11   -1    0    0    0    0  0.00000000000E+00  0.00000000000E+00  0.45593999997E+02  0.45594000000E+02  0.51100000000E-03 0.  1.
         11   -1    0    0    0    0 -0.00000000000E+00 -0.00000000000E+00 -0.45593999997E+02  0.45594000000E+02  0.51100000000E-03 0. -1.
    9900012    2    1    2    0    0  0.31343669462E+02 -0.64217669833E+01 -0.31708811716E+02  0.46142318221E+02  0.10000004195E+02 0.  0.
        -12    1    1    2    0    0 -0.31343669462E+02  0.64217669833E+01  0.31708811716E+02  0.45045681779E+02  0.00000000000E+00 0.  1.
         11    1    3    3    0    0  0.80135898006E+01 -0.77077088816E+00 -0.78151908591E+01  0.11220023069E+02  0.51100000000E-03 0. -1.
        -11    1    3    3    0    0  0.17021894063E+02 -0.19578951584E+01 -0.11845518907E+02  0.20830135606E+02  0.51100000000E-03 0.  1.
        -12    1    3    3    0    0  0.63081855984E+01 -0.36931009368E+01 -0.12048101949E+02  0.14092159546E+02  0.00000000000E+00 0.  1.
</event>
<event>
 7    1  0.3980989E-008  0.4614232E+02  0.7816164E-02  0.1320468E+00
        -11   -1    0    0    0    0  0.00000000000E+00  0.00000000000E+00  0.45593999997E+02  0.45594000000E+02  0.51100000000E-03 0.  1.
         11   -1    0    0    0    0 -0.00000000000E+00 -0.00000000000E+00 -0.45593999997E+02  0.45594000000E+02  0.51100000000E-03 0. -1.
    9900012    2    1    2    0    0 -0.28689111596E+01  0.18988265486E+02 -0.40747130090E+02  0.46142317766E+02  0.10000000040E+02 0.  0.
        -12    1    1    2    0    0  0.28689111596E+01 -0.18988265486E+02  0.40747130090E+02  0.45045682234E+02  0.00000000000E+00 0.  1.
         11    1    3    3    0    0 -0.10859696529E+01  0.91706126378E+00  0.22150019337E-01  0.14215563067E+01  0.51100000000E-03 0. -1.
        -11    1    3    3    0    0  0.39693850282E+00  0.24270443975E+01 -0.74865448820E+01  0.78801306597E+01  0.51100000000E-03 0.  1.
         12    1    3    3    0    0 -0.21798800095E+01  0.15644159824E+02 -0.33282735227E+02  0.36840630799E+02  0.00000000000E+00 0. -1.
</event>
<event>
 7    1  0.3980989E-008  0.4614232E+02  0.7816164E-02  0.1320468E+00
        -11   -1    0    0    0    0  0.00000000000E+00  0.00000000000E+00  0.45593999997E+02  0.45594000000E+02  0.51100000000E-03 0.  1.
         11   -1    0    0    0    0 -0.00000000000E+00 -0.00000000000E+00 -0.45593999997E+02  0.45594000000E+02  0.51100000000E-03 0. -1.
    9900012    2    1    2    0    0 -0.37370410973E+02 -0.72953172434E+01 -0.24069572676E+02  0.46142316535E+02  0.99999888227E+01 0.  0.
        -12    1    1    2    0    0  0.37370410973E+02  0.72953172434E+01  0.24069572676E+02  0.45045683465E+02  0.00000000000E+00 0.  1.
         11    1    3    3    0    0 -0.27669985647E+02 -0.37667417811E+01 -0.12455010214E+02  0.30576849561E+02  0.51100000000E-03 0. -1.
        -11    1    3    3    0    0 -0.25942546307E+01 -0.97184605426E+00 -0.37460922957E+01  0.46591683368E+01  0.51100000000E-03 0.  1.
         12    1    3    3    0    0 -0.71061706953E+01 -0.25567294080E+01 -0.78684701667E+01  0.10906298638E+02  0.00000000000E+00 0. -1.
</event>
<event>
 7    1  0.3980989E-008  0.4614232E+02  0.7816164E-02  0.1320468E+00
        -11   -1    0    0    0    0  0.00000000000E+00  0.00000000000E+00  0.45593999997E+02  0.45594000000E+02  0.51100000000E-03 0.  1.
         11   -1    0    0    0    0 -0.00000000000E+00 -0.00000000000E+00 -0.45593999997E+02  0.45594000000E+02  0.51100000000E-03 0. -1.
    9900012    2    1    2    0    0 -0.34874848368E+02  0.26820143644E+02 -0.96715219245E+01  0.46142317742E+02  0.99999998286E+01 0.  0.
        -12    1    1    2    0    0  0.34874848368E+02 -0.26820143644E+02  0.96715219245E+01  0.45045682258E+02  0.00000000000E+00 0.  1.
         11    1    3    3    0    0 -0.76109311999E+01  0.32370178762E+01 -0.38338267267E+01  0.91160729534E+01  0.51100000000E-03 0.  1.
        -11    1    3    3    0    0 -0.87272262265E+01  0.89085406285E+01 -0.47950136091E+01  0.13361090132E+02  0.51100000000E-03 0. -1.
         12    1    3    3    0    0 -0.18536690941E+02  0.14674585139E+02 -0.10426815887E+01  0.23665154657E+02  0.00000000000E+00 0. -1.
</event>
<event>
 7    1  0.3980989E-008  0.4614232E+02  0.7816164E-02  0.1320468E+00
        -11   -1    0    0    0    0  0.00000000000E+00  0.00000000000E+00  0.45593999997E+02  0.45594000000E+02  0.51100000000E-03 0.  1.
         11   -1    0    0    0    0 -0.00000000000E+00 -0.00000000000E+00 -0.45593999997E+02  0.45594000000E+02  0.51100000000E-03 0. -1.
    9900012    2    1    2    0    0  0.64103447941E+01  0.32402607967E+02 -0.30628286782E+02  0.46142317914E+02  0.10000001390E+02 0.  0.
        -12    1    1    2    0    0 -0.64103447941E+01 -0.32402607967E+02  0.30628286782E+02  0.45045682086E+02  0.00000000000E+00 0.  1.
         11    1    3    3    0    0  0.12365273327E+01  0.38472972211E+01 -0.10329551311E+01  0.41710541013E+01  0.51100000000E-03 0. -1.
        -11    1    3    3    0    0  0.56037101004E+01  0.17982054782E+02 -0.21909728006E+02  0.28892767999E+02  0.51100000000E-03 0.  1.
        -12    1    3    3    0    0 -0.42989263891E+00  0.10573255964E+02 -0.76856036446E+01  0.13078495814E+02  0.00000000000E+00 0.  1.
</event>
<event>
 7    1  0.4246991E-008  0.4614232E+02  0.7816164E-02  0.1320468E+00
        -11   -1    0    0    0    0  0.00000000000E+00  0.00000000000E+00  0.45593999997E+02  0.45594000000E+02  0.51100000000E-03 0.  1.
         11   -1    0    0    0    0 -0.00000000000E+00 -0.00000000000E+00 -0.45593999997E+02  0.45594000000E+02  0.51100000000E-03 0. -1.
    9900012    2    1    2    0    0 -0.33796051540E+02  0.14881531640E+02 -0.25796907996E+02  0.46142317124E+02  0.99999941862E+01 0.  0.
        -12    1    1    2    0    0  0.33796051540E+02 -0.14881531640E+02  0.25796907996E+02  0.45045682876E+02  0.00000000000E+00 0.  1.
         11    1    3    3    0    0 -0.22116352261E+02  0.11401541602E+02 -0.17351018446E+02  0.30334568228E+02  0.51100000000E-03 0. -1.
        -11    1    3    3    0    0 -0.30756658490E+01  0.34556149853E+01 -0.19196758200E+01  0.50086076765E+01  0.51100000000E-03 0.  1.
         12    1    3    3    0    0 -0.86040334301E+01  0.24375052541E-01 -0.65262137303E+01  0.10799141219E+02  0.00000000000E+00 0. -1.
</event>
<event>
 7    1  0.3980989E-008  0.4614232E+02  0.7816164E-02  0.1320468E+00
        -11   -1    0    0    0    0  0.00000000000E+00  0.00000000000E+00  0.45593999997E+02  0.45594000000E+02  0.51100000000E-03 0.  1.
         11   -1    0    0    0    0 -0.00000000000E+00 -0.00000000000E+00 -0.45593999997E+02  0.45594000000E+02  0.51100000000E-03 0. -1.
    9900012    2    1    2    0    0 -0.23271279031E+02  0.13038820388E+02 -0.36298074915E+02  0.46142317550E+02  0.99999980740E+01 0.  0.
        -12    1    1    2    0    0  0.23271279031E+02 -0.13038820388E+02  0.36298074915E+02  0.45045682450E+02  0.00000000000E+00 0.  1.
         11    1    3    3    0    0 -0.82304908983E+01  0.24963749839E+01 -0.12945604110E+02  0.15542249983E+02  0.51100000000E-03 0. -1.
        -11    1    3    3    0    0  0.34295043443E-01  0.26978045583E+01 -0.42336856028E+01  0.50203007509E+01  0.51100000000E-03 0.  1.
        -12    1    3    3    0    0 -0.15075083176E+02  0.78446408460E+01 -0.19118785202E+02  0.25579766816E+02  0.00000000000E+00 0.  1.
</event>
<event>
 7    1  0.3980989E-008  0.4614232E+02  0.7816164E-02  0.1320468E+00
        -11   -1    0    0    0    0  0.00000000000E+00  0.00000000000E+00  0.45593999997E+02  0.45594000000E+02  0.51100000000E-03 0. -1.
         11   -1    0    0    0    0 -0.00000000000E+00 -0.00000000000E+00 -0.45593999997E+02  0.45594000000E+02  0.51100000000E-03 0.  1.
    9900012    2    1    2    0    0  0.71265165465E+01  0.31988543479E+02  0.30904032898E+02  0.46142318727E+02  0.10000008808E+02 0.  0.
        -12    1    1    2    0    0 -0.71265165465E+01 -0.31988543479E+02 -0.30904032898E+02  0.45045681273E+02  0.00000000000E+00 0.  1.
         11    1    3    3    0    0  0.20775115882E+01  0.13809916139E+02  0.12918652119E+02  0.19024232205E+02  0.51100000000E-03 0.  1.
        -11    1    3    3    0    0  0.19476724539E+01  0.14819909071E+02  0.10220883352E+02  0.18107721823E+02  0.51100000000E-03 0. -1.
        -12    1    3    3    0    0  0.31013325044E+01  0.33587182687E+01  0.77644974268E+01  0.90103646986E+01  0.00000000000E+00 0.  1.
</event>
<event>
 7    1  0.3980989E-008  0.4614232E+02  0.7816164E-02  0.1320468E+00
        -11   -1    0    0    0    0  0.00000000000E+00  0.00000000000E+00  0.45593999997E+02  0.45594000000E+02  0.51100000000E-03 0.  1.
         11   -1    0    0    0    0 -0.00000000000E+00 -0.00000000000E+00 -0.45593999997E+02  0.45594000000E+02  0.51100000000E-03 0. -1.
    9900012    2    1    2    0    0 -0.28090100689E+02  0.33814052293E+01 -0.35051759939E+02  0.46142317267E+02  0.99999954967E+01 0.  0.
        -12    1    1    2    0    0  0.28090100689E+02 -0.33814052293E+01  0.35051759939E+02  0.45045682733E+02  0.00000000000E+00 0.  1.
         11    1    3    3    0    0 -0.10898573781E+02  0.23511418554E+01 -0.15051931633E+02  0.18731455486E+02  0.51100000000E-03 0. -1.
        -11    1    3    3    0    0 -0.76455633057E+01  0.41073593907E+01 -0.10127612513E+02  0.13337675019E+02  0.51100000000E-03 0.  1.
         12    1    3    3    0    0 -0.95459636017E+01 -0.30770960168E+01 -0.98722157928E+01  0.14073186762E+02  0.00000000000E+00 0. -1.
</event>
<event>
 7    1  0.3980989E-008  0.4614232E+02  0.7816164E-02  0.1320468E+00
        -11   -1    0    0    0    0  0.00000000000E+00  0.00000000000E+00  0.45593999997E+02  0.45594000000E+02  0.51100000000E-03 0.  1.
         11   -1    0    0    0    0 -0.00000000000E+00 -0.00000000000E+00 -0.45593999997E+02  0.45594000000E+02  0.51100000000E-03 0. -1.
    9900012    2    1    2    0    0  0.27686514313E+02 -0.52366297469E+01 -0.35144674646E+02  0.46142317389E+02  0.99999966031E+01 0.  0.
        -12    1    1    2    0    0 -0.27686514313E+02  0.52366297469E+01  0.35144674646E+02  0.45045682611E+02  0.00000000000E+00 0.  1.
         11    1    3    3    0    0  0.65056329486E+01 -0.39076185128E+01 -0.10790507064E+02  0.13191959122E+02  0.51100000000E-03 0. -1.
        -11    1    3    3    0    0  0.53833680627E+01 -0.30511584225E+01 -0.53708526126E+01  0.81936730143E+01  0.51100000000E-03 0.  1.
        -12    1    3    3    0    0  0.15797513302E+02  0.17221471883E+01 -0.18983314969E+02  0.24756685253E+02  0.00000000000E+00 0.  1.
</event>
<event>
 7    1  0.3980989E-008  0.4614232E+02  0.7816164E-02  0.1320468E+00
        -11   -1    0    0    0    0  0.00000000000E+00  0.00000000000E+00  0.45593999997E+02  0.45594000000E+02  0.51100000000E-03 0.  1.
         11   -1    0    0    0    0 -0.00000000000E+00 -0.00000000000E+00 -0.45593999997E+02  0.45594000000E+02  0.51100000000E-03 0. -1.
    9900012    2    1    2    0    0 -0.21911476564E+02  0.25796108286E+02 -0.29724762641E+02  0.46142317388E+02  0.99999965965E+01 0.  0.
        -12    1    1    2    0    0  0.21911476564E+02 -0.25796108286E+02  0.29724762641E+02  0.45045682612E+02  0.00000000000E+00 0.  1.
         11    1    3    3    0    0  0.62356992705E+00  0.99853797959E+00 -0.14317834208E+01  0.18536239035E+01  0.51100000000E-03 0. -1.
        -11    1    3    3    0    0 -0.79739547084E+01  0.10216021700E+02 -0.14726851548E+02  0.19617115227E+02  0.51100000000E-03 0.  1.
        -12    1    3    3    0    0 -0.14561091782E+02  0.14581548607E+02 -0.13566127672E+02  0.24671578257E+02  0.00000000000E+00 0.  1.
</event>
<event>
 7    1  0.3980989E-008  0.4614232E+02  0.7816164E-02  0.1320468E+00
        -11   -1    0    0    0    0  0.00000000000E+00  0.00000000000E+00  0.45593999997E+02  0.45594000000E+02  0.51100000000E-03 0. -1.
         11   -1    0    0    0    0 -0.00000000000E+00 -0.00000000000E+00 -0.45593999997E+02  0.45594000000E+02  0.51100000000E-03 0.  1.
    9900012    2    1    2    0    0  0.40035910926E+02 -0.20479398123E+02 -0.26141020565E+01  0.46142318290E+02  0.10000004822E+02 0.  0.
        -12    1    1    2    0    0 -0.40035910926E+02  0.20479398123E+02  0.26141020565E+01  0.45045681710E+02  0.00000000000E+00 0.  1.
         11    1    3    3    0    0  0.11956309991E+02 -0.65719484957E+01  0.26046097220E+00  0.13645940635E+02  0.51100000000E-03 0. -1.
        -11    1    3    3    0    0  0.25724725018E+02 -0.14988074142E+02 -0.24818100335E+01  0.29875796643E+02  0.51100000000E-03 0.  1.
        -12    1    3    3    0    0  0.23548759169E+01  0.10806245147E+01 -0.39275299513E+00  0.26205810121E+01  0.00000000000E+00 0.  1.
</event>
<event>
 7    1  0.3980989E-008  0.4614232E+02  0.7816164E-02  0.1320468E+00
        -11   -1    0    0    0    0  0.00000000000E+00  0.00000000000E+00  0.45593999997E+02  0.45594000000E+02  0.51100000000E-03 0.  1.
         11   -1    0    0    0    0 -0.00000000000E+00 -0.00000000000E+00 -0.45593999997E+02  0.45594000000E+02  0.51100000000E-03 0. -1.
    9900012    2    1    2    0    0  0.10214369811E+02 -0.23264017535E+02 -0.37196313789E+02  0.46142316278E+02  0.99999864773E+01 0.  0.
        -12    1    1    2    0    0 -0.10214369811E+02  0.23264017535E+02  0.37196313789E+02  0.45045683722E+02  0.00000000000E+00 0.  1.
         11    1    3    3    0    0  0.25501864643E+01 -0.53795040942E+01 -0.81378716469E+01  0.10083028836E+02  0.51100000000E-03 0. -1.
        -11    1    3    3    0    0  0.49202434442E+01 -0.87431211499E+01 -0.76393469055E+01  0.12609939905E+02  0.51100000000E-03 0.  1.
        -12    1    3    3    0    0  0.27439399024E+01 -0.91413922906E+01 -0.21419095236E+02  0.23449347538E+02  0.00000000000E+00 0.  1.
</event>
<event>
 7    1  0.3980989E-008  0.4614232E+02  0.7816164E-02  0.1320468E+00
        -11   -1    0    0    0    0  0.00000000000E+00  0.00000000000E+00  0.45593999997E+02  0.45594000000E+02  0.51100000000E-03 0. -1.
         11   -1    0    0    0    0 -0.00000000000E+00 -0.00000000000E+00 -0.45593999997E+02  0.45594000000E+02  0.51100000000E-03 0.  1.
    9900012    2    1    2    0    0  0.12588495733E+02  0.41578602237E+02  0.11910629185E+02  0.46142317894E+02  0.10000001212E+02 0.  0.
        -12    1    1    2    0    0 -0.12588495733E+02 -0.41578602237E+02 -0.11910629185E+02  0.45045682106E+02  0.00000000000E+00 0.  1.
         11    1    3    3    0    0  0.60124897589E+01  0.24221660013E+02  0.40280772409E+01  0.25279720200E+02  0.51100000000E-03 0. -1.
        -11    1    3    3    0    0  0.52670332165E+01  0.91868259288E+01  0.66304432712E+01  0.12494086112E+02  0.51100000000E-03 0.  1.
        -12    1    3    3    0    0  0.13089727577E+01  0.81701162954E+01  0.12521086727E+01  0.83685115815E+01  0.00000000000E+00 0.  1.
</event>
<event>
 7    1  0.3980989E-008  0.4614232E+02  0.7816164E-02  0.1320468E+00
        -11   -1    0    0    0    0  0.00000000000E+00  0.00000000000E+00  0.45593999997E+02  0.45594000000E+02  0.51100000000E-03 0. -1.
         11   -1    0    0    0    0 -0.00000000000E+00 -0.00000000000E+00 -0.45593999997E+02  0.45594000000E+02  0.51100000000E-03 0.  1.
    9900012    2    1    2    0    0  0.33642046781E+02 -0.28608249629E+02  0.88822440458E+01  0.46142317435E+02  0.99999970252E+01 0.  0.
        -12    1    1    2    0    0 -0.33642046781E+02  0.28608249629E+02 -0.88822440458E+01  0.45045682565E+02  0.00000000000E+00 0.  1.
         11    1    3    3    0    0  0.12261177807E+02 -0.81360593144E+01  0.43750752063E+01  0.15351652214E+02  0.51100000000E-03 0. -1.
        -11    1    3    3    0    0  0.10042716164E+02 -0.60064771711E+01 -0.59188896496E+00  0.11716836125E+02  0.51100000000E-03 0.  1.
        -12    1    3    3    0    0  0.11338152810E+02 -0.14465713144E+02  0.50990578045E+01  0.19073829096E+02  0.00000000000E+00 0.  1.
</event>
<event>
 7    1  0.3980989E-008  0.4614232E+02  0.7816164E-02  0.1320468E+00
        -11   -1    0    0    0    0  0.00000000000E+00  0.00000000000E+00  0.45593999997E+02  0.45594000000E+02  0.51100000000E-03 0. -1.
         11   -1    0    0    0    0 -0.00000000000E+00 -0.00000000000E+00 -0.45593999997E+02  0.45594000000E+02  0.51100000000E-03 0.  1.
    9900012    2    1    2    0    0 -0.25525588051E+02  0.20197782333E+02  0.31138520545E+02  0.46142317429E+02  0.99999969740E+01 0.  0.
        -12    1    1    2    0    0  0.25525588051E+02 -0.20197782333E+02 -0.31138520545E+02  0.45045682571E+02  0.00000000000E+00 0.  1.
         11    1    3    3    0    0 -0.11127726828E+02  0.10739555902E+02  0.11041728448E+02  0.19002213889E+02  0.51100000000E-03 0. -1.
        -11    1    3    3    0    0 -0.35709754089E+01  0.26277584248E+01  0.17452285919E+01  0.47647458284E+01  0.51100000000E-03 0.  1.
         12    1    3    3    0    0 -0.10826885815E+02  0.68304680065E+01  0.18351563506E+02  0.22375357712E+02  0.00000000000E+00 0. -1.
</event>
<event>
 7    1  0.3980989E-008  0.4614232E+02  0.7816164E-02  0.1320468E+00
        -11   -1    0    0    0    0  0.00000000000E+00  0.00000000000E+00  0.45593999997E+02  0.45594000000E+02  0.51100000000E-03 0.  1.
         11   -1    0    0    0    0 -0.00000000000E+00 -0.00000000000E+00 -0.45593999997E+02  0.45594000000E+02  0.51100000000E-03 0. -1.
    9900012    2    1    2    0    0  0.14751041773E+02 -0.23630449050E+02 -0.35399465507E+02  0.46142317478E+02  0.99999974198E+01 0.  0.
        -12    1    1    2    0    0 -0.14751041773E+02  0.23630449050E+02  0.35399465507E+02  0.45045682522E+02  0.00000000000E+00 0.  1.
         11    1    3    3    0    0  0.55793221365E+01 -0.28277736842E+01 -0.63090269824E+01  0.88841972759E+01  0.51100000000E-03 0. -1.
        -11    1    3    3    0    0  0.24624716186E+01 -0.16705628249E+01 -0.31282828938E+01  0.43174877822E+01  0.51100000000E-03 0.  1.
         12    1    3    3    0    0  0.67092480175E+01 -0.19132112541E+02 -0.25962155631E+02  0.32940632420E+02  0.00000000000E+00 0. -1.
</event>
<event>
 7    1  0.3980989E-008  0.4614232E+02  0.7816164E-02  0.1320468E+00
        -11   -1    0    0    0    0  0.00000000000E+00  0.00000000000E+00  0.45593999997E+02  0.45594000000E+02  0.51100000000E-03 0.  1.
         11   -1    0    0    0    0 -0.00000000000E+00 -0.00000000000E+00 -0.45593999997E+02  0.45594000000E+02  0.51100000000E-03 0. -1.
    9900012    2    1    2    0    0  0.23194815474E+02 -0.18657501843E+02 -0.33808456313E+02  0.46142316987E+02  0.99999929372E+01 0.  0.
        -12    1    1    2    0    0 -0.23194815474E+02  0.18657501843E+02  0.33808456313E+02  0.45045683013E+02  0.00000000000E+00 0.  1.
         11    1    3    3    0    0  0.46017844680E+01 -0.55799792964E+01 -0.43860386490E+01  0.84587188469E+01  0.51100000000E-03 0. -1.
        -11    1    3    3    0    0  0.18610773991E+02 -0.11326935828E+02 -0.27480262952E+02  0.35068864196E+02  0.51100000000E-03 0.  1.
        -12    1    3    3    0    0 -0.17742985942E-01 -0.17505867178E+01 -0.19421547119E+01  0.26147339435E+01  0.00000000000E+00 0.  1.
</event>
<event>
 7    1  0.3980989E-008  0.4614232E+02  0.7816164E-02  0.1320468E+00
        -11   -1    0    0    0    0  0.00000000000E+00  0.00000000000E+00  0.45593999997E+02  0.45594000000E+02  0.51100000000E-03 0.  1.
         11   -1    0    0    0    0 -0.00000000000E+00 -0.00000000000E+00 -0.45593999997E+02  0.45594000000E+02  0.51100000000E-03 0. -1.
    9900012    2    1    2    0    0 -0.38480417131E+01  0.39020319284E+01 -0.44711074023E+02  0.46142318537E+02  0.10000007072E+02 0.  0.
        -12    1    1    2    0    0  0.38480417131E+01 -0.39020319284E+01  0.44711074023E+02  0.45045681463E+02  0.00000000000E+00 0.  1.
         11    1    3    3    0    0 -0.63671344517E+00  0.12304446752E+01 -0.97385721723E+00  0.16934568937E+01  0.51100000000E-03 0. -1.
        -11    1    3    3    0    0 -0.79966757079E+00 -0.58876684705E+00 -0.32277058969E+02  0.32292331142E+02  0.51100000000E-03 0.  1.
         12    1    3    3    0    0 -0.24116606971E+01  0.32603541003E+01 -0.11460157837E+02  0.12156530501E+02  0.00000000000E+00 0. -1.
</event>
<event>
 7    1  0.3980989E-008  0.4614231E+02  0.7816164E-02  0.1320468E+00
        -11   -1    0    0    0    0  0.00000000000E+00  0.00000000000E+00  0.45593999997E+02  0.45594000000E+02  0.51100000000E-03 0.  1.
         11   -1    0    0    0    0 -0.00000000000E+00 -0.00000000000E+00 -0.45593999997E+02  0.45594000000E+02  0.51100000000E-03 0. -1.
    9900012    2    1    2    0    0 -0.39218451039E+02  0.13175121853E+02 -0.17816948513E+02  0.46142307731E+02  0.99999085333E+01 0.  0.
        -12    1    1    2    0    0  0.39218451039E+02 -0.13175121853E+02  0.17816948513E+02  0.45045692269E+02  0.00000000000E+00 0.  1.
         11    1    3    3    0    0 -0.17954573282E+02  0.62467394717E+01 -0.42702003364E+01  0.19483918162E+02  0.51100000000E-03 0.  1.
        -11    1    3    3    0    0 -0.21061749820E+02  0.58530550771E+01 -0.12770144514E+02  0.25316637817E+02  0.51100000000E-03 0. -1.
        -12    1    3    3    0    0 -0.20212793701E+00  0.10753273040E+01 -0.77660366194E+00  0.13417517510E+01  0.00000000000E+00 0.  1.
</event>
<event>
 7    1  0.3980989E-008  0.4614232E+02  0.7816164E-02  0.1320468E+00
        -11   -1    0    0    0    0  0.00000000000E+00  0.00000000000E+00  0.45593999997E+02  0.45594000000E+02  0.51100000000E-03 0.  1.
         11   -1    0    0    0    0 -0.00000000000E+00 -0.00000000000E+00 -0.45593999997E+02  0.45594000000E+02  0.51100000000E-03 0. -1.
    9900012    2    1    2    0    0  0.77754980424E+01  0.15976842490E+02 -0.41393179588E+02  0.46142321160E+02  0.10000030989E+02 0.  0.
        -12    1    1    2    0    0 -0.77754980424E+01 -0.15976842490E+02  0.41393179588E+02  0.45045678840E+02  0.00000000000E+00 0.  1.
         11    1    3    3    0    0  0.43313223978E+01  0.82442395159E+01 -0.19981556824E+02  0.22045191137E+02  0.51100000000E-03 0. -1.
        -11    1    3    3    0    0 -0.13738651061E+01 -0.40407836705E+00 -0.16180738198E+01  0.21607748156E+01  0.51100000000E-03 0.  1.
        -12    1    3    3    0    0  0.48180407507E+01  0.81366813415E+01 -0.19793548945E+02  0.21936355207E+02  0.00000000000E+00 0.  1.
</event>
<event>
 7    1  0.3980989E-008  0.4614232E+02  0.7816164E-02  0.1320468E+00
        -11   -1    0    0    0    0  0.00000000000E+00  0.00000000000E+00  0.45593999997E+02  0.45594000000E+02  0.51100000000E-03 0.  1.
         11   -1    0    0    0    0 -0.00000000000E+00 -0.00000000000E+00 -0.45593999997E+02  0.45594000000E+02  0.51100000000E-03 0. -1.
    9900012    2    1    2    0    0 -0.23949112663E+02 -0.20723017730E+01 -0.38095393326E+02  0.46142318468E+02  0.10000006449E+02 0.  0.
        -12    1    1    2    0    0  0.23949112663E+02  0.20723017730E+01  0.38095393326E+02  0.45045681532E+02  0.00000000000E+00 0.  1.
         11    1    3    3    0    0 -0.14066570760E+02 -0.21318789205E+01 -0.18798977906E+02  0.23575726738E+02  0.51100000000E-03 0. -1.
        -11    1    3    3    0    0 -0.89142317299E+01 -0.20934875674E+01 -0.13547130507E+02  0.16351481975E+02  0.51100000000E-03 0.  1.
        -12    1    3    3    0    0 -0.96831017293E+00  0.21530647149E+01 -0.57492849130E+01  0.62151097552E+01  0.00000000000E+00 0.  1.
</event>
<event>
 7    1  0.3980989E-008  0.4614232E+02  0.7816164E-02  0.1320468E+00
        -11   -1    0    0    0    0  0.00000000000E+00  0.00000000000E+00  0.45593999997E+02  0.45594000000E+02  0.51100000000E-03 0. -1.
         11   -1    0    0    0    0 -0.00000000000E+00 -0.00000000000E+00 -0.45593999997E+02  0.45594000000E+02  0.51100000000E-03 0.  1.
    9900012    2    1    2    0    0 -0.42168093505E+01  0.16077503128E+02  0.41867002188E+02  0.46142318074E+02  0.10000002858E+02 0.  0.
        -12    1    1    2    0    0  0.42168093505E+01 -0.16077503128E+02 -0.41867002188E+02  0.45045681926E+02  0.00000000000E+00 0.  1.
         11    1    3    3    0    0  0.24054374656E+01  0.91069076530E+01  0.18974836915E+02  0.21184105660E+02  0.51100000000E-03 0.  1.
        -11    1    3    3    0    0 -0.33030785294E+01  0.19836189369E+01  0.72908753259E+01  0.82463285853E+01  0.51100000000E-03 0. -1.
        -12    1    3    3    0    0 -0.33191682867E+01  0.49869765377E+01  0.15601289947E+02  0.16711883829E+02  0.00000000000E+00 0.  1.
</event>
<event>
 7    1  0.3980989E-008  0.4614232E+02  0.7816164E-02  0.1320468E+00
        -11   -1    0    0    0    0  0.00000000000E+00  0.00000000000E+00  0.45593999997E+02  0.45594000000E+02  0.51100000000E-03 0.  1.
         11   -1    0    0    0    0 -0.00000000000E+00 -0.00000000000E+00 -0.45593999997E+02  0.45594000000E+02  0.51100000000E-03 0. -1.
    9900012    2    1    2    0    0  0.23494306471E+01 -0.29352039120E+02 -0.34088876200E+02  0.46142317572E+02  0.99999982714E+01 0.  0.
        -12    1    1    2    0    0 -0.23494306471E+01  0.29352039120E+02  0.34088876200E+02  0.45045682428E+02  0.00000000000E+00 0.  1.
         11    1    3    3    0    0 -0.12324675195E+01 -0.10433244820E+02 -0.86121154955E+01  0.13584553994E+02  0.51100000000E-03 0. -1.
        -11    1    3    3    0    0  0.97119113236E+00 -0.45566743710E+01 -0.11239766678E+02  0.12167121631E+02  0.51100000000E-03 0.  1.
        -12    1    3    3    0    0  0.26107070342E+01 -0.14362119929E+02 -0.14236994026E+02  0.20390641946E+02  0.00000000000E+00 0.  1.
</event>
<event>
 7    1  0.3980989E-008  0.4614232E+02  0.7816164E-02  0.1320468E+00
        -11   -1    0    0    0    0  0.00000000000E+00  0.00000000000E+00  0.45593999997E+02  0.45594000000E+02  0.51100000000E-03 0.  1.
         11   -1    0    0    0    0 -0.00000000000E+00 -0.00000000000E+00 -0.45593999997E+02  0.45594000000E+02  0.51100000000E-03 0. -1.
    9900012    2    1    2    0    0 -0.29829964347E+02 -0.33590754716E+02 -0.33087683893E+01  0.46142317370E+02  0.99999964375E+01 0.  0.
        -12    1    1    2    0    0  0.29829964347E+02  0.33590754716E+02  0.33087683893E+01  0.45045682630E+02  0.00000000000E+00 0.  1.
         11    1    3    3    0    0 -0.11635420069E+01 -0.23623449693E+01 -0.10361744508E+01  0.28298695216E+01  0.51100000000E-03 0. -1.
        -11    1    3    3    0    0 -0.16571890340E+02 -0.20206382937E+02 -0.53168341745E+01  0.26668224289E+02  0.51100000000E-03 0.  1.
        -12    1    3    3    0    0 -0.12094532000E+02 -0.11022026809E+02  0.30442402360E+01  0.16644223560E+02  0.00000000000E+00 0.  1.
</event>
<event>
 7    1  0.3980989E-008  0.4614232E+02  0.7816164E-02  0.1320468E+00
        -11   -1    0    0    0    0  0.00000000000E+00  0.00000000000E+00  0.45593999997E+02  0.45594000000E+02  0.51100000000E-03 0. -1.
         11   -1    0    0    0    0 -0.00000000000E+00 -0.00000000000E+00 -0.45593999997E+02  0.45594000000E+02  0.51100000000E-03 0.  1.
    9900012    2    1    2    0    0  0.34162601330E+02 -0.95692061616E+01  0.27757170898E+02  0.46142316828E+02  0.99999914909E+01 0.  0.
        -12    1    1    2    0    0 -0.34162601330E+02  0.95692061616E+01 -0.27757170898E+02  0.45045683172E+02  0.00000000000E+00 0.  1.
         11    1    3    3    0    0  0.45060554084E+01  0.59551066213E-01  0.20717697434E+01  0.49598701398E+01  0.51100000000E-03 0. -1.
        -11    1    3    3    0    0  0.34613754821E+01  0.33312807779E+00  0.59978374927E+01  0.69329755080E+01  0.51100000000E-03 0.  1.
        -12    1    3    3    0    0  0.26195170439E+02 -0.99618853057E+01  0.19687563662E+02  0.34249471180E+02  0.00000000000E+00 0.  1.
</event>
<event>
 7    1  0.3980989E-008  0.4614232E+02  0.7816164E-02  0.1320468E+00
        -11   -1    0    0    0    0  0.00000000000E+00  0.00000000000E+00  0.45593999997E+02  0.45594000000E+02  0.51100000000E-03 0.  1.
         11   -1    0    0    0    0 -0.00000000000E+00 -0.00000000000E+00 -0.45593999997E+02  0.45594000000E+02  0.51100000000E-03 0. -1.
    9900012    2    1    2    0    0 -0.34823259749E+02  0.67451009142E+01 -0.27766125058E+02  0.46142317558E+02  0.99999981487E+01 0.  0.
        -12    1    1    2    0    0  0.34823259749E+02 -0.67451009142E+01  0.27766125058E+02  0.45045682442E+02  0.00000000000E+00 0.  1.
         11    1    3    3    0    0 -0.22607064191E+02  0.32989788461E+01 -0.16590094082E+02  0.28234621206E+02  0.51100000000E-03 0. -1.
        -11    1    3    3    0    0 -0.44643282522E+01  0.33615464045E+01 -0.20962090134E+01  0.59686106811E+01  0.51100000000E-03 0.  1.
        -12    1    3    3    0    0 -0.77518673066E+01  0.84575663632E-01 -0.90798219629E+01  0.11939085671E+02  0.00000000000E+00 0.  1.
</event>
<event>
 7    1  0.3980989E-008  0.4614232E+02  0.7816164E-02  0.1320468E+00
        -11   -1    0    0    0    0  0.00000000000E+00  0.00000000000E+00  0.45593999997E+02  0.45594000000E+02  0.51100000000E-03 0.  1.
         11   -1    0    0    0    0 -0.00000000000E+00 -0.00000000000E+00 -0.45593999997E+02  0.45594000000E+02  0.51100000000E-03 0. -1.
    9900012    2    1    2    0    0  0.34852132037E+02 -0.26001640320E+02 -0.11762525909E+02  0.46142318491E+02  0.10000006656E+02 0.  0.
        -12    1    1    2    0    0 -0.34852132037E+02  0.26001640320E+02  0.11762525909E+02  0.45045681509E+02  0.00000000000E+00 0.  1.
         11    1    3    3    0    0  0.33436295212E+01  0.41468392281E+00 -0.10671435832E+01  0.35342066746E+01  0.51100000000E-03 0. -1.
        -11    1    3    3    0    0  0.73858830226E+01 -0.67584776252E+01 -0.12558806128E+01  0.10089872358E+02  0.51100000000E-03 0.  1.
         12    1    3    3    0    0  0.24122619493E+02 -0.19657846618E+02 -0.94395017135E+01  0.32518239458E+02  0.00000000000E+00 0. -1.
</event>
<event>
 7    1  0.3980989E-008  0.4614232E+02  0.7816164E-02  0.1320468E+00
        -11   -1    0    0    0    0  0.00000000000E+00  0.00000000000E+00  0.45593999997E+02  0.45594000000E+02  0.51100000000E-03 0.  1.
         11   -1    0    0    0    0 -0.00000000000E+00 -0.00000000000E+00 -0.45593999997E+02  0.45594000000E+02  0.51100000000E-03 0. -1.
    9900012    2    1    2    0    0 -0.26205828405E+02 -0.18952358895E+01 -0.36589289882E+02  0.46142317682E+02  0.99999992780E+01 0.  0.
        -12    1    1    2    0    0  0.26205828405E+02  0.18952358895E+01  0.36589289882E+02  0.45045682318E+02  0.00000000000E+00 0.  1.
         11    1    3    3    0    0 -0.14201377319E+02  0.18274185976E+01 -0.24583434331E+02  0.28449320207E+02  0.51100000000E-03 0.  1.
        -11    1    3    3    0    0 -0.77304318452E+01 -0.89449427617E+00 -0.82345740380E+01  0.11329956150E+02  0.51100000000E-03 0. -1.
         12    1    3    3    0    0 -0.42740192403E+01 -0.28281602109E+01 -0.37712815129E+01  0.63630413243E+01  0.00000000000E+00 0. -1.
</event>
<event>
 7    1  0.3980989E-008  0.4614232E+02  0.7816164E-02  0.1320468E+00
        -11   -1    0    0    0    0  0.00000000000E+00  0.00000000000E+00  0.45593999997E+02  0.45594000000E+02  0.51100000000E-03 0.  1.
         11   -1    0    0    0    0 -0.00000000000E+00 -0.00000000000E+00 -0.45593999997E+02  0.45594000000E+02  0.51100000000E-03 0. -1.
    9900012    2    1    2    0    0  0.26176619715E+02 -0.28801554995E+02  0.22679693102E+02  0.46142317976E+02  0.10000001956E+02 0.  0.
        -12    1    1    2    0    0 -0.26176619715E+02  0.28801554995E+02 -0.22679693102E+02  0.45045682024E+02  0.00000000000E+00 0.  1.
         11    1    3    3    0    0  0.10495828161E+02 -0.65662185748E+01  0.10149109390E+02  0.16008811849E+02  0.51100000000E-03 0. -1.
        -11    1    3    3    0    0  0.19263957328E+01 -0.48044774811E+01  0.28729085642E+01  0.59201020486E+01  0.51100000000E-03 0.  1.
         12    1    3    3    0    0  0.13754395822E+02 -0.17430858939E+02  0.96576751477E+01  0.24213404078E+02  0.00000000000E+00 0. -1.
</event>
<event>
 7    1  0.3980989E-008  0.4614232E+02  0.7816164E-02  0.1320468E+00
        -11   -1    0    0    0    0  0.00000000000E+00  0.00000000000E+00  0.45593999997E+02  0.45594000000E+02  0.51100000000E-03 0. -1.
         11   -1    0    0    0    0 -0.00000000000E+00 -0.00000000000E+00 -0.45593999997E+02  0.45594000000E+02  0.51100000000E-03 0.  1.
    9900012    2    1    2    0    0  0.36190982966E+02  0.74115209434E+01  0.25775860221E+02  0.46142324726E+02  0.10000063512E+02 0.  0.
        -12    1    1    2    0    0 -0.36190982966E+02 -0.74115209434E+01 -0.25775860221E+02  0.45045675274E+02  0.00000000000E+00 0.  1.
         11    1    3    3    0    0  0.11184949687E+02 -0.46797107085E+00  0.58055245945E+01  0.12610559564E+02  0.51100000000E-03 0. -1.
        -11    1    3    3    0    0  0.26017097947E+00  0.12190961832E+01  0.48061467183E+00  0.13359922029E+01  0.51100000000E-03 0.  1.
         12    1    3    3    0    0  0.24745862300E+02  0.66603958310E+01  0.19489720954E+02  0.32195772960E+02  0.00000000000E+00 0. -1.
</event>
<event>
 7    1  0.3980989E-008  0.4614231E+02  0.7816164E-02  0.1320468E+00
        -11   -1    0    0    0    0  0.00000000000E+00  0.00000000000E+00  0.45593999997E+02  0.45594000000E+02  0.51100000000E-03 0.  1.
         11   -1    0    0    0    0 -0.00000000000E+00 -0.00000000000E+00 -0.45593999997E+02  0.45594000000E+02  0.51100000000E-03 0. -1.
    9900012    2    1    2    0    0 -0.35417140172E+02  0.32840291560E+01 -0.27639738046E+02  0.46142314472E+02  0.99999700029E+01 0.  0.
        -12    1    1    2    0    0  0.35417140172E+02 -0.32840291560E+01  0.27639738046E+02  0.45045685528E+02  0.00000000000E+00 0.  1.
         11    1    3    3    0    0 -0.87672725985E+01 -0.18118541554E+01 -0.57085856944E+01  0.10617713275E+02  0.51100000000E-03 0. -1.
        -11    1    3    3    0    0 -0.95579409639E+01  0.30638579908E+01 -0.12031772395E+02  0.15668599442E+02  0.51100000000E-03 0.  1.
         12    1    3    3    0    0 -0.17091926610E+02  0.20320253206E+01 -0.98993799566E+01  0.19856001754E+02  0.00000000000E+00 0. -1.
</event>
<event>
 7    1  0.3980989E-008  0.4614232E+02  0.7816164E-02  0.1320468E+00
        -11   -1    0    0    0    0  0.00000000000E+00  0.00000000000E+00  0.45593999997E+02  0.45594000000E+02  0.51100000000E-03 0.  1.
         11   -1    0    0    0    0 -0.00000000000E+00 -0.00000000000E+00 -0.45593999997E+02  0.45594000000E+02  0.51100000000E-03 0. -1.
    9900012    2    1    2    0    0  0.67150148673E+01 -0.33120883817E+02 -0.29783036030E+02  0.46142316471E+02  0.99999882334E+01 0.  0.
        -12    1    1    2    0    0 -0.67150148673E+01  0.33120883817E+02  0.29783036030E+02  0.45045683529E+02  0.00000000000E+00 0.  1.
         11    1    3    3    0    0  0.70332460935E+01 -0.23962231883E+02 -0.18446208535E+02  0.31047024286E+02  0.51100000000E-03 0. -1.
        -11    1    3    3    0    0  0.28140518274E+00 -0.93072677160E+01 -0.10272425715E+02  0.13864600663E+02  0.51100000000E-03 0.  1.
        -12    1    3    3    0    0 -0.59963640892E+00  0.14861578214E+00 -0.10644017800E+01  0.12306915222E+01  0.00000000000E+00 0.  1.
</event>
<event>
 7    1  0.3980989E-008  0.4614232E+02  0.7816164E-02  0.1320468E+00
        -11   -1    0    0    0    0  0.00000000000E+00  0.00000000000E+00  0.45593999997E+02  0.45594000000E+02  0.51100000000E-03 0. -1.
         11   -1    0    0    0    0 -0.00000000000E+00 -0.00000000000E+00 -0.45593999997E+02  0.45594000000E+02  0.51100000000E-03 0.  1.
    9900012    2    1    2    0    0  0.10068084510E+02 -0.41403867268E+02  0.14610508484E+02  0.46142317536E+02  0.99999979481E+01 0.  0.
        -12    1    1    2    0    0 -0.10068084510E+02  0.41403867268E+02 -0.14610508484E+02  0.45045682464E+02  0.00000000000E+00 0.  1.
         11    1    3    3    0    0  0.41053410784E+01 -0.11060921035E+02  0.22255810717E+01  0.12006290471E+02  0.51100000000E-03 0. -1.
        -11    1    3    3    0    0  0.65427670807E+01 -0.18724779253E+02  0.10185461901E+02  0.22297282201E+02  0.51100000000E-03 0.  1.
        -12    1    3    3    0    0 -0.58002364916E+00 -0.11618166980E+02  0.21994655110E+01  0.11838744864E+02  0.00000000000E+00 0.  1.
</event>
<event>
 7    1  0.3980989E-008  0.4614232E+02  0.7816164E-02  0.1320468E+00
        -11   -1    0    0    0    0  0.00000000000E+00  0.00000000000E+00  0.45593999997E+02  0.45594000000E+02  0.51100000000E-03 0.  1.
         11   -1    0    0    0    0 -0.00000000000E+00 -0.00000000000E+00 -0.45593999997E+02  0.45594000000E+02  0.51100000000E-03 0. -1.
    9900012    2    1    2    0    0 -0.10276192757E+02 -0.97591420899E+01 -0.42758304568E+02  0.46142316506E+02  0.99999885589E+01 0.  0.
        -12    1    1    2    0    0  0.10276192757E+02  0.97591420899E+01  0.42758304568E+02  0.45045683494E+02  0.00000000000E+00 0.  1.
         11    1    3    3    0    0 -0.34312374299E+01 -0.17666384171E+01 -0.11378618718E+02  0.12015297158E+02  0.51100000000E-03 0. -1.
        -11    1    3    3    0    0 -0.75721541063E+01 -0.82659487500E+01 -0.31409063720E+02  0.33349553379E+02  0.51100000000E-03 0.  1.
        -12    1    3    3    0    0  0.72719877947E+00  0.27344507715E+00  0.29377870278E-01  0.77746596989E+00  0.00000000000E+00 0.  1.
</event>
<event>
 7    1  0.3980989E-008  0.4614232E+02  0.7816164E-02  0.1320468E+00
        -11   -1    0    0    0    0  0.00000000000E+00  0.00000000000E+00  0.45593999997E+02  0.45594000000E+02  0.51100000000E-03 0. -1.
         11   -1    0    0    0    0 -0.00000000000E+00 -0.00000000000E+00 -0.45593999997E+02  0.45594000000E+02  0.51100000000E-03 0.  1.
    9900012    2    1    2    0    0  0.70675841177E+01  0.44184617655E+02 -0.51848217838E+01  0.46142316971E+02  0.99999927967E+01 0.  0.
        -12    1    1    2    0    0 -0.70675841177E+01 -0.44184617655E+02  0.51848217838E+01  0.45045683029E+02  0.00000000000E+00 0.  1.
         11    1    3    3    0    0 -0.10950431762E+01  0.95864832643E+01  0.10781935593E+01  0.97088764822E+01  0.51100000000E-03 0. -1.
        -11    1    3    3    0    0  0.78053862537E+00  0.60953590139E+00 -0.69420326553E+00  0.12094184535E+01  0.51100000000E-03 0.  1.
         12    1    3    3    0    0  0.73820886685E+01  0.33988598490E+02 -0.55688120776E+01  0.35224022035E+02  0.00000000000E+00 0. -1.
</event>
<event>
 7    1  0.3980989E-008  0.4614232E+02  0.7816164E-02  0.1320468E+00
        -11   -1    0    0    0    0  0.00000000000E+00  0.00000000000E+00  0.45593999997E+02  0.45594000000E+02  0.51100000000E-03 0.  1.
         11   -1    0    0    0    0 -0.00000000000E+00 -0.00000000000E+00 -0.45593999997E+02  0.45594000000E+02  0.51100000000E-03 0. -1.
    9900012    2    1    2    0    0  0.14614102871E+02 -0.30863834126E+02 -0.29376270504E+02  0.46142317317E+02  0.99999959515E+01 0.  0.
        -12    1    1    2    0    0 -0.14614102871E+02  0.30863834126E+02  0.29376270504E+02  0.45045682683E+02  0.00000000000E+00 0.  1.
         11    1    3    3    0    0  0.47577011060E+01 -0.49677070941E+01 -0.10318312046E+02  0.12400862766E+02  0.51100000000E-03 0.  1.
        -11    1    3    3    0    0  0.32977725160E+01 -0.12038256058E+02 -0.93403704883E+01  0.15589657905E+02  0.51100000000E-03 0. -1.
        -12    1    3    3    0    0  0.65586292487E+01 -0.13857870974E+02 -0.97175879690E+01  0.18151796646E+02  0.00000000000E+00 0.  1.
</event>
<event>
 7    1  0.3980989E-008  0.4614232E+02  0.7816164E-02  0.1320468E+00
        -11   -1    0    0    0    0  0.00000000000E+00  0.00000000000E+00  0.45593999997E+02  0.45594000000E+02  0.51100000000E-03 0. -1.
         11   -1    0    0    0    0 -0.00000000000E+00 -0.00000000000E+00 -0.45593999997E+02  0.45594000000E+02  0.51100000000E-03 0.  1.
    9900012    2    1    2    0    0 -0.35271851244E+01 -0.28974847535E+02  0.34309338427E+02  0.46142317322E+02  0.99999959996E+01 0.  0.
        -12    1    1    2    0    0  0.35271851244E+01  0.28974847535E+02 -0.34309338427E+02  0.45045682678E+02  0.00000000000E+00 0.  1.
         11    1    3    3    0    0 -0.48742652357E+01 -0.63801329374E+01  0.10363644864E+02  0.13109908200E+02  0.51100000000E-03 0. -1.
        -11    1    3    3    0    0 -0.30606623600E+00 -0.87116368107E+01  0.80849441586E+01  0.11889180576E+02  0.51100000000E-03 0.  1.
         12    1    3    3    0    0  0.16531463473E+01 -0.13883077787E+02  0.15860749405E+02  0.21143228546E+02  0.00000000000E+00 0. -1.
</event>
<event>
 7    1  0.3980989E-008  0.4614232E+02  0.7816164E-02  0.1320468E+00
        -11   -1    0    0    0    0  0.00000000000E+00  0.00000000000E+00  0.45593999997E+02  0.45594000000E+02  0.51100000000E-03 0. -1.
         11   -1    0    0    0    0 -0.00000000000E+00 -0.00000000000E+00 -0.45593999997E+02  0.45594000000E+02  0.51100000000E-03 0.  1.
    9900012    2    1    2    0    0 -0.26740045101E+02  0.34428774622E+02  0.11346472434E+02  0.46142323507E+02  0.10000052394E+02 0.  0.
        -12    1    1    2    0    0  0.26740045101E+02 -0.34428774622E+02 -0.11346472434E+02  0.45045676493E+02  0.00000000000E+00 0.  1.
         11    1    3    3    0    0 -0.94364289972E+01  0.13475628286E+02  0.83426558663E+01  0.18445559278E+02  0.51100000000E-03 0. -1.
        -11    1    3    3    0    0 -0.90463158432E+01  0.13488673777E+02  0.32484015793E+01  0.16562978708E+02  0.51100000000E-03 0.  1.
        -12    1    3    3    0    0 -0.82573002611E+01  0.74644725594E+01 -0.24458501187E+00  0.11133785521E+02  0.00000000000E+00 0.  1.
</event>
<event>
 7    1  0.3980989E-008  0.4614232E+02  0.7816164E-02  0.1320468E+00
        -11   -1    0    0    0    0  0.00000000000E+00  0.00000000000E+00  0.45593999997E+02  0.45594000000E+02  0.51100000000E-03 0.  1.
         11   -1    0    0    0    0 -0.00000000000E+00 -0.00000000000E+00 -0.45593999997E+02  0.45594000000E+02  0.51100000000E-03 0. -1.
    9900012    2    1    2    0    0  0.31946788273E+02  0.23268182136E+02 -0.21612679735E+02  0.46142317563E+02  0.99999981938E+01 0.  0.
        -12    1    1    2    0    0 -0.31946788273E+02 -0.23268182136E+02  0.21612679735E+02  0.45045682437E+02  0.00000000000E+00 0.  1.
         11    1    3    3    0    0  0.51297231705E+01  0.62590798974E+01 -0.76306017730E+01  0.11122779538E+02  0.51100000000E-03 0. -1.
        -11    1    3    3    0    0  0.41140044959E+01  0.14051924157E+01 -0.58568356247E+00  0.43866415643E+01  0.51100000000E-03 0.  1.
        -12    1    3    3    0    0  0.22703060607E+02  0.15603909823E+02 -0.13396394400E+02  0.30632896461E+02  0.00000000000E+00 0.  1.
</event>
<event>
 7    1  0.3980989E-008  0.4614232E+02  0.7816164E-02  0.1320468E+00
        -11   -1    0    0    0    0  0.00000000000E+00  0.00000000000E+00  0.45593999997E+02  0.45594000000E+02  0.51100000000E-03 0.  1.
         11   -1    0    0    0    0 -0.00000000000E+00 -0.00000000000E+00 -0.45593999997E+02  0.45594000000E+02  0.51100000000E-03 0. -1.
    9900012    2    1    2    0    0 -0.12195148330E+02 -0.25191265496E+02 -0.35295776307E+02  0.46142319572E+02  0.10000016516E+02 0.  0.
        -12    1    1    2    0    0  0.12195148330E+02  0.25191265496E+02  0.35295776307E+02  0.45045680428E+02  0.00000000000E+00 0.  1.
         11    1    3    3    0    0 -0.19211711172E+01 -0.85649663873E+01 -0.70236109806E+01  0.11241915279E+02  0.51100000000E-03 0. -1.
        -11    1    3    3    0    0 -0.86461077530E+00 -0.67505679120E+01 -0.87598443004E+01  0.11092907254E+02  0.51100000000E-03 0.  1.
        -12    1    3    3    0    0 -0.94093664376E+01 -0.98757311967E+01 -0.19512321026E+02  0.23807497039E+02  0.00000000000E+00 0.  1.
</event>
<event>
 7    1  0.3980989E-008  0.4614232E+02  0.7816164E-02  0.1320468E+00
        -11   -1    0    0    0    0  0.00000000000E+00  0.00000000000E+00  0.45593999997E+02  0.45594000000E+02  0.51100000000E-03 0.  1.
         11   -1    0    0    0    0 -0.00000000000E+00 -0.00000000000E+00 -0.45593999997E+02  0.45594000000E+02  0.51100000000E-03 0. -1.
    9900012    2    1    2    0    0  0.35203730443E+01 -0.42024921484E+01 -0.44710844175E+02  0.46142317039E+02  0.99999934130E+01 0.  0.
        -12    1    1    2    0    0 -0.35203730443E+01  0.42024921484E+01  0.44710844175E+02  0.45045682961E+02  0.00000000000E+00 0.  1.
         11    1    3    3    0    0 -0.14560601407E+01 -0.40637804556E+01 -0.15531689080E+02  0.16120415275E+02  0.51100000000E-03 0. -1.
        -11    1    3    3    0    0  0.19075740905E+01  0.79215082523E+00 -0.22687424802E+02  0.22781255151E+02  0.51100000000E-03 0.  1.
        -12    1    3    3    0    0  0.30688590944E+01 -0.93086251805E+00 -0.64917302933E+01  0.72406466127E+01  0.00000000000E+00 0.  1.
</event>
<event>
 7    1  0.3980989E-008  0.4614232E+02  0.7816164E-02  0.1320468E+00
        -11   -1    0    0    0    0  0.00000000000E+00  0.00000000000E+00  0.45593999997E+02  0.45594000000E+02  0.51100000000E-03 0. -1.
         11   -1    0    0    0    0 -0.00000000000E+00 -0.00000000000E+00 -0.45593999997E+02  0.45594000000E+02  0.51100000000E-03 0.  1.
    9900012    2    1    2    0    0  0.38221029698E+02 -0.23286690845E+02  0.50986738976E+01  0.46142316997E+02  0.99999930359E+01 0.  0.
        -12    1    1    2    0    0 -0.38221029698E+02  0.23286690845E+02 -0.50986738976E+01  0.45045683003E+02  0.00000000000E+00 0.  1.
         11    1    3    3    0    0  0.45342989617E+01 -0.20446542107E+01  0.40610299050E+00  0.49905308150E+01  0.51100000000E-03 0. -1.
        -11    1    3    3    0    0  0.21382301814E+02 -0.99131614910E+01 -0.69871581373E+00  0.23578842331E+02  0.51100000000E-03 0.  1.
         12    1    3    3    0    0  0.12304428922E+02 -0.11328875143E+02  0.53912867208E+01  0.17572943852E+02  0.00000000000E+00 0. -1.
</event>
<event>
 7    1  0.3980989E-008  0.4614232E+02  0.7816164E-02  0.1320468E+00
        -11   -1    0    0    0    0  0.00000000000E+00  0.00000000000E+00  0.45593999997E+02  0.45594000000E+02  0.51100000000E-03 0.  1.
         11   -1    0    0    0    0 -0.00000000000E+00 -0.00000000000E+00 -0.45593999997E+02  0.45594000000E+02  0.51100000000E-03 0. -1.
    9900012    2    1    2    0    0  0.14095544902E+02  0.33090974783E+02 -0.27118565256E+02  0.46142316747E+02  0.99999907532E+01 0.  0.
        -12    1    1    2    0    0 -0.14095544902E+02 -0.33090974783E+02  0.27118565256E+02  0.45045683253E+02  0.00000000000E+00 0.  1.
         11    1    3    3    0    0  0.82262330109E+01  0.16967115008E+02 -0.12993831831E+02  0.22899641201E+02  0.51100000000E-03 0. -1.
        -11    1    3    3    0    0  0.50213711665E+01  0.89909216766E+01 -0.11868648584E+02  0.15713550218E+02  0.51100000000E-03 0.  1.
         12    1    3    3    0    0  0.84794072452E+00  0.71329380985E+01 -0.22560848417E+01  0.75291253278E+01  0.00000000000E+00 0. -1.
</event>
<event>
 7    1  0.3980989E-008  0.4614231E+02  0.7816164E-02  0.1320468E+00
        -11   -1    0    0    0    0  0.00000000000E+00  0.00000000000E+00  0.45593999997E+02  0.45594000000E+02  0.51100000000E-03 0. -1.
         11   -1    0    0    0    0 -0.00000000000E+00 -0.00000000000E+00 -0.45593999997E+02  0.45594000000E+02  0.51100000000E-03 0.  1.
    9900012    2    1    2    0    0  0.13710468802E+02 -0.42355249880E+02 -0.68680203943E+01  0.46142313732E+02  0.99999632626E+01 0.  0.
        -12    1    1    2    0    0 -0.13710468802E+02  0.42355249880E+02  0.68680203943E+01  0.45045686268E+02  0.00000000000E+00 0.  1.
         11    1    3    3    0    0  0.78438930804E+00 -0.73492410274E+01 -0.10629539130E+01  0.74670262854E+01  0.51100000000E-03 0. -1.
        -11    1    3    3    0    0  0.14790061572E+01 -0.65546213177E+00 -0.15114134490E+01  0.22139242747E+01  0.51100000000E-03 0.  1.
         12    1    3    3    0    0  0.11447073337E+02 -0.34350546721E+02 -0.42936530323E+01  0.36461363172E+02  0.00000000000E+00 0. -1.
</event>
<event>
 7    1  0.3980989E-008  0.4614232E+02  0.7816164E-02  0.1320468E+00
        -11   -1    0    0    0    0  0.00000000000E+00  0.00000000000E+00  0.45593999997E+02  0.45594000000E+02  0.51100000000E-03 0. -1.
         11   -1    0    0    0    0 -0.00000000000E+00 -0.00000000000E+00 -0.45593999997E+02  0.45594000000E+02  0.51100000000E-03 0.  1.
    9900012    2    1    2    0    0  0.37335341609E+02  0.23464055188E+02 -0.91991217825E+01  0.46142318070E+02  0.10000002819E+02 0.  0.
        -12    1    1    2    0    0 -0.37335341609E+02 -0.23464055188E+02  0.91991217825E+01  0.45045681930E+02  0.00000000000E+00 0.  1.
         11    1    3    3    0    0  0.12307301307E+02  0.68193654771E+01 -0.47645569569E+01  0.14855114076E+02  0.51100000000E-03 0. -1.
        -11    1    3    3    0    0  0.18506782364E+02  0.93683679623E+01 -0.48602691736E+00  0.20748579088E+02  0.51100000000E-03 0.  1.
        -12    1    3    3    0    0  0.65212579384E+01  0.72763217489E+01 -0.39485379083E+01  0.10538624906E+02  0.00000000000E+00 0.  1.
</event>
<event>
 7    1  0.3980989E-008  0.4614232E+02  0.7816164E-02  0.1320468E+00
        -11   -1    0    0    0    0  0.00000000000E+00  0.00000000000E+00  0.45593999997E+02  0.45594000000E+02  0.51100000000E-03 0.  1.
         11   -1    0    0    0    0 -0.00000000000E+00 -0.00000000000E+00 -0.45593999997E+02  0.45594000000E+02  0.51100000000E-03 0. -1.
    9900012    2    1    2    0    0  0.26021576560E+02 -0.17916851884E+02 -0.32108837964E+02  0.46142317594E+02  0.99999984743E+01 0.  0.
        -12    1    1    2    0    0 -0.26021576560E+02  0.17916851884E+02  0.32108837964E+02  0.45045682406E+02  0.00000000000E+00 0.  1.
         11    1    3    3    0    0  0.88476416340E+01 -0.68819440208E+01 -0.99972016912E+01  0.15019519230E+02  0.51100000000E-03 0. -1.
        -11    1    3    3    0    0  0.45909142711E+00  0.10370837900E-01  0.65260482000E+00  0.79797606790E+00  0.51100000000E-03 0.  1.
        -12    1    3    3    0    0  0.16714843499E+02 -0.11045278701E+02 -0.22764241092E+02  0.30324822296E+02  0.00000000000E+00 0.  1.
</event>
<event>
 7    1  0.3980989E-008  0.4614232E+02  0.7816164E-02  0.1320468E+00
        -11   -1    0    0    0    0  0.00000000000E+00  0.00000000000E+00  0.45593999997E+02  0.45594000000E+02  0.51100000000E-03 0.  1.
         11   -1    0    0    0    0 -0.00000000000E+00 -0.00000000000E+00 -0.45593999997E+02  0.45594000000E+02  0.51100000000E-03 0. -1.
    9900012    2    1    2    0    0 -0.29368762307E+02  0.19380492751E+02 -0.28124473830E+02  0.46142315113E+02  0.99999758527E+01 0.  0.
        -12    1    1    2    0    0  0.29368762307E+02 -0.19380492751E+02  0.28124473830E+02  0.45045684887E+02  0.00000000000E+00 0.  1.
         11    1    3    3    0    0 -0.60152910908E+01  0.72199828038E+01 -0.54597113185E+01  0.10868317558E+02  0.51100000000E-03 0. -1.
        -11    1    3    3    0    0 -0.19587929474E+02  0.73645625999E+01 -0.17824628980E+02  0.27488927988E+02  0.51100000000E-03 0.  1.
        -12    1    3    3    0    0 -0.37655417422E+01  0.47959473474E+01 -0.48401335310E+01  0.77850695674E+01  0.00000000000E+00 0.  1.
</event>
<event>
 7    1  0.3980989E-008  0.4614232E+02  0.7816164E-02  0.1320468E+00
        -11   -1    0    0    0    0  0.00000000000E+00  0.00000000000E+00  0.45593999997E+02  0.45594000000E+02  0.51100000000E-03 0.  1.
         11   -1    0    0    0    0 -0.00000000000E+00 -0.00000000000E+00 -0.45593999997E+02  0.45594000000E+02  0.51100000000E-03 0. -1.
    9900012    2    1    2    0    0 -0.41241378496E+02 -0.17570891404E+02 -0.44187992466E+01  0.46142319721E+02  0.10000017874E+02 0.  0.
        -12    1    1    2    0    0  0.41241378496E+02  0.17570891404E+02  0.44187992466E+01  0.45045680279E+02  0.00000000000E+00 0.  1.
         11    1    3    3    0    0 -0.31545584604E+02 -0.14530720263E+02 -0.28951817464E+01  0.34851797901E+02  0.51100000000E-03 0. -1.
        -11    1    3    3    0    0 -0.50848402036E+01 -0.12027707329E+01  0.15526616670E+01  0.54509646710E+01  0.51100000000E-03 0.  1.
        -12    1    3    3    0    0 -0.46109536889E+01 -0.18374004079E+01 -0.30762791672E+01  0.58395571488E+01  0.00000000000E+00 0.  1.
</event>
<event>
 7    1  0.3980989E-008  0.4614232E+02  0.7816164E-02  0.1320468E+00
        -11   -1    0    0    0    0  0.00000000000E+00  0.00000000000E+00  0.45593999997E+02  0.45594000000E+02  0.51100000000E-03 0.  1.
         11   -1    0    0    0    0 -0.00000000000E+00 -0.00000000000E+00 -0.45593999997E+02  0.45594000000E+02  0.51100000000E-03 0. -1.
    9900012    2    1    2    0    0  0.12377966314E+02 -0.13382605966E+02 -0.41192296782E+02  0.46142317557E+02  0.99999981421E+01 0.  0.
        -12    1    1    2    0    0 -0.12377966314E+02  0.13382605966E+02  0.41192296782E+02  0.45045682443E+02  0.00000000000E+00 0.  1.
         11    1    3    3    0    0  0.11054663692E+01 -0.47400836534E+01 -0.10472706567E+02  0.11548507784E+02  0.51100000000E-03 0. -1.
        -11    1    3    3    0    0  0.24107621507E+01 -0.33737725314E+01 -0.32980521607E+01  0.52982321162E+01  0.51100000000E-03 0.  1.
         12    1    3    3    0    0  0.88617377944E+01 -0.52687497808E+01 -0.27421538054E+02  0.29295577657E+02  0.00000000000E+00 0. -1.
</event>
<event>
 7    1  0.3980989E-008  0.4614232E+02  0.7816164E-02  0.1320468E+00
        -11   -1    0    0    0    0  0.00000000000E+00  0.00000000000E+00  0.45593999997E+02  0.45594000000E+02  0.51100000000E-03 0. -1.
         11   -1    0    0    0    0 -0.00000000000E+00 -0.00000000000E+00 -0.45593999997E+02  0.45594000000E+02  0.51100000000E-03 0.  1.
    9900012    2    1    2    0    0 -0.15562665910E+02 -0.40234356256E+02 -0.12965859415E+02  0.46142317588E+02  0.99999984239E+01 0.  0.
        -12    1    1    2    0    0  0.15562665910E+02  0.40234356256E+02  0.12965859415E+02  0.45045682412E+02  0.00000000000E+00 0.  1.
         11    1    3    3    0    0 -0.59948506759E+01 -0.13180110052E+02 -0.93262799661E+00  0.14509422140E+02  0.51100000000E-03 0. -1.
        -11    1    3    3    0    0 -0.46187415542E+01 -0.87332910498E+01 -0.66410964671E+01  0.11904087897E+02  0.51100000000E-03 0.  1.
         12    1    3    3    0    0 -0.49490736798E+01 -0.18320955155E+02 -0.53921349511E+01  0.19728807552E+02  0.00000000000E+00 0. -1.
</event>
<event>
 7    1  0.3980989E-008  0.4614232E+02  0.7816164E-02  0.1320468E+00
        -11   -1    0    0    0    0  0.00000000000E+00  0.00000000000E+00  0.45593999997E+02  0.45594000000E+02  0.51100000000E-03 0.  1.
         11   -1    0    0    0    0 -0.00000000000E+00 -0.00000000000E+00 -0.45593999997E+02  0.45594000000E+02  0.51100000000E-03 0. -1.
    9900012    2    1    2    0    0 -0.42971771840E+02 -0.96549499309E+01  0.94510474910E+01  0.46142317277E+02  0.99999955894E+01 0.  0.
        -12    1    1    2    0    0  0.42971771840E+02  0.96549499309E+01 -0.94510474910E+01  0.45045682723E+02  0.00000000000E+00 0.  1.
         11    1    3    3    0    0 -0.13060985715E+02 -0.26293643426E+01 -0.10512019330E+01  0.13364427802E+02  0.51100000000E-03 0.  1.
        -11    1    3    3    0    0 -0.22848423358E+02 -0.49887568113E+01  0.59484783004E+01  0.24131360070E+02  0.51100000000E-03 0. -1.
         12    1    3    3    0    0 -0.70623627668E+01 -0.20368287770E+01  0.45537711237E+01  0.86465294057E+01  0.00000000000E+00 0. -1.
</event>
<event>
 7    1  0.3980989E-008  0.4614232E+02  0.7816164E-02  0.1320468E+00
        -11   -1    0    0    0    0  0.00000000000E+00  0.00000000000E+00  0.45593999997E+02  0.45594000000E+02  0.51100000000E-03 0.  1.
         11   -1    0    0    0    0 -0.00000000000E+00 -0.00000000000E+00 -0.45593999997E+02  0.45594000000E+02  0.51100000000E-03 0. -1.
    9900012    2    1    2    0    0  0.11414643155E+02  0.37069369350E+02 -0.22905923932E+02  0.46142316815E+02  0.99999913770E+01 0.  0.
        -12    1    1    2    0    0 -0.11414643155E+02 -0.37069369350E+02  0.22905923932E+02  0.45045683185E+02  0.00000000000E+00 0.  1.
         11    1    3    3    0    0  0.74152087369E+01  0.24643440640E+02 -0.19277554153E+02  0.32154448862E+02  0.51100000000E-03 0. -1.
        -11    1    3    3    0    0  0.13638232122E+00  0.59424125291E+01 -0.19573421223E+01  0.62579593517E+01  0.51100000000E-03 0.  1.
         12    1    3    3    0    0  0.38630520964E+01  0.64835161808E+01 -0.16710276568E+01  0.77299086021E+01  0.00000000000E+00 0. -1.
</event>
<event>
 7    1  0.3980989E-008  0.4614232E+02  0.7816164E-02  0.1320468E+00
        -11   -1    0    0    0    0  0.00000000000E+00  0.00000000000E+00  0.45593999997E+02  0.45594000000E+02  0.51100000000E-03 0.  1.
         11   -1    0    0    0    0 -0.00000000000E+00 -0.00000000000E+00 -0.45593999997E+02  0.45594000000E+02  0.51100000000E-03 0. -1.
    9900012    2    1    2    0    0 -0.43381805454E+02 -0.35091699692E+01 -0.11611121844E+02  0.46142317978E+02  0.10000001978E+02 0.  0.
        -12    1    1    2    0    0  0.43381805454E+02  0.35091699692E+01  0.11611121844E+02  0.45045682022E+02  0.00000000000E+00 0.  1.
         11    1    3    3    0    0 -0.16047968610E+02  0.63030250312E+00 -0.57510343061E+01  0.17058985128E+02  0.51100000000E-03 0. -1.
        -11    1    3    3    0    0 -0.95814206928E+01  0.18265303659E+01 -0.22598208879E+01  0.10012323725E+02  0.51100000000E-03 0.  1.
         12    1    3    3    0    0 -0.17752416152E+02 -0.59660028382E+01 -0.36002666503E+01  0.19071009125E+02  0.00000000000E+00 0. -1.
</event>
<event>
 7    1  0.3980989E-008  0.4614232E+02  0.7816164E-02  0.1320468E+00
        -11   -1    0    0    0    0  0.00000000000E+00  0.00000000000E+00  0.45593999997E+02  0.45594000000E+02  0.51100000000E-03 0.  1.
         11   -1    0    0    0    0 -0.00000000000E+00 -0.00000000000E+00 -0.45593999997E+02  0.45594000000E+02  0.51100000000E-03 0. -1.
    9900012    2    1    2    0    0 -0.41577005198E+02  0.11201169839E+02 -0.13228756277E+02  0.46142316971E+02  0.99999927906E+01 0.  0.
        -12    1    1    2    0    0  0.41577005198E+02 -0.11201169839E+02  0.13228756277E+02  0.45045683029E+02  0.00000000000E+00 0.  1.
         11    1    3    3    0    0 -0.14388928558E+02  0.67326076019E+01 -0.59355787057E+01  0.16958784302E+02  0.51100000000E-03 0. -1.
        -11    1    3    3    0    0 -0.14450694816E+02  0.50128803272E+01 -0.57539029846E+01  0.16341938369E+02  0.51100000000E-03 0.  1.
         12    1    3    3    0    0 -0.12737381824E+02 -0.54431808978E+00 -0.15392745866E+01  0.12841594300E+02  0.00000000000E+00 0. -1.
</event>
<event>
 7    1  0.3980989E-008  0.4614232E+02  0.7816164E-02  0.1320468E+00
        -11   -1    0    0    0    0  0.00000000000E+00  0.00000000000E+00  0.45593999997E+02  0.45594000000E+02  0.51100000000E-03 0. -1.
         11   -1    0    0    0    0 -0.00000000000E+00 -0.00000000000E+00 -0.45593999997E+02  0.45594000000E+02  0.51100000000E-03 0.  1.
    9900012    2    1    2    0    0  0.43770277366E+02 -0.10130407336E+02  0.32636160608E+01  0.46142317374E+02  0.99999964695E+01 0.  0.
        -12    1    1    2    0    0 -0.43770277366E+02  0.10130407336E+02 -0.32636160608E+01  0.45045682626E+02  0.00000000000E+00 0.  1.
         11    1    3    3    0    0  0.26457492044E+02 -0.70226608027E+01  0.10403697236E+01  0.27393411972E+02  0.51100000000E-03 0. -1.
        -11    1    3    3    0    0  0.16118898247E+02 -0.26803064595E+01  0.17652161916E+00  0.16341177545E+02  0.51100000000E-03 0.  1.
        -12    1    3    3    0    0  0.11938870741E+01 -0.42744007373E+00  0.20467247181E+01  0.24077278571E+01  0.00000000000E+00 0.  1.
</event>
<event>
 7    1  0.3980989E-008  0.4614232E+02  0.7816164E-02  0.1320468E+00
        -11   -1    0    0    0    0  0.00000000000E+00  0.00000000000E+00  0.45593999997E+02  0.45594000000E+02  0.51100000000E-03 0.  1.
         11   -1    0    0    0    0 -0.00000000000E+00 -0.00000000000E+00 -0.45593999997E+02  0.45594000000E+02  0.51100000000E-03 0. -1.
    9900012    2    1    2    0    0  0.39461665800E+01  0.86650647995E+01 -0.44027924081E+02  0.46142315661E+02  0.99999808525E+01 0.  0.
        -12    1    1    2    0    0 -0.39461665800E+01 -0.86650647995E+01  0.44027924081E+02  0.45045684339E+02  0.00000000000E+00 0.  1.
         11    1    3    3    0    0  0.33685959811E+01  0.13070297464E+01 -0.84654865432E+01  0.92043592018E+01  0.51100000000E-03 0.  1.
        -11    1    3    3    0    0 -0.14447324284E+01  0.39714630008E+01 -0.75766510981E+01  0.86755640900E+01  0.51100000000E-03 0. -1.
         12    1    3    3    0    0  0.20223030273E+01  0.33865720524E+01 -0.27985786440E+02  0.28262392370E+02  0.00000000000E+00 0. -1.
</event>
<event>
 7    1  0.3980989E-008  0.4614232E+02  0.7816164E-02  0.1320468E+00
        -11   -1    0    0    0    0  0.00000000000E+00  0.00000000000E+00  0.45593999997E+02  0.45594000000E+02  0.51100000000E-03 0. -1.
         11   -1    0    0    0    0 -0.00000000000E+00 -0.00000000000E+00 -0.45593999997E+02  0.45594000000E+02  0.51100000000E-03 0.  1.
    9900012    2    1    2    0    0  0.43455055594E+02  0.15500781457E+01  0.11763032335E+02  0.46142317314E+02  0.99999959213E+01 0.  0.
        -12    1    1    2    0    0 -0.43455055594E+02 -0.15500781457E+01 -0.11763032335E+02  0.45045682686E+02  0.00000000000E+00 0.  1.
         11    1    3    3    0    0  0.80904503493E+01 -0.14792535661E+01  0.98514659618E+00  0.82833623634E+01  0.51100000000E-03 0.  1.
        -11    1    3    3    0    0  0.19528892074E+02  0.54441278331E+01  0.60616112014E+01  0.21160323346E+02  0.51100000000E-03 0. -1.
         12    1    3    3    0    0  0.15835713171E+02 -0.24147961213E+01  0.47162745370E+01  0.16698631604E+02  0.00000000000E+00 0. -1.
</event>
<event>
 7    1  0.3980989E-008  0.4614232E+02  0.7816164E-02  0.1320468E+00
        -11   -1    0    0    0    0  0.00000000000E+00  0.00000000000E+00  0.45593999997E+02  0.45594000000E+02  0.51100000000E-03 0. -1.
         11   -1    0    0    0    0 -0.00000000000E+00 -0.00000000000E+00 -0.45593999997E+02  0.45594000000E+02  0.51100000000E-03 0.  1.
    9900012    2    1    2    0    0 -0.39985954103E+02  0.18413840390E+02 -0.95481545419E+01  0.46142319868E+02  0.10000019212E+02 0.  0.
        -12    1    1    2    0    0  0.39985954103E+02 -0.18413840390E+02  0.95481545419E+01  0.45045680132E+02  0.00000000000E+00 0.  1.
         11    1    3    3    0    0 -0.20454060138E+02  0.81424925302E+01 -0.43869096809E+01  0.22448023021E+02  0.51100000000E-03 0. -1.
        -11    1    3    3    0    0 -0.17884754474E+02  0.68994208871E+01 -0.54539308361E+01  0.19930173431E+02  0.51100000000E-03 0.  1.
        -12    1    3    3    0    0 -0.16471394908E+01  0.33719269728E+01  0.29268597510E+00  0.37641234162E+01  0.00000000000E+00 0.  1.
</event>
<event>
 7    1  0.3980989E-008  0.4614232E+02  0.7816164E-02  0.1320468E+00
        -11   -1    0    0    0    0  0.00000000000E+00  0.00000000000E+00  0.45593999997E+02  0.45594000000E+02  0.51100000000E-03 0.  1.
         11   -1    0    0    0    0 -0.00000000000E+00 -0.00000000000E+00 -0.45593999997E+02  0.45594000000E+02  0.51100000000E-03 0. -1.
    9900012    2    1    2    0    0  0.33252635788E+02 -0.16876169199E+02 -0.25269955495E+02  0.46142317361E+02  0.99999963514E+01 0.  0.
        -12    1    1    2    0    0 -0.33252635788E+02  0.16876169199E+02  0.25269955495E+02  0.45045682639E+02  0.00000000000E+00 0.  1.
         11    1    3    3    0    0  0.43548913152E+01 -0.91686415597E+00 -0.12595390728E+01  0.46251656386E+01  0.51100000000E-03 0. -1.
        -11    1    3    3    0    0  0.10055727712E+02 -0.16065990564E+01 -0.70889304120E+01  0.12407729647E+02  0.51100000000E-03 0.  1.
         12    1    3    3    0    0  0.18842016760E+02 -0.14352705987E+02 -0.16921486011E+02  0.29109422075E+02  0.00000000000E+00 0. -1.
</event>
<event>
 7    1  0.3980989E-008  0.4614232E+02  0.7816164E-02  0.1320468E+00
        -11   -1    0    0    0    0  0.00000000000E+00  0.00000000000E+00  0.45593999997E+02  0.45594000000E+02  0.51100000000E-03 0.  1.
         11   -1    0    0    0    0 -0.00000000000E+00 -0.00000000000E+00 -0.45593999997E+02  0.45594000000E+02  0.51100000000E-03 0. -1.
    9900012    2    1    2    0    0 -0.21889409398E+02 -0.26382520516E+01 -0.39281126450E+02  0.46142317490E+02  0.99999975240E+01 0.  0.
        -12    1    1    2    0    0  0.21889409398E+02  0.26382520516E+01  0.39281126450E+02  0.45045682510E+02  0.00000000000E+00 0.  1.
         11    1    3    3    0    0 -0.16056904292E+02 -0.42060466250E+00 -0.26253390198E+02  0.30777290018E+02  0.51100000000E-03 0. -1.
        -11    1    3    3    0    0 -0.45970705934E+01 -0.13731497601E+01 -0.40948120182E+01  0.63076211070E+01  0.51100000000E-03 0.  1.
        -12    1    3    3    0    0 -0.12354345118E+01 -0.84449762892E+00 -0.89329242339E+01  0.90574063642E+01  0.00000000000E+00 0.  1.
</event>
<event>
 7    1  0.3980989E-008  0.4614232E+02  0.7816164E-02  0.1320468E+00
        -11   -1    0    0    0    0  0.00000000000E+00  0.00000000000E+00  0.45593999997E+02  0.45594000000E+02  0.51100000000E-03 0.  1.
         11   -1    0    0    0    0 -0.00000000000E+00 -0.00000000000E+00 -0.45593999997E+02  0.45594000000E+02  0.51100000000E-03 0. -1.
    9900012    2    1    2    0    0 -0.61070274779E+01  0.21100075064E+02 -0.39326892385E+02  0.46142318554E+02  0.10000007227E+02 0.  0.
        -12    1    1    2    0    0  0.61070274779E+01 -0.21100075064E+02  0.39326892385E+02  0.45045681446E+02  0.00000000000E+00 0.  1.
         11    1    3    3    0    0 -0.25929765077E+01  0.83393178774E+01 -0.13629625719E+02  0.16187478103E+02  0.51100000000E-03 0. -1.
        -11    1    3    3    0    0  0.12976599371E+01  0.82113671628E+00 -0.42560084645E+00  0.15935253875E+01  0.51100000000E-03 0.  1.
        -12    1    3    3    0    0 -0.48117109073E+01  0.11939620470E+02 -0.25271665819E+02  0.28361315063E+02  0.00000000000E+00 0.  1.
</event>
<event>
 7    1  0.3980989E-008  0.4614232E+02  0.7816164E-02  0.1320468E+00
        -11   -1    0    0    0    0  0.00000000000E+00  0.00000000000E+00  0.45593999997E+02  0.45594000000E+02  0.51100000000E-03 0. -1.
         11   -1    0    0    0    0 -0.00000000000E+00 -0.00000000000E+00 -0.45593999997E+02  0.45594000000E+02  0.51100000000E-03 0.  1.
    9900012    2    1    2    0    0 -0.42157341127E+02  0.44415496575E+01  0.15236294978E+02  0.46142318088E+02  0.10000002985E+02 0.  0.
        -12    1    1    2    0    0  0.42157341127E+02 -0.44415496575E+01 -0.15236294978E+02  0.45045681912E+02  0.00000000000E+00 0.  1.
         11    1    3    3    0    0 -0.12364350713E+02  0.21784022335E+01  0.45569683242E+01  0.13356218231E+02  0.51100000000E-03 0. -1.
        -11    1    3    3    0    0 -0.29892709532E+02  0.15065557507E+01  0.95389496535E+01  0.31413935668E+02  0.51100000000E-03 0.  1.
        -12    1    3    3    0    0  0.99719118582E-01  0.75659167330E+00  0.11403770000E+01  0.13721641902E+01  0.00000000000E+00 0.  1.
</event>
<event>
 7    1  0.3980989E-008  0.4614232E+02  0.7816164E-02  0.1320468E+00
        -11   -1    0    0    0    0  0.00000000000E+00  0.00000000000E+00  0.45593999997E+02  0.45594000000E+02  0.51100000000E-03 0.  1.
         11   -1    0    0    0    0 -0.00000000000E+00 -0.00000000000E+00 -0.45593999997E+02  0.45594000000E+02  0.51100000000E-03 0. -1.
    9900012    2    1    2    0    0  0.24616669535E+01  0.16669502469E+02 -0.41775367467E+02  0.46142318257E+02  0.10000004519E+02 0.  0.
        -12    1    1    2    0    0 -0.24616669535E+01 -0.16669502469E+02  0.41775367467E+02  0.45045681743E+02  0.00000000000E+00 0.  1.
         11    1    3    3    0    0 -0.21373676514E+01  0.51098290560E+01 -0.15783574409E+02  0.16727220775E+02  0.51100000000E-03 0. -1.
        -11    1    3    3    0    0  0.98063208856E+00 -0.49883344917E+00 -0.31043022873E+01  0.32935037658E+01  0.51100000000E-03 0.  1.
         12    1    3    3    0    0  0.36184025164E+01  0.12058506862E+02 -0.22887490770E+02  0.26121593716E+02  0.00000000000E+00 0. -1.
</event>
<event>
 7    1  0.3980989E-008  0.4614232E+02  0.7816164E-02  0.1320468E+00
        -11   -1    0    0    0    0  0.00000000000E+00  0.00000000000E+00  0.45593999997E+02  0.45594000000E+02  0.51100000000E-03 0. -1.
         11   -1    0    0    0    0 -0.00000000000E+00 -0.00000000000E+00 -0.45593999997E+02  0.45594000000E+02  0.51100000000E-03 0.  1.
    9900012    2    1    2    0    0 -0.26460269236E+02 -0.27827068191E+02  0.23550411806E+02  0.46142317983E+02  0.10000002024E+02 0.  0.
        -12    1    1    2    0    0  0.26460269236E+02  0.27827068191E+02 -0.23550411806E+02  0.45045682017E+02  0.00000000000E+00 0.  1.
         11    1    3    3    0    0 -0.14864896323E+02 -0.15880583110E+02  0.13603452235E+02  0.25655642179E+02  0.51100000000E-03 0. -1.
        -11    1    3    3    0    0 -0.11634134782E+02 -0.86144527757E+01  0.89023488914E+01  0.16994519846E+02  0.51100000000E-03 0.  1.
        -12    1    3    3    0    0  0.38761870071E-01 -0.33320323048E+01  0.10446106796E+01  0.34921559579E+01  0.00000000000E+00 0.  1.
</event>
<event>
 7    1  0.3980989E-008  0.4614231E+02  0.7816164E-02  0.1320468E+00
        -11   -1    0    0    0    0  0.00000000000E+00  0.00000000000E+00  0.45593999997E+02  0.45594000000E+02  0.51100000000E-03 0. -1.
         11   -1    0    0    0    0 -0.00000000000E+00 -0.00000000000E+00 -0.45593999997E+02  0.45594000000E+02  0.51100000000E-03 0.  1.
    9900012    2    1    2    0    0 -0.16323177763E+02 -0.21445988271E+01  0.41929325487E+02  0.46142314611E+02  0.99999712722E+01 0.  0.
        -12    1    1    2    0    0  0.16323177763E+02  0.21445988271E+01 -0.41929325487E+02  0.45045685389E+02  0.00000000000E+00 0.  1.
         11    1    3    3    0    0 -0.21511030658E+01 -0.33880101551E+01  0.98579584959E+01  0.10643552188E+02  0.51100000000E-03 0. -1.
        -11    1    3    3    0    0 -0.21036163977E+01 -0.57445392249E+00  0.16938049840E+01  0.27611908378E+01  0.51100000000E-03 0.  1.
         12    1    3    3    0    0 -0.12068458299E+02  0.18178652505E+01  0.30377562007E+02  0.32737571585E+02  0.00000000000E+00 0. -1.
</event>
<event>
 7    1  0.3980989E-008  0.4614232E+02  0.7816164E-02  0.1320468E+00
        -11   -1    0    0    0    0  0.00000000000E+00  0.00000000000E+00  0.45593999997E+02  0.45594000000E+02  0.51100000000E-03 0. -1.
         11   -1    0    0    0    0 -0.00000000000E+00 -0.00000000000E+00 -0.45593999997E+02  0.45594000000E+02  0.51100000000E-03 0.  1.
    9900012    2    1    2    0    0 -0.38004082169E+02  0.73035566144E+01  0.23053442662E+02  0.46142318528E+02  0.10000006995E+02 0.  0.
        -12    1    1    2    0    0  0.38004082169E+02 -0.73035566144E+01 -0.23053442662E+02  0.45045681472E+02  0.00000000000E+00 0.  1.
         11    1    3    3    0    0 -0.12245451862E+02  0.23897360631E+01  0.48900901403E+01  0.13400556392E+02  0.51100000000E-03 0.  1.
        -11    1    3    3    0    0 -0.17826869956E+02  0.55618504541E+01  0.15739610997E+02  0.24422670360E+02  0.51100000000E-03 0. -1.
         12    1    3    3    0    0 -0.79317603507E+01 -0.64802990281E+00  0.24237415239E+01  0.83190917768E+01  0.00000000000E+00 0. -1.
</event>
<event>
 7    1  0.3980989E-008  0.4614232E+02  0.7816164E-02  0.1320468E+00
        -11   -1    0    0    0    0  0.00000000000E+00  0.00000000000E+00  0.45593999997E+02  0.45594000000E+02  0.51100000000E-03 0. -1.
         11   -1    0    0    0    0 -0.00000000000E+00 -0.00000000000E+00 -0.45593999997E+02  0.45594000000E+02  0.51100000000E-03 0.  1.
    9900012    2    1    2    0    0  0.20419880526E+02  0.37321840391E+02  0.14806154969E+02  0.46142317457E+02  0.99999972234E+01 0.  0.
        -12    1    1    2    0    0 -0.20419880526E+02 -0.37321840391E+02 -0.14806154969E+02  0.45045682543E+02  0.00000000000E+00 0.  1.
         11    1    3    3    0    0  0.72119777179E+01  0.84873906035E+01  0.45011930215E+01  0.12012874791E+02  0.51100000000E-03 0. -1.
        -11    1    3    3    0    0  0.94994937364E+01  0.12097873953E+02  0.44058165717E+01  0.16000317352E+02  0.51100000000E-03 0.  1.
         12    1    3    3    0    0  0.37084090716E+01  0.16736575834E+02  0.58991453753E+01  0.18129125314E+02  0.00000000000E+00 0. -1.
</event>
<event>
 7    1  0.3980989E-008  0.4614232E+02  0.7816164E-02  0.1320468E+00
        -11   -1    0    0    0    0  0.00000000000E+00  0.00000000000E+00  0.45593999997E+02  0.45594000000E+02  0.51100000000E-03 0. -1.
         11   -1    0    0    0    0 -0.00000000000E+00 -0.00000000000E+00 -0.45593999997E+02  0.45594000000E+02  0.51100000000E-03 0.  1.
    9900012    2    1    2    0    0 -0.13058014183E+02 -0.39391351221E+02  0.17519225742E+02  0.46142317010E+02  0.99999931527E+01 0.  0.
        -12    1    1    2    0    0  0.13058014183E+02  0.39391351221E+02 -0.17519225742E+02  0.45045682990E+02  0.00000000000E+00 0.  1.
         11    1    3    3    0    0 -0.27831824381E+01 -0.86325738746E+01  0.64583298617E+01  0.11134516651E+02  0.51100000000E-03 0. -1.
        -11    1    3    3    0    0 -0.77768862466E+01 -0.13922456055E+02  0.74810555030E+01  0.17614793045E+02  0.51100000000E-03 0.  1.
         12    1    3    3    0    0 -0.24979454984E+01 -0.16836321291E+02  0.35798403777E+01  0.17393007315E+02  0.00000000000E+00 0. -1.
</event>
<event>
 7    1  0.3980989E-008  0.4614232E+02  0.7816164E-02  0.1320468E+00
        -11   -1    0    0    0    0  0.00000000000E+00  0.00000000000E+00  0.45593999997E+02  0.45594000000E+02  0.51100000000E-03 0.  1.
         11   -1    0    0    0    0 -0.00000000000E+00 -0.00000000000E+00 -0.45593999997E+02  0.45594000000E+02  0.51100000000E-03 0. -1.
    9900012    2    1    2    0    0 -0.20114678401E+02 -0.35310983195E+02 -0.19433160170E+02  0.46142317237E+02  0.99999952200E+01 0.  0.
        -12    1    1    2    0    0  0.20114678401E+02  0.35310983195E+02  0.19433160170E+02  0.45045682763E+02  0.00000000000E+00 0.  1.
         11    1    3    3    0    0 -0.42649638966E+00 -0.16512923884E+00 -0.15210173957E+01  0.15882887065E+01  0.51100000000E-03 0.  1.
        -11    1    3    3    0    0 -0.11813613578E+02 -0.19470991211E+02 -0.67172772066E+01  0.23744531536E+02  0.51100000000E-03 0. -1.
        -12    1    3    3    0    0 -0.78745684339E+01 -0.15674862745E+02 -0.11194865568E+02  0.20809496995E+02  0.00000000000E+00 0.  1.
</event>
<event>
 7    1  0.3980989E-008  0.4614232E+02  0.7816164E-02  0.1320468E+00
        -11   -1    0    0    0    0  0.00000000000E+00  0.00000000000E+00  0.45593999997E+02  0.45594000000E+02  0.51100000000E-03 0. -1.
         11   -1    0    0    0    0 -0.00000000000E+00 -0.00000000000E+00 -0.45593999997E+02  0.45594000000E+02  0.51100000000E-03 0.  1.
    9900012    2    1    2    0    0 -0.41615160153E+02  0.14399537765E+02  0.94839275570E+01  0.46142321802E+02  0.10000036849E+02 0.  0.
        -12    1    1    2    0    0  0.41615160153E+02 -0.14399537765E+02 -0.94839275570E+01  0.45045678198E+02  0.00000000000E+00 0.  1.
         11    1    3    3    0    0 -0.24460399378E+02  0.10535033136E+02  0.27485015893E+01  0.26774097971E+02  0.51100000000E-03 0. -1.
        -11    1    3    3    0    0 -0.12325299115E+01  0.50837659572E+00 -0.66782974658E+00  0.14911651744E+01  0.51100000000E-03 0.  1.
        -12    1    3    3    0    0 -0.15922230863E+02  0.33561280328E+01  0.74032557143E+01  0.17877058656E+02  0.00000000000E+00 0.  1.
</event>
<event>
 7    1  0.3980989E-008  0.4614233E+02  0.7816164E-02  0.1320468E+00
        -11   -1    0    0    0    0  0.00000000000E+00  0.00000000000E+00  0.45593999997E+02  0.45594000000E+02  0.51100000000E-03 0. -1.
         11   -1    0    0    0    0 -0.00000000000E+00 -0.00000000000E+00 -0.45593999997E+02  0.45594000000E+02  0.51100000000E-03 0.  1.
    9900012    2    1    2    0    0 -0.30550718287E+01 -0.41622620804E+02  0.16951010059E+02  0.46142325751E+02  0.10000072862E+02 0.  0.
        -12    1    1    2    0    0  0.30550718287E+01  0.41622620804E+02 -0.16951010059E+02  0.45045674249E+02  0.00000000000E+00 0.  1.
         11    1    3    3    0    0 -0.43827278925E+01 -0.18281418501E+02  0.60395500898E+01  0.19745752246E+02  0.51100000000E-03 0.  1.
        -11    1    3    3    0    0  0.31619136737E+00 -0.26274062851E+01 -0.54815832444E+00  0.27025392833E+01  0.51100000000E-03 0. -1.
        -12    1    3    3    0    0  0.10114646964E+01 -0.20713796018E+02  0.11459618294E+02  0.23694034223E+02  0.00000000000E+00 0.  1.
</event>
<event>
 7    1  0.3980989E-008  0.4614232E+02  0.7816164E-02  0.1320468E+00
        -11   -1    0    0    0    0  0.00000000000E+00  0.00000000000E+00  0.45593999997E+02  0.45594000000E+02  0.51100000000E-03 0.  1.
         11   -1    0    0    0    0 -0.00000000000E+00 -0.00000000000E+00 -0.45593999997E+02  0.45594000000E+02  0.51100000000E-03 0. -1.
    9900012    2    1    2    0    0  0.14496535006E+02 -0.46509388747E+01 -0.42394959549E+02  0.46142319244E+02  0.10000013520E+02 0.  0.
        -12    1    1    2    0    0 -0.14496535006E+02  0.46509388747E+01  0.42394959549E+02  0.45045680756E+02  0.00000000000E+00 0.  1.
         11    1    3    3    0    0  0.40914789326E+01  0.15059550976E+01 -0.97292281696E+01  0.10661424935E+02  0.51100000000E-03 0. -1.
        -11    1    3    3    0    0  0.58197289717E+01  0.41301051768E+00 -0.14218049703E+02  0.15368564038E+02  0.51100000000E-03 0.  1.
         12    1    3    3    0    0  0.45853271015E+01 -0.65699044900E+01 -0.18447681677E+02  0.20112330270E+02  0.00000000000E+00 0. -1.
</event>
<event>
 7    1  0.3980989E-008  0.4614233E+02  0.7816164E-02  0.1320468E+00
        -11   -1    0    0    0    0  0.00000000000E+00  0.00000000000E+00  0.45593999997E+02  0.45594000000E+02  0.51100000000E-03 0.  1.
         11   -1    0    0    0    0 -0.00000000000E+00 -0.00000000000E+00 -0.45593999997E+02  0.45594000000E+02  0.51100000000E-03 0. -1.
    9900012    2    1    2    0    0 -0.20064527141E+02  0.22432054921E+02 -0.33516118939E+02  0.46142327998E+02  0.10000093348E+02 0.  0.
        -12    1    1    2    0    0  0.20064527141E+02 -0.22432054921E+02  0.33516118939E+02  0.45045672002E+02  0.00000000000E+00 0.  1.
         11    1    3    3    0    0 -0.17636886828E+01  0.21537363825E+00 -0.26300376572E+01  0.31739694254E+01  0.51100000000E-03 0.  1.
        -11    1    3    3    0    0 -0.81128652145E+01  0.42592335458E+01 -0.10803938621E+02  0.14166324237E+02  0.51100000000E-03 0. -1.
         12    1    3    3    0    0 -0.10187973244E+02  0.17957447737E+02 -0.20082142660E+02  0.28802034336E+02  0.00000000000E+00 0. -1.
</event>
<event>
 7    1  0.3980989E-008  0.4614232E+02  0.7816164E-02  0.1320468E+00
        -11   -1    0    0    0    0  0.00000000000E+00  0.00000000000E+00  0.45593999997E+02  0.45594000000E+02  0.51100000000E-03 0. -1.
         11   -1    0    0    0    0 -0.00000000000E+00 -0.00000000000E+00 -0.45593999997E+02  0.45594000000E+02  0.51100000000E-03 0.  1.
    9900012    2    1    2    0    0  0.36333390234E+02 -0.15278393367E+02  0.21807541128E+02  0.46142318744E+02  0.10000008963E+02 0.  0.
        -12    1    1    2    0    0 -0.36333390234E+02  0.15278393367E+02 -0.21807541128E+02  0.45045681256E+02  0.00000000000E+00 0.  1.
         11    1    3    3    0    0  0.95724962988E+01 -0.35481829933E+01  0.30812625722E+01  0.10663792348E+02  0.51100000000E-03 0. -1.
        -11    1    3    3    0    0  0.19816121417E+01  0.24546976551E+00 -0.30207406809E+00  0.20194779251E+01  0.51100000000E-03 0.  1.
         12    1    3    3    0    0  0.24779281793E+02 -0.11975680139E+02  0.19028352624E+02  0.33459048471E+02  0.00000000000E+00 0. -1.
</event>
<event>
 7    1  0.3980989E-008  0.4614232E+02  0.7816164E-02  0.1320468E+00
        -11   -1    0    0    0    0  0.00000000000E+00  0.00000000000E+00  0.45593999997E+02  0.45594000000E+02  0.51100000000E-03 0. -1.
         11   -1    0    0    0    0 -0.00000000000E+00 -0.00000000000E+00 -0.45593999997E+02  0.45594000000E+02  0.51100000000E-03 0.  1.
    9900012    2    1    2    0    0  0.32733525414E+02 -0.27930921615E+02  0.13322664522E+02  0.46142318095E+02  0.10000003047E+02 0.  0.
        -12    1    1    2    0    0 -0.32733525414E+02  0.27930921615E+02 -0.13322664522E+02  0.45045681905E+02  0.00000000000E+00 0.  1.
         11    1    3    3    0    0  0.16584261298E+02 -0.15296405982E+02  0.97476484008E+01  0.24577111474E+02  0.51100000000E-03 0. -1.
        -11    1    3    3    0    0  0.40354462951E-02  0.47056133986E+00  0.11988998089E+00  0.48561108722E+00  0.51100000000E-03 0.  1.
        -12    1    3    3    0    0  0.16145228669E+02 -0.13105076973E+02  0.34551261407E+01  0.21079595534E+02  0.00000000000E+00 0.  1.
</event>
<event>
 7    1  0.3980989E-008  0.4614232E+02  0.7816164E-02  0.1320468E+00
        -11   -1    0    0    0    0  0.00000000000E+00  0.00000000000E+00  0.45593999997E+02  0.45594000000E+02  0.51100000000E-03 0.  1.
         11   -1    0    0    0    0 -0.00000000000E+00 -0.00000000000E+00 -0.45593999997E+02  0.45594000000E+02  0.51100000000E-03 0. -1.
    9900012    2    1    2    0    0 -0.49755606890E+01 -0.14377032357E+02 -0.42398797000E+02  0.46142320400E+02  0.10000024065E+02 0.  0.
        -12    1    1    2    0    0  0.49755606890E+01  0.14377032357E+02  0.42398797000E+02  0.45045679600E+02  0.00000000000E+00 0.  1.
         11    1    3    3    0    0 -0.75339199628E+00 -0.29386780670E+01 -0.84332611884E+01  0.89623279797E+01  0.51100000000E-03 0. -1.
        -11    1    3    3    0    0 -0.41671306879E+01 -0.92043130858E+01 -0.15013582557E+02  0.18096740563E+02  0.51100000000E-03 0.  1.
        -12    1    3    3    0    0 -0.55038004811E-01 -0.22340412043E+01 -0.18951953255E+02  0.19083251858E+02  0.00000000000E+00 0.  1.
</event>
<event>
 7    1  0.3980989E-008  0.4614232E+02  0.7816164E-02  0.1320468E+00
        -11   -1    0    0    0    0  0.00000000000E+00  0.00000000000E+00  0.45593999997E+02  0.45594000000E+02  0.51100000000E-03 0.  1.
         11   -1    0    0    0    0 -0.00000000000E+00 -0.00000000000E+00 -0.45593999997E+02  0.45594000000E+02  0.51100000000E-03 0. -1.
    9900012    2    1    2    0    0 -0.12957860843E+02 -0.77985870245E+01 -0.42430994215E+02  0.46142318883E+02  0.10000010228E+02 0.  0.
        -12    1    1    2    0    0  0.12957860843E+02  0.77985870245E+01  0.42430994215E+02  0.45045681117E+02  0.00000000000E+00 0.  1.
         11    1    3    3    0    0 -0.70121494337E+01  0.11175541515E+01 -0.18003566217E+02  0.19353231352E+02  0.51100000000E-03 0. -1.
        -11    1    3    3    0    0 -0.76828294893E+00 -0.52024544946E+00 -0.97094939881E+00  0.13430029834E+01  0.51100000000E-03 0.  1.
        -12    1    3    3    0    0 -0.51774284606E+01 -0.83958957265E+01 -0.23456478600E+02  0.25446084548E+02  0.00000000000E+00 0.  1.
</event>
<event>
 7    1  0.3980989E-008  0.4614232E+02  0.7816164E-02  0.1320468E+00
        -11   -1    0    0    0    0  0.00000000000E+00  0.00000000000E+00  0.45593999997E+02  0.45594000000E+02  0.51100000000E-03 0.  1.
         11   -1    0    0    0    0 -0.00000000000E+00 -0.00000000000E+00 -0.45593999997E+02  0.45594000000E+02  0.51100000000E-03 0. -1.
    9900012    2    1    2    0    0  0.16788747867E+02  0.41529096824E+02  0.47524202330E+01  0.46142318342E+02  0.10000005297E+02 0.  0.
        -12    1    1    2    0    0 -0.16788747867E+02 -0.41529096824E+02 -0.47524202330E+01  0.45045681658E+02  0.00000000000E+00 0.  1.
         11    1    3    3    0    0  0.10725798561E+02  0.25906885832E+02  0.15777275694E+01  0.28083780244E+02  0.51100000000E-03 0. -1.
        -11    1    3    3    0    0  0.69505835174E+01  0.14484352714E+02  0.37623056311E+01  0.16500364502E+02  0.51100000000E-03 0.  1.
        -12    1    3    3    0    0 -0.88763421135E+00  0.11378582782E+01 -0.58761296751E+00  0.15581735956E+01  0.00000000000E+00 0.  1.
</event>
<event>
 7    1  0.3980989E-008  0.4614232E+02  0.7816164E-02  0.1320468E+00
        -11   -1    0    0    0    0  0.00000000000E+00  0.00000000000E+00  0.45593999997E+02  0.45594000000E+02  0.51100000000E-03 0.  1.
         11   -1    0    0    0    0 -0.00000000000E+00 -0.00000000000E+00 -0.45593999997E+02  0.45594000000E+02  0.51100000000E-03 0. -1.
    9900012    2    1    2    0    0  0.16200444799E+02 -0.21336363100E+01 -0.41977454107E+02  0.46142317978E+02  0.10000001974E+02 0.  0.
        -12    1    1    2    0    0 -0.16200444799E+02  0.21336363100E+01  0.41977454107E+02  0.45045682022E+02  0.00000000000E+00 0.  1.
         11    1    3    3    0    0  0.84556894268E+01 -0.39400579430E+01 -0.26773765953E+02  0.28352377040E+02  0.51100000000E-03 0. -1.
        -11    1    3    3    0    0  0.47883021719E+01  0.47983561238E-01 -0.45914477068E+01  0.66341188124E+01  0.51100000000E-03 0.  1.
         12    1    3    3    0    0  0.29564532001E+01  0.17584380717E+01 -0.10612240447E+02  0.11155822125E+02  0.00000000000E+00 0. -1.
</event>
<event>
 7    1  0.3980989E-008  0.4614232E+02  0.7816164E-02  0.1320468E+00
        -11   -1    0    0    0    0  0.00000000000E+00  0.00000000000E+00  0.45593999997E+02  0.45594000000E+02  0.51100000000E-03 0.  1.
         11   -1    0    0    0    0 -0.00000000000E+00 -0.00000000000E+00 -0.45593999997E+02  0.45594000000E+02  0.51100000000E-03 0. -1.
    9900012    2    1    2    0    0 -0.16396699887E+01 -0.57984536467E+01 -0.44640822401E+02  0.46142316444E+02  0.99999879926E+01 0.  0.
        -12    1    1    2    0    0  0.16396699887E+01  0.57984536467E+01  0.44640822401E+02  0.45045683556E+02  0.00000000000E+00 0.  1.
         11    1    3    3    0    0 -0.20579635381E+01 -0.66048757953E+01 -0.40127550109E+02  0.40719526965E+02  0.51100000000E-03 0. -1.
        -11    1    3    3    0    0 -0.65967867672E+00 -0.76260097882E+00 -0.96277794216E+00  0.13941584689E+01  0.51100000000E-03 0.  1.
         12    1    3    3    0    0  0.10779722261E+01  0.15690231274E+01 -0.35504943494E+01  0.40286310106E+01  0.00000000000E+00 0. -1.
</event>
<event>
 7    1  0.3980989E-008  0.4614232E+02  0.7816164E-02  0.1320468E+00
        -11   -1    0    0    0    0  0.00000000000E+00  0.00000000000E+00  0.45593999997E+02  0.45594000000E+02  0.51100000000E-03 0.  1.
         11   -1    0    0    0    0 -0.00000000000E+00 -0.00000000000E+00 -0.45593999997E+02  0.45594000000E+02  0.51100000000E-03 0. -1.
    9900012    2    1    2    0    0 -0.13323732661E+02 -0.76580188316E+01 -0.42343198766E+02  0.46142316675E+02  0.99999900959E+01 0.  0.
        -12    1    1    2    0    0  0.13323732661E+02  0.76580188316E+01  0.42343198766E+02  0.45045683325E+02  0.00000000000E+00 0.  1.
         11    1    3    3    0    0 -0.88233156518E+01 -0.55216974713E+01 -0.32945088351E+02  0.34550237174E+02  0.51100000000E-03 0. -1.
        -11    1    3    3    0    0 -0.61131076088E+00  0.14006437807E+01 -0.20348659614E+01  0.25448346879E+01  0.51100000000E-03 0.  1.
         12    1    3    3    0    0 -0.38891062484E+01 -0.35369651410E+01 -0.73632444536E+01  0.90472448128E+01  0.00000000000E+00 0. -1.
</event>
<event>
 7    1  0.3980989E-008  0.4614232E+02  0.7816164E-02  0.1320468E+00
        -11   -1    0    0    0    0  0.00000000000E+00  0.00000000000E+00  0.45593999997E+02  0.45594000000E+02  0.51100000000E-03 0. -1.
         11   -1    0    0    0    0 -0.00000000000E+00 -0.00000000000E+00 -0.45593999997E+02  0.45594000000E+02  0.51100000000E-03 0.  1.
    9900012    2    1    2    0    0 -0.10223891422E+01 -0.87196756172E+01  0.44181845780E+02  0.46142317422E+02  0.99999969066E+01 0.  0.
        -12    1    1    2    0    0  0.10223891422E+01  0.87196756172E+01 -0.44181845780E+02  0.45045682578E+02  0.00000000000E+00 0.  1.
         11    1    3    3    0    0 -0.18182208506E+01 -0.19124019773E+01  0.30889214024E+01  0.40625908083E+01  0.51100000000E-03 0. -1.
        -11    1    3    3    0    0 -0.20620131262E+01 -0.29554078016E+01  0.10225977566E+02  0.10842368323E+02  0.51100000000E-03 0.  1.
        -12    1    3    3    0    0  0.28578448345E+01 -0.38518658384E+01  0.30866946812E+02  0.31237358291E+02  0.00000000000E+00 0.  1.
</event>
<event>
 7    1  0.3980989E-008  0.4614232E+02  0.7816164E-02  0.1320468E+00
        -11   -1    0    0    0    0  0.00000000000E+00  0.00000000000E+00  0.45593999997E+02  0.45594000000E+02  0.51100000000E-03 0. -1.
         11   -1    0    0    0    0 -0.00000000000E+00 -0.00000000000E+00 -0.45593999997E+02  0.45594000000E+02  0.51100000000E-03 0.  1.
    9900012    2    1    2    0    0 -0.12684656108E+02  0.72305503627E+00  0.43216781413E+02  0.46142317578E+02  0.99999983318E+01 0.  0.
        -12    1    1    2    0    0  0.12684656108E+02 -0.72305503627E+00 -0.43216781413E+02  0.45045682422E+02  0.00000000000E+00 0.  1.
         11    1    3    3    0    0 -0.13939900495E+01 -0.28108460447E+00  0.17676458265E+01  0.22686535306E+01  0.51100000000E-03 0. -1.
        -11    1    3    3    0    0 -0.66012963125E+01 -0.34596932914E+01  0.27555481001E+02  0.28545597281E+02  0.51100000000E-03 0.  1.
        -12    1    3    3    0    0 -0.46893697456E+01  0.44638329322E+01  0.13893654585E+02  0.15328066766E+02  0.00000000000E+00 0.  1.
</event>
<event>
 7    1  0.3980989E-008  0.4614232E+02  0.7816164E-02  0.1320468E+00
        -11   -1    0    0    0    0  0.00000000000E+00  0.00000000000E+00  0.45593999997E+02  0.45594000000E+02  0.51100000000E-03 0.  1.
         11   -1    0    0    0    0 -0.00000000000E+00 -0.00000000000E+00 -0.45593999997E+02  0.45594000000E+02  0.51100000000E-03 0. -1.
    9900012    2    1    2    0    0  0.37593035889E+02 -0.15273157744E+02 -0.19560363574E+02  0.46142317432E+02  0.99999970031E+01 0.  0.
        -12    1    1    2    0    0 -0.37593035889E+02  0.15273157744E+02  0.19560363574E+02  0.45045682568E+02  0.00000000000E+00 0.  1.
         11    1    3    3    0    0  0.14720426576E+02 -0.68216461796E+01 -0.12025472137E+02  0.20194994320E+02  0.51100000000E-03 0. -1.
        -11    1    3    3    0    0  0.99427075518E+01 -0.40386205851E+01 -0.57325022502E+01  0.12166736292E+02  0.51100000000E-03 0.  1.
        -12    1    3    3    0    0  0.12929901761E+02 -0.44128909798E+01 -0.18023891867E+01  0.13780586821E+02  0.00000000000E+00 0.  1.
</event>
<event>
 7    1  0.3980989E-008  0.4614232E+02  0.7816164E-02  0.1320468E+00
        -11   -1    0    0    0    0  0.00000000000E+00  0.00000000000E+00  0.45593999997E+02  0.45594000000E+02  0.51100000000E-03 0.  1.
         11   -1    0    0    0    0 -0.00000000000E+00 -0.00000000000E+00 -0.45593999997E+02  0.45594000000E+02  0.51100000000E-03 0. -1.
    9900012    2    1    2    0    0  0.29978371351E+02  0.13199985195E+02 -0.30922016429E+02  0.46142318098E+02  0.10000003070E+02 0.  0.
        -12    1    1    2    0    0 -0.29978371351E+02 -0.13199985195E+02  0.30922016429E+02  0.45045681902E+02  0.00000000000E+00 0.  1.
         11    1    3    3    0    0  0.19722106332E+02  0.10216175034E+02 -0.17978245686E+02  0.28575322023E+02  0.51100000000E-03 0. -1.
        -11    1    3    3    0    0  0.22564708635E+01  0.24688775177E+01 -0.16828883853E+01  0.37442129391E+01  0.51100000000E-03 0.  1.
         12    1    3    3    0    0  0.79997941559E+01  0.51493264390E+00 -0.11260882357E+02  0.13822783136E+02  0.00000000000E+00 0. -1.
</event>
<event>
 7    1  0.3980989E-008  0.4614232E+02  0.7816164E-02  0.1320468E+00
        -11   -1    0    0    0    0  0.00000000000E+00  0.00000000000E+00  0.45593999997E+02  0.45594000000E+02  0.51100000000E-03 0.  1.
         11   -1    0    0    0    0 -0.00000000000E+00 -0.00000000000E+00 -0.45593999997E+02  0.45594000000E+02  0.51100000000E-03 0. -1.
    9900012    2    1    2    0    0 -0.37598268504E+02 -0.22448855513E+02 -0.10560897239E+02  0.46142318089E+02  0.10000002992E+02 0.  0.
        -12    1    1    2    0    0  0.37598268504E+02  0.22448855513E+02  0.10560897239E+02  0.45045681911E+02  0.00000000000E+00 0.  1.
         11    1    3    3    0    0 -0.85340627224E+01 -0.68049669167E+01 -0.16160149399E+01  0.11034006790E+02  0.51100000000E-03 0. -1.
        -11    1    3    3    0    0 -0.97724015596E+01 -0.19517052732E+01 -0.46066730335E+00  0.99760312921E+01  0.51100000000E-03 0.  1.
         12    1    3    3    0    0 -0.19291804222E+02 -0.13692183323E+02 -0.84842149960E+01  0.25132280007E+02  0.00000000000E+00 0. -1.
</event>
<event>
 7    1  0.3980989E-008  0.4614232E+02  0.7816164E-02  0.1320468E+00
        -11   -1    0    0    0    0  0.00000000000E+00  0.00000000000E+00  0.45593999997E+02  0.45594000000E+02  0.51100000000E-03 0.  1.
         11   -1    0    0    0    0 -0.00000000000E+00 -0.00000000000E+00 -0.45593999997E+02  0.45594000000E+02  0.51100000000E-03 0. -1.
    9900012    2    1    2    0    0  0.37319698451E+02 -0.76297415900E+01 -0.24044556249E+02  0.46142317250E+02  0.99999953416E+01 0.  0.
        -12    1    1    2    0    0 -0.37319698451E+02  0.76297415900E+01  0.24044556249E+02  0.45045682750E+02  0.00000000000E+00 0.  1.
         11    1    3    3    0    0  0.21250146486E+02 -0.35659408158E+01 -0.99562810058E+01  0.23736305342E+02  0.51100000000E-03 0. -1.
        -11    1    3    3    0    0  0.12291500240E+02 -0.31951224867E+01 -0.74645164658E+01  0.14731218286E+02  0.51100000000E-03 0.  1.
        -12    1    3    3    0    0  0.37780517250E+01 -0.86867828760E+00 -0.66237587776E+01  0.76747936225E+01  0.00000000000E+00 0.  1.
</event>
<event>
 7    1  0.3980989E-008  0.4614232E+02  0.7816164E-02  0.1320468E+00
        -11   -1    0    0    0    0  0.00000000000E+00  0.00000000000E+00  0.45593999997E+02  0.45594000000E+02  0.51100000000E-03 0.  1.
         11   -1    0    0    0    0 -0.00000000000E+00 -0.00000000000E+00 -0.45593999997E+02  0.45594000000E+02  0.51100000000E-03 0. -1.
    9900012    2    1    2    0    0  0.21014447000E+02 -0.17117440126E+02 -0.35979156946E+02  0.46142317923E+02  0.10000001479E+02 0.  0.
        -12    1    1    2    0    0 -0.21014447000E+02  0.17117440126E+02  0.35979156946E+02  0.45045682077E+02  0.00000000000E+00 0.  1.
         11    1    3    3    0    0  0.13418598272E+02 -0.78959113672E+01 -0.23468820639E+02  0.28163624382E+02  0.51100000000E-03 0. -1.
        -11    1    3    3    0    0  0.16285936886E+01  0.23472128192E+00 -0.23608127319E+01  0.28776463471E+01  0.51100000000E-03 0.  1.
        -12    1    3    3    0    0  0.59672550397E+01 -0.94562500409E+01 -0.10149523576E+02  0.15101047194E+02  0.00000000000E+00 0.  1.
</event>
<event>
 7    1  0.3980989E-008  0.4614232E+02  0.7816164E-02  0.1320468E+00
        -11   -1    0    0    0    0  0.00000000000E+00  0.00000000000E+00  0.45593999997E+02  0.45594000000E+02  0.51100000000E-03 0.  1.
         11   -1    0    0    0    0 -0.00000000000E+00 -0.00000000000E+00 -0.45593999997E+02  0.45594000000E+02  0.51100000000E-03 0. -1.
    9900012    2    1    2    0    0  0.29099447039E+02 -0.85390307353E+01 -0.33307966429E+02  0.46142317726E+02  0.99999996798E+01 0.  0.
        -12    1    1    2    0    0 -0.29099447039E+02  0.85390307353E+01  0.33307966429E+02  0.45045682274E+02  0.00000000000E+00 0.  1.
         11    1    3    3    0    0  0.79050208395E+01 -0.30677427365E+01 -0.10015694256E+02  0.13123053443E+02  0.51100000000E-03 0. -1.
        -11    1    3    3    0    0  0.17940105715E+02 -0.40600042748E+01 -0.23013700574E+02  0.29461185349E+02  0.51100000000E-03 0.  1.
        -12    1    3    3    0    0  0.32543204849E+01 -0.14112837241E+01 -0.27857159882E+00  0.35580789345E+01  0.00000000000E+00 0.  1.
</event>
<event>
 7    1  0.3980989E-008  0.4614232E+02  0.7816164E-02  0.1320468E+00
        -11   -1    0    0    0    0  0.00000000000E+00  0.00000000000E+00  0.45593999997E+02  0.45594000000E+02  0.51100000000E-03 0. -1.
         11   -1    0    0    0    0 -0.00000000000E+00 -0.00000000000E+00 -0.45593999997E+02  0.45594000000E+02  0.51100000000E-03 0.  1.
    9900012    2    1    2    0    0  0.12169029996E+02 -0.21668762659E+02  0.37569840811E+02  0.46142317580E+02  0.99999983449E+01 0.  0.
        -12    1    1    2    0    0 -0.12169029996E+02  0.21668762659E+02 -0.37569840811E+02  0.45045682420E+02  0.00000000000E+00 0.  1.
         11    1    3    3    0    0  0.50432925781E+01 -0.10272434539E+02  0.19969208325E+02  0.23015798764E+02  0.51100000000E-03 0. -1.
        -11    1    3    3    0    0  0.72585065916E+01 -0.83220384876E+01  0.98883438831E+01  0.14823008721E+02  0.51100000000E-03 0.  1.
         12    1    3    3    0    0 -0.13276917393E+00 -0.30742896323E+01  0.77122886025E+01  0.83035100942E+01  0.00000000000E+00 0. -1.
</event>
<event>
 7    1  0.3980989E-008  0.4614232E+02  0.7816164E-02  0.1320468E+00
        -11   -1    0    0    0    0  0.00000000000E+00  0.00000000000E+00  0.45593999997E+02  0.45594000000E+02  0.51100000000E-03 0.  1.
         11   -1    0    0    0    0 -0.00000000000E+00 -0.00000000000E+00 -0.45593999997E+02  0.45594000000E+02  0.51100000000E-03 0. -1.
    9900012    2    1    2    0    0 -0.20142888777E+01  0.27436145917E+02 -0.35669511238E+02  0.46142317694E+02  0.99999993873E+01 0.  0.
        -12    1    1    2    0    0  0.20142888777E+01 -0.27436145917E+02  0.35669511238E+02  0.45045682306E+02  0.00000000000E+00 0.  1.
         11    1    3    3    0    0  0.17624928643E+01  0.13203987265E+02 -0.13092997139E+02  0.18678282446E+02  0.51100000000E-03 0. -1.
        -11    1    3    3    0    0 -0.23726340167E+01  0.15133328846E+01 -0.34574120177E+01  0.44579442256E+01  0.51100000000E-03 0.  1.
         12    1    3    3    0    0 -0.14041477253E+01  0.12718825768E+02 -0.19119102081E+02  0.23006091022E+02  0.00000000000E+00 0. -1.
</event>
<event>
 7    1  0.3980989E-008  0.4614232E+02  0.7816164E-02  0.1320468E+00
        -11   -1    0    0    0    0  0.00000000000E+00  0.00000000000E+00  0.45593999997E+02  0.45594000000E+02  0.51100000000E-03 0. -1.
         11   -1    0    0    0    0 -0.00000000000E+00 -0.00000000000E+00 -0.45593999997E+02  0.45594000000E+02  0.51100000000E-03 0.  1.
    9900012    2    1    2    0    0  0.39746660823E+02 -0.20322061342E+01  0.21099444637E+02  0.46142317939E+02  0.10000001622E+02 0.  0.
        -12    1    1    2    0    0 -0.39746660823E+02  0.20322061342E+01 -0.21099444637E+02  0.45045682061E+02  0.00000000000E+00 0.  1.
         11    1    3    3    0    0  0.58931567724E+00  0.50782000592E+00  0.53714773540E+00  0.94535817372E+00  0.51100000000E-03 0. -1.
        -11    1    3    3    0    0  0.19355328396E+02 -0.36937351750E+01  0.60268927138E+01  0.20605723790E+02  0.51100000000E-03 0.  1.
        -12    1    3    3    0    0  0.19802016750E+02  0.11537090349E+01  0.14535404187E+02  0.24591235975E+02  0.00000000000E+00 0.  1.
</event>
<event>
 7    1  0.3980989E-008  0.4614232E+02  0.7816164E-02  0.1320468E+00
        -11   -1    0    0    0    0  0.00000000000E+00  0.00000000000E+00  0.45593999997E+02  0.45594000000E+02  0.51100000000E-03 0. -1.
         11   -1    0    0    0    0 -0.00000000000E+00 -0.00000000000E+00 -0.45593999997E+02  0.45594000000E+02  0.51100000000E-03 0.  1.
    9900012    2    1    2    0    0  0.38268092294E+01 -0.11066955531E+02  0.43497027850E+02  0.46142318682E+02  0.10000008399E+02 0.  0.
        -12    1    1    2    0    0 -0.38268092294E+01  0.11066955531E+02 -0.43497027850E+02  0.45045681318E+02  0.00000000000E+00 0.  1.
         11    1    3    3    0    0  0.70679947088E+00  0.35816725640E+00  0.23412685319E-02  0.79237302973E+00  0.51100000000E-03 0.  1.
        -11    1    3    3    0    0  0.83100542258E+00  0.28870984833E+00  0.23573642078E+01  0.25161656659E+01  0.51100000000E-03 0. -1.
         12    1    3    3    0    0  0.22890043359E+01 -0.11713832636E+02  0.41137322374E+02  0.42833779987E+02  0.00000000000E+00 0. -1.
</event>
<event>
 7    1  0.3980989E-008  0.4614233E+02  0.7816164E-02  0.1320468E+00
        -11   -1    0    0    0    0  0.00000000000E+00  0.00000000000E+00  0.45593999997E+02  0.45594000000E+02  0.51100000000E-03 0.  1.
         11   -1    0    0    0    0 -0.00000000000E+00 -0.00000000000E+00 -0.45593999997E+02  0.45594000000E+02  0.51100000000E-03 0. -1.
    9900012    2    1    2    0    0  0.13650268148E+02 -0.41202866680E+02 -0.12046010217E+02  0.46142329783E+02  0.10000109623E+02 0.  0.
        -12    1    1    2    0    0 -0.13650268148E+02  0.41202866680E+02  0.12046010217E+02  0.45045670217E+02  0.00000000000E+00 0.  1.
         11    1    3    3    0    0  0.80002617011E+01 -0.25700695044E+02 -0.83191392640E+01  0.28173356054E+02  0.51100000000E-03 0. -1.
        -11    1    3    3    0    0  0.41303428457E+00 -0.92974980328E+01 -0.31653307013E+01  0.98302281611E+01  0.51100000000E-03 0.  1.
        -12    1    3    3    0    0  0.52369721620E+01 -0.62046736039E+01 -0.56154025177E+00  0.81387455674E+01  0.00000000000E+00 0.  1.
</event>
<event>
 7    1  0.3980989E-008  0.4614232E+02  0.7816164E-02  0.1320468E+00
        -11   -1    0    0    0    0  0.00000000000E+00  0.00000000000E+00  0.45593999997E+02  0.45594000000E+02  0.51100000000E-03 0. -1.
         11   -1    0    0    0    0 -0.00000000000E+00 -0.00000000000E+00 -0.45593999997E+02  0.45594000000E+02  0.51100000000E-03 0.  1.
    9900012    2    1    2    0    0 -0.21940397629E+02  0.16973335706E+02  0.35491383216E+02  0.46142318124E+02  0.10000003310E+02 0.  0.
        -12    1    1    2    0    0  0.21940397629E+02 -0.16973335706E+02 -0.35491383216E+02  0.45045681876E+02  0.00000000000E+00 0.  1.
         11    1    3    3    0    0 -0.65222603021E+01  0.76713188541E+01  0.92164693298E+01  0.13650359687E+02  0.51100000000E-03 0. -1.
        -11    1    3    3    0    0  0.26202944902E-01  0.91234847095E+00  0.39843558248E-01  0.91359405483E+00  0.51100000000E-03 0.  1.
         12    1    3    3    0    0 -0.15444340272E+02  0.83896683805E+01  0.26235070328E+02  0.31578364382E+02  0.00000000000E+00 0. -1.
</event>
<event>
 7    1  0.3980989E-008  0.4614232E+02  0.7816164E-02  0.1320468E+00
        -11   -1    0    0    0    0  0.00000000000E+00  0.00000000000E+00  0.45593999997E+02  0.45594000000E+02  0.51100000000E-03 0.  1.
         11   -1    0    0    0    0 -0.00000000000E+00 -0.00000000000E+00 -0.45593999997E+02  0.45594000000E+02  0.51100000000E-03 0. -1.
    9900012    2    1    2    0    0 -0.93414323729E+01 -0.21253708584E+02 -0.38602214748E+02  0.46142317956E+02  0.10000001776E+02 0.  0.
        -12    1    1    2    0    0  0.93414323729E+01  0.21253708584E+02  0.38602214748E+02  0.45045682044E+02  0.00000000000E+00 0.  1.
         11    1    3    3    0    0 -0.67421012302E+01 -0.10161159675E+02 -0.25383471740E+02  0.28160712576E+02  0.51100000000E-03 0. -1.
        -11    1    3    3    0    0 -0.23347816004E+01 -0.29024260629E+01 -0.59937051764E+01  0.70568962140E+01  0.51100000000E-03 0.  1.
        -12    1    3    3    0    0 -0.26454954227E+00 -0.81901228457E+01 -0.72250378319E+01  0.10924709166E+02  0.00000000000E+00 0.  1.
</event>
<event>
 7    1  0.3980989E-008  0.4614232E+02  0.7816164E-02  0.1320468E+00
        -11   -1    0    0    0    0  0.00000000000E+00  0.00000000000E+00  0.45593999997E+02  0.45594000000E+02  0.51100000000E-03 0.  1.
         11   -1    0    0    0    0 -0.00000000000E+00 -0.00000000000E+00 -0.45593999997E+02  0.45594000000E+02  0.51100000000E-03 0. -1.
    9900012    2    1    2    0    0  0.41520225401E+02  0.54901855997E+01  0.16584400867E+02  0.46142316440E+02  0.99999879541E+01 0.  0.
        -12    1    1    2    0    0 -0.41520225401E+02 -0.54901855997E+01 -0.16584400867E+02  0.45045683560E+02  0.00000000000E+00 0.  1.
         11    1    3    3    0    0  0.81055264696E+01  0.14955684711E+01  0.33648580967E+01  0.89027273728E+01  0.51100000000E-03 0. -1.
        -11    1    3    3    0    0  0.31164207130E+01  0.28130594619E+01  0.94067778655E-01  0.41993131110E+01  0.51100000000E-03 0.  1.
        -12    1    3    3    0    0  0.30298278218E+02  0.11815576666E+01  0.13125474991E+02  0.33040275956E+02  0.00000000000E+00 0.  1.
</event>
<event>
 7    1  0.3980989E-008  0.4614232E+02  0.7816164E-02  0.1320468E+00
        -11   -1    0    0    0    0  0.00000000000E+00  0.00000000000E+00  0.45593999997E+02  0.45594000000E+02  0.51100000000E-03 0. -1.
         11   -1    0    0    0    0 -0.00000000000E+00 -0.00000000000E+00 -0.45593999997E+02  0.45594000000E+02  0.51100000000E-03 0.  1.
    9900012    2    1    2    0    0 -0.16862782888E+01  0.21758045692E+02  0.39406311597E+02  0.46142317849E+02  0.10000000798E+02 0.  0.
        -12    1    1    2    0    0  0.16862782888E+01 -0.21758045692E+02 -0.39406311597E+02  0.45045682151E+02  0.00000000000E+00 0.  1.
         11    1    3    3    0    0  0.24084816408E+01  0.32797199006E+01  0.59684426761E+01  0.72235486209E+01  0.51100000000E-03 0. -1.
        -11    1    3    3    0    0  0.16389560819E+01  0.32570894796E+01  0.58758149956E+01  0.69152014461E+01  0.51100000000E-03 0.  1.
         12    1    3    3    0    0 -0.57337160115E+01  0.15221236312E+02  0.27562053926E+02  0.32003567781E+02  0.00000000000E+00 0. -1.
</event>
<event>
 7    1  0.3980989E-008  0.4614232E+02  0.7816164E-02  0.1320468E+00
        -11   -1    0    0    0    0  0.00000000000E+00  0.00000000000E+00  0.45593999997E+02  0.45594000000E+02  0.51100000000E-03 0. -1.
         11   -1    0    0    0    0 -0.00000000000E+00 -0.00000000000E+00 -0.45593999997E+02  0.45594000000E+02  0.51100000000E-03 0.  1.
    9900012    2    1    2    0    0 -0.78062816102E+01 -0.43543435399E+02  0.84938012764E+01  0.46142318087E+02  0.10000002969E+02 0.  0.
        -12    1    1    2    0    0  0.78062816102E+01  0.43543435399E+02 -0.84938012764E+01  0.45045681913E+02  0.00000000000E+00 0.  1.
         11    1    3    3    0    0 -0.57445274046E+01 -0.19895662160E+02  0.34519025131E+01  0.20994108676E+02  0.51100000000E-03 0. -1.
        -11    1    3    3    0    0 -0.34102409704E+01 -0.88449103292E+01  0.38660928670E+01  0.10237619671E+02  0.51100000000E-03 0.  1.
        -12    1    3    3    0    0  0.13484867648E+01 -0.14802862910E+02  0.11758058962E+01  0.14910589740E+02  0.00000000000E+00 0.  1.
</event>
<event>
 7    1  0.3980989E-008  0.4614232E+02  0.7816164E-02  0.1320468E+00
        -11   -1    0    0    0    0  0.00000000000E+00  0.00000000000E+00  0.45593999997E+02  0.45594000000E+02  0.51100000000E-03 0.  1.
         11   -1    0    0    0    0 -0.00000000000E+00 -0.00000000000E+00 -0.45593999997E+02  0.45594000000E+02  0.51100000000E-03 0. -1.
    9900012    2    1    2    0    0  0.12504387234E+02 -0.34054415169E+02 -0.26703004621E+02  0.46142319315E+02  0.10000014168E+02 0.  0.
        -12    1    1    2    0    0 -0.12504387234E+02  0.34054415169E+02  0.26703004621E+02  0.45045680685E+02  0.00000000000E+00 0.  1.
         11    1    3    3    0    0  0.13173707825E+01 -0.43546924871E+01 -0.69036269834E+00  0.46016750594E+01  0.51100000000E-03 0. -1.
        -11    1    3    3    0    0  0.35837891585E+01 -0.88437120237E+01 -0.42234088877E+01  0.10435131527E+02  0.51100000000E-03 0.  1.
         12    1    3    3    0    0  0.76032272932E+01 -0.20856010658E+02 -0.21789233035E+02  0.31105512728E+02  0.00000000000E+00 0. -1.
</event>
<event>
 7    1  0.3980989E-008  0.4614231E+02  0.7816164E-02  0.1320468E+00
        -11   -1    0    0    0    0  0.00000000000E+00  0.00000000000E+00  0.45593999997E+02  0.45594000000E+02  0.51100000000E-03 0.  1.
         11   -1    0    0    0    0 -0.00000000000E+00 -0.00000000000E+00 -0.45593999997E+02  0.45594000000E+02  0.51100000000E-03 0. -1.
    9900012    2    1    2    0    0 -0.16185712319E+02 -0.38526870637E+02 -0.16817157345E+02  0.46142314019E+02  0.99999658764E+01 0.  0.
        -12    1    1    2    0    0  0.16185712319E+02  0.38526870637E+02  0.16817157345E+02  0.45045685981E+02  0.00000000000E+00 0.  1.
         11    1    3    3    0    0 -0.46814659400E+01 -0.60293103209E+01 -0.58587462115E+01  0.96225575459E+01  0.51100000000E-03 0. -1.
        -11    1    3    3    0    0 -0.11631444415E-01 -0.46465545314E+01 -0.74037345278E+00  0.47051840999E+01  0.51100000000E-03 0.  1.
         12    1    3    3    0    0 -0.11492614935E+02 -0.27851005784E+02 -0.10218037680E+02  0.31814572373E+02  0.00000000000E+00 0. -1.
</event>
<event>
 7    1  0.3980989E-008  0.4614232E+02  0.7816164E-02  0.1320468E+00
        -11   -1    0    0    0    0  0.00000000000E+00  0.00000000000E+00  0.45593999997E+02  0.45594000000E+02  0.51100000000E-03 0. -1.
         11   -1    0    0    0    0 -0.00000000000E+00 -0.00000000000E+00 -0.45593999997E+02  0.45594000000E+02  0.51100000000E-03 0.  1.
    9900012    2    1    2    0    0 -0.54776564153E+01 -0.91923923510E+01  0.43756242090E+02  0.46142317423E+02  0.99999969181E+01 0.  0.
        -12    1    1    2    0    0  0.54776564153E+01  0.91923923510E+01 -0.43756242090E+02  0.45045682577E+02  0.00000000000E+00 0.  1.
         11    1    3    3    0    0 -0.55218489941E+01 -0.32262926933E+01  0.11216745158E+02  0.12911822221E+02  0.51100000000E-03 0. -1.
        -11    1    3    3    0    0  0.11482075104E+01 -0.10011709495E+01  0.50634236502E+01  0.52876254670E+01  0.51100000000E-03 0.  1.
        -12    1    3    3    0    0 -0.11040149316E+01 -0.49649287082E+01  0.27476073282E+02  0.27942869735E+02  0.00000000000E+00 0.  1.
</event>
<event>
 7    1  0.3980989E-008  0.4614232E+02  0.7816164E-02  0.1320468E+00
        -11   -1    0    0    0    0  0.00000000000E+00  0.00000000000E+00  0.45593999997E+02  0.45594000000E+02  0.51100000000E-03 0.  1.
         11   -1    0    0    0    0 -0.00000000000E+00 -0.00000000000E+00 -0.45593999997E+02  0.45594000000E+02  0.51100000000E-03 0. -1.
    9900012    2    1    2    0    0 -0.36166443242E+02 -0.22324485503E+01 -0.26760382984E+02  0.46142317180E+02  0.99999946969E+01 0.  0.
        -12    1    1    2    0    0  0.36166443242E+02  0.22324485503E+01  0.26760382984E+02  0.45045682820E+02  0.00000000000E+00 0.  1.
         11    1    3    3    0    0 -0.10554672214E+02 -0.36646977570E+01 -0.64308609702E+01  0.12891357115E+02  0.51100000000E-03 0. -1.
        -11    1    3    3    0    0 -0.10636689551E+01 -0.11840431688E+01 -0.16559951057E+01  0.22968826532E+01  0.51100000000E-03 0.  1.
        -12    1    3    3    0    0 -0.24548102074E+02  0.26162923755E+01 -0.18673526908E+02  0.30954077411E+02  0.00000000000E+00 0.  1.
</event>
<event>
 7    1  0.3980989E-008  0.4614232E+02  0.7816164E-02  0.1320468E+00
        -11   -1    0    0    0    0  0.00000000000E+00  0.00000000000E+00  0.45593999997E+02  0.45594000000E+02  0.51100000000E-03 0.  1.
         11   -1    0    0    0    0 -0.00000000000E+00 -0.00000000000E+00 -0.45593999997E+02  0.45594000000E+02  0.51100000000E-03 0. -1.
    9900012    2    1    2    0    0  0.14443522542E+02 -0.32593901245E+01 -0.42542620462E+02  0.46142317375E+02  0.99999964802E+01 0.  0.
        -12    1    1    2    0    0 -0.14443522542E+02  0.32593901245E+01  0.42542620462E+02  0.45045682625E+02  0.00000000000E+00 0.  1.
         11    1    3    3    0    0  0.24229782996E+01 -0.44626346366E+01 -0.13283973128E+02  0.14221458226E+02  0.51100000000E-03 0. -1.
        -11    1    3    3    0    0  0.23716390229E+01 -0.11957336335E+01 -0.42930190557E+01  0.50482138872E+01  0.51100000000E-03 0.  1.
        -12    1    3    3    0    0  0.96489052192E+01  0.23989781456E+01 -0.24965628278E+02  0.26872645262E+02  0.00000000000E+00 0.  1.
</event>
<event>
 7    1  0.3980989E-008  0.4614232E+02  0.7816164E-02  0.1320468E+00
        -11   -1    0    0    0    0  0.00000000000E+00  0.00000000000E+00  0.45593999997E+02  0.45594000000E+02  0.51100000000E-03 0.  1.
         11   -1    0    0    0    0 -0.00000000000E+00 -0.00000000000E+00 -0.45593999997E+02  0.45594000000E+02  0.51100000000E-03 0. -1.
    9900012    2    1    2    0    0  0.10092840893E+02 -0.20523438299E+01 -0.43852435191E+02  0.46142316248E+02  0.99999862025E+01 0.  0.
        -12    1    1    2    0    0 -0.10092840893E+02  0.20523438299E+01  0.43852435191E+02  0.45045683752E+02  0.00000000000E+00 0.  1.
         11    1    3    3    0    0 -0.88080628052E+00  0.95092661134E+00 -0.14343407539E+02  0.14401854784E+02  0.51100000000E-03 0. -1.
        -11    1    3    3    0    0  0.38131905796E+01 -0.10003027612E+01 -0.13946509920E+02  0.14492969579E+02  0.51100000000E-03 0.  1.
        -12    1    3    3    0    0  0.71604565940E+01 -0.20029676800E+01 -0.15562517731E+02  0.17247491884E+02  0.00000000000E+00 0.  1.
</event>
<event>
 7    1  0.3980989E-008  0.4614232E+02  0.7816164E-02  0.1320468E+00
        -11   -1    0    0    0    0  0.00000000000E+00  0.00000000000E+00  0.45593999997E+02  0.45594000000E+02  0.51100000000E-03 0. -1.
         11   -1    0    0    0    0 -0.00000000000E+00 -0.00000000000E+00 -0.45593999997E+02  0.45594000000E+02  0.51100000000E-03 0.  1.
    9900012    2    1    2    0    0  0.40876955433E+02  0.94212753858E+00  0.18902394632E+02  0.46142316382E+02  0.99999874243E+01 0.  0.
        -12    1    1    2    0    0 -0.40876955433E+02 -0.94212753858E+00 -0.18902394632E+02  0.45045683618E+02  0.00000000000E+00 0.  1.
         11    1    3    3    0    0  0.13245396202E+02  0.39077570341E+01  0.78238885226E+01  0.15872123912E+02  0.51100000000E-03 0. -1.
        -11    1    3    3    0    0  0.39388616334E+01 -0.18117633709E+01  0.27284558944E+01  0.51226545178E+01  0.51100000000E-03 0.  1.
         12    1    3    3    0    0  0.23692697598E+02 -0.11538661246E+01  0.83500502145E+01  0.25147537952E+02  0.00000000000E+00 0. -1.
</event>
<event>
 7    1  0.3980989E-008  0.4614232E+02  0.7816164E-02  0.1320468E+00
        -11   -1    0    0    0    0  0.00000000000E+00  0.00000000000E+00  0.45593999997E+02  0.45594000000E+02  0.51100000000E-03 0.  1.
         11   -1    0    0    0    0 -0.00000000000E+00 -0.00000000000E+00 -0.45593999997E+02  0.45594000000E+02  0.51100000000E-03 0. -1.
    9900012    2    1    2    0    0  0.44304032383E+02 -0.72941033728E+01 -0.36141651829E+01  0.46142318527E+02  0.10000006982E+02 0.  0.
        -12    1    1    2    0    0 -0.44304032383E+02  0.72941033728E+01  0.36141651829E+01  0.45045681473E+02  0.00000000000E+00 0.  1.
         11    1    3    3    0    0  0.14517751792E+02 -0.20400707986E+01 -0.18337624144E+01  0.14774629972E+02  0.51100000000E-03 0. -1.
        -11    1    3    3    0    0  0.11733354882E+02 -0.61023109094E+01 -0.21384104718E+00  0.13227076150E+02  0.51100000000E-03 0.  1.
         12    1    3    3    0    0  0.18052925709E+02  0.84827833516E+00 -0.15665617214E+01  0.18140612405E+02  0.00000000000E+00 0. -1.
</event>
<event>
 7    1  0.3980989E-008  0.4614232E+02  0.7816164E-02  0.1320468E+00
        -11   -1    0    0    0    0  0.00000000000E+00  0.00000000000E+00  0.45593999997E+02  0.45594000000E+02  0.51100000000E-03 0. -1.
         11   -1    0    0    0    0 -0.00000000000E+00 -0.00000000000E+00 -0.45593999997E+02  0.45594000000E+02  0.51100000000E-03 0.  1.
    9900012    2    1    2    0    0 -0.16127833899E+02  0.28890400466E+02  0.30567160724E+02  0.46142316743E+02  0.99999907189E+01 0.  0.
        -12    1    1    2    0    0  0.16127833899E+02 -0.28890400466E+02 -0.30567160724E+02  0.45045683257E+02  0.00000000000E+00 0.  1.
         11    1    3    3    0    0 -0.14785500548E+02  0.20314151763E+02  0.18386829640E+02  0.31134406896E+02  0.51100000000E-03 0. -1.
        -11    1    3    3    0    0 -0.11404003544E+01  0.70859069788E+01  0.91880986365E+01  0.11658977120E+02  0.51100000000E-03 0.  1.
         12    1    3    3    0    0 -0.20193299642E+00  0.14903417241E+01  0.29922324469E+01  0.33489327264E+01  0.00000000000E+00 0. -1.
</event>
<event>
 7    1  0.3980989E-008  0.4614232E+02  0.7816164E-02  0.1320468E+00
        -11   -1    0    0    0    0  0.00000000000E+00  0.00000000000E+00  0.45593999997E+02  0.45594000000E+02  0.51100000000E-03 0.  1.
         11   -1    0    0    0    0 -0.00000000000E+00 -0.00000000000E+00 -0.45593999997E+02  0.45594000000E+02  0.51100000000E-03 0. -1.
    9900012    2    1    2    0    0  0.95857890802E+01  0.24326125383E+02 -0.36680591679E+02  0.46142317251E+02  0.99999953495E+01 0.  0.
        -12    1    1    2    0    0 -0.95857890802E+01 -0.24326125383E+02  0.36680591679E+02  0.45045682749E+02  0.00000000000E+00 0.  1.
         11    1    3    3    0    0  0.92018662120E+01  0.14664307329E+02 -0.22543175661E+02  0.28423775617E+02  0.51100000000E-03 0. -1.
        -11    1    3    3    0    0 -0.49032798793E+00  0.23663730159E+01 -0.90030487575E+00  0.25788935451E+01  0.51100000000E-03 0.  1.
         12    1    3    3    0    0  0.87425085616E+00  0.72954450381E+01 -0.13237111142E+02  0.15139648089E+02  0.00000000000E+00 0. -1.
</event>
<event>
 7    1  0.3980989E-008  0.4614232E+02  0.7816164E-02  0.1320468E+00
        -11   -1    0    0    0    0  0.00000000000E+00  0.00000000000E+00  0.45593999997E+02  0.45594000000E+02  0.51100000000E-03 0.  1.
         11   -1    0    0    0    0 -0.00000000000E+00 -0.00000000000E+00 -0.45593999997E+02  0.45594000000E+02  0.51100000000E-03 0. -1.
    9900012    2    1    2    0    0  0.43014194494E+02 -0.12939870393E+02  0.33841281690E+01  0.46142317663E+02  0.99999991037E+01 0.  0.
        -12    1    1    2    0    0 -0.43014194494E+02  0.12939870393E+02 -0.33841281690E+01  0.45045682337E+02  0.00000000000E+00 0.  1.
         11    1    3    3    0    0  0.32274057588E+02 -0.98911578282E+01  0.31909019312E+01  0.33906218482E+02  0.51100000000E-03 0. -1.
        -11    1    3    3    0    0  0.84834782931E+01 -0.18590652139E+01  0.22359485453E+01  0.89679983038E+01  0.51100000000E-03 0.  1.
         12    1    3    3    0    0  0.22566586130E+01 -0.11896473505E+01 -0.20427223075E+01  0.32681008766E+01  0.00000000000E+00 0. -1.
</event>
<event>
 7    1  0.3980989E-008  0.4614232E+02  0.7816164E-02  0.1320468E+00
        -11   -1    0    0    0    0  0.00000000000E+00  0.00000000000E+00  0.45593999997E+02  0.45594000000E+02  0.51100000000E-03 0.  1.
         11   -1    0    0    0    0 -0.00000000000E+00 -0.00000000000E+00 -0.45593999997E+02  0.45594000000E+02  0.51100000000E-03 0. -1.
    9900012    2    1    2    0    0 -0.25706756498E+02 -0.21031065492E+02 -0.30429762619E+02  0.46142317650E+02  0.99999989829E+01 0.  0.
        -12    1    1    2    0    0  0.25706756498E+02  0.21031065492E+02  0.30429762619E+02  0.45045682350E+02  0.00000000000E+00 0.  1.
         11    1    3    3    0    0 -0.12770661088E+02 -0.51935474362E+01 -0.10719739909E+02  0.17463548997E+02  0.51100000000E-03 0. -1.
        -11    1    3    3    0    0 -0.17508293285E+01 -0.44772919500E+00 -0.17263220602E+01  0.24992104526E+01  0.51100000000E-03 0.  1.
         12    1    3    3    0    0 -0.11185266082E+02 -0.15389788861E+02 -0.17983700649E+02  0.26179558200E+02  0.00000000000E+00 0. -1.
</event>
<event>
 7    1  0.3980989E-008  0.4614232E+02  0.7816164E-02  0.1320468E+00
        -11   -1    0    0    0    0  0.00000000000E+00  0.00000000000E+00  0.45593999997E+02  0.45594000000E+02  0.51100000000E-03 0. -1.
         11   -1    0    0    0    0 -0.00000000000E+00 -0.00000000000E+00 -0.45593999997E+02  0.45594000000E+02  0.51100000000E-03 0.  1.
    9900012    2    1    2    0    0  0.15491675827E+02  0.40621968877E+02 -0.11788858934E+02  0.46142316851E+02  0.99999917043E+01 0.  0.
        -12    1    1    2    0    0 -0.15491675827E+02 -0.40621968877E+02  0.11788858934E+02  0.45045683149E+02  0.00000000000E+00 0.  1.
         11    1    3    3    0    0  0.90160042701E+01  0.18017485899E+02 -0.22058296810E+01  0.20267802445E+02  0.51100000000E-03 0. -1.
        -11    1    3    3    0    0  0.63883641626E+01  0.20191636271E+02 -0.69202794064E+01  0.22280117578E+02  0.51100000000E-03 0.  1.
        -12    1    3    3    0    0  0.87307394454E-01  0.24128467068E+01 -0.26627498464E+01  0.35943968278E+01  0.00000000000E+00 0.  1.
</event>
<event>
 7    1  0.3980989E-008  0.4614232E+02  0.7816164E-02  0.1320468E+00
        -11   -1    0    0    0    0  0.00000000000E+00  0.00000000000E+00  0.45593999997E+02  0.45594000000E+02  0.51100000000E-03 0. -1.
         11   -1    0    0    0    0 -0.00000000000E+00 -0.00000000000E+00 -0.45593999997E+02  0.45594000000E+02  0.51100000000E-03 0.  1.
    9900012    2    1    2    0    0 -0.21492067275E+02 -0.20803475161E+02  0.33681151976E+02  0.46142317266E+02  0.99999954829E+01 0.  0.
        -12    1    1    2    0    0  0.21492067275E+02  0.20803475161E+02 -0.33681151976E+02  0.45045682734E+02  0.00000000000E+00 0.  1.
         11    1    3    3    0    0 -0.10577037718E+02 -0.97951502933E+01  0.21784233342E+02  0.26122241839E+02  0.51100000000E-03 0. -1.
        -11    1    3    3    0    0 -0.58925060995E+00 -0.88571813538E+00 -0.29753316942E+00  0.11046443521E+01  0.51100000000E-03 0.  1.
        -12    1    3    3    0    0 -0.10325778948E+02 -0.10122606732E+02  0.12194451804E+02  0.18915431074E+02  0.00000000000E+00 0.  1.
</event>
<event>
 7    1  0.3980989E-008  0.4614232E+02  0.7816164E-02  0.1320468E+00
        -11   -1    0    0    0    0  0.00000000000E+00  0.00000000000E+00  0.45593999997E+02  0.45594000000E+02  0.51100000000E-03 0.  1.
         11   -1    0    0    0    0 -0.00000000000E+00 -0.00000000000E+00 -0.45593999997E+02  0.45594000000E+02  0.51100000000E-03 0. -1.
    9900012    2    1    2    0    0 -0.34304857907E+02  0.74562264018E+01 -0.28225783797E+02  0.46142318085E+02  0.10000002958E+02 0.  0.
        -12    1    1    2    0    0  0.34304857907E+02 -0.74562264018E+01  0.28225783797E+02  0.45045681915E+02  0.00000000000E+00 0.  1.
         11    1    3    3    0    0 -0.14164095122E+02  0.84963590011E+00 -0.12141794114E+02  0.18675294813E+02  0.51100000000E-03 0. -1.
        -11    1    3    3    0    0 -0.62432433321E+01  0.24914974948E+01 -0.14628907330E+01  0.68793674584E+01  0.51100000000E-03 0.  1.
         12    1    3    3    0    0 -0.13897519453E+02  0.41150930070E+01 -0.14621098951E+02  0.20587655814E+02  0.00000000000E+00 0. -1.
</event>
<event>
 7    1  0.3980989E-008  0.4614232E+02  0.7816164E-02  0.1320468E+00
        -11   -1    0    0    0    0  0.00000000000E+00  0.00000000000E+00  0.45593999997E+02  0.45594000000E+02  0.51100000000E-03 0.  1.
         11   -1    0    0    0    0 -0.00000000000E+00 -0.00000000000E+00 -0.45593999997E+02  0.45594000000E+02  0.51100000000E-03 0. -1.
    9900012    2    1    2    0    0 -0.43803023891E+02 -0.80841086890E+01 -0.67123573032E+01  0.46142318122E+02  0.10000003287E+02 0.  0.
        -12    1    1    2    0    0  0.43803023891E+02  0.80841086890E+01  0.67123573032E+01  0.45045681878E+02  0.00000000000E+00 0.  1.
         11    1    3    3    0    0 -0.77984140953E+01 -0.17317335214E+01 -0.14566921088E+01  0.81201056368E+01  0.51100000000E-03 0. -1.
        -11    1    3    3    0    0 -0.35835979385E+02 -0.55808705402E+01 -0.39314613555E+01  0.36480404646E+02  0.51100000000E-03 0.  1.
        -12    1    3    3    0    0 -0.16863041123E+00 -0.77150462739E+00 -0.13242038389E+01  0.15418078391E+01  0.00000000000E+00 0.  1.
</event>
<event>
 7    1  0.3980989E-008  0.4614232E+02  0.7816164E-02  0.1320468E+00
        -11   -1    0    0    0    0  0.00000000000E+00  0.00000000000E+00  0.45593999997E+02  0.45594000000E+02  0.51100000000E-03 0. -1.
         11   -1    0    0    0    0 -0.00000000000E+00 -0.00000000000E+00 -0.45593999997E+02  0.45594000000E+02  0.51100000000E-03 0.  1.
    9900012    2    1    2    0    0  0.28749110521E+02 -0.25267023998E+02  0.23752465799E+02  0.46142317754E+02  0.99999999364E+01 0.  0.
        -12    1    1    2    0    0 -0.28749110521E+02  0.25267023998E+02 -0.23752465799E+02  0.45045682246E+02  0.00000000000E+00 0.  1.
         11    1    3    3    0    0  0.10501440058E+02 -0.66001987653E+01  0.93605627330E+01  0.15539079830E+02  0.51100000000E-03 0. -1.
        -11    1    3    3    0    0  0.65635412984E+01 -0.94391587468E+01  0.30724329769E+01  0.11900320873E+02  0.51100000000E-03 0.  1.
        -12    1    3    3    0    0  0.11684129165E+02 -0.92276664857E+01  0.11319470089E+02  0.18702917051E+02  0.00000000000E+00 0.  1.
</event>
<event>
 7    1  0.3980989E-008  0.4614232E+02  0.7816164E-02  0.1320468E+00
        -11   -1    0    0    0    0  0.00000000000E+00  0.00000000000E+00  0.45593999997E+02  0.45594000000E+02  0.51100000000E-03 0.  1.
         11   -1    0    0    0    0 -0.00000000000E+00 -0.00000000000E+00 -0.45593999997E+02  0.45594000000E+02  0.51100000000E-03 0. -1.
    9900012    2    1    2    0    0 -0.29226294174E+02  0.55628976098E+01 -0.33822940840E+02  0.46142318431E+02  0.10000006105E+02 0.  0.
        -12    1    1    2    0    0  0.29226294174E+02 -0.55628976098E+01  0.33822940840E+02  0.45045681569E+02  0.00000000000E+00 0.  1.
         11    1    3    3    0    0 -0.15175674644E+02  0.66607800985E+00 -0.13504660181E+02  0.20325368574E+02  0.51100000000E-03 0. -1.
        -11    1    3    3    0    0 -0.95924194775E+01  0.58779410383E+01 -0.13003481712E+02  0.17194628207E+02  0.51100000000E-03 0.  1.
        -12    1    3    3    0    0 -0.44582000530E+01 -0.98112143828E+00 -0.73147989481E+01  0.86223216502E+01  0.00000000000E+00 0.  1.
</event>
<event>
 7    1  0.3980989E-008  0.4614232E+02  0.7816164E-02  0.1320468E+00
        -11   -1    0    0    0    0  0.00000000000E+00  0.00000000000E+00  0.45593999997E+02  0.45594000000E+02  0.51100000000E-03 0.  1.
         11   -1    0    0    0    0 -0.00000000000E+00 -0.00000000000E+00 -0.45593999997E+02  0.45594000000E+02  0.51100000000E-03 0. -1.
    9900012    2    1    2    0    0 -0.19246638009E+02 -0.40705037273E+02 -0.13342945898E+01  0.46142317898E+02  0.10000001244E+02 0.  0.
        -12    1    1    2    0    0  0.19246638009E+02  0.40705037273E+02  0.13342945898E+01  0.45045682102E+02  0.00000000000E+00 0.  1.
         11    1    3    3    0    0 -0.10896224912E+02 -0.15421095277E+02 -0.66105553656E+00  0.18893779177E+02  0.51100000000E-03 0.  1.
        -11    1    3    3    0    0 -0.82484188585E+01 -0.17654483332E+02  0.68538764521E+00  0.19498383315E+02  0.51100000000E-03 0. -1.
         12    1    3    3    0    0 -0.10199423808E+00 -0.76294586630E+01 -0.13586266985E+01  0.77501554063E+01  0.00000000000E+00 0. -1.
</event>
<event>
 7    1  0.3980989E-008  0.4614232E+02  0.7816164E-02  0.1320468E+00
        -11   -1    0    0    0    0  0.00000000000E+00  0.00000000000E+00  0.45593999997E+02  0.45594000000E+02  0.51100000000E-03 0.  1.
         11   -1    0    0    0    0 -0.00000000000E+00 -0.00000000000E+00 -0.45593999997E+02  0.45594000000E+02  0.51100000000E-03 0. -1.
    9900012    2    1    2    0    0 -0.21049483735E+02  0.16555864948E+02 -0.36220657145E+02  0.46142318368E+02  0.10000005535E+02 0.  0.
        -12    1    1    2    0    0  0.21049483735E+02 -0.16555864948E+02  0.36220657145E+02  0.45045681632E+02  0.00000000000E+00 0.  1.
         11    1    3    3    0    0 -0.42701128130E+01  0.45125799719E+01 -0.83747328612E+01  0.10427530494E+02  0.51100000000E-03 0. -1.
        -11    1    3    3    0    0 -0.14458613709E+02  0.12107483186E+02 -0.27532817494E+02  0.33372124579E+02  0.51100000000E-03 0.  1.
        -12    1    3    3    0    0 -0.23207572134E+01 -0.64198210329E-01 -0.31310678911E+00  0.23426632953E+01  0.00000000000E+00 0.  1.
</event>
<event>
 7    1  0.3980989E-008  0.4614232E+02  0.7816164E-02  0.1320468E+00
        -11   -1    0    0    0    0  0.00000000000E+00  0.00000000000E+00  0.45593999997E+02  0.45594000000E+02  0.51100000000E-03 0.  1.
         11   -1    0    0    0    0 -0.00000000000E+00 -0.00000000000E+00 -0.45593999997E+02  0.45594000000E+02  0.51100000000E-03 0. -1.
    9900012    2    1    2    0    0 -0.12110138032E+01  0.11686081878E+02 -0.43486577343E+02  0.46142317930E+02  0.10000001542E+02 0.  0.
        -12    1    1    2    0    0  0.12110138032E+01 -0.11686081878E+02  0.43486577343E+02  0.45045682070E+02  0.00000000000E+00 0.  1.
         11    1    3    3    0    0  0.16506856613E+01 -0.15862883257E+00 -0.43418769597E+01  0.46477760330E+01  0.51100000000E-03 0. -1.
        -11    1    3    3    0    0 -0.18323847174E+01 -0.43427266783E-01 -0.52186428864E+01  0.55311620404E+01  0.51100000000E-03 0.  1.
        -12    1    3    3    0    0 -0.10293147471E+01  0.11888137977E+02 -0.33926057497E+02  0.35963379857E+02  0.00000000000E+00 0.  1.
</event>
<event>
 7    1  0.3980989E-008  0.4614232E+02  0.7816164E-02  0.1320468E+00
        -11   -1    0    0    0    0  0.00000000000E+00  0.00000000000E+00  0.45593999997E+02  0.45594000000E+02  0.51100000000E-03 0.  1.
         11   -1    0    0    0    0 -0.00000000000E+00 -0.00000000000E+00 -0.45593999997E+02  0.45594000000E+02  0.51100000000E-03 0. -1.
    9900012    2    1    2    0    0 -0.35787081607E+01 -0.38738673820E+01 -0.44735886864E+02  0.46142316810E+02  0.99999913230E+01 0.  0.
        -12    1    1    2    0    0  0.35787081607E+01  0.38738673820E+01  0.44735886864E+02  0.45045683190E+02  0.00000000000E+00 0.  1.
         11    1    3    3    0    0  0.24043890719E+01 -0.70914854676E+00 -0.11068418860E+02  0.11348738907E+02  0.51100000000E-03 0. -1.
        -11    1    3    3    0    0 -0.64808711608E+00 -0.28471328409E+01 -0.68114635527E+01  0.74109525916E+01  0.51100000000E-03 0.  1.
         12    1    3    3    0    0 -0.53350101165E+01 -0.31758599434E+00 -0.26856004451E+02  0.27382625311E+02  0.00000000000E+00 0. -1.
</event>
<event>
 7    1  0.3980989E-008  0.4614232E+02  0.7816164E-02  0.1320468E+00
        -11   -1    0    0    0    0  0.00000000000E+00  0.00000000000E+00  0.45593999997E+02  0.45594000000E+02  0.51100000000E-03 0.  1.
         11   -1    0    0    0    0 -0.00000000000E+00 -0.00000000000E+00 -0.45593999997E+02  0.45594000000E+02  0.51100000000E-03 0. -1.
    9900012    2    1    2    0    0 -0.18664139728E+02 -0.30447414817E+02 -0.27453924442E+02  0.46142321538E+02  0.10000034442E+02 0.  0.
        -12    1    1    2    0    0  0.18664139728E+02  0.30447414817E+02  0.27453924442E+02  0.45045678462E+02  0.00000000000E+00 0.  1.
         11    1    3    3    0    0 -0.11420131581E+02 -0.23147718903E+02 -0.20501954270E+02  0.32963107027E+02  0.51100000000E-03 0. -1.
        -11    1    3    3    0    0 -0.42330524522E+01 -0.69404139020E+01 -0.55152953008E+01  0.98237752779E+01  0.51100000000E-03 0.  1.
        -12    1    3    3    0    0 -0.30109556948E+01 -0.35928201156E+00 -0.14366748717E+01  0.33554392330E+01  0.00000000000E+00 0.  1.
</event>
<event>
 7    1  0.3980989E-008  0.4614232E+02  0.7816164E-02  0.1320468E+00
        -11   -1    0    0    0    0  0.00000000000E+00  0.00000000000E+00  0.45593999997E+02  0.45594000000E+02  0.51100000000E-03 0.  1.
         11   -1    0    0    0    0 -0.00000000000E+00 -0.00000000000E+00 -0.45593999997E+02  0.45594000000E+02  0.51100000000E-03 0. -1.
    9900012    2    1    2    0    0  0.71549615809E+01  0.40110665919E+02 -0.19210791019E+02  0.46142317774E+02  0.10000000113E+02 0.  0.
        -12    1    1    2    0    0 -0.71549615809E+01 -0.40110665919E+02  0.19210791019E+02  0.45045682226E+02  0.00000000000E+00 0.  1.
         11    1    3    3    0    0  0.31034651497E+01  0.28069887023E+02 -0.15073634484E+02  0.32011943243E+02  0.51100000000E-03 0. -1.
        -11    1    3    3    0    0  0.28480046029E+01  0.11971201344E+02 -0.37965990426E+01  0.12877692199E+02  0.51100000000E-03 0.  1.
        -12    1    3    3    0    0  0.12034918282E+01  0.69577552513E-01 -0.34055749257E+00  0.12526823309E+01  0.00000000000E+00 0.  1.
</event>
<event>
 7    1  0.3980989E-008  0.4614232E+02  0.7816164E-02  0.1320468E+00
        -11   -1    0    0    0    0  0.00000000000E+00  0.00000000000E+00  0.45593999997E+02  0.45594000000E+02  0.51100000000E-03 0.  1.
         11   -1    0    0    0    0 -0.00000000000E+00 -0.00000000000E+00 -0.45593999997E+02  0.45594000000E+02  0.51100000000E-03 0. -1.
    9900012    2    1    2    0    0 -0.30501108242E+02  0.26663679924E+02 -0.19693756942E+02  0.46142317704E+02  0.99999994762E+01 0.  0.
        -12    1    1    2    0    0  0.30501108242E+02 -0.26663679924E+02  0.19693756942E+02  0.45045682296E+02  0.00000000000E+00 0.  1.
         11    1    3    3    0    0 -0.56539633793E+01  0.46645046834E+01 -0.19820567202E+01  0.75929872211E+01  0.51100000000E-03 0. -1.
        -11    1    3    3    0    0 -0.14775420807E+02  0.18276185989E+02 -0.12166617703E+02  0.26464289541E+02  0.51100000000E-03 0.  1.
         12    1    3    3    0    0 -0.10071724055E+02  0.37229892513E+01 -0.55450825194E+01  0.12085040941E+02  0.00000000000E+00 0. -1.
</event>
<event>
 7    1  0.3980989E-008  0.4614232E+02  0.7816164E-02  0.1320468E+00
        -11   -1    0    0    0    0  0.00000000000E+00  0.00000000000E+00  0.45593999997E+02  0.45594000000E+02  0.51100000000E-03 0.  1.
         11   -1    0    0    0    0 -0.00000000000E+00 -0.00000000000E+00 -0.45593999997E+02  0.45594000000E+02  0.51100000000E-03 0. -1.
    9900012    2    1    2    0    0  0.20549171524E+02  0.24945331606E+01 -0.40007780519E+02  0.46142315989E+02  0.99999838380E+01 0.  0.
        -12    1    1    2    0    0 -0.20549171524E+02 -0.24945331606E+01  0.40007780519E+02  0.45045684011E+02  0.00000000000E+00 0.  1.
         11    1    3    3    0    0  0.14230264633E+02  0.34557639330E+01 -0.23520454703E+02  0.27706579103E+02  0.51100000000E-03 0. -1.
        -11    1    3    3    0    0  0.47400750817E+00  0.95712352654E+00 -0.28581193059E+00  0.11056479022E+01  0.51100000000E-03 0.  1.
         12    1    3    3    0    0  0.58448993826E+01 -0.19183542989E+01 -0.16201513885E+02  0.17330088984E+02  0.00000000000E+00 0. -1.
</event>
<event>
 7    1  0.3980989E-008  0.4614231E+02  0.7816164E-02  0.1320468E+00
        -11   -1    0    0    0    0  0.00000000000E+00  0.00000000000E+00  0.45593999997E+02  0.45594000000E+02  0.51100000000E-03 0.  1.
         11   -1    0    0    0    0 -0.00000000000E+00 -0.00000000000E+00 -0.45593999997E+02  0.45594000000E+02  0.51100000000E-03 0. -1.
    9900012    2    1    2    0    0  0.12062432590E+02  0.98985008508E+01 -0.42256730787E+02  0.46142313237E+02  0.99999587490E+01 0.  0.
        -12    1    1    2    0    0 -0.12062432590E+02 -0.98985008508E+01  0.42256730787E+02  0.45045686763E+02  0.00000000000E+00 0.  1.
         11    1    3    3    0    0  0.49612030952E+01  0.82135679676E+01 -0.31667174423E+02  0.33089064223E+02  0.51100000000E-03 0. -1.
        -11    1    3    3    0    0  0.22430257290E+01  0.84865993959E+00 -0.53296320106E+01  0.58443447659E+01  0.51100000000E-03 0.  1.
         12    1    3    3    0    0  0.48582037655E+01  0.83627294363E+00 -0.52599243535E+01  0.72089042488E+01  0.00000000000E+00 0. -1.
</event>
<event>
 7    1  0.3980989E-008  0.4614232E+02  0.7816164E-02  0.1320468E+00
        -11   -1    0    0    0    0  0.00000000000E+00  0.00000000000E+00  0.45593999997E+02  0.45594000000E+02  0.51100000000E-03 0.  1.
         11   -1    0    0    0    0 -0.00000000000E+00 -0.00000000000E+00 -0.45593999997E+02  0.45594000000E+02  0.51100000000E-03 0. -1.
    9900012    2    1    2    0    0 -0.39275567194E+02 -0.25322179285E+01 -0.21911895445E+02  0.46142317987E+02  0.10000002059E+02 0.  0.
        -12    1    1    2    0    0  0.39275567194E+02  0.25322179285E+01  0.21911895445E+02  0.45045682013E+02  0.00000000000E+00 0.  1.
         11    1    3    3    0    0 -0.43937448077E+01  0.12046745562E+01 -0.35650953340E+01  0.57849925863E+01  0.51100000000E-03 0. -1.
        -11    1    3    3    0    0 -0.11112816800E+02 -0.46185542192E+01 -0.77816731885E+01  0.14331091311E+02  0.51100000000E-03 0.  1.
        -12    1    3    3    0    0 -0.23769005587E+02  0.88166173454E+00 -0.10565126922E+02  0.26026234089E+02  0.00000000000E+00 0.  1.
</event>
<event>
 7    1  0.3980989E-008  0.4614231E+02  0.7816164E-02  0.1320468E+00
        -11   -1    0    0    0    0  0.00000000000E+00  0.00000000000E+00  0.45593999997E+02  0.45594000000E+02  0.51100000000E-03 0.  1.
         11   -1    0    0    0    0 -0.00000000000E+00 -0.00000000000E+00 -0.45593999997E+02  0.45594000000E+02  0.51100000000E-03 0. -1.
    9900012    2    1    2    0    0 -0.21227768339E+02 -0.13570849197E+02 -0.37340706849E+02  0.46142306703E+02  0.99998991664E+01 0.  0.
        -12    1    1    2    0    0  0.21227768339E+02  0.13570849197E+02  0.37340706849E+02  0.45045693297E+02  0.00000000000E+00 0.  1.
         11    1    3    3    0    0 -0.88367082415E+01 -0.40263934625E+01 -0.91082845823E+01  0.13313906457E+02  0.51100000000E-03 0. -1.
        -11    1    3    3    0    0  0.44056064643E+00  0.33545973741E+00 -0.10656647725E+01  0.12009448726E+01  0.51100000000E-03 0.  1.
         12    1    3    3    0    0 -0.12831620744E+02 -0.98799154716E+01 -0.27166757494E+02  0.31627455373E+02  0.00000000000E+00 0. -1.
</event>
<event>
 7    1  0.3980989E-008  0.4614232E+02  0.7816164E-02  0.1320468E+00
        -11   -1    0    0    0    0  0.00000000000E+00  0.00000000000E+00  0.45593999997E+02  0.45594000000E+02  0.51100000000E-03 0. -1.
         11   -1    0    0    0    0 -0.00000000000E+00 -0.00000000000E+00 -0.45593999997E+02  0.45594000000E+02  0.51100000000E-03 0.  1.
    9900012    2    1    2    0    0 -0.30884700876E+02 -0.11554798715E+02  0.30687705586E+02  0.46142318790E+02  0.10000009382E+02 0.  0.
        -12    1    1    2    0    0  0.30884700876E+02  0.11554798715E+02 -0.30687705586E+02  0.45045681210E+02  0.00000000000E+00 0.  1.
         11    1    3    3    0    0 -0.92415503240E+01  0.65017075786E+00  0.84233719762E+01  0.12521268710E+02  0.51100000000E-03 0. -1.
        -11    1    3    3    0    0 -0.22199817691E+00 -0.89013679295E+00  0.45316221415E+00  0.10232218499E+01  0.51100000000E-03 0.  1.
         12    1    3    3    0    0 -0.21421152375E+02 -0.11314832680E+02  0.21811171396E+02  0.32597828230E+02  0.00000000000E+00 0. -1.
</event>
<event>
 7    1  0.3980989E-008  0.4614232E+02  0.7816164E-02  0.1320468E+00
        -11   -1    0    0    0    0  0.00000000000E+00  0.00000000000E+00  0.45593999997E+02  0.45594000000E+02  0.51100000000E-03 0. -1.
         11   -1    0    0    0    0 -0.00000000000E+00 -0.00000000000E+00 -0.45593999997E+02  0.45594000000E+02  0.51100000000E-03 0.  1.
    9900012    2    1    2    0    0  0.35626220518E+02  0.44872276143E+01  0.27198354964E+02  0.46142319710E+02  0.10000017769E+02 0.  0.
        -12    1    1    2    0    0 -0.35626220518E+02 -0.44872276143E+01 -0.27198354964E+02  0.45045680290E+02  0.00000000000E+00 0.  1.
         11    1    3    3    0    0  0.14103437639E+02  0.16182706385E+01  0.57440403431E+01  0.15314037770E+02  0.51100000000E-03 0. -1.
        -11    1    3    3    0    0  0.43127778480E+01 -0.75876314662E-01  0.22204599730E+01  0.48514176005E+01  0.51100000000E-03 0.  1.
         12    1    3    3    0    0  0.17210005031E+02  0.29448332904E+01  0.19233854648E+02  0.25976864339E+02  0.00000000000E+00 0. -1.
</event>
<event>
 7    1  0.3980989E-008  0.4614232E+02  0.7816164E-02  0.1320468E+00
        -11   -1    0    0    0    0  0.00000000000E+00  0.00000000000E+00  0.45593999997E+02  0.45594000000E+02  0.51100000000E-03 0.  1.
         11   -1    0    0    0    0 -0.00000000000E+00 -0.00000000000E+00 -0.45593999997E+02  0.45594000000E+02  0.51100000000E-03 0. -1.
    9900012    2    1    2    0    0 -0.34248333068E+02 -0.25412323449E+02 -0.14504452303E+02  0.46142316104E+02  0.99999848910E+01 0.  0.
        -12    1    1    2    0    0  0.34248333068E+02  0.25412323449E+02  0.14504452303E+02  0.45045683896E+02  0.00000000000E+00 0.  1.
         11    1    3    3    0    0 -0.19952473885E+02 -0.91682377723E+01 -0.72528983333E+01  0.23124928810E+02  0.51100000000E-03 0. -1.
        -11    1    3    3    0    0 -0.38284559164E+01 -0.63089893136E+01 -0.30634471717E+01  0.79903147434E+01  0.51100000000E-03 0.  1.
         12    1    3    3    0    0 -0.10467403267E+02 -0.99350963630E+01 -0.41881067981E+01  0.15027072551E+02  0.00000000000E+00 0. -1.
</event>
<event>
 7    1  0.3980989E-008  0.4614232E+02  0.7816164E-02  0.1320468E+00
        -11   -1    0    0    0    0  0.00000000000E+00  0.00000000000E+00  0.45593999997E+02  0.45594000000E+02  0.51100000000E-03 0.  1.
         11   -1    0    0    0    0 -0.00000000000E+00 -0.00000000000E+00 -0.45593999997E+02  0.45594000000E+02  0.51100000000E-03 0. -1.
    9900012    2    1    2    0    0 -0.40269979193E+02 -0.13752537675E+02 -0.14775314781E+02  0.46142318259E+02  0.10000004537E+02 0.  0.
        -12    1    1    2    0    0  0.40269979193E+02  0.13752537675E+02  0.14775314781E+02  0.45045681741E+02  0.00000000000E+00 0.  1.
         11    1    3    3    0    0 -0.24383507416E+02 -0.88051127682E+01 -0.11428084313E+02  0.28331723494E+02  0.51100000000E-03 0. -1.
        -11    1    3    3    0    0 -0.13998378669E+02 -0.47132424840E+01 -0.46724721645E+01  0.15491973937E+02  0.51100000000E-03 0.  1.
        -12    1    3    3    0    0 -0.18880931077E+01 -0.23418242244E+00  0.13252416972E+01  0.23186208285E+01  0.00000000000E+00 0.  1.
</event>
<event>
 7    1  0.3980989E-008  0.4614232E+02  0.7816164E-02  0.1320468E+00
        -11   -1    0    0    0    0  0.00000000000E+00  0.00000000000E+00  0.45593999997E+02  0.45594000000E+02  0.51100000000E-03 0. -1.
         11   -1    0    0    0    0 -0.00000000000E+00 -0.00000000000E+00 -0.45593999997E+02  0.45594000000E+02  0.51100000000E-03 0.  1.
    9900012    2    1    2    0    0  0.38411123767E+02 -0.19485429324E+02  0.13191556333E+02  0.46142317149E+02  0.99999944202E+01 0.  0.
        -12    1    1    2    0    0 -0.38411123767E+02  0.19485429324E+02 -0.13191556333E+02  0.45045682851E+02  0.00000000000E+00 0.  1.
         11    1    3    3    0    0  0.20951526812E+02 -0.13397711879E+02  0.47702775775E+01  0.25322336144E+02  0.51100000000E-03 0. -1.
        -11    1    3    3    0    0  0.13541275029E+02 -0.41382952038E+01  0.83596133448E+01  0.16443076116E+02  0.51100000000E-03 0.  1.
        -12    1    3    3    0    0  0.39183219260E+01 -0.19494222412E+01  0.61665410506E-01  0.43769048896E+01  0.00000000000E+00 0.  1.
</event>
<event>
 7    1  0.3980989E-008  0.4614232E+02  0.7816164E-02  0.1320468E+00
        -11   -1    0    0    0    0  0.00000000000E+00  0.00000000000E+00  0.45593999997E+02  0.45594000000E+02  0.51100000000E-03 0. -1.
         11   -1    0    0    0    0 -0.00000000000E+00 -0.00000000000E+00 -0.45593999997E+02  0.45594000000E+02  0.51100000000E-03 0.  1.
    9900012    2    1    2    0    0 -0.11186226358E+02 -0.32161213167E+02  0.29489626399E+02  0.46142319212E+02  0.10000013228E+02 0.  0.
        -12    1    1    2    0    0  0.11186226358E+02  0.32161213167E+02 -0.29489626399E+02  0.45045680788E+02  0.00000000000E+00 0.  1.
         11    1    3    3    0    0 -0.10157711133E+02 -0.20010155714E+02  0.21068229241E+02  0.30780768522E+02  0.51100000000E-03 0. -1.
        -11    1    3    3    0    0 -0.23735343126E+01 -0.10173734109E+02  0.70742194137E+01  0.12616778964E+02  0.51100000000E-03 0.  1.
        -12    1    3    3    0    0  0.13450190879E+01 -0.19773233437E+01  0.13471777449E+01  0.27447717261E+01  0.00000000000E+00 0.  1.
</event>
<event>
 7    1  0.3980989E-008  0.4614232E+02  0.7816164E-02  0.1320468E+00
        -11   -1    0    0    0    0  0.00000000000E+00  0.00000000000E+00  0.45593999997E+02  0.45594000000E+02  0.51100000000E-03 0.  1.
         11   -1    0    0    0    0 -0.00000000000E+00 -0.00000000000E+00 -0.45593999997E+02  0.45594000000E+02  0.51100000000E-03 0. -1.
    9900012    2    1    2    0    0 -0.14483167299E+02 -0.25916611197E+02 -0.33877434477E+02  0.46142318323E+02  0.10000005128E+02 0.  0.
        -12    1    1    2    0    0  0.14483167299E+02  0.25916611197E+02  0.33877434477E+02  0.45045681677E+02  0.00000000000E+00 0.  1.
         11    1    3    3    0    0 -0.55444547413E+00 -0.88995376775E+00  0.27836468880E+00  0.10848569738E+01  0.51100000000E-03 0. -1.
        -11    1    3    3    0    0  0.27878292006E+00 -0.14380120521E+01 -0.44816281587E+00  0.15318122434E+01  0.51100000000E-03 0.  1.
         12    1    3    3    0    0 -0.14207504745E+02 -0.23588645377E+02 -0.33707636350E+02  0.43525649106E+02  0.00000000000E+00 0. -1.
</event>
<event>
 7    1  0.3980989E-008  0.4614232E+02  0.7816164E-02  0.1320468E+00
        -11   -1    0    0    0    0  0.00000000000E+00  0.00000000000E+00  0.45593999997E+02  0.45594000000E+02  0.51100000000E-03 0.  1.
         11   -1    0    0    0    0 -0.00000000000E+00 -0.00000000000E+00 -0.45593999997E+02  0.45594000000E+02  0.51100000000E-03 0. -1.
    9900012    2    1    2    0    0  0.59909748114E+01  0.30427241973E+02 -0.32671159225E+02  0.46142317871E+02  0.10000001006E+02 0.  0.
        -12    1    1    2    0    0 -0.59909748114E+01 -0.30427241973E+02  0.32671159225E+02  0.45045682129E+02  0.00000000000E+00 0.  1.
         11    1    3    3    0    0  0.33716942279E+01  0.14596351590E+02 -0.94381628237E+01  0.17705951526E+02  0.51100000000E-03 0. -1.
        -11    1    3    3    0    0  0.30534240762E+01  0.86818168651E+01 -0.13932728248E+02  0.16697851938E+02  0.51100000000E-03 0.  1.
         12    1    3    3    0    0 -0.43414349276E+00  0.71490735183E+01 -0.93002681540E+01  0.11738514407E+02  0.00000000000E+00 0. -1.
</event>
<event>
 7    1  0.3980989E-008  0.4614232E+02  0.7816164E-02  0.1320468E+00
        -11   -1    0    0    0    0  0.00000000000E+00  0.00000000000E+00  0.45593999997E+02  0.45594000000E+02  0.51100000000E-03 0.  1.
         11   -1    0    0    0    0 -0.00000000000E+00 -0.00000000000E+00 -0.45593999997E+02  0.45594000000E+02  0.51100000000E-03 0. -1.
    9900012    2    1    2    0    0  0.34960394204E+02 -0.24055022840E+02  0.15107622761E+02  0.46142317052E+02  0.99999935346E+01 0.  0.
        -12    1    1    2    0    0 -0.34960394204E+02  0.24055022840E+02 -0.15107622761E+02  0.45045682948E+02  0.00000000000E+00 0.  1.
         11    1    3    3    0    0  0.37127629676E+01 -0.15119779985E+01  0.51941319758E-01  0.40091625663E+01  0.51100000000E-03 0. -1.
        -11    1    3    3    0    0  0.15708335267E+02 -0.12273228222E+02  0.35738660031E+01  0.20252319530E+02  0.51100000000E-03 0.  1.
         12    1    3    3    0    0  0.15539295969E+02 -0.10269816620E+02  0.11481815438E+02  0.21880834956E+02  0.00000000000E+00 0. -1.
</event>
<event>
 7    1  0.3980989E-008  0.4614232E+02  0.7816164E-02  0.1320468E+00
        -11   -1    0    0    0    0  0.00000000000E+00  0.00000000000E+00  0.45593999997E+02  0.45594000000E+02  0.51100000000E-03 0.  1.
         11   -1    0    0    0    0 -0.00000000000E+00 -0.00000000000E+00 -0.45593999997E+02  0.45594000000E+02  0.51100000000E-03 0. -1.
    9900012    2    1    2    0    0  0.18391988492E+02  0.94143160242E+01 -0.40027722647E+02  0.46142321326E+02  0.10000032504E+02 0.  0.
        -12    1    1    2    0    0 -0.18391988492E+02 -0.94143160242E+01  0.40027722647E+02  0.45045678674E+02  0.00000000000E+00 0.  1.
         11    1    3    3    0    0  0.50690782373E+01  0.35433962120E+01 -0.85953640983E+01  0.10589215983E+02  0.51100000000E-03 0.  1.
        -11    1    3    3    0    0  0.45012682378E+01 -0.16553890069E+01 -0.12013341194E+02  0.12935304226E+02  0.51100000000E-03 0. -1.
         12    1    3    3    0    0  0.88216420173E+01  0.75263088191E+01 -0.19419017355E+02  0.22617801117E+02  0.00000000000E+00 0. -1.
</event>
<event>
 7    1  0.3980989E-008  0.4614232E+02  0.7816164E-02  0.1320468E+00
        -11   -1    0    0    0    0  0.00000000000E+00  0.00000000000E+00  0.45593999997E+02  0.45594000000E+02  0.51100000000E-03 0. -1.
         11   -1    0    0    0    0 -0.00000000000E+00 -0.00000000000E+00 -0.45593999997E+02  0.45594000000E+02  0.51100000000E-03 0.  1.
    9900012    2    1    2    0    0 -0.25846669998E+02  0.24993073254E+02  0.27136865213E+02  0.46142317474E+02  0.99999973826E+01 0.  0.
        -12    1    1    2    0    0  0.25846669998E+02 -0.24993073254E+02 -0.27136865213E+02  0.45045682526E+02  0.00000000000E+00 0.  1.
         11    1    3    3    0    0 -0.88520696962E+01  0.93892314335E+01  0.76128603985E+01  0.14982404631E+02  0.51100000000E-03 0. -1.
        -11    1    3    3    0    0 -0.22175273605E+01  0.55021730697E+01  0.24354422594E+01  0.64126995364E+01  0.51100000000E-03 0.  1.
         12    1    3    3    0    0 -0.14777072941E+02  0.10101668750E+02  0.17088562555E+02  0.24747213307E+02  0.00000000000E+00 0. -1.
</event>
<event>
 7    1  0.3980989E-008  0.4614232E+02  0.7816164E-02  0.1320468E+00
        -11   -1    0    0    0    0  0.00000000000E+00  0.00000000000E+00  0.45593999997E+02  0.45594000000E+02  0.51100000000E-03 0.  1.
         11   -1    0    0    0    0 -0.00000000000E+00 -0.00000000000E+00 -0.45593999997E+02  0.45594000000E+02  0.51100000000E-03 0. -1.
    9900012    2    1    2    0    0 -0.68784554591E+01 -0.50665022005E+01 -0.44228168537E+02  0.46142317785E+02  0.10000000217E+02 0.  0.
        -12    1    1    2    0    0  0.68784554591E+01  0.50665022005E+01  0.44228168537E+02  0.45045682215E+02  0.00000000000E+00 0.  1.
         11    1    3    3    0    0 -0.18849881751E+01 -0.16072952547E+01 -0.29169487752E+02  0.29274487090E+02  0.51100000000E-03 0. -1.
        -11    1    3    3    0    0 -0.43611859027E+01 -0.35480317677E+00 -0.97279885014E+01  0.10666751535E+02  0.51100000000E-03 0.  1.
         12    1    3    3    0    0 -0.63228138138E+00 -0.31044037690E+01 -0.53306922844E+01  0.62010791591E+01  0.00000000000E+00 0. -1.
</event>
<event>
 7    1  0.3980989E-008  0.4614232E+02  0.7816164E-02  0.1320468E+00
        -11   -1    0    0    0    0  0.00000000000E+00  0.00000000000E+00  0.45593999997E+02  0.45594000000E+02  0.51100000000E-03 0.  1.
         11   -1    0    0    0    0 -0.00000000000E+00 -0.00000000000E+00 -0.45593999997E+02  0.45594000000E+02  0.51100000000E-03 0. -1.
    9900012    2    1    2    0    0  0.23826322817E+02  0.10660767367E+01 -0.38213653749E+02  0.46142317505E+02  0.99999976649E+01 0.  0.
        -12    1    1    2    0    0 -0.23826322817E+02 -0.10660767367E+01  0.38213653749E+02  0.45045682495E+02  0.00000000000E+00 0.  1.
         11    1    3    3    0    0  0.17752889555E+01  0.80615255449E+00 -0.19131284833E+01  0.27315917834E+01  0.51100000000E-03 0. -1.
        -11    1    3    3    0    0  0.17878494269E+02 -0.33730070235E+01 -0.29280234304E+02  0.34472450665E+02  0.51100000000E-03 0.  1.
        -12    1    3    3    0    0  0.41725395932E+01  0.36329312058E+01 -0.70202909616E+01  0.89382750567E+01  0.00000000000E+00 0.  1.
</event>
<event>
 7    1  0.3980989E-008  0.4614232E+02  0.7816164E-02  0.1320468E+00
        -11   -1    0    0    0    0  0.00000000000E+00  0.00000000000E+00  0.45593999997E+02  0.45594000000E+02  0.51100000000E-03 0. -1.
         11   -1    0    0    0    0 -0.00000000000E+00 -0.00000000000E+00 -0.45593999997E+02  0.45594000000E+02  0.51100000000E-03 0.  1.
    9900012    2    1    2    0    0  0.44179062395E+02  0.77987944647E+01  0.40623604049E+01  0.46142317396E+02  0.99999966717E+01 0.  0.
        -12    1    1    2    0    0 -0.44179062395E+02 -0.77987944647E+01 -0.40623604049E+01  0.45045682604E+02  0.00000000000E+00 0.  1.
         11    1    3    3    0    0  0.19189941608E+02  0.44363049161E+01  0.43674433969E+01  0.20174469567E+02  0.51100000000E-03 0. -1.
        -11    1    3    3    0    0  0.88561130257E+01 -0.16842006992E+01 -0.85246821330E+00  0.90550523043E+01  0.51100000000E-03 0.  1.
        -12    1    3    3    0    0  0.16133007761E+02  0.50466902478E+01  0.54738522126E+00  0.16912795524E+02  0.00000000000E+00 0.  1.
</event>
<event>
 7    1  0.3980989E-008  0.4614232E+02  0.7816164E-02  0.1320468E+00
        -11   -1    0    0    0    0  0.00000000000E+00  0.00000000000E+00  0.45593999997E+02  0.45594000000E+02  0.51100000000E-03 0.  1.
         11   -1    0    0    0    0 -0.00000000000E+00 -0.00000000000E+00 -0.45593999997E+02  0.45594000000E+02  0.51100000000E-03 0. -1.
    9900012    2    1    2    0    0  0.24709709769E+01 -0.21798860808E+02 -0.39342311092E+02  0.46142317941E+02  0.10000001640E+02 0.  0.
        -12    1    1    2    0    0 -0.24709709769E+01  0.21798860808E+02  0.39342311092E+02  0.45045682059E+02  0.00000000000E+00 0.  1.
         11    1    3    3    0    0  0.53664272513E+00 -0.61637686905E+01 -0.44043288772E+01  0.75946127619E+01  0.51100000000E-03 0. -1.
        -11    1    3    3    0    0  0.57775252421E+00 -0.60280738848E+01 -0.18432779575E+02  0.19402031746E+02  0.51100000000E-03 0.  1.
         12    1    3    3    0    0  0.13565757276E+01 -0.96070182325E+01 -0.16505202640E+02  0.19145673433E+02  0.00000000000E+00 0. -1.
</event>
<event>
 7    1  0.3980989E-008  0.4614232E+02  0.7816164E-02  0.1320468E+00
        -11   -1    0    0    0    0  0.00000000000E+00  0.00000000000E+00  0.45593999997E+02  0.45594000000E+02  0.51100000000E-03 0. -1.
         11   -1    0    0    0    0 -0.00000000000E+00 -0.00000000000E+00 -0.45593999997E+02  0.45594000000E+02  0.51100000000E-03 0.  1.
    9900012    2    1    2    0    0  0.43106344070E+02 -0.65140923556E+01  0.11336805405E+02  0.46142318131E+02  0.10000003369E+02 0.  0.
        -12    1    1    2    0    0 -0.43106344070E+02  0.65140923556E+01 -0.11336805405E+02  0.45045681869E+02  0.00000000000E+00 0.  1.
         11    1    3    3    0    0  0.14102530031E+02 -0.31089168181E+01  0.54715665796E+01  0.15442951730E+02  0.51100000000E-03 0. -1.
        -11    1    3    3    0    0  0.22363871072E+02 -0.42923716081E+01  0.71707330713E+01  0.23874392063E+02  0.51100000000E-03 0.  1.
        -12    1    3    3    0    0  0.66399429674E+01  0.88719607062E+00 -0.13054942458E+01  0.68249743372E+01  0.00000000000E+00 0.  1.
</event>
<event>
 7    1  0.3980989E-008  0.4614232E+02  0.7816164E-02  0.1320468E+00
        -11   -1    0    0    0    0  0.00000000000E+00  0.00000000000E+00  0.45593999997E+02  0.45594000000E+02  0.51100000000E-03 0.  1.
         11   -1    0    0    0    0 -0.00000000000E+00 -0.00000000000E+00 -0.45593999997E+02  0.45594000000E+02  0.51100000000E-03 0. -1.
    9900012    2    1    2    0    0  0.86641279582E+01  0.16202378836E+02 -0.41128204075E+02  0.46142319146E+02  0.10000012626E+02 0.  0.
        -12    1    1    2    0    0 -0.86641279582E+01 -0.16202378836E+02  0.41128204075E+02  0.45045680854E+02  0.00000000000E+00 0.  1.
         11    1    3    3    0    0  0.77870788827E+01  0.10736128676E+02 -0.24624119623E+02  0.27968738333E+02  0.51100000000E-03 0. -1.
        -11    1    3    3    0    0  0.49168233798E+00 -0.95969628053E+00 -0.15053549580E+01  0.18517187376E+01  0.51100000000E-03 0.  1.
        -12    1    3    3    0    0  0.38536673750E+00  0.64259464407E+01 -0.14998729494E+02  0.16321862076E+02  0.00000000000E+00 0.  1.
</event>
<event>
 7    1  0.3980989E-008  0.4614232E+02  0.7816164E-02  0.1320468E+00
        -11   -1    0    0    0    0  0.00000000000E+00  0.00000000000E+00  0.45593999997E+02  0.45594000000E+02  0.51100000000E-03 0. -1.
         11   -1    0    0    0    0 -0.00000000000E+00 -0.00000000000E+00 -0.45593999997E+02  0.45594000000E+02  0.51100000000E-03 0.  1.
    9900012    2    1    2    0    0  0.17753095917E+01 -0.29394424468E+02  0.34087089180E+02  0.46142316936E+02  0.99999924746E+01 0.  0.
        -12    1    1    2    0    0 -0.17753095917E+01  0.29394424468E+02 -0.34087089180E+02  0.45045683064E+02  0.00000000000E+00 0.  1.
         11    1    3    3    0    0  0.10971614157E+01 -0.16594103573E+02  0.12504824822E+02  0.20807178585E+02  0.51100000000E-03 0. -1.
        -11    1    3    3    0    0 -0.11045785598E+01 -0.19671752058E+01  0.30288623709E+01  0.37767551692E+01  0.51100000000E-03 0.  1.
        -12    1    3    3    0    0  0.17827267358E+01 -0.10833145690E+02  0.18553401986E+02  0.21558383182E+02  0.00000000000E+00 0.  1.
</event>
<event>
 7    1  0.3980989E-008  0.4614232E+02  0.7816164E-02  0.1320468E+00
        -11   -1    0    0    0    0  0.00000000000E+00  0.00000000000E+00  0.45593999997E+02  0.45594000000E+02  0.51100000000E-03 0.  1.
         11   -1    0    0    0    0 -0.00000000000E+00 -0.00000000000E+00 -0.45593999997E+02  0.45594000000E+02  0.51100000000E-03 0. -1.
    9900012    2    1    2    0    0 -0.87852521534E+01 -0.43976409027E+02  0.42436153039E+01  0.46142317885E+02  0.10000001134E+02 0.  0.
        -12    1    1    2    0    0  0.87852521534E+01  0.43976409027E+02 -0.42436153039E+01  0.45045682115E+02  0.00000000000E+00 0.  1.
         11    1    3    3    0    0 -0.28813059043E+01 -0.27791648196E+01 -0.71627416569E+00  0.40667837108E+01  0.51100000000E-03 0.  1.
        -11    1    3    3    0    0 -0.63298756744E+01 -0.35518037100E+02  0.45883291902E+01  0.36368269831E+02  0.51100000000E-03 0. -1.
        -12    1    3    3    0    0  0.42592942536E+00 -0.56792071076E+01  0.37156027938E+00  0.57072643436E+01  0.00000000000E+00 0.  1.
</event>
<event>
 7    1  0.3980989E-008  0.4614232E+02  0.7816164E-02  0.1320468E+00
        -11   -1    0    0    0    0  0.00000000000E+00  0.00000000000E+00  0.45593999997E+02  0.45594000000E+02  0.51100000000E-03 0.  1.
         11   -1    0    0    0    0 -0.00000000000E+00 -0.00000000000E+00 -0.45593999997E+02  0.45594000000E+02  0.51100000000E-03 0. -1.
    9900012    2    1    2    0    0 -0.57579427331E+01 -0.17554828925E+02 -0.41082689893E+02  0.46142319497E+02  0.10000015832E+02 0.  0.
        -12    1    1    2    0    0  0.57579427331E+01  0.17554828925E+02  0.41082689893E+02  0.45045680503E+02  0.00000000000E+00 0.  1.
         11    1    3    3    0    0  0.12621328666E+01 -0.11199520053E+01 -0.33677399355E+01  0.37668215250E+01  0.51100000000E-03 0. -1.
        -11    1    3    3    0    0  0.36970236644E+00 -0.28195288279E+01 -0.12190429690E+02  0.12517707416E+02  0.51100000000E-03 0.  1.
         12    1    3    3    0    0 -0.73897779661E+01 -0.13615348092E+02 -0.25524520267E+02  0.29857790557E+02  0.00000000000E+00 0. -1.
</event>
<event>
 7    1  0.3980989E-008  0.4614232E+02  0.7816164E-02  0.1320468E+00
        -11   -1    0    0    0    0  0.00000000000E+00  0.00000000000E+00  0.45593999997E+02  0.45594000000E+02  0.51100000000E-03 0.  1.
         11   -1    0    0    0    0 -0.00000000000E+00 -0.00000000000E+00 -0.45593999997E+02  0.45594000000E+02  0.51100000000E-03 0. -1.
    9900012    2    1    2    0    0  0.25130102009E+01  0.13505243968E+02 -0.42899960575E+02  0.46142318162E+02  0.10000003655E+02 0.  0.
        -12    1    1    2    0    0 -0.25130102009E+01 -0.13505243968E+02  0.42899960575E+02  0.45045681838E+02  0.00000000000E+00 0.  1.
         11    1    3    3    0    0  0.17550206071E+01  0.17168056090E+01 -0.91334373601E+01  0.94576528326E+01  0.51100000000E-03 0. -1.
        -11    1    3    3    0    0 -0.63477994470E+00 -0.10316876938E+01 -0.52494693811E+01  0.53874162750E+01  0.51100000000E-03 0.  1.
         12    1    3    3    0    0  0.13927695384E+01  0.12820126053E+02 -0.28517053834E+02  0.31297249054E+02  0.00000000000E+00 0. -1.
</event>
<event>
 7    1  0.3980989E-008  0.4614232E+02  0.7816164E-02  0.1320468E+00
        -11   -1    0    0    0    0  0.00000000000E+00  0.00000000000E+00  0.45593999997E+02  0.45594000000E+02  0.51100000000E-03 0.  1.
         11   -1    0    0    0    0 -0.00000000000E+00 -0.00000000000E+00 -0.45593999997E+02  0.45594000000E+02  0.51100000000E-03 0. -1.
    9900012    2    1    2    0    0 -0.40312402085E+02  0.15595640473E+02 -0.12680684367E+02  0.46142317414E+02  0.99999968360E+01 0.  0.
        -12    1    1    2    0    0  0.40312402085E+02 -0.15595640473E+02  0.12680684367E+02  0.45045682586E+02  0.00000000000E+00 0.  1.
         11    1    3    3    0    0 -0.16403237927E+02  0.67836957982E+01 -0.67168724923E+01  0.18978965185E+02  0.51100000000E-03 0. -1.
        -11    1    3    3    0    0 -0.13816029901E+02  0.76076583146E+01 -0.63228665454E+01  0.16992286158E+02  0.51100000000E-03 0.  1.
         12    1    3    3    0    0 -0.10093134257E+02  0.12042863606E+01  0.35905467065E+00  0.10171066071E+02  0.00000000000E+00 0. -1.
</event>
<event>
 7    1  0.3980989E-008  0.4614231E+02  0.7816164E-02  0.1320468E+00
        -11   -1    0    0    0    0  0.00000000000E+00  0.00000000000E+00  0.45593999997E+02  0.45594000000E+02  0.51100000000E-03 0.  1.
         11   -1    0    0    0    0 -0.00000000000E+00 -0.00000000000E+00 -0.45593999997E+02  0.45594000000E+02  0.51100000000E-03 0. -1.
    9900012    2    1    2    0    0  0.47540919737E+01 -0.17786251690E+02 -0.41111581676E+02  0.46142308890E+02  0.99999191073E+01 0.  0.
        -12    1    1    2    0    0 -0.47540919737E+01  0.17786251690E+02  0.41111581676E+02  0.45045691110E+02  0.00000000000E+00 0.  1.
         11    1    3    3    0    0  0.54417896037E+00 -0.35809699086E+01 -0.39774851965E+01  0.53795785129E+01  0.51100000000E-03 0.  1.
        -11    1    3    3    0    0  0.22032895655E+01 -0.11479433859E+02 -0.18940907932E+02  0.22257355642E+02  0.51100000000E-03 0. -1.
         12    1    3    3    0    0  0.20066234478E+01 -0.27258479218E+01 -0.18193188548E+02  0.18505374735E+02  0.00000000000E+00 0. -1.
</event>
<event>
 7    1  0.3980989E-008  0.4614232E+02  0.7816164E-02  0.1320468E+00
        -11   -1    0    0    0    0  0.00000000000E+00  0.00000000000E+00  0.45593999997E+02  0.45594000000E+02  0.51100000000E-03 0. -1.
         11   -1    0    0    0    0 -0.00000000000E+00 -0.00000000000E+00 -0.45593999997E+02  0.45594000000E+02  0.51100000000E-03 0.  1.
    9900012    2    1    2    0    0 -0.16304780731E+01 -0.43247617828E+02  0.12493942202E+02  0.46142317651E+02  0.99999989980E+01 0.  0.
        -12    1    1    2    0    0  0.16304780731E+01  0.43247617828E+02 -0.12493942202E+02  0.45045682349E+02  0.00000000000E+00 0.  1.
         11    1    3    3    0    0 -0.15602089051E+01 -0.10879241794E+02  0.51412158258E+01  0.12133600219E+02  0.51100000000E-03 0. -1.
        -11    1    3    3    0    0 -0.10837481589E+01 -0.70733005573E+01  0.46851914458E+01  0.85531929705E+01  0.51100000000E-03 0.  1.
         12    1    3    3    0    0  0.10134789909E+01 -0.25295075477E+02  0.26675349299E+01  0.25455524462E+02  0.00000000000E+00 0. -1.
</event>
<event>
 7    1  0.3980989E-008  0.4614232E+02  0.7816164E-02  0.1320468E+00
        -11   -1    0    0    0    0  0.00000000000E+00  0.00000000000E+00  0.45593999997E+02  0.45594000000E+02  0.51100000000E-03 0.  1.
         11   -1    0    0    0    0 -0.00000000000E+00 -0.00000000000E+00 -0.45593999997E+02  0.45594000000E+02  0.51100000000E-03 0. -1.
    9900012    2    1    2    0    0 -0.20029228547E+02  0.39119716775E+02 -0.98788243838E+01  0.46142318653E+02  0.10000008134E+02 0.  0.
        -12    1    1    2    0    0  0.20029228547E+02 -0.39119716775E+02  0.98788243838E+01  0.45045681347E+02  0.00000000000E+00 0.  1.
         11    1    3    3    0    0 -0.92362735188E+00  0.76007048531E+01 -0.14702009525E+01  0.77964923428E+01  0.51100000000E-03 0. -1.
        -11    1    3    3    0    0 -0.10309696309E+02  0.22101739926E+02 -0.39246295485E+01  0.24701810928E+02  0.51100000000E-03 0.  1.
        -12    1    3    3    0    0 -0.87959048866E+01  0.94172719959E+01 -0.44839938828E+01  0.13644015383E+02  0.00000000000E+00 0.  1.
</event>
<event>
 7    1  0.3980989E-008  0.4614232E+02  0.7816164E-02  0.1320468E+00
        -11   -1    0    0    0    0  0.00000000000E+00  0.00000000000E+00  0.45593999997E+02  0.45594000000E+02  0.51100000000E-03 0.  1.
         11   -1    0    0    0    0 -0.00000000000E+00 -0.00000000000E+00 -0.45593999997E+02  0.45594000000E+02  0.51100000000E-03 0. -1.
    9900012    2    1    2    0    0 -0.16872027137E+02  0.40411223965E+02 -0.10553726334E+02  0.46142318059E+02  0.10000002712E+02 0.  0.
        -12    1    1    2    0    0  0.16872027137E+02 -0.40411223965E+02  0.10553726334E+02  0.45045681941E+02  0.00000000000E+00 0.  1.
         11    1    3    3    0    0 -0.90780675797E+01  0.26704349720E+02 -0.99914044689E+01  0.29922596286E+02  0.51100000000E-03 0. -1.
        -11    1    3    3    0    0 -0.28584785832E+01  0.25667203447E+01 -0.11820390008E+01  0.40194737963E+01  0.51100000000E-03 0.  1.
         12    1    3    3    0    0 -0.49354809737E+01  0.11140153900E+02  0.61971713607E+00  0.12200247977E+02  0.00000000000E+00 0. -1.
</event>
<event>
 7    1  0.3980989E-008  0.4614232E+02  0.7816164E-02  0.1320468E+00
        -11   -1    0    0    0    0  0.00000000000E+00  0.00000000000E+00  0.45593999997E+02  0.45594000000E+02  0.51100000000E-03 0. -1.
         11   -1    0    0    0    0 -0.00000000000E+00 -0.00000000000E+00 -0.45593999997E+02  0.45594000000E+02  0.51100000000E-03 0.  1.
    9900012    2    1    2    0    0 -0.33107485136E+02 -0.95064870623E+01  0.29028170407E+02  0.46142317127E+02  0.99999942178E+01 0.  0.
        -12    1    1    2    0    0  0.33107485136E+02  0.95064870623E+01 -0.29028170407E+02  0.45045682873E+02  0.00000000000E+00 0.  1.
         11    1    3    3    0    0 -0.65391076935E+00 -0.50722931494E+00 -0.15182920347E+00  0.84138768730E+00  0.51100000000E-03 0. -1.
        -11    1    3    3    0    0 -0.11537154278E+02 -0.25170667177E+00  0.65574722070E+01  0.13272894450E+02  0.51100000000E-03 0.  1.
         12    1    3    3    0    0 -0.20916420089E+02 -0.87475510756E+01  0.22622527404E+02  0.32028034989E+02  0.00000000000E+00 0. -1.
</event>
<event>
 7    1  0.3980989E-008  0.4614233E+02  0.7816164E-02  0.1320468E+00
        -11   -1    0    0    0    0  0.00000000000E+00  0.00000000000E+00  0.45593999997E+02  0.45594000000E+02  0.51100000000E-03 0.  1.
         11   -1    0    0    0    0 -0.00000000000E+00 -0.00000000000E+00 -0.45593999997E+02  0.45594000000E+02  0.51100000000E-03 0. -1.
    9900012    2    1    2    0    0  0.20816417599E+02  0.39844625809E+02  0.28627575263E+01  0.46142325089E+02  0.10000066821E+02 0.  0.
        -12    1    1    2    0    0 -0.20816417599E+02 -0.39844625809E+02 -0.28627575263E+01  0.45045674911E+02  0.00000000000E+00 0.  1.
         11    1    3    3    0    0  0.16838858017E+02  0.28031978240E+02  0.83264213202E+00  0.32711347214E+02  0.51100000000E-03 0. -1.
        -11    1    3    3    0    0  0.10668438892E+01  0.36002331208E+01  0.28000768963E+01  0.46840436905E+01  0.51100000000E-03 0.  1.
        -12    1    3    3    0    0  0.29107156929E+01  0.82124144480E+01 -0.76996150201E+00  0.87469341844E+01  0.00000000000E+00 0.  1.
</event>
<event>
 7    1  0.3980989E-008  0.4614232E+02  0.7816164E-02  0.1320468E+00
        -11   -1    0    0    0    0  0.00000000000E+00  0.00000000000E+00  0.45593999997E+02  0.45594000000E+02  0.51100000000E-03 0.  1.
         11   -1    0    0    0    0 -0.00000000000E+00 -0.00000000000E+00 -0.45593999997E+02  0.45594000000E+02  0.51100000000E-03 0. -1.
    9900012    2    1    2    0    0 -0.16129018863E+02  0.17737635800E+00 -0.42058731246E+02  0.46142316678E+02  0.99999901257E+01 0.  0.
        -12    1    1    2    0    0  0.16129018863E+02 -0.17737635800E+00  0.42058731246E+02  0.45045683322E+02  0.00000000000E+00 0.  1.
         11    1    3    3    0    0 -0.30942827419E+01  0.20823940048E+01 -0.57446395978E+01  0.68492214775E+01  0.51100000000E-03 0. -1.
        -11    1    3    3    0    0 -0.34077781830E+01 -0.47035120922E+00 -0.29290281224E+01  0.45181177948E+01  0.51100000000E-03 0.  1.
         12    1    3    3    0    0 -0.96269579383E+01 -0.14346664376E+01 -0.33385063526E+02  0.34774977406E+02  0.00000000000E+00 0. -1.
</event>
<event>
 7    1  0.3980989E-008  0.4614232E+02  0.7816164E-02  0.1320468E+00
        -11   -1    0    0    0    0  0.00000000000E+00  0.00000000000E+00  0.45593999997E+02  0.45594000000E+02  0.51100000000E-03 0.  1.
         11   -1    0    0    0    0 -0.00000000000E+00 -0.00000000000E+00 -0.45593999997E+02  0.45594000000E+02  0.51100000000E-03 0. -1.
    9900012    2    1    2    0    0  0.28718295547E+02 -0.29843428785E+02 -0.17712788640E+02  0.46142316275E+02  0.99999864525E+01 0.  0.
        -12    1    1    2    0    0 -0.28718295547E+02  0.29843428785E+02  0.17712788640E+02  0.45045683725E+02  0.00000000000E+00 0.  1.
         11    1    3    3    0    0  0.67439112998E+01 -0.57802600416E+01 -0.58178630643E+01  0.10617875337E+02  0.51100000000E-03 0. -1.
        -11    1    3    3    0    0  0.13263019173E+02 -0.91721473487E+01 -0.44028680162E+01  0.16715896973E+02  0.51100000000E-03 0.  1.
         12    1    3    3    0    0  0.87113650740E+01 -0.14891021395E+02 -0.74920575597E+01  0.18808543966E+02  0.00000000000E+00 0. -1.
</event>
<event>
 7    1  0.3980989E-008  0.4614232E+02  0.7816164E-02  0.1320468E+00
        -11   -1    0    0    0    0  0.00000000000E+00  0.00000000000E+00  0.45593999997E+02  0.45594000000E+02  0.51100000000E-03 0. -1.
         11   -1    0    0    0    0 -0.00000000000E+00 -0.00000000000E+00 -0.45593999997E+02  0.45594000000E+02  0.51100000000E-03 0.  1.
    9900012    2    1    2    0    0  0.42482559184E+02 -0.14510381394E+02 -0.37141001055E+01  0.46142317159E+02  0.99999945128E+01 0.  0.
        -12    1    1    2    0    0 -0.42482559184E+02  0.14510381394E+02  0.37141001055E+01  0.45045682841E+02  0.00000000000E+00 0.  1.
         11    1    3    3    0    0  0.77056404002E+01 -0.21576683566E+01  0.10391322679E+01  0.80692145123E+01  0.51100000000E-03 0. -1.
        -11    1    3    3    0    0  0.61590030158E+01  0.50936957475E+00 -0.23283790103E+01  0.66040990748E+01  0.51100000000E-03 0.  1.
        -12    1    3    3    0    0  0.28617915768E+02 -0.12862082612E+02 -0.24248533631E+01  0.31469003572E+02  0.00000000000E+00 0.  1.
</event>
<event>
 7    1  0.3980989E-008  0.4614232E+02  0.7816164E-02  0.1320468E+00
        -11   -1    0    0    0    0  0.00000000000E+00  0.00000000000E+00  0.45593999997E+02  0.45594000000E+02  0.51100000000E-03 0.  1.
         11   -1    0    0    0    0 -0.00000000000E+00 -0.00000000000E+00 -0.45593999997E+02  0.45594000000E+02  0.51100000000E-03 0. -1.
    9900012    2    1    2    0    0 -0.14492739099E+02  0.33171256996E+01 -0.42521414047E+02  0.46142318053E+02  0.10000002663E+02 0.  0.
        -12    1    1    2    0    0  0.14492739099E+02 -0.33171256996E+01  0.42521414047E+02  0.45045681947E+02  0.00000000000E+00 0.  1.
         11    1    3    3    0    0 -0.62146185518E+01 -0.20896735896E+01 -0.19674823377E+02  0.20738536463E+02  0.51100000000E-03 0. -1.
        -11    1    3    3    0    0 -0.79195353593E+00  0.10722743598E+01 -0.88493752192E+01  0.89492125205E+01  0.51100000000E-03 0.  1.
         12    1    3    3    0    0 -0.74861670115E+01  0.43345249294E+01 -0.13997215451E+02  0.16454569070E+02  0.00000000000E+00 0. -1.
</event>
<event>
 7    1  0.3980989E-008  0.4614231E+02  0.7816164E-02  0.1320468E+00
        -11   -1    0    0    0    0  0.00000000000E+00  0.00000000000E+00  0.45593999997E+02  0.45594000000E+02  0.51100000000E-03 0. -1.
         11   -1    0    0    0    0 -0.00000000000E+00 -0.00000000000E+00 -0.45593999997E+02  0.45594000000E+02  0.51100000000E-03 0.  1.
    9900012    2    1    2    0    0  0.24322344269E+02  0.33107195468E+02  0.18478391155E+02  0.46142314722E+02  0.99999722875E+01 0.  0.
        -12    1    1    2    0    0 -0.24322344269E+02 -0.33107195468E+02 -0.18478391155E+02  0.45045685278E+02  0.00000000000E+00 0.  1.
         11    1    3    3    0    0  0.37029410066E+01  0.94250256913E+01  0.78824108796E+01  0.12832586759E+02  0.51100000000E-03 0. -1.
        -11    1    3    3    0    0  0.62858616279E+01  0.54220058788E+01  0.18642722997E+01  0.85079795265E+01  0.51100000000E-03 0.  1.
        -12    1    3    3    0    0  0.14333541635E+02  0.18260163898E+02  0.87317079754E+01  0.24801748437E+02  0.00000000000E+00 0.  1.
</event>
<event>
 7    1  0.3980989E-008  0.4614232E+02  0.7816164E-02  0.1320468E+00
        -11   -1    0    0    0    0  0.00000000000E+00  0.00000000000E+00  0.45593999997E+02  0.45594000000E+02  0.51100000000E-03 0. -1.
         11   -1    0    0    0    0 -0.00000000000E+00 -0.00000000000E+00 -0.45593999997E+02  0.45594000000E+02  0.51100000000E-03 0.  1.
    9900012    2    1    2    0    0 -0.31958326188E+02  0.28036948735E+02  0.14889878712E+02  0.46142316576E+02  0.99999891912E+01 0.  0.
        -12    1    1    2    0    0  0.31958326188E+02 -0.28036948735E+02 -0.14889878712E+02  0.45045683424E+02  0.00000000000E+00 0.  1.
         11    1    3    3    0    0 -0.24797135475E+02  0.23742545767E+02  0.80027428643E+01  0.35251245380E+02  0.51100000000E-03 0. -1.
        -11    1    3    3    0    0 -0.40247957422E+01  0.29809464072E+01  0.45343017697E+01  0.67561020603E+01  0.51100000000E-03 0.  1.
        -12    1    3    3    0    0 -0.31363949705E+01  0.13134565610E+01  0.23528340783E+01  0.41349691351E+01  0.00000000000E+00 0.  1.
</event>
<event>
 7    1  0.3980989E-008  0.4614232E+02  0.7816164E-02  0.1320468E+00
        -11   -1    0    0    0    0  0.00000000000E+00  0.00000000000E+00  0.45593999997E+02  0.45594000000E+02  0.51100000000E-03 0.  1.
         11   -1    0    0    0    0 -0.00000000000E+00 -0.00000000000E+00 -0.45593999997E+02  0.45594000000E+02  0.51100000000E-03 0. -1.
    9900012    2    1    2    0    0  0.34563332973E+02  0.92016990815E+01 -0.27382808814E+02  0.46142317957E+02  0.10000001788E+02 0.  0.
        -12    1    1    2    0    0 -0.34563332973E+02 -0.92016990815E+01  0.27382808814E+02  0.45045682043E+02  0.00000000000E+00 0.  1.
         11    1    3    3    0    0  0.37924019309E+01 -0.70083920573E+00 -0.27021845679E+01  0.47090646309E+01  0.51100000000E-03 0. -1.
        -11    1    3    3    0    0  0.18725565426E+02  0.62449360482E+01 -0.19721821251E+02  0.27903337802E+02  0.51100000000E-03 0.  1.
        -12    1    3    3    0    0  0.12045365616E+02  0.36576022390E+01 -0.49588029950E+01  0.13529915525E+02  0.00000000000E+00 0.  1.
</event>
<event>
 7    1  0.3980989E-008  0.4614232E+02  0.7816164E-02  0.1320468E+00
        -11   -1    0    0    0    0  0.00000000000E+00  0.00000000000E+00  0.45593999997E+02  0.45594000000E+02  0.51100000000E-03 0.  1.
         11   -1    0    0    0    0 -0.00000000000E+00 -0.00000000000E+00 -0.45593999997E+02  0.45594000000E+02  0.51100000000E-03 0. -1.
    9900012    2    1    2    0    0  0.26141513676E+02  0.65031474434E+00 -0.36678493337E+02  0.46142317410E+02  0.99999967965E+01 0.  0.
        -12    1    1    2    0    0 -0.26141513676E+02 -0.65031474434E+00  0.36678493337E+02  0.45045682590E+02  0.00000000000E+00 0.  1.
         11    1    3    3    0    0  0.10532123199E+02 -0.10179898434E+01 -0.15138014230E+02  0.18469472041E+02  0.51100000000E-03 0. -1.
        -11    1    3    3    0    0  0.83639879643E+01  0.44986973897E+01 -0.13279065183E+02  0.16325689733E+02  0.51100000000E-03 0.  1.
        -12    1    3    3    0    0  0.72454025119E+01 -0.28303928020E+01 -0.82614139246E+01  0.11347155635E+02  0.00000000000E+00 0.  1.
</event>
<event>
 7    1  0.3980989E-008  0.4614232E+02  0.7816164E-02  0.1320468E+00
        -11   -1    0    0    0    0  0.00000000000E+00  0.00000000000E+00  0.45593999997E+02  0.45594000000E+02  0.51100000000E-03 0. -1.
         11   -1    0    0    0    0 -0.00000000000E+00 -0.00000000000E+00 -0.45593999997E+02  0.45594000000E+02  0.51100000000E-03 0.  1.
    9900012    2    1    2    0    0 -0.43050506905E+02  0.14798854084E+01  0.13174859191E+02  0.46142321847E+02  0.10000037255E+02 0.  0.
        -12    1    1    2    0    0  0.43050506905E+02 -0.14798854084E+01 -0.13174859191E+02  0.45045678153E+02  0.00000000000E+00 0.  1.
         11    1    3    3    0    0 -0.23718527534E+02  0.26575884627E+01  0.48246608141E+01  0.24349716160E+02  0.51100000000E-03 0. -1.
        -11    1    3    3    0    0 -0.18920124354E+02 -0.12641535598E+01  0.90225451446E+01  0.20999416919E+02  0.51100000000E-03 0.  1.
        -12    1    3    3    0    0 -0.41185501621E+00  0.86450505506E-01 -0.67234676784E+00  0.79318876725E+00  0.00000000000E+00 0.  1.
</event>
<event>
 7    1  0.3980989E-008  0.4614232E+02  0.7816164E-02  0.1320468E+00
        -11   -1    0    0    0    0  0.00000000000E+00  0.00000000000E+00  0.45593999997E+02  0.45594000000E+02  0.51100000000E-03 0.  1.
         11   -1    0    0    0    0 -0.00000000000E+00 -0.00000000000E+00 -0.45593999997E+02  0.45594000000E+02  0.51100000000E-03 0. -1.
    9900012    2    1    2    0    0  0.23508866849E+02  0.10255773451E+01 -0.38410868922E+02  0.46142317845E+02  0.10000000768E+02 0.  0.
        -12    1    1    2    0    0 -0.23508866849E+02 -0.10255773451E+01  0.38410868922E+02  0.45045682155E+02  0.00000000000E+00 0.  1.
         11    1    3    3    0    0  0.99472984844E+00  0.10824388720E+00  0.28471764247E-01  0.10010070494E+01  0.51100000000E-03 0.  1.
        -11    1    3    3    0    0  0.13237424592E+02 -0.16011110460E+01 -0.16689016830E+02  0.21361560089E+02  0.51100000000E-03 0. -1.
         12    1    3    3    0    0  0.92767124083E+01  0.25184445039E+01 -0.21750323857E+02  0.23779750707E+02  0.00000000000E+00 0. -1.
</event>
<event>
 7    1  0.3980989E-008  0.4614232E+02  0.7816164E-02  0.1320468E+00
        -11   -1    0    0    0    0  0.00000000000E+00  0.00000000000E+00  0.45593999997E+02  0.45594000000E+02  0.51100000000E-03 0.  1.
         11   -1    0    0    0    0 -0.00000000000E+00 -0.00000000000E+00 -0.45593999997E+02  0.45594000000E+02  0.51100000000E-03 0. -1.
    9900012    2    1    2    0    0 -0.18752245733E+02  0.36085538527E+02  0.19372675257E+02  0.46142319215E+02  0.10000013253E+02 0.  0.
        -12    1    1    2    0    0  0.18752245733E+02 -0.36085538527E+02 -0.19372675257E+02  0.45045680785E+02  0.00000000000E+00 0.  1.
         11    1    3    3    0    0 -0.80617054205E+01  0.16032582803E+02  0.81184773944E+01  0.19696306280E+02  0.51100000000E-03 0. -1.
        -11    1    3    3    0    0 -0.53726476818E+00  0.86298715706E+01  0.42353347693E+01  0.96281565020E+01  0.51100000000E-03 0.  1.
        -12    1    3    3    0    0 -0.10153275545E+02  0.11423084154E+02  0.70188630931E+01  0.16817856433E+02  0.00000000000E+00 0.  1.
</event>
<event>
 7    1  0.3980989E-008  0.4614232E+02  0.7816164E-02  0.1320468E+00
        -11   -1    0    0    0    0  0.00000000000E+00  0.00000000000E+00  0.45593999997E+02  0.45594000000E+02  0.51100000000E-03 0.  1.
         11   -1    0    0    0    0 -0.00000000000E+00 -0.00000000000E+00 -0.45593999997E+02  0.45594000000E+02  0.51100000000E-03 0. -1.
    9900012    2    1    2    0    0 -0.42986693066E+02 -0.13223746978E+02 -0.25279364635E+01  0.46142315105E+02  0.99999757806E+01 0.  0.
        -12    1    1    2    0    0  0.42986693066E+02  0.13223746978E+02  0.25279364635E+01  0.45045684895E+02  0.00000000000E+00 0.  1.
         11    1    3    3    0    0 -0.17058862019E+02 -0.78728244334E+01 -0.20784169494E+01  0.18902538327E+02  0.51100000000E-03 0. -1.
        -11    1    3    3    0    0 -0.17217944173E+01  0.98493657664E+00 -0.98037688198E+00  0.22126489029E+01  0.51100000000E-03 0.  1.
         12    1    3    3    0    0 -0.24206036630E+02 -0.63358591215E+01  0.53085736784E+00  0.25027127875E+02  0.00000000000E+00 0. -1.
</event>
<event>
 7    1  0.3980989E-008  0.4614232E+02  0.7816164E-02  0.1320468E+00
        -11   -1    0    0    0    0  0.00000000000E+00  0.00000000000E+00  0.45593999997E+02  0.45594000000E+02  0.51100000000E-03 0.  1.
         11   -1    0    0    0    0 -0.00000000000E+00 -0.00000000000E+00 -0.45593999997E+02  0.45594000000E+02  0.51100000000E-03 0. -1.
    9900012    2    1    2    0    0  0.35963754861E+02  0.25133824976E+02  0.10198659728E+02  0.46142317834E+02  0.10000000663E+02 0.  0.
        -12    1    1    2    0    0 -0.35963754861E+02 -0.25133824976E+02 -0.10198659728E+02  0.45045682166E+02  0.00000000000E+00 0.  1.
         11    1    3    3    0    0  0.27736549417E+01  0.12604032455E+01  0.14501635933E+01  0.33741299301E+01  0.51100000000E-03 0. -1.
        -11    1    3    3    0    0  0.57487870329E+01  0.30047108668E+01  0.47963899964E+01  0.80673537794E+01  0.51100000000E-03 0.  1.
         12    1    3    3    0    0  0.27441312886E+02  0.20868710863E+02  0.39521061379E+01  0.34700834124E+02  0.00000000000E+00 0. -1.
</event>
<event>
 7    1  0.3980989E-008  0.4614232E+02  0.7816164E-02  0.1320468E+00
        -11   -1    0    0    0    0  0.00000000000E+00  0.00000000000E+00  0.45593999997E+02  0.45594000000E+02  0.51100000000E-03 0.  1.
         11   -1    0    0    0    0 -0.00000000000E+00 -0.00000000000E+00 -0.45593999997E+02  0.45594000000E+02  0.51100000000E-03 0. -1.
    9900012    2    1    2    0    0 -0.38502399811E+02  0.19294176319E+02 -0.13206564616E+02  0.46142318964E+02  0.10000010973E+02 0.  0.
        -12    1    1    2    0    0  0.38502399811E+02 -0.19294176319E+02  0.13206564616E+02  0.45045681036E+02  0.00000000000E+00 0.  1.
         11    1    3    3    0    0 -0.47984677022E+01  0.28976595799E+01  0.12117228304E+01  0.57349800182E+01  0.51100000000E-03 0.  1.
        -11    1    3    3    0    0 -0.23080552342E+02  0.10483863723E+02 -0.75839114131E+01  0.26460139976E+02  0.51100000000E-03 0. -1.
         12    1    3    3    0    0 -0.10623379767E+02  0.59126530152E+01 -0.68343760328E+01  0.13947198970E+02  0.00000000000E+00 0. -1.
</event>
<event>
 7    1  0.3980989E-008  0.4614232E+02  0.7816164E-02  0.1320468E+00
        -11   -1    0    0    0    0  0.00000000000E+00  0.00000000000E+00  0.45593999997E+02  0.45594000000E+02  0.51100000000E-03 0. -1.
         11   -1    0    0    0    0 -0.00000000000E+00 -0.00000000000E+00 -0.45593999997E+02  0.45594000000E+02  0.51100000000E-03 0.  1.
    9900012    2    1    2    0    0  0.14063506423E+02 -0.17804386519E+02  0.38914458055E+02  0.46142318321E+02  0.10000005104E+02 0.  0.
        -12    1    1    2    0    0 -0.14063506423E+02  0.17804386519E+02 -0.38914458055E+02  0.45045681679E+02  0.00000000000E+00 0.  1.
         11    1    3    3    0    0  0.58584189377E+01 -0.87678670218E+01  0.16210305459E+02  0.19338318642E+02  0.51100000000E-03 0. -1.
        -11    1    3    3    0    0  0.91249760251E+01 -0.57096732862E+01  0.17926595514E+02  0.20910006778E+02  0.51100000000E-03 0.  1.
        -12    1    3    3    0    0 -0.91988853970E+00 -0.33268462113E+01  0.47775570820E+01  0.58939929005E+01  0.00000000000E+00 0.  1.
</event>
<event>
 7    1  0.3980989E-008  0.4614232E+02  0.7816164E-02  0.1320468E+00
        -11   -1    0    0    0    0  0.00000000000E+00  0.00000000000E+00  0.45593999997E+02  0.45594000000E+02  0.51100000000E-03 0. -1.
         11   -1    0    0    0    0 -0.00000000000E+00 -0.00000000000E+00 -0.45593999997E+02  0.45594000000E+02  0.51100000000E-03 0.  1.
    9900012    2    1    2    0    0  0.23544317165E+02 -0.32784119838E+02 -0.19999496799E+02  0.46142320334E+02  0.10000023461E+02 0.  0.
        -12    1    1    2    0    0 -0.23544317165E+02  0.32784119838E+02  0.19999496799E+02  0.45045679666E+02  0.00000000000E+00 0.  1.
         11    1    3    3    0    0  0.18570226975E+02 -0.24350800307E+02 -0.14392060275E+02  0.33837053724E+02  0.51100000000E-03 0. -1.
        -11    1    3    3    0    0 -0.94903332398E+00 -0.15255430710E+01 -0.47605822256E+00  0.18586494032E+01  0.51100000000E-03 0.  1.
        -12    1    3    3    0    0  0.59231235138E+01 -0.69077764605E+01 -0.51313783016E+01  0.10446617207E+02  0.00000000000E+00 0.  1.
</event>
<event>
 7    1  0.3980989E-008  0.4614232E+02  0.7816164E-02  0.1320468E+00
        -11   -1    0    0    0    0  0.00000000000E+00  0.00000000000E+00  0.45593999997E+02  0.45594000000E+02  0.51100000000E-03 0.  1.
         11   -1    0    0    0    0 -0.00000000000E+00 -0.00000000000E+00 -0.45593999997E+02  0.45594000000E+02  0.51100000000E-03 0. -1.
    9900012    2    1    2    0    0  0.42692414176E+01 -0.36577060566E+02 -0.25942354317E+02  0.46142317306E+02  0.99999958458E+01 0.  0.
        -12    1    1    2    0    0 -0.42692414176E+01  0.36577060566E+02  0.25942354317E+02  0.45045682694E+02  0.00000000000E+00 0.  1.
         11    1    3    3    0    0 -0.10885117448E+01 -0.11327871091E+02 -0.63938947304E+01  0.13053252903E+02  0.51100000000E-03 0. -1.
        -11    1    3    3    0    0  0.23949800747E+01 -0.21487827914E+02 -0.13988330374E+02  0.25751428406E+02  0.51100000000E-03 0.  1.
        -12    1    3    3    0    0  0.29627730877E+01 -0.37613615610E+01 -0.55601292128E+01  0.73376359970E+01  0.00000000000E+00 0.  1.
</event>
<event>
 7    1  0.3980989E-008  0.4614232E+02  0.7816164E-02  0.1320468E+00
        -11   -1    0    0    0    0  0.00000000000E+00  0.00000000000E+00  0.45593999997E+02  0.45594000000E+02  0.51100000000E-03 0.  1.
         11   -1    0    0    0    0 -0.00000000000E+00 -0.00000000000E+00 -0.45593999997E+02  0.45594000000E+02  0.51100000000E-03 0. -1.
    9900012    2    1    2    0    0  0.11592652659E+02  0.49721595452E+01 -0.43243514545E+02  0.46142317450E+02  0.99999971620E+01 0.  0.
        -12    1    1    2    0    0 -0.11592652659E+02 -0.49721595452E+01  0.43243514545E+02  0.45045682550E+02  0.00000000000E+00 0.  1.
         11    1    3    3    0    0  0.21915320200E+01  0.38793122145E+01 -0.15885504706E+02  0.16498519202E+02  0.51100000000E-03 0. -1.
        -11    1    3    3    0    0  0.37004120412E+01  0.36009368622E+00 -0.35101960224E+01  0.51131392621E+01  0.51100000000E-03 0.  1.
         12    1    3    3    0    0  0.57007085976E+01  0.73275364440E+00 -0.23847813817E+02  0.24530658986E+02  0.00000000000E+00 0. -1.
</event>
<event>
 7    1  0.3980989E-008  0.4614232E+02  0.7816164E-02  0.1320468E+00
        -11   -1    0    0    0    0  0.00000000000E+00  0.00000000000E+00  0.45593999997E+02  0.45594000000E+02  0.51100000000E-03 0.  1.
         11   -1    0    0    0    0 -0.00000000000E+00 -0.00000000000E+00 -0.45593999997E+02  0.45594000000E+02  0.51100000000E-03 0. -1.
    9900012    2    1    2    0    0 -0.55297778090E+01 -0.37332707211E+02 -0.24592763348E+02  0.46142317860E+02  0.10000000906E+02 0.  0.
        -12    1    1    2    0    0  0.55297778090E+01  0.37332707211E+02  0.24592763348E+02  0.45045682140E+02  0.00000000000E+00 0.  1.
         11    1    3    3    0    0 -0.28365826454E+01 -0.19249280652E+02 -0.12227116746E+02  0.22980065076E+02  0.51100000000E-03 0. -1.
        -11    1    3    3    0    0 -0.40413936027E+01 -0.16293129912E+02 -0.88074241480E+01  0.18957047897E+02  0.51100000000E-03 0.  1.
        -12    1    3    3    0    0  0.13481984391E+01 -0.17902966474E+01 -0.35582224531E+01  0.42052048871E+01  0.00000000000E+00 0.  1.
</event>
<event>
 7    1  0.3980989E-008  0.4614232E+02  0.7816164E-02  0.1320468E+00
        -11   -1    0    0    0    0  0.00000000000E+00  0.00000000000E+00  0.45593999997E+02  0.45594000000E+02  0.51100000000E-03 0.  1.
         11   -1    0    0    0    0 -0.00000000000E+00 -0.00000000000E+00 -0.45593999997E+02  0.45594000000E+02  0.51100000000E-03 0. -1.
    9900012    2    1    2    0    0  0.28855151635E+02  0.17327246248E+02 -0.29937603659E+02  0.46142319283E+02  0.10000013877E+02 0.  0.
        -12    1    1    2    0    0 -0.28855151635E+02 -0.17327246248E+02  0.29937603659E+02  0.45045680717E+02  0.00000000000E+00 0.  1.
         11    1    3    3    0    0  0.22556027981E+01 -0.39566763759E+00 -0.35208171223E+01  0.42000536106E+01  0.51100000000E-03 0. -1.
        -11    1    3    3    0    0  0.25739673721E+02  0.15271991673E+02 -0.24910866815E+02  0.38939900085E+02  0.51100000000E-03 0.  1.
        -12    1    3    3    0    0  0.85987511525E+00  0.24509222131E+01 -0.15059197223E+01  0.30023655870E+01  0.00000000000E+00 0.  1.
</event>
<event>
 7    1  0.3980989E-008  0.4614232E+02  0.7816164E-02  0.1320468E+00
        -11   -1    0    0    0    0  0.00000000000E+00  0.00000000000E+00  0.45593999997E+02  0.45594000000E+02  0.51100000000E-03 0. -1.
         11   -1    0    0    0    0 -0.00000000000E+00 -0.00000000000E+00 -0.45593999997E+02  0.45594000000E+02  0.51100000000E-03 0.  1.
    9900012    2    1    2    0    0  0.19177584507E+02 -0.14867878320E+02  0.37951019512E+02  0.46142318350E+02  0.10000005372E+02 0.  0.
        -12    1    1    2    0    0 -0.19177584507E+02  0.14867878320E+02 -0.37951019512E+02  0.45045681650E+02  0.00000000000E+00 0.  1.
         11    1    3    3    0    0  0.75682257264E+01 -0.82483828291E+00  0.99600263750E+01  0.12536368074E+02  0.51100000000E-03 0. -1.
        -11    1    3    3    0    0  0.50761182400E+01 -0.56335599679E+01  0.15001881946E+02  0.16809534095E+02  0.51100000000E-03 0.  1.
        -12    1    3    3    0    0  0.65332405410E+01 -0.84094800690E+01  0.12989111191E+02  0.16796416181E+02  0.00000000000E+00 0.  1.
</event>
<event>
 7    1  0.3980989E-008  0.4614232E+02  0.7816164E-02  0.1320468E+00
        -11   -1    0    0    0    0  0.00000000000E+00  0.00000000000E+00  0.45593999997E+02  0.45594000000E+02  0.51100000000E-03 0.  1.
         11   -1    0    0    0    0 -0.00000000000E+00 -0.00000000000E+00 -0.45593999997E+02  0.45594000000E+02  0.51100000000E-03 0. -1.
    9900012    2    1    2    0    0  0.12834553614E+02 -0.37980828310E+02 -0.20538850554E+02  0.46142317991E+02  0.10000002097E+02 0.  0.
        -12    1    1    2    0    0 -0.12834553614E+02  0.37980828310E+02  0.20538850554E+02  0.45045682009E+02  0.00000000000E+00 0.  1.
         11    1    3    3    0    0  0.48732208529E+00 -0.82530955497E+01 -0.67501401663E+01  0.10673118639E+02  0.51100000000E-03 0.  1.
        -11    1    3    3    0    0  0.63250282827E+01 -0.17907425849E+02 -0.52909002125E+01  0.19714855024E+02  0.51100000000E-03 0. -1.
         12    1    3    3    0    0  0.60222032457E+01 -0.11820306911E+02 -0.84978101749E+01  0.15754344327E+02  0.00000000000E+00 0. -1.
</event>
<event>
 7    1  0.3980989E-008  0.4614232E+02  0.7816164E-02  0.1320468E+00
        -11   -1    0    0    0    0  0.00000000000E+00  0.00000000000E+00  0.45593999997E+02  0.45594000000E+02  0.51100000000E-03 0.  1.
         11   -1    0    0    0    0 -0.00000000000E+00 -0.00000000000E+00 -0.45593999997E+02  0.45594000000E+02  0.51100000000E-03 0. -1.
    9900012    2    1    2    0    0  0.33937448425E+02 -0.14374608165E+02 -0.25898527923E+02  0.46142317475E+02  0.99999973920E+01 0.  0.
        -12    1    1    2    0    0 -0.33937448425E+02  0.14374608165E+02  0.25898527923E+02  0.45045682525E+02  0.00000000000E+00 0.  1.
         11    1    3    3    0    0  0.24251148959E+02 -0.90070363677E+01 -0.18517431589E+02  0.31814150985E+02  0.51100000000E-03 0. -1.
        -11    1    3    3    0    0  0.24707336876E+01 -0.23875099365E+01 -0.51821112669E+01  0.62176366970E+01  0.51100000000E-03 0.  1.
        -12    1    3    3    0    0  0.72155657787E+01 -0.29800618613E+01 -0.21989850677E+01  0.81105297935E+01  0.00000000000E+00 0.  1.
</event>
<event>
 7    1  0.3980989E-008  0.4614232E+02  0.7816164E-02  0.1320468E+00
        -11   -1    0    0    0    0  0.00000000000E+00  0.00000000000E+00  0.45593999997E+02  0.45594000000E+02  0.51100000000E-03 0. -1.
         11   -1    0    0    0    0 -0.00000000000E+00 -0.00000000000E+00 -0.45593999997E+02  0.45594000000E+02  0.51100000000E-03 0.  1.
    9900012    2    1    2    0    0  0.33366495937E+02 -0.86790070764E+01  0.28990781219E+02  0.46142316403E+02  0.99999876192E+01 0.  0.
        -12    1    1    2    0    0 -0.33366495937E+02  0.86790070764E+01 -0.28990781219E+02  0.45045683597E+02  0.00000000000E+00 0.  1.
         11    1    3    3    0    0  0.61737425412E+01 -0.19333338262E+01  0.10203114650E+02  0.12081242713E+02  0.51100000000E-03 0. -1.
        -11    1    3    3    0    0  0.74730893126E+01 -0.40082742412E+01  0.62313600363E+01  0.10523458292E+02  0.51100000000E-03 0.  1.
        -12    1    3    3    0    0  0.19719664084E+02 -0.27373990090E+01  0.12556306533E+02  0.23537615399E+02  0.00000000000E+00 0.  1.
</event>
<event>
 7    1  0.3980989E-008  0.4614232E+02  0.7816164E-02  0.1320468E+00
        -11   -1    0    0    0    0  0.00000000000E+00  0.00000000000E+00  0.45593999997E+02  0.45594000000E+02  0.51100000000E-03 0.  1.
         11   -1    0    0    0    0 -0.00000000000E+00 -0.00000000000E+00 -0.45593999997E+02  0.45594000000E+02  0.51100000000E-03 0. -1.
    9900012    2    1    2    0    0  0.22056591909E+02 -0.31891957553E+02 -0.22924293917E+02  0.46142318134E+02  0.10000003398E+02 0.  0.
        -12    1    1    2    0    0 -0.22056591909E+02  0.31891957553E+02  0.22924293917E+02  0.45045681866E+02  0.00000000000E+00 0.  1.
         11    1    3    3    0    0 -0.39309905676E+00 -0.13299405829E+00  0.24358184255E+00  0.48119295829E+00  0.51100000000E-03 0. -1.
        -11    1    3    3    0    0  0.74407300181E+01 -0.11056065565E+02 -0.11289670196E+02  0.17465901133E+02  0.51100000000E-03 0.  1.
         12    1    3    3    0    0  0.15008960947E+02 -0.20702897929E+02 -0.11878205564E+02  0.28195224042E+02  0.00000000000E+00 0. -1.
</event>
<event>
 7    1  0.3980989E-008  0.4614232E+02  0.7816164E-02  0.1320468E+00
        -11   -1    0    0    0    0  0.00000000000E+00  0.00000000000E+00  0.45593999997E+02  0.45594000000E+02  0.51100000000E-03 0. -1.
         11   -1    0    0    0    0 -0.00000000000E+00 -0.00000000000E+00 -0.45593999997E+02  0.45594000000E+02  0.51100000000E-03 0.  1.
    9900012    2    1    2    0    0 -0.36744799263E+02  0.25446778194E+02 -0.56030927412E+01  0.46142318281E+02  0.10000004737E+02 0.  0.
        -12    1    1    2    0    0  0.36744799263E+02 -0.25446778194E+02  0.56030927412E+01  0.45045681719E+02  0.00000000000E+00 0.  1.
         11    1    3    3    0    0 -0.88839015611E+01  0.45237194678E+01 -0.12286747424E+01  0.10044769119E+02  0.51100000000E-03 0. -1.
        -11    1    3    3    0    0 -0.21379647377E+02  0.13662255500E+02 -0.63762315890E+01  0.26161094718E+02  0.51100000000E-03 0.  1.
        -12    1    3    3    0    0 -0.64812503249E+01  0.72608032259E+01  0.20018135901E+01  0.99364544436E+01  0.00000000000E+00 0.  1.
</event>
<event>
 7    1  0.3980989E-008  0.4614231E+02  0.7816164E-02  0.1320468E+00
        -11   -1    0    0    0    0  0.00000000000E+00  0.00000000000E+00  0.45593999997E+02  0.45594000000E+02  0.51100000000E-03 0.  1.
         11   -1    0    0    0    0 -0.00000000000E+00 -0.00000000000E+00 -0.45593999997E+02  0.45594000000E+02  0.51100000000E-03 0. -1.
    9900012    2    1    2    0    0  0.14456407092E+02  0.17106950542E+02 -0.39082972974E+02  0.46142309425E+02  0.99999239826E+01 0.  0.
        -12    1    1    2    0    0 -0.14456407092E+02 -0.17106950542E+02  0.39082972974E+02  0.45045690575E+02  0.00000000000E+00 0.  1.
         11    1    3    3    0    0  0.14307308094E+02  0.13231124340E+02 -0.34094223906E+02  0.39270571936E+02  0.51100000000E-03 0. -1.
        -11    1    3    3    0    0 -0.52814830357E+00  0.17572904341E+01 -0.40714709582E+01  0.44658578487E+01  0.51100000000E-03 0.  1.
         12    1    3    3    0    0  0.67724730232E+00  0.21185357685E+01 -0.91727811049E+00  0.24058796402E+01  0.00000000000E+00 0. -1.
</event>
<event>
 7    1  0.3980989E-008  0.4614232E+02  0.7816164E-02  0.1320468E+00
        -11   -1    0    0    0    0  0.00000000000E+00  0.00000000000E+00  0.45593999997E+02  0.45594000000E+02  0.51100000000E-03 0.  1.
         11   -1    0    0    0    0 -0.00000000000E+00 -0.00000000000E+00 -0.45593999997E+02  0.45594000000E+02  0.51100000000E-03 0. -1.
    9900012    2    1    2    0    0 -0.29637226219E+01  0.85157005428E+01 -0.44134029945E+02  0.46142318668E+02  0.10000008267E+02 0.  0.
        -12    1    1    2    0    0  0.29637226219E+01 -0.85157005428E+01  0.44134029945E+02  0.45045681332E+02  0.00000000000E+00 0.  1.
         11    1    3    3    0    0 -0.33605233047E+01  0.55085573962E+01 -0.39985024652E+02  0.40502339662E+02  0.51100000000E-03 0. -1.
        -11    1    3    3    0    0  0.36274639561E+00  0.12333590071E+00  0.19178203001E+00  0.42845921637E+00  0.51100000000E-03 0.  1.
         12    1    3    3    0    0  0.34054287269E-01  0.28838072459E+01 -0.43407873233E+01  0.52115197891E+01  0.00000000000E+00 0. -1.
</event>
<event>
 7    1  0.3980989E-008  0.4614232E+02  0.7816164E-02  0.1320468E+00
        -11   -1    0    0    0    0  0.00000000000E+00  0.00000000000E+00  0.45593999997E+02  0.45594000000E+02  0.51100000000E-03 0.  1.
         11   -1    0    0    0    0 -0.00000000000E+00 -0.00000000000E+00 -0.45593999997E+02  0.45594000000E+02  0.51100000000E-03 0. -1.
    9900012    2    1    2    0    0  0.35265578880E+02  0.27229806727E+02 -0.66324991112E+01  0.46142317936E+02  0.10000001596E+02 0.  0.
        -12    1    1    2    0    0 -0.35265578880E+02 -0.27229806727E+02  0.66324991112E+01  0.45045682064E+02  0.00000000000E+00 0.  1.
         11    1    3    3    0    0  0.29699945879E+02  0.25850396729E+02 -0.53841136169E+01  0.39740640105E+02  0.51100000000E-03 0. -1.
        -11    1    3    3    0    0  0.42905343873E+01  0.10448153643E+01 -0.20396120690E+01  0.48641897709E+01  0.51100000000E-03 0.  1.
         12    1    3    3    0    0  0.12750986138E+01  0.33459463445E+00  0.79122657466E+00  0.15374880607E+01  0.00000000000E+00 0. -1.
</event>
<event>
 7    1  0.3980989E-008  0.4614232E+02  0.7816164E-02  0.1320468E+00
        -11   -1    0    0    0    0  0.00000000000E+00  0.00000000000E+00  0.45593999997E+02  0.45594000000E+02  0.51100000000E-03 0. -1.
         11   -1    0    0    0    0 -0.00000000000E+00 -0.00000000000E+00 -0.45593999997E+02  0.45594000000E+02  0.51100000000E-03 0.  1.
    9900012    2    1    2    0    0  0.14718226558E+02  0.24129886495E+02  0.35074717495E+02  0.46142318491E+02  0.10000006658E+02 0.  0.
        -12    1    1    2    0    0 -0.14718226558E+02 -0.24129886495E+02 -0.35074717495E+02  0.45045681509E+02  0.00000000000E+00 0.  1.
         11    1    3    3    0    0  0.21698225356E+01  0.86651414971E+01  0.14283316596E+02  0.16846540898E+02  0.51100000000E-03 0.  1.
        -11    1    3    3    0    0 -0.48087642799E+00  0.13335952760E+01  0.14142648513E+01  0.20024644391E+01  0.51100000000E-03 0. -1.
        -12    1    3    3    0    0  0.13029280451E+02  0.14131149722E+02  0.19377136047E+02  0.27293313154E+02  0.00000000000E+00 0.  1.
</event>
<event>
 7    1  0.3980989E-008  0.4614232E+02  0.7816164E-02  0.1320468E+00
        -11   -1    0    0    0    0  0.00000000000E+00  0.00000000000E+00  0.45593999997E+02  0.45594000000E+02  0.51100000000E-03 0.  1.
         11   -1    0    0    0    0 -0.00000000000E+00 -0.00000000000E+00 -0.45593999997E+02  0.45594000000E+02  0.51100000000E-03 0. -1.
    9900012    2    1    2    0    0  0.44057542809E+02  0.44142216783E+01 -0.82801591091E+01  0.46142318006E+02  0.10000002236E+02 0.  0.
        -12    1    1    2    0    0 -0.44057542809E+02 -0.44142216783E+01  0.82801591091E+01  0.45045681994E+02  0.00000000000E+00 0.  1.
         11    1    3    3    0    0  0.15688499206E+01  0.76936820972E+00 -0.88655206904E+00  0.19593857067E+01  0.51100000000E-03 0. -1.
        -11    1    3    3    0    0  0.14048711498E+01 -0.27282868622E+00 -0.21474657977E+01  0.25806410159E+01  0.51100000000E-03 0.  1.
         12    1    3    3    0    0  0.41083821739E+02  0.39176821548E+01 -0.52461412424E+01  0.41602291284E+02  0.00000000000E+00 0. -1.
</event>
<event>
 7    1  0.3980989E-008  0.4614232E+02  0.7816164E-02  0.1320468E+00
        -11   -1    0    0    0    0  0.00000000000E+00  0.00000000000E+00  0.45593999997E+02  0.45594000000E+02  0.51100000000E-03 0.  1.
         11   -1    0    0    0    0 -0.00000000000E+00 -0.00000000000E+00 -0.45593999997E+02  0.45594000000E+02  0.51100000000E-03 0. -1.
    9900012    2    1    2    0    0  0.63282040030E+01  0.30348446737E+02 -0.32680867338E+02  0.46142317906E+02  0.10000001326E+02 0.  0.
        -12    1    1    2    0    0 -0.63282040030E+01 -0.30348446737E+02  0.32680867338E+02  0.45045682094E+02  0.00000000000E+00 0.  1.
         11    1    3    3    0    0  0.84707617909E+00  0.35736965061E+01 -0.67408099157E+01  0.76764160486E+01  0.51100000000E-03 0. -1.
        -11    1    3    3    0    0  0.45544917511E+01  0.15612980929E+02 -0.10379226282E+02  0.19293442074E+02  0.51100000000E-03 0.  1.
        -12    1    3    3    0    0  0.92663607282E+00  0.11161769303E+02 -0.15560831140E+02  0.19172459784E+02  0.00000000000E+00 0.  1.
</event>
<event>
 7    1  0.3980989E-008  0.4614232E+02  0.7816164E-02  0.1320468E+00
        -11   -1    0    0    0    0  0.00000000000E+00  0.00000000000E+00  0.45593999997E+02  0.45594000000E+02  0.51100000000E-03 0.  1.
         11   -1    0    0    0    0 -0.00000000000E+00 -0.00000000000E+00 -0.45593999997E+02  0.45594000000E+02  0.51100000000E-03 0. -1.
    9900012    2    1    2    0    0  0.25569612132E+02 -0.37032475263E+02 -0.19759317500E+01  0.46142316578E+02  0.99999892076E+01 0.  0.
        -12    1    1    2    0    0 -0.25569612132E+02  0.37032475263E+02  0.19759317500E+01  0.45045683422E+02  0.00000000000E+00 0.  1.
         11    1    3    3    0    0  0.45529678481E+01 -0.11238496570E+02  0.15603881940E+01  0.12225716051E+02  0.51100000000E-03 0. -1.
        -11    1    3    3    0    0  0.10427850142E+01 -0.77439248799E+00 -0.12784090190E+01  0.18224747439E+01  0.51100000000E-03 0.  1.
         12    1    3    3    0    0  0.19973859270E+02 -0.25019586205E+02 -0.22579109251E+01  0.32094125783E+02  0.00000000000E+00 0. -1.
</event>
<event>
 7    1  0.3980989E-008  0.4614232E+02  0.7816164E-02  0.1320468E+00
        -11   -1    0    0    0    0  0.00000000000E+00  0.00000000000E+00  0.45593999997E+02  0.45594000000E+02  0.51100000000E-03 0.  1.
         11   -1    0    0    0    0 -0.00000000000E+00 -0.00000000000E+00 -0.45593999997E+02  0.45594000000E+02  0.51100000000E-03 0. -1.
    9900012    2    1    2    0    0  0.40613361604E+02 -0.28585543825E+01 -0.19274255366E+02  0.46142318811E+02  0.10000009570E+02 0.  0.
        -12    1    1    2    0    0 -0.40613361604E+02  0.28585543825E+01  0.19274255366E+02  0.45045681189E+02  0.00000000000E+00 0.  1.
         11    1    3    3    0    0  0.24136164477E+02  0.14215820747E+01 -0.13890314274E+02  0.27883976800E+02  0.51100000000E-03 0. -1.
        -11    1    3    3    0    0  0.84484641795E+01 -0.41314928057E+01 -0.25688748191E+01  0.97490972860E+01  0.51100000000E-03 0.  1.
        -12    1    3    3    0    0  0.80287329469E+01 -0.14864365160E+00 -0.28150662729E+01  0.85092447249E+01  0.00000000000E+00 0.  1.
</event>
<event>
 7    1  0.3980989E-008  0.4614230E+02  0.7816164E-02  0.1320468E+00
        -11   -1    0    0    0    0  0.00000000000E+00  0.00000000000E+00  0.45593999997E+02  0.45594000000E+02  0.51100000000E-03 0.  1.
         11   -1    0    0    0    0 -0.00000000000E+00 -0.00000000000E+00 -0.45593999997E+02  0.45594000000E+02  0.51100000000E-03 0. -1.
    9900012    2    1    2    0    0 -0.25712821479E+02  0.27300143146E+02 -0.24953314725E+02  0.46142301871E+02  0.99998550975E+01 0.  0.
        -12    1    1    2    0    0  0.25712821479E+02 -0.27300143146E+02  0.24953314725E+02  0.45045698129E+02  0.00000000000E+00 0.  1.
         11    1    3    3    0    0 -0.23090545719E+02  0.26564475551E+02 -0.22758031162E+02  0.41913871755E+02  0.51100000000E-03 0. -1.
        -11    1    3    3    0    0 -0.23419191866E+01  0.14703816951E+01 -0.13613171251E+01  0.30821733213E+01  0.51100000000E-03 0.  1.
        -12    1    3    3    0    0 -0.28035657350E+00 -0.73471410060E+00 -0.83396643812E+00  0.11462567940E+01  0.00000000000E+00 0.  1.
</event>
<event>
 7    1  0.3980989E-008  0.4614232E+02  0.7816164E-02  0.1320468E+00
        -11   -1    0    0    0    0  0.00000000000E+00  0.00000000000E+00  0.45593999997E+02  0.45594000000E+02  0.51100000000E-03 0. -1.
         11   -1    0    0    0    0 -0.00000000000E+00 -0.00000000000E+00 -0.45593999997E+02  0.45594000000E+02  0.51100000000E-03 0.  1.
    9900012    2    1    2    0    0  0.32450470181E+02  0.22381106192E+02  0.21798314756E+02  0.46142318125E+02  0.10000003315E+02 0.  0.
        -12    1    1    2    0    0 -0.32450470181E+02 -0.22381106192E+02 -0.21798314756E+02  0.45045681875E+02  0.00000000000E+00 0.  1.
         11    1    3    3    0    0  0.57712962901E+01  0.38162773910E+01  0.26379755184E+01  0.74047788009E+01  0.51100000000E-03 0. -1.
        -11    1    3    3    0    0  0.83172893722E+01  0.23805623906E+01  0.21007216228E+01  0.89026631630E+01  0.51100000000E-03 0.  1.
         12    1    3    3    0    0  0.18361884519E+02  0.16184266411E+02  0.17059617615E+02  0.29834876161E+02  0.00000000000E+00 0. -1.
</event>
<event>
 7    1  0.3980989E-008  0.4614232E+02  0.7816164E-02  0.1320468E+00
        -11   -1    0    0    0    0  0.00000000000E+00  0.00000000000E+00  0.45593999997E+02  0.45594000000E+02  0.51100000000E-03 0.  1.
         11   -1    0    0    0    0 -0.00000000000E+00 -0.00000000000E+00 -0.45593999997E+02  0.45594000000E+02  0.51100000000E-03 0. -1.
    9900012    2    1    2    0    0 -0.35638889282E+02 -0.12402990058E+02 -0.24599775993E+02  0.46142316849E+02  0.99999916808E+01 0.  0.
        -12    1    1    2    0    0  0.35638889282E+02  0.12402990058E+02  0.24599775993E+02  0.45045683151E+02  0.00000000000E+00 0.  1.
         11    1    3    3    0    0 -0.10823053393E+02 -0.71407529188E+01 -0.85665275523E+01  0.15540728154E+02  0.51100000000E-03 0. -1.
        -11    1    3    3    0    0 -0.14172206580E+02 -0.32832425684E+01 -0.56655396710E+01  0.15611837212E+02  0.51100000000E-03 0.  1.
        -12    1    3    3    0    0 -0.10643629310E+02 -0.19789945712E+01 -0.10367708769E+02  0.14989751483E+02  0.00000000000E+00 0.  1.
</event>
<event>
 7    1  0.3980989E-008  0.4614232E+02  0.7816164E-02  0.1320468E+00
        -11   -1    0    0    0    0  0.00000000000E+00  0.00000000000E+00  0.45593999997E+02  0.45594000000E+02  0.51100000000E-03 0.  1.
         11   -1    0    0    0    0 -0.00000000000E+00 -0.00000000000E+00 -0.45593999997E+02  0.45594000000E+02  0.51100000000E-03 0. -1.
    9900012    2    1    2    0    0  0.40063344604E+02 -0.19878771991E+02 -0.53736675428E+01  0.46142318081E+02  0.10000002915E+02 0.  0.
        -12    1    1    2    0    0 -0.40063344604E+02  0.19878771991E+02  0.53736675428E+01  0.45045681919E+02  0.00000000000E+00 0.  1.
         11    1    3    3    0    0  0.13604209288E+02 -0.65841245064E+01  0.15170211564E+01  0.15189685952E+02  0.51100000000E-03 0. -1.
        -11    1    3    3    0    0  0.13237338611E+01  0.58267550185E+00 -0.10662137141E+00  0.14502242769E+01  0.51100000000E-03 0.  1.
        -12    1    3    3    0    0  0.25135401455E+02 -0.13877322986E+02 -0.67840673278E+01  0.29502407852E+02  0.00000000000E+00 0.  1.
</event>
<event>
 7    1  0.3980989E-008  0.4614232E+02  0.7816164E-02  0.1320468E+00
        -11   -1    0    0    0    0  0.00000000000E+00  0.00000000000E+00  0.45593999997E+02  0.45594000000E+02  0.51100000000E-03 0.  1.
         11   -1    0    0    0    0 -0.00000000000E+00 -0.00000000000E+00 -0.45593999997E+02  0.45594000000E+02  0.51100000000E-03 0. -1.
    9900012    2    1    2    0    0 -0.43079415211E+01  0.24500893417E+02 -0.37553447383E+02  0.46142317091E+02  0.99999938852E+01 0.  0.
        -12    1    1    2    0    0  0.43079415211E+01 -0.24500893417E+02  0.37553447383E+02  0.45045682909E+02  0.00000000000E+00 0.  1.
         11    1    3    3    0    0 -0.50291297406E+01  0.13449257280E+02 -0.25734319562E+02  0.29469134207E+02  0.51100000000E-03 0. -1.
        -11    1    3    3    0    0 -0.13285055287E+00  0.37011842306E+01 -0.15481232049E+01  0.40141125666E+01  0.51100000000E-03 0.  1.
         12    1    3    3    0    0  0.85403877229E+00  0.73504519065E+01 -0.10271004617E+02  0.12659070317E+02  0.00000000000E+00 0. -1.
</event>
<event>
 7    1  0.4626571E-008  0.4614232E+02  0.7816164E-02  0.1320468E+00
        -11   -1    0    0    0    0  0.00000000000E+00  0.00000000000E+00  0.45593999997E+02  0.45594000000E+02  0.51100000000E-03 0.  1.
         11   -1    0    0    0    0 -0.00000000000E+00 -0.00000000000E+00 -0.45593999997E+02  0.45594000000E+02  0.51100000000E-03 0. -1.
    9900012    2    1    2    0    0 -0.43795122074E+02 -0.83185967878E+01  0.64731588891E+01  0.46142317010E+02  0.99999931517E+01 0.  0.
        -12    1    1    2    0    0  0.43795122074E+02  0.83185967878E+01 -0.64731588891E+01  0.45045682990E+02  0.00000000000E+00 0.  1.
         11    1    3    3    0    0 -0.11541315358E+01  0.61380162197E+00  0.37018407151E-01  0.13077242281E+01  0.51100000000E-03 0. -1.
        -11    1    3    3    0    0 -0.39471364149E+00 -0.96540707476E+00 -0.69902705971E+00  0.12555671110E+01  0.51100000000E-03 0.  1.
         12    1    3    3    0    0 -0.42246276897E+02 -0.79669913350E+01  0.71351675417E+01  0.43579025671E+02  0.00000000000E+00 0. -1.
</event>
<event>
 7    1  0.3980989E-008  0.4614232E+02  0.7816164E-02  0.1320468E+00
        -11   -1    0    0    0    0  0.00000000000E+00  0.00000000000E+00  0.45593999997E+02  0.45594000000E+02  0.51100000000E-03 0.  1.
         11   -1    0    0    0    0 -0.00000000000E+00 -0.00000000000E+00 -0.45593999997E+02  0.45594000000E+02  0.51100000000E-03 0. -1.
    9900012    2    1    2    0    0  0.12192501418E+02  0.52977833193E+01 -0.43039399390E+02  0.46142317646E+02  0.99999989499E+01 0.  0.
        -12    1    1    2    0    0 -0.12192501418E+02 -0.52977833193E+01  0.43039399390E+02  0.45045682354E+02  0.00000000000E+00 0.  1.
         11    1    3    3    0    0  0.25822701798E+01  0.74423286063E+00 -0.21864264741E+01  0.34644570743E+01  0.51100000000E-03 0. -1.
        -11    1    3    3    0    0  0.84666826473E+01  0.58738441865E+01 -0.30904409829E+02  0.32577128598E+02  0.51100000000E-03 0.  1.
         12    1    3    3    0    0  0.11435485907E+01 -0.13202937278E+01 -0.99485630866E+01  0.10100731973E+02  0.00000000000E+00 0. -1.
</event>
<event>
 7    1  0.3980989E-008  0.4614232E+02  0.7816164E-02  0.1320468E+00
        -11   -1    0    0    0    0  0.00000000000E+00  0.00000000000E+00  0.45593999997E+02  0.45594000000E+02  0.51100000000E-03 0.  1.
         11   -1    0    0    0    0 -0.00000000000E+00 -0.00000000000E+00 -0.45593999997E+02  0.45594000000E+02  0.51100000000E-03 0. -1.
    9900012    2    1    2    0    0  0.84125446812E+00  0.21138325496E+02 -0.39769044067E+02  0.46142318966E+02  0.10000010984E+02 0.  0.
        -12    1    1    2    0    0 -0.84125446812E+00 -0.21138325496E+02  0.39769044067E+02  0.45045681034E+02  0.00000000000E+00 0.  1.
         11    1    3    3    0    0 -0.22887893382E+01  0.71013370744E+01 -0.12813858957E+02  0.14827762019E+02  0.51100000000E-03 0. -1.
        -11    1    3    3    0    0 -0.13357451179E+01  0.59067918889E+01 -0.66696371097E+01  0.90087993027E+01  0.51100000000E-03 0.  1.
         12    1    3    3    0    0  0.44657889243E+01  0.81301965322E+01 -0.20285548001E+02  0.22305757644E+02  0.00000000000E+00 0. -1.
</event>
<event>
 7    1  0.3980989E-008  0.4614232E+02  0.7816164E-02  0.1320468E+00
        -11   -1    0    0    0    0  0.00000000000E+00  0.00000000000E+00  0.45593999997E+02  0.45594000000E+02  0.51100000000E-03 0. -1.
         11   -1    0    0    0    0 -0.00000000000E+00 -0.00000000000E+00 -0.45593999997E+02  0.45594000000E+02  0.51100000000E-03 0.  1.
    9900012    2    1    2    0    0  0.48481207252E+01 -0.33223399606E+02 -0.30030233352E+02  0.46142317953E+02  0.10000001748E+02 0.  0.
        -12    1    1    2    0    0 -0.48481207252E+01  0.33223399606E+02  0.30030233352E+02  0.45045682047E+02  0.00000000000E+00 0.  1.
         11    1    3    3    0    0  0.38574169016E+01 -0.32480324141E+02 -0.27455493309E+02  0.42704276537E+02  0.51100000000E-03 0. -1.
        -11    1    3    3    0    0 -0.35976313994E+00 -0.85028431714E+00 -0.10737902846E+01  0.14161351536E+01  0.51100000000E-03 0.  1.
         12    1    3    3    0    0  0.13504669636E+01  0.10720885184E+00 -0.15009497580E+01  0.20219062624E+01  0.00000000000E+00 0. -1.
</event>
<event>
 7    1  0.3980989E-008  0.4614232E+02  0.7816164E-02  0.1320468E+00
        -11   -1    0    0    0    0  0.00000000000E+00  0.00000000000E+00  0.45593999997E+02  0.45594000000E+02  0.51100000000E-03 0.  1.
         11   -1    0    0    0    0 -0.00000000000E+00 -0.00000000000E+00 -0.45593999997E+02  0.45594000000E+02  0.51100000000E-03 0. -1.
    9900012    2    1    2    0    0  0.30152801434E+02  0.22331397670E+02 -0.24924501506E+02  0.46142317283E+02  0.99999956361E+01 0.  0.
        -12    1    1    2    0    0 -0.30152801434E+02 -0.22331397670E+02  0.24924501506E+02  0.45045682717E+02  0.00000000000E+00 0.  1.
         11    1    3    3    0    0  0.20103375053E+02  0.15821025027E+02 -0.15798435651E+02  0.30067276077E+02  0.51100000000E-03 0. -1.
        -11    1    3    3    0    0  0.63657153450E+01  0.88763528856E+00 -0.53664886559E+01  0.83731373459E+01  0.51100000000E-03 0.  1.
        -12    1    3    3    0    0  0.36837110357E+01  0.56227373536E+01 -0.37595771990E+01  0.77019038592E+01  0.00000000000E+00 0.  1.
</event>
<event>
 7    1  0.3980989E-008  0.4614232E+02  0.7816164E-02  0.1320468E+00
        -11   -1    0    0    0    0  0.00000000000E+00  0.00000000000E+00  0.45593999997E+02  0.45594000000E+02  0.51100000000E-03 0.  1.
         11   -1    0    0    0    0 -0.00000000000E+00 -0.00000000000E+00 -0.45593999997E+02  0.45594000000E+02  0.51100000000E-03 0. -1.
    9900012    2    1    2    0    0  0.37553189159E+02 -0.13662740798E+02 -0.20789443510E+02  0.46142318036E+02  0.10000002509E+02 0.  0.
        -12    1    1    2    0    0 -0.37553189159E+02  0.13662740798E+02  0.20789443510E+02  0.45045681964E+02  0.00000000000E+00 0.  1.
         11    1    3    3    0    0  0.12293424412E+02 -0.10759454519E+01 -0.47616086453E+01  0.13227201501E+02  0.51100000000E-03 0. -1.
        -11    1    3    3    0    0  0.15015012774E+01 -0.14488633573E+01  0.14556706196E+00  0.20916264353E+01  0.51100000000E-03 0.  1.
         12    1    3    3    0    0  0.23758263469E+02 -0.11137931989E+02 -0.16173401926E+02  0.30823490100E+02  0.00000000000E+00 0. -1.
</event>
<event>
 7    1  0.3980989E-008  0.4614232E+02  0.7816164E-02  0.1320468E+00
        -11   -1    0    0    0    0  0.00000000000E+00  0.00000000000E+00  0.45593999997E+02  0.45594000000E+02  0.51100000000E-03 0.  1.
         11   -1    0    0    0    0 -0.00000000000E+00 -0.00000000000E+00 -0.45593999997E+02  0.45594000000E+02  0.51100000000E-03 0. -1.
    9900012    2    1    2    0    0  0.36300136114E+02 -0.25836838468E+02  0.66235395211E+01  0.46142318967E+02  0.10000010996E+02 0.  0.
        -12    1    1    2    0    0 -0.36300136114E+02  0.25836838468E+02 -0.66235395211E+01  0.45045681033E+02  0.00000000000E+00 0.  1.
         11    1    3    3    0    0  0.30073571903E+01 -0.94714494543E+00  0.71104311446E-02  0.31529877318E+01  0.51100000000E-03 0.  1.
        -11    1    3    3    0    0  0.18470122012E+02 -0.16706688136E+02  0.75729752418E+01  0.26030919882E+02  0.51100000000E-03 0. -1.
         12    1    3    3    0    0  0.14822656912E+02 -0.81830053864E+01 -0.95654615184E+00  0.16958411353E+02  0.00000000000E+00 0. -1.
</event>
<event>
 7    1  0.3980989E-008  0.4614232E+02  0.7816164E-02  0.1320468E+00
        -11   -1    0    0    0    0  0.00000000000E+00  0.00000000000E+00  0.45593999997E+02  0.45594000000E+02  0.51100000000E-03 0. -1.
         11   -1    0    0    0    0 -0.00000000000E+00 -0.00000000000E+00 -0.45593999997E+02  0.45594000000E+02  0.51100000000E-03 0.  1.
    9900012    2    1    2    0    0 -0.13492860031E+02  0.41104639180E+02  0.12548499216E+02  0.46142318004E+02  0.10000002215E+02 0.  0.
        -12    1    1    2    0    0  0.13492860031E+02 -0.41104639180E+02 -0.12548499216E+02  0.45045681996E+02  0.00000000000E+00 0.  1.
         11    1    3    3    0    0 -0.51944496819E+00  0.96540037413E+01  0.31778174190E+01  0.10176843082E+02  0.51100000000E-03 0. -1.
        -11    1    3    3    0    0  0.27195997580E+00  0.56773076111E+00 -0.64485928805E+00  0.90117934289E+00  0.51100000000E-03 0.  1.
        -12    1    3    3    0    0 -0.13245375038E+02  0.30882904677E+02  0.10015541085E+02  0.35064295579E+02  0.00000000000E+00 0.  1.
</event>
<event>
 7    1  0.3980989E-008  0.4614231E+02  0.7816164E-02  0.1320468E+00
        -11   -1    0    0    0    0  0.00000000000E+00  0.00000000000E+00  0.45593999997E+02  0.45594000000E+02  0.51100000000E-03 0.  1.
         11   -1    0    0    0    0 -0.00000000000E+00 -0.00000000000E+00 -0.45593999997E+02  0.45594000000E+02  0.51100000000E-03 0. -1.
    9900012    2    1    2    0    0  0.27554312420E+02  0.21863752849E+02 -0.28139842681E+02  0.46142305781E+02  0.99998907556E+01 0.  0.
        -12    1    1    2    0    0 -0.27554312420E+02 -0.21863752849E+02  0.28139842681E+02  0.45045694219E+02  0.00000000000E+00 0.  1.
         11    1    3    3    0    0  0.16159897054E+01  0.43027482468E+01 -0.46989243171E+01  0.65730476342E+01  0.51100000000E-03 0. -1.
        -11    1    3    3    0    0  0.11591334158E+02  0.10570535840E+02 -0.92395442497E+01  0.18206164717E+02  0.51100000000E-03 0.  1.
         12    1    3    3    0    0  0.14346988557E+02  0.69904687619E+01 -0.14201374114E+02  0.21363093429E+02  0.00000000000E+00 0. -1.
</event>
<event>
 7    1  0.3980989E-008  0.4614232E+02  0.7816164E-02  0.1320468E+00
        -11   -1    0    0    0    0  0.00000000000E+00  0.00000000000E+00  0.45593999997E+02  0.45594000000E+02  0.51100000000E-03 0. -1.
         11   -1    0    0    0    0 -0.00000000000E+00 -0.00000000000E+00 -0.45593999997E+02  0.45594000000E+02  0.51100000000E-03 0.  1.
    9900012    2    1    2    0    0  0.38051968754E+02 -0.13649390754E+02 -0.19870965292E+02  0.46142318124E+02  0.10000003309E+02 0.  0.
        -12    1    1    2    0    0 -0.38051968754E+02  0.13649390754E+02  0.19870965292E+02  0.45045681876E+02  0.00000000000E+00 0.  1.
         11    1    3    3    0    0  0.82355677909E+00 -0.15942533189E+01 -0.33059465820E+00  0.18246047524E+01  0.51100000000E-03 0. -1.
        -11    1    3    3    0    0  0.21759564162E+01 -0.89451521784E+00  0.53115941206E+00  0.24118611864E+01  0.51100000000E-03 0.  1.
         12    1    3    3    0    0  0.35052455559E+02 -0.11160622218E+02 -0.20071530046E+02  0.41905852185E+02  0.00000000000E+00 0. -1.
</event>
<event>
 7    1  0.3980989E-008  0.4614232E+02  0.7816164E-02  0.1320468E+00
        -11   -1    0    0    0    0  0.00000000000E+00  0.00000000000E+00  0.45593999997E+02  0.45594000000E+02  0.51100000000E-03 0.  1.
         11   -1    0    0    0    0 -0.00000000000E+00 -0.00000000000E+00 -0.45593999997E+02  0.45594000000E+02  0.51100000000E-03 0. -1.
    9900012    2    1    2    0    0 -0.14004019977E+02  0.39293802376E+02 -0.16999944278E+02  0.46142316676E+02  0.99999901062E+01 0.  0.
        -12    1    1    2    0    0  0.14004019977E+02 -0.39293802376E+02  0.16999944278E+02  0.45045683324E+02  0.00000000000E+00 0.  1.
         11    1    3    3    0    0 -0.61081232236E+01  0.20359327307E+02 -0.12337160793E+02  0.24576755571E+02  0.51100000000E-03 0. -1.
        -11    1    3    3    0    0 -0.81701264030E+01  0.15533573738E+02 -0.46376429934E+01  0.18153528894E+02  0.51100000000E-03 0.  1.
        -12    1    3    3    0    0  0.27422965002E+00  0.34009013306E+01 -0.25140491511E-01  0.34120322106E+01  0.00000000000E+00 0.  1.
</event>
<event>
 7    1  0.3980989E-008  0.4614232E+02  0.7816164E-02  0.1320468E+00
        -11   -1    0    0    0    0  0.00000000000E+00  0.00000000000E+00  0.45593999997E+02  0.45594000000E+02  0.51100000000E-03 0.  1.
         11   -1    0    0    0    0 -0.00000000000E+00 -0.00000000000E+00 -0.45593999997E+02  0.45594000000E+02  0.51100000000E-03 0. -1.
    9900012    2    1    2    0    0  0.26599228549E+02 -0.32008072713E+02 -0.17235944908E+02  0.46142317909E+02  0.10000001350E+02 0.  0.
        -12    1    1    2    0    0 -0.26599228549E+02  0.32008072713E+02  0.17235944908E+02  0.45045682091E+02  0.00000000000E+00 0.  1.
         11    1    3    3    0    0  0.89771946523E+01 -0.97501485917E+01 -0.59474923851E+01  0.14526805820E+02  0.51100000000E-03 0. -1.
        -11    1    3    3    0    0  0.69326535277E+01 -0.37950465203E+01 -0.11209788835E+01  0.79825219664E+01  0.51100000000E-03 0.  1.
         12    1    3    3    0    0  0.10689380369E+02 -0.18462877601E+02 -0.10167473639E+02  0.23632990123E+02  0.00000000000E+00 0. -1.
</event>
<event>
 7    1  0.3980989E-008  0.4614232E+02  0.7816164E-02  0.1320468E+00
        -11   -1    0    0    0    0  0.00000000000E+00  0.00000000000E+00  0.45593999997E+02  0.45594000000E+02  0.51100000000E-03 0.  1.
         11   -1    0    0    0    0 -0.00000000000E+00 -0.00000000000E+00 -0.45593999997E+02  0.45594000000E+02  0.51100000000E-03 0. -1.
    9900012    2    1    2    0    0  0.44404275227E+02 -0.59165476375E+01 -0.47295143526E+01  0.46142317628E+02  0.99999987846E+01 0.  0.
        -12    1    1    2    0    0 -0.44404275227E+02  0.59165476375E+01  0.47295143526E+01  0.45045682372E+02  0.00000000000E+00 0.  1.
         11    1    3    3    0    0  0.76822027795E+01 -0.10720210863E+00  0.10038717320E+01  0.77482572591E+01  0.51100000000E-03 0. -1.
        -11    1    3    3    0    0  0.20611196345E+02 -0.12010575436E+01  0.11300730895E+00  0.20646470035E+02  0.51100000000E-03 0.  1.
         12    1    3    3    0    0  0.16110876102E+02 -0.46082879853E+01 -0.58463933936E+01  0.17747590333E+02  0.00000000000E+00 0. -1.
</event>
<event>
 7    1  0.3980989E-008  0.4614232E+02  0.7816164E-02  0.1320468E+00
        -11   -1    0    0    0    0  0.00000000000E+00  0.00000000000E+00  0.45593999997E+02  0.45594000000E+02  0.51100000000E-03 0.  1.
         11   -1    0    0    0    0 -0.00000000000E+00 -0.00000000000E+00 -0.45593999997E+02  0.45594000000E+02  0.51100000000E-03 0. -1.
    9900012    2    1    2    0    0  0.22295750099E+02  0.39129852053E+02  0.93149500356E+00  0.46142317886E+02  0.10000001141E+02 0.  0.
        -12    1    1    2    0    0 -0.22295750099E+02 -0.39129852053E+02 -0.93149500356E+00  0.45045682114E+02  0.00000000000E+00 0.  1.
         11    1    3    3    0    0  0.89246453975E+01  0.18152345588E+02  0.75906646141E+00  0.20241865724E+02  0.51100000000E-03 0. -1.
        -11    1    3    3    0    0  0.21713896706E+01  0.53928997740E+01  0.29327250763E+01  0.65114650969E+01  0.51100000000E-03 0.  1.
        -12    1    3    3    0    0  0.11199715030E+02  0.15584606691E+02 -0.27602965342E+01  0.19388987065E+02  0.00000000000E+00 0.  1.
</event>
<event>
 7    1  0.3980989E-008  0.4614232E+02  0.7816164E-02  0.1320468E+00
        -11   -1    0    0    0    0  0.00000000000E+00  0.00000000000E+00  0.45593999997E+02  0.45594000000E+02  0.51100000000E-03 0.  1.
         11   -1    0    0    0    0 -0.00000000000E+00 -0.00000000000E+00 -0.45593999997E+02  0.45594000000E+02  0.51100000000E-03 0. -1.
    9900012    2    1    2    0    0 -0.24827902647E+02  0.36246637803E+02 -0.99433360305E+01  0.46142318373E+02  0.10000005578E+02 0.  0.
        -12    1    1    2    0    0  0.24827902647E+02 -0.36246637803E+02  0.99433360305E+01  0.45045681627E+02  0.00000000000E+00 0.  1.
         11    1    3    3    0    0 -0.74774082410E+01  0.57280136257E+01 -0.11846589838E+01  0.94934288467E+01  0.51100000000E-03 0. -1.
        -11    1    3    3    0    0 -0.16872320527E+01  0.73800360093E+01 -0.90368331266E+00  0.76241935501E+01  0.51100000000E-03 0.  1.
         12    1    3    3    0    0 -0.15663262353E+02  0.23138588168E+02 -0.78549937340E+01  0.29024695976E+02  0.00000000000E+00 0. -1.
</event>
<event>
 7    1  0.3980989E-008  0.4614232E+02  0.7816164E-02  0.1320468E+00
        -11   -1    0    0    0    0  0.00000000000E+00  0.00000000000E+00  0.45593999997E+02  0.45594000000E+02  0.51100000000E-03 0.  1.
         11   -1    0    0    0    0 -0.00000000000E+00 -0.00000000000E+00 -0.45593999997E+02  0.45594000000E+02  0.51100000000E-03 0. -1.
    9900012    2    1    2    0    0  0.40482599646E+02 -0.84208937869E+01 -0.17870681008E+02  0.46142316900E+02  0.99999921442E+01 0.  0.
        -12    1    1    2    0    0 -0.40482599646E+02  0.84208937869E+01  0.17870681008E+02  0.45045683100E+02  0.00000000000E+00 0.  1.
         11    1    3    3    0    0  0.19792583314E+02 -0.71647480451E+01 -0.70761683484E+01  0.22207028787E+02  0.51100000000E-03 0. -1.
        -11    1    3    3    0    0  0.13321937452E+02  0.25548258158E+00 -0.43091862007E+01  0.14003869994E+02  0.51100000000E-03 0.  1.
         12    1    3    3    0    0  0.73680788798E+01 -0.15116283234E+01 -0.64853264589E+01  0.99314181186E+01  0.00000000000E+00 0. -1.
</event>
<event>
 7    1  0.3980989E-008  0.4614231E+02  0.7816164E-02  0.1320468E+00
        -11   -1    0    0    0    0  0.00000000000E+00  0.00000000000E+00  0.45593999997E+02  0.45594000000E+02  0.51100000000E-03 0. -1.
         11   -1    0    0    0    0 -0.00000000000E+00 -0.00000000000E+00 -0.45593999997E+02  0.45594000000E+02  0.51100000000E-03 0.  1.
    9900012    2    1    2    0    0 -0.30177024571E+02 -0.87167400616E+00 -0.33432047955E+02  0.46142306999E+02  0.99999018578E+01 0.  0.
        -12    1    1    2    0    0  0.30177024571E+02  0.87167400616E+00  0.33432047955E+02  0.45045693001E+02  0.00000000000E+00 0.  1.
         11    1    3    3    0    0 -0.14440807640E+02 -0.72859009947E+00 -0.12665510734E+02  0.19221938800E+02  0.51100000000E-03 0. -1.
        -11    1    3    3    0    0 -0.32672020952E+01  0.28154420198E+01 -0.54290750212E+01  0.69336988069E+01  0.51100000000E-03 0.  1.
        -12    1    3    3    0    0 -0.12469014835E+02 -0.29585259265E+01 -0.15337462200E+02  0.19986669391E+02  0.00000000000E+00 0.  1.
</event>
<event>
 7    1  0.3980989E-008  0.4614232E+02  0.7816164E-02  0.1320468E+00
        -11   -1    0    0    0    0  0.00000000000E+00  0.00000000000E+00  0.45593999997E+02  0.45594000000E+02  0.51100000000E-03 0.  1.
         11   -1    0    0    0    0 -0.00000000000E+00 -0.00000000000E+00 -0.45593999997E+02  0.45594000000E+02  0.51100000000E-03 0. -1.
    9900012    2    1    2    0    0 -0.30718238004E+02 -0.65893298078E+01 -0.32281326414E+02  0.46142318204E+02  0.10000004043E+02 0.  0.
        -12    1    1    2    0    0  0.30718238004E+02  0.65893298078E+01  0.32281326414E+02  0.45045681796E+02  0.00000000000E+00 0.  1.
         11    1    3    3    0    0 -0.18614568112E+02 -0.39189460660E+01 -0.21608221466E+02  0.28788461568E+02  0.51100000000E-03 0. -1.
        -11    1    3    3    0    0 -0.77436386220E+01 -0.43741574127E+01 -0.59271570904E+01  0.10687767944E+02  0.51100000000E-03 0.  1.
         12    1    3    3    0    0 -0.43600312701E+01  0.17037736709E+01 -0.47459478573E+01  0.66660886930E+01  0.00000000000E+00 0. -1.
</event>
<event>
 7    1  0.3980989E-008  0.4614232E+02  0.7816164E-02  0.1320468E+00
        -11   -1    0    0    0    0  0.00000000000E+00  0.00000000000E+00  0.45593999997E+02  0.45594000000E+02  0.51100000000E-03 0. -1.
         11   -1    0    0    0    0 -0.00000000000E+00 -0.00000000000E+00 -0.45593999997E+02  0.45594000000E+02  0.51100000000E-03 0.  1.
    9900012    2    1    2    0    0 -0.12374311137E+02 -0.36236980717E+02  0.23724905288E+02  0.46142317870E+02  0.10000000994E+02 0.  0.
        -12    1    1    2    0    0  0.12374311137E+02  0.36236980717E+02 -0.23724905288E+02  0.45045682130E+02  0.00000000000E+00 0.  1.
         11    1    3    3    0    0 -0.14226416629E+01 -0.19132331835E+01  0.42244127308E+01  0.48507766076E+01  0.51100000000E-03 0.  1.
        -11    1    3    3    0    0 -0.71371752240E+00 -0.14259486741E+01  0.22567657975E+01  0.27632796545E+01  0.51100000000E-03 0. -1.
         12    1    3    3    0    0 -0.10237951951E+02 -0.32897798860E+02  0.17243726760E+02  0.38528261608E+02  0.00000000000E+00 0. -1.
</event>
<event>
 7    1  0.3980989E-008  0.4614232E+02  0.7816164E-02  0.1320468E+00
        -11   -1    0    0    0    0  0.00000000000E+00  0.00000000000E+00  0.45593999997E+02  0.45594000000E+02  0.51100000000E-03 0.  1.
         11   -1    0    0    0    0 -0.00000000000E+00 -0.00000000000E+00 -0.45593999997E+02  0.45594000000E+02  0.51100000000E-03 0. -1.
    9900012    2    1    2    0    0 -0.41511036908E+02  0.15058240876E+01 -0.17426410274E+02  0.46142318005E+02  0.10000002221E+02 0.  0.
        -12    1    1    2    0    0  0.41511036908E+02 -0.15058240876E+01  0.17426410274E+02  0.45045681995E+02  0.00000000000E+00 0.  1.
         11    1    3    3    0    0 -0.36481215436E+02  0.44214679276E+01 -0.13849023798E+02  0.39271158867E+02  0.51100000000E-03 0. -1.
        -11    1    3    3    0    0 -0.28264781511E+00 -0.10041096036E-01 -0.29909097209E+00  0.41163853282E+00  0.51100000000E-03 0.  1.
         12    1    3    3    0    0 -0.47471736576E+01 -0.29056027440E+01 -0.32782955034E+01  0.64595206052E+01  0.00000000000E+00 0. -1.
</event>
<event>
 7    1  0.3980989E-008  0.4614232E+02  0.7816164E-02  0.1320468E+00
        -11   -1    0    0    0    0  0.00000000000E+00  0.00000000000E+00  0.45593999997E+02  0.45594000000E+02  0.51100000000E-03 0.  1.
         11   -1    0    0    0    0 -0.00000000000E+00 -0.00000000000E+00 -0.45593999997E+02  0.45594000000E+02  0.51100000000E-03 0. -1.
    9900012    2    1    2    0    0 -0.15945456799E+02  0.14566368624E+02 -0.39530707366E+02  0.46142317496E+02  0.99999975841E+01 0.  0.
        -12    1    1    2    0    0  0.15945456799E+02 -0.14566368624E+02  0.39530707366E+02  0.45045682504E+02  0.00000000000E+00 0.  1.
         11    1    3    3    0    0 -0.31482705726E+01  0.60462154383E+01 -0.13370794403E+02  0.15008213483E+02  0.51100000000E-03 0. -1.
        -11    1    3    3    0    0 -0.96744629098E+01  0.95297916011E+01 -0.20449752264E+02  0.24548004572E+02  0.51100000000E-03 0.  1.
        -12    1    3    3    0    0 -0.31227233168E+01 -0.10096384157E+01 -0.57101606989E+01  0.65860994413E+01  0.00000000000E+00 0.  1.
</event>
<event>
 7    1  0.3980989E-008  0.4614232E+02  0.7816164E-02  0.1320468E+00
        -11   -1    0    0    0    0  0.00000000000E+00  0.00000000000E+00  0.45593999997E+02  0.45594000000E+02  0.51100000000E-03 0. -1.
         11   -1    0    0    0    0 -0.00000000000E+00 -0.00000000000E+00 -0.45593999997E+02  0.45594000000E+02  0.51100000000E-03 0.  1.
    9900012    2    1    2    0    0  0.21491397111E+02 -0.39275510306E+02 -0.49666394059E+01  0.46142319113E+02  0.10000012332E+02 0.  0.
        -12    1    1    2    0    0 -0.21491397111E+02  0.39275510306E+02  0.49666394059E+01  0.45045680887E+02  0.00000000000E+00 0.  1.
         11    1    3    3    0    0  0.16544728770E+02 -0.31438646867E+02 -0.22892487219E+01  0.35599961052E+02  0.51100000000E-03 0. -1.
        -11    1    3    3    0    0  0.77939051366E+00 -0.24268129356E+01  0.10565820391E+01  0.27592093910E+01  0.51100000000E-03 0.  1.
         12    1    3    3    0    0  0.41672778272E+01 -0.54100505027E+01 -0.37339727232E+01  0.77831486706E+01  0.00000000000E+00 0. -1.
</event>
<event>
 7    1  0.3980989E-008  0.4614232E+02  0.7816164E-02  0.1320468E+00
        -11   -1    0    0    0    0  0.00000000000E+00  0.00000000000E+00  0.45593999997E+02  0.45594000000E+02  0.51100000000E-03 0. -1.
         11   -1    0    0    0    0 -0.00000000000E+00 -0.00000000000E+00 -0.45593999997E+02  0.45594000000E+02  0.51100000000E-03 0.  1.
    9900012    2    1    2    0    0  0.25989075688E+02  0.21238137980E+02 -0.30043685104E+02  0.46142316804E+02  0.99999912733E+01 0.  0.
        -12    1    1    2    0    0 -0.25989075688E+02 -0.21238137980E+02  0.30043685104E+02  0.45045683196E+02  0.00000000000E+00 0.  1.
         11    1    3    3    0    0  0.29325631758E+01  0.13423805925E+01 -0.17919318527E+01  0.36895707692E+01  0.51100000000E-03 0.  1.
        -11    1    3    3    0    0  0.13980659631E+02  0.98239065375E+01 -0.10281709858E+02  0.19941954298E+02  0.51100000000E-03 0. -1.
         12    1    3    3    0    0  0.90758528816E+01  0.10071850850E+02 -0.17970043393E+02  0.22510791737E+02  0.00000000000E+00 0. -1.
</event>
<event>
 7    1  0.3980989E-008  0.4614232E+02  0.7816164E-02  0.1320468E+00
        -11   -1    0    0    0    0  0.00000000000E+00  0.00000000000E+00  0.45593999997E+02  0.45594000000E+02  0.51100000000E-03 0.  1.
         11   -1    0    0    0    0 -0.00000000000E+00 -0.00000000000E+00 -0.45593999997E+02  0.45594000000E+02  0.51100000000E-03 0. -1.
    9900012    2    1    2    0    0 -0.17709340197E+02 -0.32261459305E+02 -0.25974815846E+02  0.46142317133E+02  0.99999942763E+01 0.  0.
        -12    1    1    2    0    0  0.17709340197E+02  0.32261459305E+02  0.25974815846E+02  0.45045682867E+02  0.00000000000E+00 0.  1.
         11    1    3    3    0    0 -0.10086760957E+02 -0.15703457639E+02 -0.89816882058E+01  0.20712606106E+02  0.51100000000E-03 0. -1.
        -11    1    3    3    0    0 -0.35858256306E+01 -0.57967124972E+01 -0.33634769108E+01  0.76008551110E+01  0.51100000000E-03 0.  1.
        -12    1    3    3    0    0 -0.40367536087E+01 -0.10761289169E+02 -0.13629650730E+02  0.17828855916E+02  0.00000000000E+00 0.  1.
</event>
<event>
 7    1  0.3980989E-008  0.4614232E+02  0.7816164E-02  0.1320468E+00
        -11   -1    0    0    0    0  0.00000000000E+00  0.00000000000E+00  0.45593999997E+02  0.45594000000E+02  0.51100000000E-03 0.  1.
         11   -1    0    0    0    0 -0.00000000000E+00 -0.00000000000E+00 -0.45593999997E+02  0.45594000000E+02  0.51100000000E-03 0. -1.
    9900012    2    1    2    0    0  0.31139155417E+02 -0.30374527831E+02 -0.11698487697E+02  0.46142317017E+02  0.99999932120E+01 0.  0.
        -12    1    1    2    0    0 -0.31139155417E+02  0.30374527831E+02  0.11698487697E+02  0.45045682983E+02  0.00000000000E+00 0.  1.
         11    1    3    3    0    0  0.17298416131E+02 -0.11235027283E+02 -0.35029471583E+01  0.20922038088E+02  0.51100000000E-03 0.  1.
        -11    1    3    3    0    0  0.11870876511E+02 -0.14096633875E+02 -0.60517288620E+01  0.19397325028E+02  0.51100000000E-03 0. -1.
         12    1    3    3    0    0  0.19698627749E+01 -0.50428666722E+01 -0.21438116766E+01  0.58229539007E+01  0.00000000000E+00 0. -1.
</event>
<event>
 7    1  0.3980989E-008  0.4614232E+02  0.7816164E-02  0.1320468E+00
        -11   -1    0    0    0    0  0.00000000000E+00  0.00000000000E+00  0.45593999997E+02  0.45594000000E+02  0.51100000000E-03 0.  1.
         11   -1    0    0    0    0 -0.00000000000E+00 -0.00000000000E+00 -0.45593999997E+02  0.45594000000E+02  0.51100000000E-03 0. -1.
    9900012    2    1    2    0    0 -0.36654131107E+02 -0.12568565753E+02 -0.22969964752E+02  0.46142318153E+02  0.10000003577E+02 0.  0.
        -12    1    1    2    0    0  0.36654131107E+02  0.12568565753E+02  0.22969964752E+02  0.45045681847E+02  0.00000000000E+00 0.  1.
         11    1    3    3    0    0 -0.14211000645E+02 -0.60201699441E+01 -0.11287842818E+02  0.19120940909E+02  0.51100000000E-03 0. -1.
        -11    1    3    3    0    0  0.38676326616E+00 -0.69230132117E+00 -0.29943736170E+00  0.84766145250E+00  0.51100000000E-03 0.  1.
        -12    1    3    3    0    0 -0.22829893728E+02 -0.58560944881E+01 -0.11382684573E+02  0.26173715792E+02  0.00000000000E+00 0.  1.
</event>
<event>
 7    1  0.3980989E-008  0.4614232E+02  0.7816164E-02  0.1320468E+00
        -11   -1    0    0    0    0  0.00000000000E+00  0.00000000000E+00  0.45593999997E+02  0.45594000000E+02  0.51100000000E-03 0.  1.
         11   -1    0    0    0    0 -0.00000000000E+00 -0.00000000000E+00 -0.45593999997E+02  0.45594000000E+02  0.51100000000E-03 0. -1.
    9900012    2    1    2    0    0  0.21847141405E+02 -0.12711058611E+02 -0.37285982213E+02  0.46142322425E+02  0.10000042533E+02 0.  0.
        -12    1    1    2    0    0 -0.21847141405E+02  0.12711058611E+02  0.37285982213E+02  0.45045677575E+02  0.00000000000E+00 0.  1.
         11    1    3    3    0    0  0.10511087439E+02 -0.56666682453E+01 -0.12603833331E+02  0.17362335760E+02  0.51100000000E-03 0. -1.
        -11    1    3    3    0    0  0.32169984504E+01 -0.56952262968E+01 -0.11844077391E+02  0.13530219921E+02  0.51100000000E-03 0.  1.
        -12    1    3    3    0    0  0.81190555150E+01 -0.13491640685E+01 -0.12838071491E+02  0.15249766744E+02  0.00000000000E+00 0.  1.
</event>
<event>
 7    1  0.3980989E-008  0.4614232E+02  0.7816164E-02  0.1320468E+00
        -11   -1    0    0    0    0  0.00000000000E+00  0.00000000000E+00  0.45593999997E+02  0.45594000000E+02  0.51100000000E-03 0.  1.
         11   -1    0    0    0    0 -0.00000000000E+00 -0.00000000000E+00 -0.45593999997E+02  0.45594000000E+02  0.51100000000E-03 0. -1.
    9900012    2    1    2    0    0 -0.32147483208E+02  0.31488705877E+02 -0.20283331927E+01  0.46142318632E+02  0.10000007941E+02 0.  0.
        -12    1    1    2    0    0  0.32147483208E+02 -0.31488705877E+02  0.20283331927E+01  0.45045681368E+02  0.00000000000E+00 0.  1.
         11    1    3    3    0    0 -0.72321470911E+01  0.10608782573E+02 -0.28147106834E+01  0.13144307350E+02  0.51100000000E-03 0. -1.
        -11    1    3    3    0    0 -0.78306923269E+00  0.18758834526E+00  0.90159471595E+00  0.12088259194E+01  0.51100000000E-03 0.  1.
         12    1    3    3    0    0 -0.24132266884E+02  0.20692334958E+02 -0.11521722529E+00  0.31789185362E+02  0.00000000000E+00 0. -1.
</event>
<event>
 7    1  0.3980989E-008  0.4614232E+02  0.7816164E-02  0.1320468E+00
        -11   -1    0    0    0    0  0.00000000000E+00  0.00000000000E+00  0.45593999997E+02  0.45594000000E+02  0.51100000000E-03 0.  1.
         11   -1    0    0    0    0 -0.00000000000E+00 -0.00000000000E+00 -0.45593999997E+02  0.45594000000E+02  0.51100000000E-03 0. -1.
    9900012    2    1    2    0    0  0.20077804798E+02  0.17423899770E+01 -0.40285969551E+02  0.46142317510E+02  0.99999977085E+01 0.  0.
        -12    1    1    2    0    0 -0.20077804798E+02 -0.17423899770E+01  0.40285969551E+02  0.45045682490E+02  0.00000000000E+00 0.  1.
         11    1    3    3    0    0  0.18298135878E+02 -0.14230694605E+00 -0.35885638228E+02  0.40281770805E+02  0.51100000000E-03 0. -1.
        -11    1    3    3    0    0 -0.14822090407E+00 -0.66086527127E+00 -0.79784291761E+00  0.10465495332E+01  0.51100000000E-03 0.  1.
         12    1    3    3    0    0  0.19278898247E+01  0.25455621943E+01 -0.36024884052E+01  0.48139971719E+01  0.00000000000E+00 0. -1.
</event>
<event>
 7    1  0.3980989E-008  0.4614231E+02  0.7816164E-02  0.1320468E+00
        -11   -1    0    0    0    0  0.00000000000E+00  0.00000000000E+00  0.45593999997E+02  0.45594000000E+02  0.51100000000E-03 0.  1.
         11   -1    0    0    0    0 -0.00000000000E+00 -0.00000000000E+00 -0.45593999997E+02  0.45594000000E+02  0.51100000000E-03 0. -1.
    9900012    2    1    2    0    0 -0.21258382822E+02  0.33193679559E+02  0.21803085966E+02  0.46142314740E+02  0.99999724518E+01 0.  0.
        -12    1    1    2    0    0  0.21258382822E+02 -0.33193679559E+02 -0.21803085966E+02  0.45045685260E+02  0.00000000000E+00 0.  1.
         11    1    3    3    0    0 -0.28891992851E+00  0.16841580654E+01 -0.47131877534E-01  0.17094106555E+01  0.51100000000E-03 0. -1.
        -11    1    3    3    0    0 -0.12471410748E+02  0.11617478334E+02  0.10219575107E+02  0.19873137762E+02  0.51100000000E-03 0.  1.
         12    1    3    3    0    0 -0.84980521458E+01  0.19892043160E+02  0.11630642737E+02  0.24559766322E+02  0.00000000000E+00 0. -1.
</event>
<event>
 7    1  0.3980989E-008  0.4614232E+02  0.7816164E-02  0.1320468E+00
        -11   -1    0    0    0    0  0.00000000000E+00  0.00000000000E+00  0.45593999997E+02  0.45594000000E+02  0.51100000000E-03 0. -1.
         11   -1    0    0    0    0 -0.00000000000E+00 -0.00000000000E+00 -0.45593999997E+02  0.45594000000E+02  0.51100000000E-03 0.  1.
    9900012    2    1    2    0    0 -0.52712190105E+01 -0.20948692500E+02  0.39528218269E+02  0.46142317556E+02  0.99999981330E+01 0.  0.
        -12    1    1    2    0    0  0.52712190105E+01  0.20948692500E+02 -0.39528218269E+02  0.45045682444E+02  0.00000000000E+00 0.  1.
         11    1    3    3    0    0  0.13148309917E+01 -0.42987703233E+01  0.93358634698E+01  0.10361783332E+02  0.51100000000E-03 0. -1.
        -11    1    3    3    0    0 -0.54225726961E+01 -0.12393062783E+02  0.16181177168E+02  0.21090822520E+02  0.51100000000E-03 0.  1.
        -12    1    3    3    0    0 -0.11634773062E+01 -0.42568593935E+01  0.14011177631E+02  0.14689711704E+02  0.00000000000E+00 0.  1.
</event>
<event>
 7    1  0.3980989E-008  0.4614232E+02  0.7816164E-02  0.1320468E+00
        -11   -1    0    0    0    0  0.00000000000E+00  0.00000000000E+00  0.45593999997E+02  0.45594000000E+02  0.51100000000E-03 0.  1.
         11   -1    0    0    0    0 -0.00000000000E+00 -0.00000000000E+00 -0.45593999997E+02  0.45594000000E+02  0.51100000000E-03 0. -1.
    9900012    2    1    2    0    0  0.21205164928E+01 -0.40707607895E+02 -0.19170491047E+02  0.46142315881E+02  0.99999828594E+01 0.  0.
        -12    1    1    2    0    0 -0.21205164928E+01  0.40707607895E+02  0.19170491047E+02  0.45045684119E+02  0.00000000000E+00 0.  1.
         11    1    3    3    0    0  0.30819599485E+01 -0.11209319412E+02 -0.23796721868E+01  0.11866345637E+02  0.51100000000E-03 0. -1.
        -11    1    3    3    0    0 -0.64164633940E-01  0.17280117349E+00 -0.18994662031E+00  0.26468344394E+00  0.51100000000E-03 0.  1.
        -12    1    3    3    0    0 -0.89727882178E+00 -0.29671089657E+02 -0.16600872240E+02  0.34011286801E+02  0.00000000000E+00 0.  1.
</event>
<event>
 7    1  0.3980989E-008  0.4614232E+02  0.7816164E-02  0.1320468E+00
        -11   -1    0    0    0    0  0.00000000000E+00  0.00000000000E+00  0.45593999997E+02  0.45594000000E+02  0.51100000000E-03 0. -1.
         11   -1    0    0    0    0 -0.00000000000E+00 -0.00000000000E+00 -0.45593999997E+02  0.45594000000E+02  0.51100000000E-03 0.  1.
    9900012    2    1    2    0    0 -0.39461528297E+02  0.75352573648E+01  0.20374522019E+02  0.46142318002E+02  0.10000002200E+02 0.  0.
        -12    1    1    2    0    0  0.39461528297E+02 -0.75352573648E+01 -0.20374522019E+02  0.45045681998E+02  0.00000000000E+00 0.  1.
         11    1    3    3    0    0 -0.17589062974E+02  0.24936956109E+01  0.11333621179E+02  0.21072366346E+02  0.51100000000E-03 0. -1.
        -11    1    3    3    0    0 -0.17437106493E+02  0.20686406734E+01  0.46705881268E+01  0.18169929851E+02  0.51100000000E-03 0.  1.
        -12    1    3    3    0    0 -0.44353588298E+01  0.29729210805E+01  0.43703127133E+01  0.69000218051E+01  0.00000000000E+00 0.  1.
</event>
<event>
 7    1  0.3980989E-008  0.4614232E+02  0.7816164E-02  0.1320468E+00
        -11   -1    0    0    0    0  0.00000000000E+00  0.00000000000E+00  0.45593999997E+02  0.45594000000E+02  0.51100000000E-03 0.  1.
         11   -1    0    0    0    0 -0.00000000000E+00 -0.00000000000E+00 -0.45593999997E+02  0.45594000000E+02  0.51100000000E-03 0. -1.
    9900012    2    1    2    0    0 -0.36874262450E+02 -0.25791116314E+02  0.20543900129E+01  0.46142318406E+02  0.10000005881E+02 0.  0.
        -12    1    1    2    0    0  0.36874262450E+02  0.25791116314E+02 -0.20543900129E+01  0.45045681594E+02  0.00000000000E+00 0.  1.
         11    1    3    3    0    0 -0.19287987538E+02 -0.17380694143E+02  0.17954690456E+01  0.26025731527E+02  0.51100000000E-03 0. -1.
        -11    1    3    3    0    0 -0.10218370603E+01 -0.21971560994E+01  0.71585160138E-01  0.24242051479E+01  0.51100000000E-03 0.  1.
         12    1    3    3    0    0 -0.16564437852E+02 -0.62132660712E+01  0.18733580721E+00  0.17692381731E+02  0.00000000000E+00 0. -1.
</event>
<event>
 7    1  0.3980989E-008  0.4614232E+02  0.7816164E-02  0.1320468E+00
        -11   -1    0    0    0    0  0.00000000000E+00  0.00000000000E+00  0.45593999997E+02  0.45594000000E+02  0.51100000000E-03 0. -1.
         11   -1    0    0    0    0 -0.00000000000E+00 -0.00000000000E+00 -0.45593999997E+02  0.45594000000E+02  0.51100000000E-03 0.  1.
    9900012    2    1    2    0    0 -0.22035006025E+02 -0.38769824003E+02  0.63618145009E+01  0.46142318437E+02  0.10000006163E+02 0.  0.
        -12    1    1    2    0    0  0.22035006025E+02  0.38769824003E+02 -0.63618145009E+01  0.45045681563E+02  0.00000000000E+00 0.  1.
         11    1    3    3    0    0 -0.10128705199E+02 -0.91423370052E+01  0.23883090665E+01  0.13851967925E+02  0.51100000000E-03 0.  1.
        -11    1    3    3    0    0 -0.31055364747E+01 -0.52004258825E+01  0.26690121860E+00  0.60630044265E+01  0.51100000000E-03 0. -1.
        -12    1    3    3    0    0 -0.88007643509E+01 -0.24427061115E+02  0.37066042158E+01  0.26227346086E+02  0.00000000000E+00 0.  1.
</event>
<event>
 7    1  0.3980989E-008  0.4614232E+02  0.7816164E-02  0.1320468E+00
        -11   -1    0    0    0    0  0.00000000000E+00  0.00000000000E+00  0.45593999997E+02  0.45594000000E+02  0.51100000000E-03 0.  1.
         11   -1    0    0    0    0 -0.00000000000E+00 -0.00000000000E+00 -0.45593999997E+02  0.45594000000E+02  0.51100000000E-03 0. -1.
    9900012    2    1    2    0    0 -0.63982419453E+01 -0.16733973513E+02 -0.41329772850E+02  0.46142317706E+02  0.99999994933E+01 0.  0.
        -12    1    1    2    0    0  0.63982419453E+01  0.16733973513E+02  0.41329772850E+02  0.45045682294E+02  0.00000000000E+00 0.  1.
         11    1    3    3    0    0 -0.59478551941E+00 -0.30655074358E+01 -0.30449873546E+01  0.43615426060E+01  0.51100000000E-03 0.  1.
        -11    1    3    3    0    0  0.14250834416E+01 -0.21641987269E+01 -0.29644402737E+01  0.39373246427E+01  0.51100000000E-03 0. -1.
         12    1    3    3    0    0 -0.72285398675E+01 -0.11504267350E+02 -0.35320345222E+02  0.37843450457E+02  0.00000000000E+00 0. -1.
</event>
<event>
 7    1  0.3980989E-008  0.4614231E+02  0.7816164E-02  0.1320468E+00
        -11   -1    0    0    0    0  0.00000000000E+00  0.00000000000E+00  0.45593999997E+02  0.45594000000E+02  0.51100000000E-03 0.  1.
         11   -1    0    0    0    0 -0.00000000000E+00 -0.00000000000E+00 -0.45593999997E+02  0.45594000000E+02  0.51100000000E-03 0. -1.
    9900012    2    1    2    0    0  0.24566890155E+01 -0.25418103741E+02 -0.37107929479E+02  0.46142314869E+02  0.99999736289E+01 0.  0.
        -12    1    1    2    0    0 -0.24566890155E+01  0.25418103741E+02  0.37107929479E+02  0.45045685131E+02  0.00000000000E+00 0.  1.
         11    1    3    3    0    0  0.62086517404E+00 -0.14821953211E+02 -0.24432407860E+02  0.28583532403E+02  0.51100000000E-03 0. -1.
        -11    1    3    3    0    0 -0.41792010279E+00 -0.13564096606E+00 -0.33085831905E+01  0.33376306976E+01  0.51100000000E-03 0.  1.
         12    1    3    3    0    0  0.22537439442E+01 -0.10460509563E+02 -0.93669384287E+01  0.14221151768E+02  0.00000000000E+00 0. -1.
</event>
<event>
 7    1  0.3980989E-008  0.4614233E+02  0.7816164E-02  0.1320468E+00
        -11   -1    0    0    0    0  0.00000000000E+00  0.00000000000E+00  0.45593999997E+02  0.45594000000E+02  0.51100000000E-03 0.  1.
         11   -1    0    0    0    0 -0.00000000000E+00 -0.00000000000E+00 -0.45593999997E+02  0.45594000000E+02  0.51100000000E-03 0. -1.
    9900012    2    1    2    0    0  0.10705826799E+02 -0.85690196558E+01 -0.42907690352E+02  0.46142326327E+02  0.10000078108E+02 0.  0.
        -12    1    1    2    0    0 -0.10705826799E+02  0.85690196558E+01  0.42907690352E+02  0.45045673673E+02  0.00000000000E+00 0.  1.
         11    1    3    3    0    0  0.18579893815E+01 -0.10872588526E+01 -0.12060687256E+02  0.12251303347E+02  0.51100000000E-03 0. -1.
        -11    1    3    3    0    0  0.68548878282E+01 -0.92848177627E+00 -0.12184065262E+02  0.14010817682E+02  0.51100000000E-03 0.  1.
        -12    1    3    3    0    0  0.19929495889E+01 -0.65532790269E+01 -0.18662937834E+02  0.19880205298E+02  0.00000000000E+00 0.  1.
</event>
<event>
 7    1  0.3980989E-008  0.4614232E+02  0.7816164E-02  0.1320468E+00
        -11   -1    0    0    0    0  0.00000000000E+00  0.00000000000E+00  0.45593999997E+02  0.45594000000E+02  0.51100000000E-03 0. -1.
         11   -1    0    0    0    0 -0.00000000000E+00 -0.00000000000E+00 -0.45593999997E+02  0.45594000000E+02  0.51100000000E-03 0.  1.
    9900012    2    1    2    0    0 -0.41191067114E+02  0.62500367130E+01 -0.17127360791E+02  0.46142318114E+02  0.10000003221E+02 0.  0.
        -12    1    1    2    0    0  0.41191067114E+02 -0.62500367130E+01  0.17127360791E+02  0.45045681886E+02  0.00000000000E+00 0.  1.
         11    1    3    3    0    0 -0.32965598931E+02  0.12559434907E+01 -0.14378235434E+02  0.35986688669E+02  0.51100000000E-03 0. -1.
        -11    1    3    3    0    0 -0.38623053845E+01  0.15689751516E+01 -0.62273956888E+00  0.42150789721E+01  0.51100000000E-03 0.  1.
         12    1    3    3    0    0 -0.43631627987E+01  0.34251180706E+01 -0.21263857877E+01  0.59405504731E+01  0.00000000000E+00 0. -1.
</event>
<event>
 7    1  0.3980989E-008  0.4614232E+02  0.7816164E-02  0.1320468E+00
        -11   -1    0    0    0    0  0.00000000000E+00  0.00000000000E+00  0.45593999997E+02  0.45594000000E+02  0.51100000000E-03 0. -1.
         11   -1    0    0    0    0 -0.00000000000E+00 -0.00000000000E+00 -0.45593999997E+02  0.45594000000E+02  0.51100000000E-03 0.  1.
    9900012    2    1    2    0    0  0.23896532897E+02  0.34996194455E+02  0.15275324572E+02  0.46142318169E+02  0.10000003723E+02 0.  0.
        -12    1    1    2    0    0 -0.23896532897E+02 -0.34996194455E+02 -0.15275324572E+02  0.45045681831E+02  0.00000000000E+00 0.  1.
         11    1    3    3    0    0  0.59935586389E+01  0.91575787960E+01  0.48867135764E+00  0.10955491523E+02  0.51100000000E-03 0. -1.
        -11    1    3    3    0    0  0.55941491544E+01  0.12335141133E+02  0.48391714348E+01  0.14382899289E+02  0.51100000000E-03 0.  1.
        -12    1    3    3    0    0  0.12308825104E+02  0.13503474525E+02  0.99474817797E+01  0.20803927357E+02  0.00000000000E+00 0.  1.
</event>
<event>
 7    1  0.3980989E-008  0.4614232E+02  0.7816164E-02  0.1320468E+00
        -11   -1    0    0    0    0  0.00000000000E+00  0.00000000000E+00  0.45593999997E+02  0.45594000000E+02  0.51100000000E-03 0. -1.
         11   -1    0    0    0    0 -0.00000000000E+00 -0.00000000000E+00 -0.45593999997E+02  0.45594000000E+02  0.51100000000E-03 0.  1.
    9900012    2    1    2    0    0 -0.16032865815E+02  0.22084463866E+02  0.35837648669E+02  0.46142318824E+02  0.10000009693E+02 0.  0.
        -12    1    1    2    0    0  0.16032865815E+02 -0.22084463866E+02 -0.35837648669E+02  0.45045681176E+02  0.00000000000E+00 0.  1.
         11    1    3    3    0    0 -0.16632231228E+01  0.26491458400E+00  0.34429270140E+01  0.38327845723E+01  0.51100000000E-03 0. -1.
        -11    1    3    3    0    0 -0.63822642702E+01  0.38885560390E+01  0.72747966090E+01  0.10429613188E+02  0.51100000000E-03 0.  1.
        -12    1    3    3    0    0 -0.79873784225E+01  0.17930993243E+02  0.25119925046E+02  0.31879921064E+02  0.00000000000E+00 0.  1.
</event>
<event>
 7    1  0.3980989E-008  0.4614232E+02  0.7816164E-02  0.1320468E+00
        -11   -1    0    0    0    0  0.00000000000E+00  0.00000000000E+00  0.45593999997E+02  0.45594000000E+02  0.51100000000E-03 0.  1.
         11   -1    0    0    0    0 -0.00000000000E+00 -0.00000000000E+00 -0.45593999997E+02  0.45594000000E+02  0.51100000000E-03 0. -1.
    9900012    2    1    2    0    0 -0.33755497500E+02 -0.26929270390E+02 -0.12825531927E+02  0.46142317804E+02  0.10000000395E+02 0.  0.
        -12    1    1    2    0    0  0.33755497500E+02  0.26929270390E+02  0.12825531927E+02  0.45045682196E+02  0.00000000000E+00 0.  1.
         11    1    3    3    0    0 -0.15168196047E+02 -0.12116754439E+02 -0.63123538557E+01  0.20414105930E+02  0.51100000000E-03 0. -1.
        -11    1    3    3    0    0 -0.16415706488E+02 -0.10663490554E+02 -0.28474698452E+01  0.19781140895E+02  0.51100000000E-03 0.  1.
         12    1    3    3    0    0 -0.21715949645E+01 -0.41490253965E+01 -0.36657082264E+01  0.59470709792E+01  0.00000000000E+00 0. -1.
</event>
<event>
 7    1  0.3980989E-008  0.4614232E+02  0.7816164E-02  0.1320468E+00
        -11   -1    0    0    0    0  0.00000000000E+00  0.00000000000E+00  0.45593999997E+02  0.45594000000E+02  0.51100000000E-03 0.  1.
         11   -1    0    0    0    0 -0.00000000000E+00 -0.00000000000E+00 -0.45593999997E+02  0.45594000000E+02  0.51100000000E-03 0. -1.
    9900012    2    1    2    0    0 -0.20650794402E+02 -0.36536313067E+02 -0.16363251176E+02  0.46142317954E+02  0.10000001755E+02 0.  0.
        -12    1    1    2    0    0  0.20650794402E+02  0.36536313067E+02  0.16363251176E+02  0.45045682046E+02  0.00000000000E+00 0.  1.
         11    1    3    3    0    0 -0.17430108534E+02 -0.25950771390E+02 -0.11123762871E+02  0.33181159110E+02  0.51100000000E-03 0. -1.
        -11    1    3    3    0    0 -0.42757655860E+01 -0.87003077209E+01 -0.43222893607E+01  0.10614127914E+02  0.51100000000E-03 0.  1.
        -12    1    3    3    0    0  0.10550797180E+01 -0.18852339568E+01 -0.91719894436E+00  0.23470309301E+01  0.00000000000E+00 0.  1.
</event>
<event>
 7    1  0.3980989E-008  0.4614232E+02  0.7816164E-02  0.1320468E+00
        -11   -1    0    0    0    0  0.00000000000E+00  0.00000000000E+00  0.45593999997E+02  0.45594000000E+02  0.51100000000E-03 0.  1.
         11   -1    0    0    0    0 -0.00000000000E+00 -0.00000000000E+00 -0.45593999997E+02  0.45594000000E+02  0.51100000000E-03 0. -1.
    9900012    2    1    2    0    0 -0.40370075488E+02 -0.19053644902E+02  0.60273626583E+01  0.46142317859E+02  0.10000000890E+02 0.  0.
        -12    1    1    2    0    0  0.40370075488E+02  0.19053644902E+02 -0.60273626583E+01  0.45045682141E+02  0.00000000000E+00 0.  1.
         11    1    3    3    0    0 -0.16255449321E+01 -0.24648172821E+01 -0.15134266818E+01  0.33178579147E+01  0.51100000000E-03 0.  1.
        -11    1    3    3    0    0 -0.16007579053E+02 -0.64231509860E+01  0.29317611578E+01  0.17495561707E+02  0.51100000000E-03 0. -1.
        -12    1    3    3    0    0 -0.22736951504E+02 -0.10165676634E+02  0.46090281823E+01  0.25328898237E+02  0.00000000000E+00 0.  1.
</event>
<event>
 7    1  0.3980989E-008  0.4614232E+02  0.7816164E-02  0.1320468E+00
        -11   -1    0    0    0    0  0.00000000000E+00  0.00000000000E+00  0.45593999997E+02  0.45594000000E+02  0.51100000000E-03 0.  1.
         11   -1    0    0    0    0 -0.00000000000E+00 -0.00000000000E+00 -0.45593999997E+02  0.45594000000E+02  0.51100000000E-03 0. -1.
    9900012    2    1    2    0    0  0.39992905184E+02  0.10478715956E+02 -0.17885121847E+02  0.46142317226E+02  0.99999951186E+01 0.  0.
        -12    1    1    2    0    0 -0.39992905184E+02 -0.10478715956E+02  0.17885121847E+02  0.45045682774E+02  0.00000000000E+00 0.  1.
         11    1    3    3    0    0  0.14847885773E+02  0.50467830151E+00 -0.51635502573E+01  0.15728212348E+02  0.51100000000E-03 0. -1.
        -11    1    3    3    0    0  0.11722510573E+02  0.25032804992E+01 -0.77250233646E+01  0.14260422632E+02  0.51100000000E-03 0.  1.
        -12    1    3    3    0    0  0.13422508837E+02  0.74707571549E+01 -0.49965482251E+01  0.16153682247E+02  0.00000000000E+00 0.  1.
</event>
<event>
 7    1  0.3980989E-008  0.4614232E+02  0.7816164E-02  0.1320468E+00
        -11   -1    0    0    0    0  0.00000000000E+00  0.00000000000E+00  0.45593999997E+02  0.45594000000E+02  0.51100000000E-03 0.  1.
         11   -1    0    0    0    0 -0.00000000000E+00 -0.00000000000E+00 -0.45593999997E+02  0.45594000000E+02  0.51100000000E-03 0. -1.
    9900012    2    1    2    0    0  0.28245413069E+02  0.25800187158E+02 -0.23783615844E+02  0.46142318749E+02  0.10000009004E+02 0.  0.
        -12    1    1    2    0    0 -0.28245413069E+02 -0.25800187158E+02  0.23783615844E+02  0.45045681251E+02  0.00000000000E+00 0.  1.
         11    1    3    3    0    0  0.12879986759E+02  0.95484630448E+01 -0.81827576953E+01  0.18000686909E+02  0.51100000000E-03 0. -1.
        -11    1    3    3    0    0  0.13061615745E+01 -0.54321588415E+00 -0.36531380398E+00  0.14610256644E+01  0.51100000000E-03 0.  1.
         12    1    3    3    0    0  0.14059264735E+02  0.16794939997E+02 -0.15235544345E+02  0.26680606175E+02  0.00000000000E+00 0. -1.
</event>
<event>
 7    1  0.3980989E-008  0.4614232E+02  0.7816164E-02  0.1320468E+00
        -11   -1    0    0    0    0  0.00000000000E+00  0.00000000000E+00  0.45593999997E+02  0.45594000000E+02  0.51100000000E-03 0. -1.
         11   -1    0    0    0    0 -0.00000000000E+00 -0.00000000000E+00 -0.45593999997E+02  0.45594000000E+02  0.51100000000E-03 0.  1.
    9900012    2    1    2    0    0 -0.27761138277E+02 -0.29463822868E+02  0.19756413232E+02  0.46142317407E+02  0.99999967747E+01 0.  0.
        -12    1    1    2    0    0  0.27761138277E+02  0.29463822868E+02 -0.19756413232E+02  0.45045682593E+02  0.00000000000E+00 0.  1.
         11    1    3    3    0    0 -0.17763043591E+02 -0.15493902496E+02  0.14685047771E+02  0.27771160590E+02  0.51100000000E-03 0. -1.
        -11    1    3    3    0    0 -0.19075847986E+01 -0.29825915609E+01  0.28538564109E+01  0.45474420126E+01  0.51100000000E-03 0.  1.
        -12    1    3    3    0    0 -0.80905098872E+01 -0.10987328810E+02  0.22175090502E+01  0.13823714805E+02  0.00000000000E+00 0.  1.
</event>
<event>
 7    1  0.3980989E-008  0.4614232E+02  0.7816164E-02  0.1320468E+00
        -11   -1    0    0    0    0  0.00000000000E+00  0.00000000000E+00  0.45593999997E+02  0.45594000000E+02  0.51100000000E-03 0. -1.
         11   -1    0    0    0    0 -0.00000000000E+00 -0.00000000000E+00 -0.45593999997E+02  0.45594000000E+02  0.51100000000E-03 0.  1.
    9900012    2    1    2    0    0  0.75548745614E+00 -0.44773387229E+02  0.48873833258E+01  0.46142317842E+02  0.10000000741E+02 0.  0.
        -12    1    1    2    0    0 -0.75548745614E+00  0.44773387229E+02 -0.48873833258E+01  0.45045682158E+02  0.00000000000E+00 0.  1.
         11    1    3    3    0    0  0.13274435907E+01 -0.19158766287E+02  0.42713754107E+01  0.19673969612E+02  0.51100000000E-03 0. -1.
        -11    1    3    3    0    0 -0.25946359933E+01 -0.20236096508E+02  0.21667508637E+01  0.20516494520E+02  0.51100000000E-03 0.  1.
        -12    1    3    3    0    0  0.20226798588E+01 -0.53785244346E+01 -0.15507429487E+01  0.59518537110E+01  0.00000000000E+00 0.  1.
</event>
<event>
 7    1  0.3980989E-008  0.4614232E+02  0.7816164E-02  0.1320468E+00
        -11   -1    0    0    0    0  0.00000000000E+00  0.00000000000E+00  0.45593999997E+02  0.45594000000E+02  0.51100000000E-03 0.  1.
         11   -1    0    0    0    0 -0.00000000000E+00 -0.00000000000E+00 -0.45593999997E+02  0.45594000000E+02  0.51100000000E-03 0. -1.
    9900012    2    1    2    0    0  0.24378217196E+02  0.14323461459E+02 -0.35066429478E+02  0.46142317652E+02  0.99999990038E+01 0.  0.
        -12    1    1    2    0    0 -0.24378217196E+02 -0.14323461459E+02  0.35066429478E+02  0.45045682348E+02  0.00000000000E+00 0.  1.
         11    1    3    3    0    0  0.32556885370E+01  0.20632018352E+01 -0.61044396860E+01  0.72194524587E+01  0.51100000000E-03 0. -1.
        -11    1    3    3    0    0  0.19155108321E+02  0.11937691013E+02 -0.21401303329E+02  0.31103736527E+02  0.51100000000E-03 0.  1.
         12    1    3    3    0    0  0.19674203381E+01  0.32256861116E+00 -0.75606864634E+01  0.78191286659E+01  0.00000000000E+00 0. -1.
</event>
<event>
 7    1  0.3980989E-008  0.4614232E+02  0.7816164E-02  0.1320468E+00
        -11   -1    0    0    0    0  0.00000000000E+00  0.00000000000E+00  0.45593999997E+02  0.45594000000E+02  0.51100000000E-03 0.  1.
         11   -1    0    0    0    0 -0.00000000000E+00 -0.00000000000E+00 -0.45593999997E+02  0.45594000000E+02  0.51100000000E-03 0. -1.
    9900012    2    1    2    0    0  0.37959947061E+02  0.16711839721E+02 -0.17574707365E+02  0.46142317557E+02  0.99999981423E+01 0.  0.
        -12    1    1    2    0    0 -0.37959947061E+02 -0.16711839721E+02  0.17574707365E+02  0.45045682443E+02  0.00000000000E+00 0.  1.
         11    1    3    3    0    0  0.10000300739E+02  0.16808732638E+01 -0.38582521815E+01  0.10849767737E+02  0.51100000000E-03 0. -1.
        -11    1    3    3    0    0  0.32881439156E+01  0.47104429988E+01 -0.18520308110E+01  0.60357420456E+01  0.51100000000E-03 0.  1.
         12    1    3    3    0    0  0.24671502407E+02  0.10320523458E+02 -0.11864424373E+02  0.29256807775E+02  0.00000000000E+00 0. -1.
</event>
<event>
 7    1  0.3980989E-008  0.4614232E+02  0.7816164E-02  0.1320468E+00
        -11   -1    0    0    0    0  0.00000000000E+00  0.00000000000E+00  0.45593999997E+02  0.45594000000E+02  0.51100000000E-03 0. -1.
         11   -1    0    0    0    0 -0.00000000000E+00 -0.00000000000E+00 -0.45593999997E+02  0.45594000000E+02  0.51100000000E-03 0.  1.
    9900012    2    1    2    0    0  0.11189477130E+02  0.38524772000E+02  0.20487819296E+02  0.46142321011E+02  0.10000029631E+02 0.  0.
        -12    1    1    2    0    0 -0.11189477130E+02 -0.38524772000E+02 -0.20487819296E+02  0.45045678989E+02  0.00000000000E+00 0.  1.
         11    1    3    3    0    0  0.46188396952E+01  0.11166077296E+02  0.78750671076E+01  0.14423302137E+02  0.51100000000E-03 0. -1.
        -11    1    3    3    0    0  0.57330841463E+01  0.17516909995E+02  0.45905045950E+01  0.18994291835E+02  0.51100000000E-03 0.  1.
        -12    1    3    3    0    0  0.83755328871E+00  0.98417847088E+01  0.80222475936E+01  0.12724727039E+02  0.00000000000E+00 0.  1.
</event>
<event>
 7    1  0.3980989E-008  0.4614232E+02  0.7816164E-02  0.1320468E+00
        -11   -1    0    0    0    0  0.00000000000E+00  0.00000000000E+00  0.45593999997E+02  0.45594000000E+02  0.51100000000E-03 0.  1.
         11   -1    0    0    0    0 -0.00000000000E+00 -0.00000000000E+00 -0.45593999997E+02  0.45594000000E+02  0.51100000000E-03 0. -1.
    9900012    2    1    2    0    0  0.40402904920E+02  0.15060995930E+02 -0.13034000646E+02  0.46142317662E+02  0.99999990994E+01 0.  0.
        -12    1    1    2    0    0 -0.40402904920E+02 -0.15060995930E+02  0.13034000646E+02  0.45045682338E+02  0.00000000000E+00 0.  1.
         11    1    3    3    0    0  0.23949638448E+02  0.96248453660E+01 -0.68671641003E+01  0.26709188928E+02  0.51100000000E-03 0. -1.
        -11    1    3    3    0    0  0.57615981390E+01  0.17026135623E+01  0.91378204094E+00  0.60769979379E+01  0.51100000000E-03 0.  1.
        -12    1    3    3    0    0  0.10691668333E+02  0.37335370018E+01 -0.70806185871E+01  0.13356130797E+02  0.00000000000E+00 0.  1.
</event>
<event>
 7    1  0.3980989E-008  0.4614232E+02  0.7816164E-02  0.1320468E+00
        -11   -1    0    0    0    0  0.00000000000E+00  0.00000000000E+00  0.45593999997E+02  0.45594000000E+02  0.51100000000E-03 0.  1.
         11   -1    0    0    0    0 -0.00000000000E+00 -0.00000000000E+00 -0.45593999997E+02  0.45594000000E+02  0.51100000000E-03 0. -1.
    9900012    2    1    2    0    0 -0.26702273439E+02  0.24102764052E+02 -0.27113816286E+02  0.46142315686E+02  0.99999810755E+01 0.  0.
        -12    1    1    2    0    0  0.26702273439E+02 -0.24102764052E+02  0.27113816286E+02  0.45045684314E+02  0.00000000000E+00 0.  1.
         11    1    3    3    0    0 -0.19197219929E+02  0.14759724752E+02 -0.21454559430E+02  0.32352447332E+02  0.51100000000E-03 0. -1.
        -11    1    3    3    0    0 -0.20574047598E+01  0.43828365108E+00 -0.58742846816E+00  0.21840511374E+01  0.51100000000E-03 0.  1.
         12    1    3    3    0    0 -0.54476487497E+01  0.89047556491E+01 -0.50718283884E+01  0.11605817217E+02  0.00000000000E+00 0. -1.
</event>
<event>
 7    1  0.4275081E-008  0.4614232E+02  0.7816164E-02  0.1320468E+00
        -11   -1    0    0    0    0  0.00000000000E+00  0.00000000000E+00  0.45593999997E+02  0.45594000000E+02  0.51100000000E-03 0. -1.
         11   -1    0    0    0    0 -0.00000000000E+00 -0.00000000000E+00 -0.45593999997E+02  0.45594000000E+02  0.51100000000E-03 0.  1.
    9900012    2    1    2    0    0  0.10076786891E+02  0.32903335232E+02  0.29067893497E+02  0.46142317235E+02  0.99999951984E+01 0.  0.
        -12    1    1    2    0    0 -0.10076786891E+02 -0.32903335232E+02 -0.29067893497E+02  0.45045682765E+02  0.00000000000E+00 0.  1.
         11    1    3    3    0    0  0.46402279743E+01  0.56499869095E+01  0.51124939600E+01  0.89214159461E+01  0.51100000000E-03 0. -1.
        -11    1    3    3    0    0 -0.72654748550E-01  0.20154920034E+01  0.43387985172E+01  0.47846274215E+01  0.51100000000E-03 0.  1.
         12    1    3    3    0    0  0.55092136654E+01  0.25237856319E+02  0.19616601020E+02  0.32436273867E+02  0.00000000000E+00 0. -1.
</event>
<event>
 7    1  0.3980989E-008  0.4614232E+02  0.7816164E-02  0.1320468E+00
        -11   -1    0    0    0    0  0.00000000000E+00  0.00000000000E+00  0.45593999997E+02  0.45594000000E+02  0.51100000000E-03 0.  1.
         11   -1    0    0    0    0 -0.00000000000E+00 -0.00000000000E+00 -0.45593999997E+02  0.45594000000E+02  0.51100000000E-03 0. -1.
    9900012    2    1    2    0    0  0.25981945874E+02 -0.26705339592E+02 -0.25315543986E+02  0.46142318282E+02  0.10000004747E+02 0.  0.
        -12    1    1    2    0    0 -0.25981945874E+02  0.26705339592E+02  0.25315543986E+02  0.45045681718E+02  0.00000000000E+00 0.  1.
         11    1    3    3    0    0  0.10403345777E+02 -0.12366562423E+02 -0.88876854750E+01  0.18443221597E+02  0.51100000000E-03 0. -1.
        -11    1    3    3    0    0  0.43214095686E+01 -0.14951830634E+01 -0.99337002513E+00  0.46794163441E+01  0.51100000000E-03 0.  1.
        -12    1    3    3    0    0  0.11257190529E+02 -0.12843594105E+02 -0.15434488486E+02  0.23019680341E+02  0.00000000000E+00 0.  1.
</event>
<event>
 7    1  0.3980989E-008  0.4614232E+02  0.7816164E-02  0.1320468E+00
        -11   -1    0    0    0    0  0.00000000000E+00  0.00000000000E+00  0.45593999997E+02  0.45594000000E+02  0.51100000000E-03 0.  1.
         11   -1    0    0    0    0 -0.00000000000E+00 -0.00000000000E+00 -0.45593999997E+02  0.45594000000E+02  0.51100000000E-03 0. -1.
    9900012    2    1    2    0    0  0.28333724303E+02 -0.26235769376E+02 -0.23194781556E+02  0.46142318531E+02  0.10000007016E+02 0.  0.
        -12    1    1    2    0    0 -0.28333724303E+02  0.26235769376E+02  0.23194781556E+02  0.45045681469E+02  0.00000000000E+00 0.  1.
         11    1    3    3    0    0  0.12298077675E+02 -0.99820505922E+01 -0.95580219171E+01  0.18499725181E+02  0.51100000000E-03 0. -1.
        -11    1    3    3    0    0  0.61689640204E+00  0.30835230071E+00 -0.21656225154E+01  0.22727875951E+01  0.51100000000E-03 0.  1.
        -12    1    3    3    0    0  0.15418750226E+02 -0.16562071085E+02 -0.11471137123E+02  0.25369805755E+02  0.00000000000E+00 0.  1.
</event>
<event>
 7    1  0.3980989E-008  0.4614232E+02  0.7816164E-02  0.1320468E+00
        -11   -1    0    0    0    0  0.00000000000E+00  0.00000000000E+00  0.45593999997E+02  0.45594000000E+02  0.51100000000E-03 0. -1.
         11   -1    0    0    0    0 -0.00000000000E+00 -0.00000000000E+00 -0.45593999997E+02  0.45594000000E+02  0.51100000000E-03 0.  1.
    9900012    2    1    2    0    0  0.62678407767E+01 -0.36309245856E+02  0.25912666230E+02  0.46142318367E+02  0.10000005524E+02 0.  0.
        -12    1    1    2    0    0 -0.62678407767E+01  0.36309245856E+02 -0.25912666230E+02  0.45045681633E+02  0.00000000000E+00 0.  1.
         11    1    3    3    0    0  0.10395294331E+01 -0.45173801397E+01  0.28929629775E+01  0.54641174785E+01  0.51100000000E-03 0.  1.
        -11    1    3    3    0    0  0.70671110053E+01 -0.30230188772E+02  0.22045746887E+02  0.38076545631E+02  0.51100000000E-03 0. -1.
        -12    1    3    3    0    0 -0.18387996616E+01 -0.15616769453E+01  0.97395636504E+00  0.26016552573E+01  0.00000000000E+00 0.  1.
</event>
<event>
 7    1  0.3980989E-008  0.4614232E+02  0.7816164E-02  0.1320468E+00
        -11   -1    0    0    0    0  0.00000000000E+00  0.00000000000E+00  0.45593999997E+02  0.45594000000E+02  0.51100000000E-03 0.  1.
         11   -1    0    0    0    0 -0.00000000000E+00 -0.00000000000E+00 -0.45593999997E+02  0.45594000000E+02  0.51100000000E-03 0. -1.
    9900012    2    1    2    0    0 -0.10924244258E+02  0.32682968738E+02 -0.29010305092E+02  0.46142319190E+02  0.10000013030E+02 0.  0.
        -12    1    1    2    0    0  0.10924244258E+02 -0.32682968738E+02  0.29010305092E+02  0.45045680810E+02  0.00000000000E+00 0.  1.
         11    1    3    3    0    0 -0.21434436576E+01  0.14404012749E+02 -0.11249794098E+02  0.18401842339E+02  0.51100000000E-03 0. -1.
        -11    1    3    3    0    0 -0.50940919735E+00  0.42241619616E+01 -0.70348209132E+01  0.82214200446E+01  0.51100000000E-03 0.  1.
        -12    1    3    3    0    0 -0.82713914029E+01  0.14054794027E+02 -0.10725690081E+02  0.19519056806E+02  0.00000000000E+00 0.  1.
</event>
<event>
 7    1  0.3980989E-008  0.4614232E+02  0.7816164E-02  0.1320468E+00
        -11   -1    0    0    0    0  0.00000000000E+00  0.00000000000E+00  0.45593999997E+02  0.45594000000E+02  0.51100000000E-03 0. -1.
         11   -1    0    0    0    0 -0.00000000000E+00 -0.00000000000E+00 -0.45593999997E+02  0.45594000000E+02  0.51100000000E-03 0.  1.
    9900012    2    1    2    0    0  0.21245351999E+02 -0.39107709827E+02  0.69523632799E+01  0.46142319801E+02  0.10000018600E+02 0.  0.
        -12    1    1    2    0    0 -0.21245351999E+02  0.39107709827E+02 -0.69523632799E+01  0.45045680199E+02  0.00000000000E+00 0.  1.
         11    1    3    3    0    0  0.12415984856E+02 -0.22788694484E+02  0.71173974295E+01  0.26909823906E+02  0.51100000000E-03 0. -1.
        -11    1    3    3    0    0  0.84977594493E+01 -0.11000726206E+02 -0.25882913029E+00  0.13903053100E+02  0.51100000000E-03 0.  1.
        -12    1    3    3    0    0  0.33160769301E+00 -0.53182891369E+01  0.93794980700E-01  0.53294427949E+01  0.00000000000E+00 0.  1.
</event>
<event>
 7    1  0.3980989E-008  0.4614232E+02  0.7816164E-02  0.1320468E+00
        -11   -1    0    0    0    0  0.00000000000E+00  0.00000000000E+00  0.45593999997E+02  0.45594000000E+02  0.51100000000E-03 0. -1.
         11   -1    0    0    0    0 -0.00000000000E+00 -0.00000000000E+00 -0.45593999997E+02  0.45594000000E+02  0.51100000000E-03 0.  1.
    9900012    2    1    2    0    0  0.77652995138E+01  0.39489593152E+02  0.20233280878E+02  0.46142317644E+02  0.99999989283E+01 0.  0.
        -12    1    1    2    0    0 -0.77652995138E+01 -0.39489593152E+02 -0.20233280878E+02  0.45045682356E+02  0.00000000000E+00 0.  1.
         11    1    3    3    0    0  0.46115919107E+00  0.75866478749E+01  0.30734222560E+01  0.81985253797E+01  0.51100000000E-03 0. -1.
        -11    1    3    3    0    0  0.44630162347E+01  0.15516947291E+02  0.37386768961E+01  0.16573227577E+02  0.51100000000E-03 0.  1.
        -12    1    3    3    0    0  0.28411240881E+01  0.16385997986E+02  0.13421181726E+02  0.21370564686E+02  0.00000000000E+00 0.  1.
</event>
<event>
 7    1  0.3980989E-008  0.4614232E+02  0.7816164E-02  0.1320468E+00
        -11   -1    0    0    0    0  0.00000000000E+00  0.00000000000E+00  0.45593999997E+02  0.45594000000E+02  0.51100000000E-03 0.  1.
         11   -1    0    0    0    0 -0.00000000000E+00 -0.00000000000E+00 -0.45593999997E+02  0.45594000000E+02  0.51100000000E-03 0. -1.
    9900012    2    1    2    0    0 -0.35266696265E+02 -0.76940098168E+01 -0.26947648004E+02  0.46142318903E+02  0.10000010416E+02 0.  0.
        -12    1    1    2    0    0  0.35266696265E+02  0.76940098168E+01  0.26947648004E+02  0.45045681097E+02  0.00000000000E+00 0.  1.
         11    1    3    3    0    0 -0.83158086364E+01  0.20876466348E+00 -0.33125588218E+01  0.89537311871E+01  0.51100000000E-03 0. -1.
        -11    1    3    3    0    0 -0.95590289097E+01  0.98463832346E-02 -0.88822161971E+01  0.13048712407E+02  0.51100000000E-03 0.  1.
        -12    1    3    3    0    0 -0.17391858719E+02 -0.79126208636E+01 -0.14752872985E+02  0.24139875309E+02  0.00000000000E+00 0.  1.
</event>
<event>
 7    1  0.3980989E-008  0.4614232E+02  0.7816164E-02  0.1320468E+00
        -11   -1    0    0    0    0  0.00000000000E+00  0.00000000000E+00  0.45593999997E+02  0.45594000000E+02  0.51100000000E-03 0. -1.
         11   -1    0    0    0    0 -0.00000000000E+00 -0.00000000000E+00 -0.45593999997E+02  0.45594000000E+02  0.51100000000E-03 0.  1.
    9900012    2    1    2    0    0 -0.43782889930E+02  0.15538463342E+01  0.10476526106E+02  0.46142317762E+02  0.10000000009E+02 0.  0.
        -12    1    1    2    0    0  0.43782889930E+02 -0.15538463342E+01 -0.10476526106E+02  0.45045682238E+02  0.00000000000E+00 0.  1.
         11    1    3    3    0    0 -0.13257598343E+02 -0.73254012909E+00  0.11217623031E+01  0.13325122130E+02  0.51100000000E-03 0. -1.
        -11    1    3    3    0    0 -0.10361298203E+02  0.25043220951E+01  0.17551018987E+00  0.10661094395E+02  0.51100000000E-03 0.  1.
         12    1    3    3    0    0 -0.20163993384E+02 -0.21793563182E+00  0.91792536135E+01  0.22156101237E+02  0.00000000000E+00 0. -1.
</event>
<event>
 7    1  0.3980989E-008  0.4614232E+02  0.7816164E-02  0.1320468E+00
        -11   -1    0    0    0    0  0.00000000000E+00  0.00000000000E+00  0.45593999997E+02  0.45594000000E+02  0.51100000000E-03 0.  1.
         11   -1    0    0    0    0 -0.00000000000E+00 -0.00000000000E+00 -0.45593999997E+02  0.45594000000E+02  0.51100000000E-03 0. -1.
    9900012    2    1    2    0    0  0.10562869987E+02 -0.27194712742E+02 -0.34321814010E+02  0.46142317183E+02  0.99999947289E+01 0.  0.
        -12    1    1    2    0    0 -0.10562869987E+02  0.27194712742E+02  0.34321814010E+02  0.45045682817E+02  0.00000000000E+00 0.  1.
         11    1    3    3    0    0  0.25135297537E+01 -0.74227972387E+01 -0.10464349924E+02  0.13073575267E+02  0.51100000000E-03 0. -1.
        -11    1    3    3    0    0  0.33660048844E+01 -0.16716414413E+02 -0.19962858502E+02  0.26254222890E+02  0.51100000000E-03 0.  1.
         12    1    3    3    0    0  0.46833353490E+01 -0.30555010907E+01 -0.38946055843E+01  0.68145190266E+01  0.00000000000E+00 0. -1.
</event>
<event>
 7    1  0.4113596E-008  0.4614232E+02  0.7816164E-02  0.1320468E+00
        -11   -1    0    0    0    0  0.00000000000E+00  0.00000000000E+00  0.45593999997E+02  0.45594000000E+02  0.51100000000E-03 0.  1.
         11   -1    0    0    0    0 -0.00000000000E+00 -0.00000000000E+00 -0.45593999997E+02  0.45594000000E+02  0.51100000000E-03 0. -1.
    9900012    2    1    2    0    0  0.42936080609E+02 -0.12755933250E+02 -0.47846097178E+01  0.46142319394E+02  0.10000014886E+02 0.  0.
        -12    1    1    2    0    0 -0.42936080609E+02  0.12755933250E+02  0.47846097178E+01  0.45045680606E+02  0.00000000000E+00 0.  1.
         11    1    3    3    0    0  0.76433827533E+00 -0.12593638779E+01 -0.90299611235E+00  0.17278925361E+01  0.51100000000E-03 0. -1.
        -11    1    3    3    0    0 -0.33490024819E-01  0.36981727820E+00  0.12066616183E+00  0.39044459882E+00  0.51100000000E-03 0.  1.
         12    1    3    3    0    0  0.42205232358E+02 -0.11866386651E+02 -0.40022797673E+01  0.44023982259E+02  0.00000000000E+00 0. -1.
</event>
<event>
 7    1  0.3980989E-008  0.4614232E+02  0.7816164E-02  0.1320468E+00
        -11   -1    0    0    0    0  0.00000000000E+00  0.00000000000E+00  0.45593999997E+02  0.45594000000E+02  0.51100000000E-03 0.  1.
         11   -1    0    0    0    0 -0.00000000000E+00 -0.00000000000E+00 -0.45593999997E+02  0.45594000000E+02  0.51100000000E-03 0. -1.
    9900012    2    1    2    0    0  0.40468911691E+02  0.26678053527E+00 -0.19781540419E+02  0.46142319556E+02  0.10000016369E+02 0.  0.
        -12    1    1    2    0    0 -0.40468911691E+02 -0.26678053527E+00  0.19781540419E+02  0.45045680444E+02  0.00000000000E+00 0.  1.
         11    1    3    3    0    0  0.21178495085E+02 -0.16218958280E+01 -0.96061155096E+01  0.23311727855E+02  0.51100000000E-03 0. -1.
        -11    1    3    3    0    0  0.13690843340E+02  0.27574524245E+01 -0.41728696348E+01  0.14575855943E+02  0.51100000000E-03 0.  1.
        -12    1    3    3    0    0  0.55995732660E+01 -0.86877606127E+00 -0.60025552745E+01  0.82547357577E+01  0.00000000000E+00 0.  1.
</event>
<event>
 7    1  0.3980989E-008  0.4614232E+02  0.7816164E-02  0.1320468E+00
        -11   -1    0    0    0    0  0.00000000000E+00  0.00000000000E+00  0.45593999997E+02  0.45594000000E+02  0.51100000000E-03 0.  1.
         11   -1    0    0    0    0 -0.00000000000E+00 -0.00000000000E+00 -0.45593999997E+02  0.45594000000E+02  0.51100000000E-03 0. -1.
    9900012    2    1    2    0    0  0.43008724926E+02  0.34655037576E+01 -0.12936511863E+02  0.46142317907E+02  0.10000001332E+02 0.  0.
        -12    1    1    2    0    0 -0.43008724926E+02 -0.34655037576E+01  0.12936511863E+02  0.45045682093E+02  0.00000000000E+00 0.  1.
         11    1    3    3    0    0  0.24283627167E+02  0.84807527401E+00 -0.93720907075E+01  0.26043230686E+02  0.51100000000E-03 0. -1.
        -11    1    3    3    0    0  0.43036814152E+01  0.28606105318E+01 -0.21822599369E+01  0.56095476673E+01  0.51100000000E-03 0.  1.
        -12    1    3    3    0    0  0.14421416343E+02 -0.24318204817E+00 -0.13821612182E+01  0.14489539554E+02  0.00000000000E+00 0.  1.
</event>
<event>
 7    1  0.3980989E-008  0.4614231E+02  0.7816164E-02  0.1320468E+00
        -11   -1    0    0    0    0  0.00000000000E+00  0.00000000000E+00  0.45593999997E+02  0.45594000000E+02  0.51100000000E-03 0.  1.
         11   -1    0    0    0    0 -0.00000000000E+00 -0.00000000000E+00 -0.45593999997E+02  0.45594000000E+02  0.51100000000E-03 0. -1.
    9900012    2    1    2    0    0 -0.29871140230E+02 -0.33401394717E+02  0.46017020299E+01  0.46142313755E+02  0.99999634722E+01 0.  0.
        -12    1    1    2    0    0  0.29871140230E+02  0.33401394717E+02 -0.46017020299E+01  0.45045686245E+02  0.00000000000E+00 0.  1.
         11    1    3    3    0    0 -0.22001812720E+02 -0.22786582072E+02  0.23042134590E+01  0.31758738725E+02  0.51100000000E-03 0. -1.
        -11    1    3    3    0    0 -0.36436712587E+01 -0.77480625248E+01 -0.47109198041E+00  0.85750067665E+01  0.51100000000E-03 0.  1.
        -12    1    3    3    0    0 -0.42256562513E+01 -0.28667501205E+01  0.27685805513E+01  0.58085682639E+01  0.00000000000E+00 0.  1.
</event>
<event>
 7    1  0.3980989E-008  0.4614232E+02  0.7816164E-02  0.1320468E+00
        -11   -1    0    0    0    0  0.00000000000E+00  0.00000000000E+00  0.45593999997E+02  0.45594000000E+02  0.51100000000E-03 0. -1.
         11   -1    0    0    0    0 -0.00000000000E+00 -0.00000000000E+00 -0.45593999997E+02  0.45594000000E+02  0.51100000000E-03 0.  1.
    9900012    2    1    2    0    0 -0.26251902441E+02 -0.21971840510E+02 -0.29277795395E+02  0.46142318072E+02  0.10000002835E+02 0.  0.
        -12    1    1    2    0    0  0.26251902441E+02  0.21971840510E+02  0.29277795395E+02  0.45045681928E+02  0.00000000000E+00 0.  1.
         11    1    3    3    0    0 -0.64692071188E+01 -0.99835198569E+01 -0.94417496953E+01  0.15187756485E+02  0.51100000000E-03 0. -1.
        -11    1    3    3    0    0  0.32876467055E+00 -0.15182193456E+00 -0.62402694499E-01  0.36746491780E+00  0.51100000000E-03 0.  1.
         12    1    3    3    0    0 -0.20111459992E+02 -0.11836498718E+02 -0.19773643006E+02  0.30587096669E+02  0.00000000000E+00 0. -1.
</event>
<event>
 7    1  0.3980989E-008  0.4614232E+02  0.7816164E-02  0.1320468E+00
        -11   -1    0    0    0    0  0.00000000000E+00  0.00000000000E+00  0.45593999997E+02  0.45594000000E+02  0.51100000000E-03 0.  1.
         11   -1    0    0    0    0 -0.00000000000E+00 -0.00000000000E+00 -0.45593999997E+02  0.45594000000E+02  0.51100000000E-03 0. -1.
    9900012    2    1    2    0    0 -0.76449266577E+01  0.35109615568E+02 -0.27165851850E+02  0.46142317458E+02  0.99999972349E+01 0.  0.
        -12    1    1    2    0    0  0.76449266577E+01 -0.35109615568E+02  0.27165851850E+02  0.45045682542E+02  0.00000000000E+00 0.  1.
         11    1    3    3    0    0 -0.14490290693E+01  0.40849528380E+01 -0.54945322311E+01  0.69983147709E+01  0.51100000000E-03 0. -1.
        -11    1    3    3    0    0  0.11091205347E+01  0.11940365191E+01 -0.23500710488E+01  0.28598436609E+01  0.51100000000E-03 0.  1.
         12    1    3    3    0    0 -0.73050181231E+01  0.29830626211E+02 -0.19321248570E+02  0.36284159026E+02  0.00000000000E+00 0. -1.
</event>
<event>
 7    1  0.3980989E-008  0.4614232E+02  0.7816164E-02  0.1320468E+00
        -11   -1    0    0    0    0  0.00000000000E+00  0.00000000000E+00  0.45593999997E+02  0.45594000000E+02  0.51100000000E-03 0. -1.
         11   -1    0    0    0    0 -0.00000000000E+00 -0.00000000000E+00 -0.45593999997E+02  0.45594000000E+02  0.51100000000E-03 0.  1.
    9900012    2    1    2    0    0 -0.23617668494E+02 -0.25963854655E+02 -0.28234684316E+02  0.46142318608E+02  0.10000007721E+02 0.  0.
        -12    1    1    2    0    0  0.23617668494E+02  0.25963854655E+02  0.28234684316E+02  0.45045681392E+02  0.00000000000E+00 0.  1.
         11    1    3    3    0    0 -0.11689697306E+00 -0.85767696843E+00 -0.38869147342E+00  0.94887091173E+00  0.51100000000E-03 0.  1.
        -11    1    3    3    0    0 -0.23217795607E+02 -0.21864067565E+02 -0.22857890541E+02  0.39237566739E+02  0.51100000000E-03 0. -1.
         12    1    3    3    0    0 -0.28297591439E+00 -0.32421101221E+01 -0.49881023008E+01  0.59558809571E+01  0.00000000000E+00 0. -1.
</event>
<event>
 7    1  0.3980989E-008  0.4614232E+02  0.7816164E-02  0.1320468E+00
        -11   -1    0    0    0    0  0.00000000000E+00  0.00000000000E+00  0.45593999997E+02  0.45594000000E+02  0.51100000000E-03 0.  1.
         11   -1    0    0    0    0 -0.00000000000E+00 -0.00000000000E+00 -0.45593999997E+02  0.45594000000E+02  0.51100000000E-03 0. -1.
    9900012    2    1    2    0    0 -0.16218199066E+02 -0.14815785832E+02 -0.39326529651E+02  0.46142318463E+02  0.10000006398E+02 0.  0.
        -12    1    1    2    0    0  0.16218199066E+02  0.14815785832E+02  0.39326529651E+02  0.45045681537E+02  0.00000000000E+00 0.  1.
         11    1    3    3    0    0 -0.37615696149E+01 -0.43304696392E+01 -0.17275616743E+02  0.18203002703E+02  0.51100000000E-03 0. -1.
        -11    1    3    3    0    0 -0.64772015228E+01 -0.20787297506E+01 -0.78606904004E+01  0.10395465876E+02  0.51100000000E-03 0.  1.
         12    1    3    3    0    0 -0.59794279286E+01 -0.84065864424E+01 -0.14190222507E+02  0.17543849884E+02  0.00000000000E+00 0. -1.
</event>
<event>
 7    1  0.3980989E-008  0.4614232E+02  0.7816164E-02  0.1320468E+00
        -11   -1    0    0    0    0  0.00000000000E+00  0.00000000000E+00  0.45593999997E+02  0.45594000000E+02  0.51100000000E-03 0.  1.
         11   -1    0    0    0    0 -0.00000000000E+00 -0.00000000000E+00 -0.45593999997E+02  0.45594000000E+02  0.51100000000E-03 0. -1.
    9900012    2    1    2    0    0 -0.39545135992E+02  0.35596509834E+01 -0.21274970035E+02  0.46142320454E+02  0.10000024560E+02 0.  0.
        -12    1    1    2    0    0  0.39545135992E+02 -0.35596509834E+01  0.21274970035E+02  0.45045679546E+02  0.00000000000E+00 0.  1.
         11    1    3    3    0    0 -0.27466029981E+02  0.32922545666E+01 -0.10829806049E+02  0.29707009987E+02  0.51100000000E-03 0. -1.
        -11    1    3    3    0    0 -0.63351494514E+01  0.42550703986E+00 -0.29778040222E+01  0.70130230193E+01  0.51100000000E-03 0.  1.
        -12    1    3    3    0    0 -0.57439565594E+01 -0.15811062311E+00 -0.74673599642E+01  0.94222874484E+01  0.00000000000E+00 0.  1.
</event>
<event>
 7    1  0.3980989E-008  0.4614232E+02  0.7816164E-02  0.1320468E+00
        -11   -1    0    0    0    0  0.00000000000E+00  0.00000000000E+00  0.45593999997E+02  0.45594000000E+02  0.51100000000E-03 0. -1.
         11   -1    0    0    0    0 -0.00000000000E+00 -0.00000000000E+00 -0.45593999997E+02  0.45594000000E+02  0.51100000000E-03 0.  1.
    9900012    2    1    2    0    0 -0.31667891838E+02  0.28029799898E+02 -0.15510917746E+02  0.46142316243E+02  0.99999861593E+01 0.  0.
        -12    1    1    2    0    0  0.31667891838E+02 -0.28029799898E+02  0.15510917746E+02  0.45045683757E+02  0.00000000000E+00 0.  1.
         11    1    3    3    0    0 -0.10592699437E+02  0.10113517337E+02 -0.55281404204E+01  0.15654036255E+02  0.51100000000E-03 0. -1.
        -11    1    3    3    0    0 -0.16441519394E+02  0.12128313484E+02 -0.10657296263E+02  0.23043383256E+02  0.51100000000E-03 0.  1.
         12    1    3    3    0    0 -0.46336730067E+01  0.57879690764E+01  0.67451893813E+00  0.74448967327E+01  0.00000000000E+00 0. -1.
</event>
<event>
 7    1  0.3980989E-008  0.4614232E+02  0.7816164E-02  0.1320468E+00
        -11   -1    0    0    0    0  0.00000000000E+00  0.00000000000E+00  0.45593999997E+02  0.45594000000E+02  0.51100000000E-03 0. -1.
         11   -1    0    0    0    0 -0.00000000000E+00 -0.00000000000E+00 -0.45593999997E+02  0.45594000000E+02  0.51100000000E-03 0.  1.
    9900012    2    1    2    0    0 -0.39991569941E+02 -0.82415226971E+01  0.19022754176E+02  0.46142317197E+02  0.99999948560E+01 0.  0.
        -12    1    1    2    0    0  0.39991569941E+02  0.82415226971E+01 -0.19022754176E+02  0.45045682803E+02  0.00000000000E+00 0.  1.
         11    1    3    3    0    0 -0.30494135299E+01  0.12512142984E+01 -0.35547047759E+00  0.33152405069E+01  0.51100000000E-03 0.  1.
        -11    1    3    3    0    0 -0.90701605531E+01 -0.30320170218E+01  0.54236046175E+01  0.10994381610E+02  0.51100000000E-03 0. -1.
        -12    1    3    3    0    0 -0.27871995858E+02 -0.64607199736E+01  0.13954620036E+02  0.31832695080E+02  0.00000000000E+00 0.  1.
</event>
<event>
 7    1  0.3980989E-008  0.4614232E+02  0.7816164E-02  0.1320468E+00
        -11   -1    0    0    0    0  0.00000000000E+00  0.00000000000E+00  0.45593999997E+02  0.45594000000E+02  0.51100000000E-03 0.  1.
         11   -1    0    0    0    0 -0.00000000000E+00 -0.00000000000E+00 -0.45593999997E+02  0.45594000000E+02  0.51100000000E-03 0. -1.
    9900012    2    1    2    0    0  0.27160106104E+02 -0.16333077824E+02 -0.32010506487E+02  0.46142319626E+02  0.10000017003E+02 0.  0.
        -12    1    1    2    0    0 -0.27160106104E+02  0.16333077824E+02  0.32010506487E+02  0.45045680374E+02  0.00000000000E+00 0.  1.
         11    1    3    3    0    0  0.10840874178E+02 -0.41271813956E+01 -0.11292897728E+02  0.16189123465E+02  0.51100000000E-03 0. -1.
        -11    1    3    3    0    0  0.13795021962E+02 -0.82070939950E+01 -0.19113528384E+02  0.24959687304E+02  0.51100000000E-03 0.  1.
        -12    1    3    3    0    0  0.25242099650E+01 -0.39988024337E+01 -0.16040803749E+01  0.49935088566E+01  0.00000000000E+00 0.  1.
</event>
<event>
 7    1  0.3980989E-008  0.4614232E+02  0.7816164E-02  0.1320468E+00
        -11   -1    0    0    0    0  0.00000000000E+00  0.00000000000E+00  0.45593999997E+02  0.45594000000E+02  0.51100000000E-03 0.  1.
         11   -1    0    0    0    0 -0.00000000000E+00 -0.00000000000E+00 -0.45593999997E+02  0.45594000000E+02  0.51100000000E-03 0. -1.
    9900012    2    1    2    0    0 -0.25370419226E+02 -0.23206485454E+02 -0.29101793395E+02  0.46142317437E+02  0.99999970441E+01 0.  0.
        -12    1    1    2    0    0  0.25370419226E+02  0.23206485454E+02  0.29101793395E+02  0.45045682563E+02  0.00000000000E+00 0.  1.
         11    1    3    3    0    0 -0.18515141922E+02 -0.16843713087E+02 -0.23103901293E+02  0.34063344025E+02  0.51100000000E-03 0. -1.
        -11    1    3    3    0    0 -0.44841479680E+01 -0.26831227240E+01 -0.56372411185E+01  0.76866909812E+01  0.51100000000E-03 0.  1.
        -12    1    3    3    0    0 -0.23711293357E+01 -0.36796496426E+01 -0.36065098278E+00  0.43922824307E+01  0.00000000000E+00 0.  1.
</event>
<event>
 7    1  0.3980989E-008  0.4614232E+02  0.7816164E-02  0.1320468E+00
        -11   -1    0    0    0    0  0.00000000000E+00  0.00000000000E+00  0.45593999997E+02  0.45594000000E+02  0.51100000000E-03 0.  1.
         11   -1    0    0    0    0 -0.00000000000E+00 -0.00000000000E+00 -0.45593999997E+02  0.45594000000E+02  0.51100000000E-03 0. -1.
    9900012    2    1    2    0    0  0.33068814695E+02  0.69245039995E+01 -0.29792920550E+02  0.46142319010E+02  0.10000011386E+02 0.  0.
        -12    1    1    2    0    0 -0.33068814695E+02 -0.69245039995E+01  0.29792920550E+02  0.45045680990E+02  0.00000000000E+00 0.  1.
         11    1    3    3    0    0  0.68517174111E+01 -0.21222768084E+00 -0.66366013453E+01  0.95412551453E+01  0.51100000000E-03 0. -1.
        -11    1    3    3    0    0  0.16186026146E+02  0.30754469821E+01 -0.18631305659E+02  0.24871095017E+02  0.51100000000E-03 0.  1.
         12    1    3    3    0    0  0.10031071137E+02  0.40612846982E+01 -0.45250135465E+01  0.11729968847E+02  0.00000000000E+00 0. -1.
</event>
<event>
 7    1  0.3980989E-008  0.4614232E+02  0.7816164E-02  0.1320468E+00
        -11   -1    0    0    0    0  0.00000000000E+00  0.00000000000E+00  0.45593999997E+02  0.45594000000E+02  0.51100000000E-03 0.  1.
         11   -1    0    0    0    0 -0.00000000000E+00 -0.00000000000E+00 -0.45593999997E+02  0.45594000000E+02  0.51100000000E-03 0. -1.
    9900012    2    1    2    0    0  0.40791475114E+02 -0.16492076764E+02 -0.96530023146E+01  0.46142317725E+02  0.99999996712E+01 0.  0.
        -12    1    1    2    0    0 -0.40791475114E+02  0.16492076764E+02  0.96530023146E+01  0.45045682275E+02  0.00000000000E+00 0.  1.
         11    1    3    3    0    0  0.15464820079E+02 -0.56464083376E+01 -0.34154887255E+01  0.16813927283E+02  0.51100000000E-03 0. -1.
        -11    1    3    3    0    0  0.88802688608E+01 -0.30840630769E+01 -0.59786216038E+01  0.11140670386E+02  0.51100000000E-03 0.  1.
         12    1    3    3    0    0  0.16446386174E+02 -0.77616053492E+01 -0.25889198535E+00  0.18187720056E+02  0.00000000000E+00 0. -1.
</event>
<event>
 7    1  0.3980989E-008  0.4614232E+02  0.7816164E-02  0.1320468E+00
        -11   -1    0    0    0    0  0.00000000000E+00  0.00000000000E+00  0.45593999997E+02  0.45594000000E+02  0.51100000000E-03 0.  1.
         11   -1    0    0    0    0 -0.00000000000E+00 -0.00000000000E+00 -0.45593999997E+02  0.45594000000E+02  0.51100000000E-03 0. -1.
    9900012    2    1    2    0    0 -0.17928910725E+02 -0.27656465007E+01 -0.41231284995E+02  0.46142317602E+02  0.99999985530E+01 0.  0.
        -12    1    1    2    0    0  0.17928910725E+02  0.27656465007E+01  0.41231284995E+02  0.45045682398E+02  0.00000000000E+00 0.  1.
         11    1    3    3    0    0 -0.56420071035E+01  0.36685156219E+00 -0.16439937947E+02  0.17385004578E+02  0.51100000000E-03 0. -1.
        -11    1    3    3    0    0 -0.70508532398E+01  0.11420529606E+01 -0.83956134633E+01  0.11022937089E+02  0.51100000000E-03 0.  1.
        -12    1    3    3    0    0 -0.52360503816E+01 -0.42745510234E+01 -0.16395733585E+02  0.17734375936E+02  0.00000000000E+00 0.  1.
</event>
<event>
 7    1  0.3980989E-008  0.4614232E+02  0.7816164E-02  0.1320468E+00
        -11   -1    0    0    0    0  0.00000000000E+00  0.00000000000E+00  0.45593999997E+02  0.45594000000E+02  0.51100000000E-03 0.  1.
         11   -1    0    0    0    0 -0.00000000000E+00 -0.00000000000E+00 -0.45593999997E+02  0.45594000000E+02  0.51100000000E-03 0. -1.
    9900012    2    1    2    0    0 -0.73126991329E+01 -0.39648991048E+02 -0.20089683640E+02  0.46142318204E+02  0.10000004041E+02 0.  0.
        -12    1    1    2    0    0  0.73126991329E+01  0.39648991048E+02  0.20089683640E+02  0.45045681796E+02  0.00000000000E+00 0.  1.
         11    1    3    3    0    0 -0.39323585806E+01 -0.14524063484E+02 -0.10719400335E+02  0.18474777614E+02  0.51100000000E-03 0. -1.
        -11    1    3    3    0    0  0.10406527419E+01 -0.14322359664E+02 -0.51210356571E+01  0.15245915878E+02  0.51100000000E-03 0.  1.
         12    1    3    3    0    0 -0.44209932941E+01 -0.10802567899E+02 -0.42492476476E+01  0.12421624712E+02  0.00000000000E+00 0. -1.
</event>
<event>
 7    1  0.3980989E-008  0.4614232E+02  0.7816164E-02  0.1320468E+00
        -11   -1    0    0    0    0  0.00000000000E+00  0.00000000000E+00  0.45593999997E+02  0.45594000000E+02  0.51100000000E-03 0. -1.
         11   -1    0    0    0    0 -0.00000000000E+00 -0.00000000000E+00 -0.45593999997E+02  0.45594000000E+02  0.51100000000E-03 0.  1.
    9900012    2    1    2    0    0  0.29332224559E+02 -0.46482159565E+01  0.33869279494E+02  0.46142318713E+02  0.10000008680E+02 0.  0.
        -12    1    1    2    0    0 -0.29332224559E+02  0.46482159565E+01 -0.33869279494E+02  0.45045681287E+02  0.00000000000E+00 0.  1.
         11    1    3    3    0    0  0.12056786712E+02  0.10038179959E+01  0.18147597605E+02  0.21810755500E+02  0.51100000000E-03 0. -1.
        -11    1    3    3    0    0  0.12630335194E+02 -0.29044767139E+01  0.12705127348E+02  0.18148873609E+02  0.51100000000E-03 0.  1.
         12    1    3    3    0    0  0.46451026535E+01 -0.27475572386E+01  0.30165545412E+01  0.61826896041E+01  0.00000000000E+00 0. -1.
</event>
<event>
 7    1  0.3980989E-008  0.4614231E+02  0.7816164E-02  0.1320468E+00
        -11   -1    0    0    0    0  0.00000000000E+00  0.00000000000E+00  0.45593999997E+02  0.45594000000E+02  0.51100000000E-03 0.  1.
         11   -1    0    0    0    0 -0.00000000000E+00 -0.00000000000E+00 -0.45593999997E+02  0.45594000000E+02  0.51100000000E-03 0. -1.
    9900012    2    1    2    0    0 -0.22343658217E+01  0.21834949751E+02 -0.39336451920E+02  0.46142313515E+02  0.99999612819E+01 0.  0.
        -12    1    1    2    0    0  0.22343658217E+01 -0.21834949751E+02  0.39336451920E+02  0.45045686485E+02  0.00000000000E+00 0.  1.
         11    1    3    3    0    0  0.27095323102E+00  0.67332071839E+01 -0.12576214948E+02  0.14267819641E+02  0.51100000000E-03 0. -1.
        -11    1    3    3    0    0 -0.31674334439E+01  0.15132846947E+02 -0.21006641251E+02  0.26082842411E+02  0.51100000000E-03 0.  1.
        -12    1    3    3    0    0  0.66211439110E+00 -0.31104379577E-01 -0.57535957207E+01  0.57916514628E+01  0.00000000000E+00 0.  1.
</event>
<event>
 7    1  0.3980989E-008  0.4614232E+02  0.7816164E-02  0.1320468E+00
        -11   -1    0    0    0    0  0.00000000000E+00  0.00000000000E+00  0.45593999997E+02  0.45594000000E+02  0.51100000000E-03 0. -1.
         11   -1    0    0    0    0 -0.00000000000E+00 -0.00000000000E+00 -0.45593999997E+02  0.45594000000E+02  0.51100000000E-03 0.  1.
    9900012    2    1    2    0    0  0.27861312591E+02  0.15313416752E+02 -0.31911753015E+02  0.46142318161E+02  0.10000003643E+02 0.  0.
        -12    1    1    2    0    0 -0.27861312591E+02 -0.15313416752E+02  0.31911753015E+02  0.45045681839E+02  0.00000000000E+00 0.  1.
         11    1    3    3    0    0  0.16599137540E+02  0.97507976856E+01 -0.17634025504E+02  0.26106862667E+02  0.51100000000E-03 0. -1.
        -11    1    3    3    0    0  0.89688631192E+01  0.67377366212E+01 -0.99297447911E+01  0.14981236007E+02  0.51100000000E-03 0.  1.
         12    1    3    3    0    0  0.22933119320E+01 -0.11751175551E+01 -0.43479827200E+01  0.50542194867E+01  0.00000000000E+00 0. -1.
</event>
<event>
 7    1  0.3980989E-008  0.4614232E+02  0.7816164E-02  0.1320468E+00
        -11   -1    0    0    0    0  0.00000000000E+00  0.00000000000E+00  0.45593999997E+02  0.45594000000E+02  0.51100000000E-03 0. -1.
         11   -1    0    0    0    0 -0.00000000000E+00 -0.00000000000E+00 -0.45593999997E+02  0.45594000000E+02  0.51100000000E-03 0.  1.
    9900012    2    1    2    0    0 -0.19187878739E+02  0.16259069202E+02  0.37370863679E+02  0.46142317921E+02  0.10000001462E+02 0.  0.
        -12    1    1    2    0    0  0.19187878739E+02 -0.16259069202E+02 -0.37370863679E+02  0.45045682079E+02  0.00000000000E+00 0.  1.
         11    1    3    3    0    0 -0.62759976100E+00  0.16138723302E+00 -0.49719206031E+00  0.81677873684E+00  0.51100000000E-03 0. -1.
        -11    1    3    3    0    0 -0.10748130806E+02  0.67418330511E+01  0.18165275503E+02  0.22157433585E+02  0.51100000000E-03 0.  1.
         12    1    3    3    0    0 -0.78121481722E+01  0.93558489184E+01  0.19702780236E+02  0.23168105599E+02  0.00000000000E+00 0. -1.
</event>
<event>
 7    1  0.3980989E-008  0.4614232E+02  0.7816164E-02  0.1320468E+00
        -11   -1    0    0    0    0  0.00000000000E+00  0.00000000000E+00  0.45593999997E+02  0.45594000000E+02  0.51100000000E-03 0.  1.
         11   -1    0    0    0    0 -0.00000000000E+00 -0.00000000000E+00 -0.45593999997E+02  0.45594000000E+02  0.51100000000E-03 0. -1.
    9900012    2    1    2    0    0  0.21775707806E+02 -0.39003475660E+02  0.58018209056E+01  0.46142315525E+02  0.99999796053E+01 0.  0.
        -12    1    1    2    0    0 -0.21775707806E+02  0.39003475660E+02 -0.58018209056E+01  0.45045684475E+02  0.00000000000E+00 0.  1.
         11    1    3    3    0    0  0.52707344831E+01 -0.90978708903E+01  0.52945711005E+01  0.11772186718E+02  0.51100000000E-03 0. -1.
        -11    1    3    3    0    0  0.46760873186E+00 -0.19069771669E+00 -0.31225768043E+00  0.59374124446E+00  0.51100000000E-03 0.  1.
         12    1    3    3    0    0  0.16037364591E+02 -0.29714907053E+02  0.81950748554E+00  0.33776387562E+02  0.00000000000E+00 0. -1.
</event>
<event>
 7    1  0.3980989E-008  0.4614233E+02  0.7816164E-02  0.1320468E+00
        -11   -1    0    0    0    0  0.00000000000E+00  0.00000000000E+00  0.45593999997E+02  0.45594000000E+02  0.51100000000E-03 0.  1.
         11   -1    0    0    0    0 -0.00000000000E+00 -0.00000000000E+00 -0.45593999997E+02  0.45594000000E+02  0.51100000000E-03 0. -1.
    9900012    2    1    2    0    0 -0.24444155891E+02  0.35440524107E+02 -0.13250088695E+02  0.46142330323E+02  0.10000114547E+02 0.  0.
        -12    1    1    2    0    0  0.24444155891E+02 -0.35440524107E+02  0.13250088695E+02  0.45045669677E+02  0.00000000000E+00 0.  1.
         11    1    3    3    0    0 -0.34804145933E+01  0.81424963132E+01 -0.51616321537E+01  0.10249681883E+02  0.51100000000E-03 0. -1.
        -11    1    3    3    0    0 -0.16556923833E+02  0.24803049700E+02 -0.60236675667E+01  0.30423799441E+02  0.51100000000E-03 0.  1.
        -12    1    3    3    0    0 -0.44068174649E+01  0.24949780944E+01 -0.20647889745E+01  0.54688489986E+01  0.00000000000E+00 0.  1.
</event>
<event>
 7    1  0.3980989E-008  0.4614231E+02  0.7816164E-02  0.1320468E+00
        -11   -1    0    0    0    0  0.00000000000E+00  0.00000000000E+00  0.45593999997E+02  0.45594000000E+02  0.51100000000E-03 0.  1.
         11   -1    0    0    0    0 -0.00000000000E+00 -0.00000000000E+00 -0.45593999997E+02  0.45594000000E+02  0.51100000000E-03 0. -1.
    9900012    2    1    2    0    0  0.44711677671E+02 -0.52263911142E+01 -0.16323527598E+01  0.46142313638E+02  0.99999624046E+01 0.  0.
        -12    1    1    2    0    0 -0.44711677671E+02  0.52263911142E+01  0.16323527598E+01  0.45045686362E+02  0.00000000000E+00 0.  1.
         11    1    3    3    0    0  0.78976497394E+01 -0.45598665522E+01 -0.10970543534E+01  0.91852481129E+01  0.51100000000E-03 0. -1.
        -11    1    3    3    0    0  0.90590959909E+01  0.31145071116E+00  0.11322559177E+01  0.91348905545E+01  0.51100000000E-03 0.  1.
         12    1    3    3    0    0  0.27754931941E+02 -0.97797527315E+00 -0.16675543240E+01  0.27822174971E+02  0.00000000000E+00 0. -1.
</event>
<event>
 7    1  0.3980989E-008  0.4614232E+02  0.7816164E-02  0.1320468E+00
        -11   -1    0    0    0    0  0.00000000000E+00  0.00000000000E+00  0.45593999997E+02  0.45594000000E+02  0.51100000000E-03 0. -1.
         11   -1    0    0    0    0 -0.00000000000E+00 -0.00000000000E+00 -0.45593999997E+02  0.45594000000E+02  0.51100000000E-03 0.  1.
    9900012    2    1    2    0    0 -0.19077564175E+02 -0.40564742743E+02 -0.44341509375E+01  0.46142317596E+02  0.99999984944E+01 0.  0.
        -12    1    1    2    0    0  0.19077564175E+02  0.40564742743E+02  0.44341509375E+01  0.45045682404E+02  0.00000000000E+00 0.  1.
         11    1    3    3    0    0 -0.60747353234E+01 -0.19319038186E+02 -0.45388044457E+01  0.20753997007E+02  0.51100000000E-03 0. -1.
        -11    1    3    3    0    0 -0.52800685895E+01 -0.73743163412E+01 -0.22337887365E+01  0.93407429143E+01  0.51100000000E-03 0.  1.
        -12    1    3    3    0    0 -0.77227602624E+01 -0.13871388216E+02  0.23384422446E+01  0.16047577675E+02  0.00000000000E+00 0.  1.
</event>
<event>
 7    1  0.3980989E-008  0.4614232E+02  0.7816164E-02  0.1320468E+00
        -11   -1    0    0    0    0  0.00000000000E+00  0.00000000000E+00  0.45593999997E+02  0.45594000000E+02  0.51100000000E-03 0. -1.
         11   -1    0    0    0    0 -0.00000000000E+00 -0.00000000000E+00 -0.45593999997E+02  0.45594000000E+02  0.51100000000E-03 0.  1.
    9900012    2    1    2    0    0 -0.30953503690E+02 -0.16861577757E+02  0.28047839266E+02  0.46142317825E+02  0.10000000578E+02 0.  0.
        -12    1    1    2    0    0  0.30953503690E+02  0.16861577757E+02 -0.28047839266E+02  0.45045682175E+02  0.00000000000E+00 0.  1.
         11    1    3    3    0    0 -0.16033701030E+02 -0.11449611464E+02  0.12499616486E+02  0.23332672028E+02  0.51100000000E-03 0. -1.
        -11    1    3    3    0    0  0.34352654677E+00  0.23225251947E+00  0.34583001260E+00  0.53995405348E+00  0.51100000000E-03 0.  1.
        -12    1    3    3    0    0 -0.15263329206E+02 -0.56442188123E+01  0.15202392767E+02  0.22269691743E+02  0.00000000000E+00 0.  1.
</event>
<event>
 7    1  0.3980989E-008  0.4614232E+02  0.7816164E-02  0.1320468E+00
        -11   -1    0    0    0    0  0.00000000000E+00  0.00000000000E+00  0.45593999997E+02  0.45594000000E+02  0.51100000000E-03 0.  1.
         11   -1    0    0    0    0 -0.00000000000E+00 -0.00000000000E+00 -0.45593999997E+02  0.45594000000E+02  0.51100000000E-03 0. -1.
    9900012    2    1    2    0    0  0.41270635737E+02 -0.13878356404E+01 -0.17997832445E+02  0.46142318358E+02  0.10000005446E+02 0.  0.
        -12    1    1    2    0    0 -0.41270635737E+02  0.13878356404E+01  0.17997832445E+02  0.45045681642E+02  0.00000000000E+00 0.  1.
         11    1    3    3    0    0  0.16675565764E+02  0.78588389556E+00 -0.64876823709E+01  0.17910391672E+02  0.51100000000E-03 0. -1.
        -11    1    3    3    0    0  0.22431250673E+02  0.30152653038E+00 -0.10653639127E+02  0.24834491175E+02  0.51100000000E-03 0.  1.
        -12    1    3    3    0    0  0.21638192989E+01 -0.24752460663E+01 -0.85651094689E+00  0.33974355107E+01  0.00000000000E+00 0.  1.
</event>
<event>
 7    1  0.3980989E-008  0.4614232E+02  0.7816164E-02  0.1320468E+00
        -11   -1    0    0    0    0  0.00000000000E+00  0.00000000000E+00  0.45593999997E+02  0.45594000000E+02  0.51100000000E-03 0. -1.
         11   -1    0    0    0    0 -0.00000000000E+00 -0.00000000000E+00 -0.45593999997E+02  0.45594000000E+02  0.51100000000E-03 0.  1.
    9900012    2    1    2    0    0  0.10732213348E+02  0.30378997684E+02  0.31480941712E+02  0.46142316581E+02  0.99999892361E+01 0.  0.
        -12    1    1    2    0    0 -0.10732213348E+02 -0.30378997684E+02 -0.31480941712E+02  0.45045683419E+02  0.00000000000E+00 0.  1.
         11    1    3    3    0    0  0.16206354659E+01  0.91453326802E+01  0.10693760367E+02  0.14164041803E+02  0.51100000000E-03 0. -1.
        -11    1    3    3    0    0  0.47844743810E+01  0.32377185629E+01  0.54197546852E+01  0.79213482251E+01  0.51100000000E-03 0.  1.
         12    1    3    3    0    0  0.43271035013E+01  0.17995946441E+02  0.15367426659E+02  0.24056926553E+02  0.00000000000E+00 0. -1.
</event>
<event>
 7    1  0.3980989E-008  0.4614232E+02  0.7816164E-02  0.1320468E+00
        -11   -1    0    0    0    0  0.00000000000E+00  0.00000000000E+00  0.45593999997E+02  0.45594000000E+02  0.51100000000E-03 0.  1.
         11   -1    0    0    0    0 -0.00000000000E+00 -0.00000000000E+00 -0.45593999997E+02  0.45594000000E+02  0.51100000000E-03 0. -1.
    9900012    2    1    2    0    0  0.37334183162E+02 -0.18542328356E+02  0.17072033012E+02  0.46142317805E+02  0.10000000403E+02 0.  0.
        -12    1    1    2    0    0 -0.37334183162E+02  0.18542328356E+02 -0.17072033012E+02  0.45045682195E+02  0.00000000000E+00 0.  1.
         11    1    3    3    0    0  0.30950259875E+02 -0.16685739634E+02  0.14337435497E+02  0.37972286609E+02  0.51100000000E-03 0. -1.
        -11    1    3    3    0    0  0.38044797119E+01 -0.26827826690E+00 -0.37073547229E+00  0.38319034641E+01  0.51100000000E-03 0.  1.
        -12    1    3    3    0    0  0.25794435751E+01 -0.15883104557E+01  0.31053329865E+01  0.43381277318E+01  0.00000000000E+00 0.  1.
</event>
<event>
 7    1  0.3980989E-008  0.4614232E+02  0.7816164E-02  0.1320468E+00
        -11   -1    0    0    0    0  0.00000000000E+00  0.00000000000E+00  0.45593999997E+02  0.45594000000E+02  0.51100000000E-03 0.  1.
         11   -1    0    0    0    0 -0.00000000000E+00 -0.00000000000E+00 -0.45593999997E+02  0.45594000000E+02  0.51100000000E-03 0. -1.
    9900012    2    1    2    0    0  0.74143853369E+01  0.14972687815E+02 -0.41832510303E+02  0.46142318646E+02  0.10000008071E+02 0.  0.
        -12    1    1    2    0    0 -0.74143853369E+01 -0.14972687815E+02  0.41832510303E+02  0.45045681354E+02  0.00000000000E+00 0.  1.
         11    1    3    3    0    0  0.27393315259E+01  0.56789228534E+01 -0.15154958608E+02  0.16414227751E+02  0.51100000000E-03 0. -1.
        -11    1    3    3    0    0  0.37245104953E+01  0.85879821555E+01 -0.13109695008E+02  0.16108678387E+02  0.51100000000E-03 0.  1.
         12    1    3    3    0    0  0.95054331563E+00  0.70578280658E+00 -0.13567856688E+02  0.13619412508E+02  0.00000000000E+00 0. -1.
</event>
<event>
 7    1  0.3980989E-008  0.4614231E+02  0.7816164E-02  0.1320468E+00
        -11   -1    0    0    0    0  0.00000000000E+00  0.00000000000E+00  0.45593999997E+02  0.45594000000E+02  0.51100000000E-03 0.  1.
         11   -1    0    0    0    0 -0.00000000000E+00 -0.00000000000E+00 -0.45593999997E+02  0.45594000000E+02  0.51100000000E-03 0. -1.
    9900012    2    1    2    0    0  0.20419574395E+02  0.26316229064E+02  0.30325087052E+02  0.46142313910E+02  0.99999648792E+01 0.  0.
        -12    1    1    2    0    0 -0.20419574395E+02 -0.26316229064E+02 -0.30325087052E+02  0.45045686090E+02  0.00000000000E+00 0.  1.
         11    1    3    3    0    0  0.14896787783E+02  0.15909480617E+02  0.20298947244E+02  0.29783772750E+02  0.51100000000E-03 0. -1.
        -11    1    3    3    0    0  0.35408177513E+01  0.68505455718E+01  0.30731178969E+01  0.83012901918E+01  0.51100000000E-03 0.  1.
         12    1    3    3    0    0  0.19819688606E+01  0.35562028749E+01  0.69530219117E+01  0.80572509677E+01  0.00000000000E+00 0. -1.
</event>
<event>
 7    1  0.3980989E-008  0.4614232E+02  0.7816164E-02  0.1320468E+00
        -11   -1    0    0    0    0  0.00000000000E+00  0.00000000000E+00  0.45593999997E+02  0.45594000000E+02  0.51100000000E-03 0. -1.
         11   -1    0    0    0    0 -0.00000000000E+00 -0.00000000000E+00 -0.45593999997E+02  0.45594000000E+02  0.51100000000E-03 0.  1.
    9900012    2    1    2    0    0 -0.31670826137E+02  0.27522704256E+02  0.16388198265E+02  0.46142317409E+02  0.99999967892E+01 0.  0.
        -12    1    1    2    0    0  0.31670826137E+02 -0.27522704256E+02 -0.16388198265E+02  0.45045682591E+02  0.00000000000E+00 0.  1.
         11    1    3    3    0    0 -0.17175857573E+02  0.11854990367E+02  0.68065003053E+01  0.21951749967E+02  0.51100000000E-03 0. -1.
        -11    1    3    3    0    0 -0.11468947062E+02  0.83606334283E+01  0.49846881540E+01  0.15042740917E+02  0.51100000000E-03 0.  1.
        -12    1    3    3    0    0 -0.30260215022E+01  0.73070804597E+01  0.45970098056E+01  0.91478265249E+01  0.00000000000E+00 0.  1.
</event>
<event>
 7    1  0.3980989E-008  0.4614232E+02  0.7816164E-02  0.1320468E+00
        -11   -1    0    0    0    0  0.00000000000E+00  0.00000000000E+00  0.45593999997E+02  0.45594000000E+02  0.51100000000E-03 0.  1.
         11   -1    0    0    0    0 -0.00000000000E+00 -0.00000000000E+00 -0.45593999997E+02  0.45594000000E+02  0.51100000000E-03 0. -1.
    9900012    2    1    2    0    0  0.28779659054E+02 -0.20511209338E+02 -0.27930896618E+02  0.46142317969E+02  0.10000001895E+02 0.  0.
        -12    1    1    2    0    0 -0.28779659054E+02  0.20511209338E+02  0.27930896618E+02  0.45045682031E+02  0.00000000000E+00 0.  1.
         11    1    3    3    0    0  0.22813668509E+02 -0.12898812754E+02 -0.19012886098E+02  0.32377965954E+02  0.51100000000E-03 0. -1.
        -11    1    3    3    0    0 -0.25053404639E+00 -0.16883349242E+01 -0.25716597189E+01  0.30865314020E+01  0.51100000000E-03 0.  1.
        -12    1    3    3    0    0  0.62165245915E+01 -0.59240616604E+01 -0.63463508009E+01  0.10677820613E+02  0.00000000000E+00 0.  1.
</event>
<event>
 7    1  0.3980989E-008  0.4614233E+02  0.7816164E-02  0.1320468E+00
        -11   -1    0    0    0    0  0.00000000000E+00  0.00000000000E+00  0.45593999997E+02  0.45594000000E+02  0.51100000000E-03 0. -1.
         11   -1    0    0    0    0 -0.00000000000E+00 -0.00000000000E+00 -0.45593999997E+02  0.45594000000E+02  0.51100000000E-03 0.  1.
    9900012    2    1    2    0    0 -0.99396374763E+01  0.25913223870E+02  0.35479863285E+02  0.46142331360E+02  0.10000124006E+02 0.  0.
        -12    1    1    2    0    0  0.99396374763E+01 -0.25913223870E+02 -0.35479863285E+02  0.45045668640E+02  0.00000000000E+00 0.  1.
         11    1    3    3    0    0 -0.45139092023E+01  0.10647347912E+02  0.11329748425E+02  0.16189644638E+02  0.51100000000E-03 0. -1.
        -11    1    3    3    0    0 -0.66543639015E-01 -0.47598531465E+00  0.30489973841E+01  0.30866446807E+01  0.51100000000E-03 0.  1.
         12    1    3    3    0    0 -0.53591846350E+01  0.15741861273E+02  0.21101117475E+02  0.26866042042E+02  0.00000000000E+00 0. -1.
</event>
<event>
 7    1  0.3980989E-008  0.4614232E+02  0.7816164E-02  0.1320468E+00
        -11   -1    0    0    0    0  0.00000000000E+00  0.00000000000E+00  0.45593999997E+02  0.45594000000E+02  0.51100000000E-03 0.  1.
         11   -1    0    0    0    0 -0.00000000000E+00 -0.00000000000E+00 -0.45593999997E+02  0.45594000000E+02  0.51100000000E-03 0. -1.
    9900012    2    1    2    0    0  0.31044474590E+02 -0.88904896855E+00 -0.32627652966E+02  0.46142317091E+02  0.99999938924E+01 0.  0.
        -12    1    1    2    0    0 -0.31044474590E+02  0.88904896855E+00  0.32627652966E+02  0.45045682909E+02  0.00000000000E+00 0.  1.
         11    1    3    3    0    0  0.13981609272E+02 -0.28382995802E+01 -0.12572697099E+02  0.19016152475E+02  0.51100000000E-03 0. -1.
        -11    1    3    3    0    0  0.15479088911E+01 -0.15314806845E+01 -0.12921596103E+01  0.25320212759E+01  0.51100000000E-03 0.  1.
         12    1    3    3    0    0  0.15514956427E+02  0.34807312961E+01 -0.18762796257E+02  0.24594143341E+02  0.00000000000E+00 0. -1.
</event>
<event>
 7    1  0.3980989E-008  0.4614232E+02  0.7816164E-02  0.1320468E+00
        -11   -1    0    0    0    0  0.00000000000E+00  0.00000000000E+00  0.45593999997E+02  0.45594000000E+02  0.51100000000E-03 0. -1.
         11   -1    0    0    0    0 -0.00000000000E+00 -0.00000000000E+00 -0.45593999997E+02  0.45594000000E+02  0.51100000000E-03 0.  1.
    9900012    2    1    2    0    0 -0.47546261392E+01  0.43822514616E+02 -0.92787008302E+01  0.46142317120E+02  0.99999941555E+01 0.  0.
        -12    1    1    2    0    0  0.47546261392E+01 -0.43822514616E+02  0.92787008302E+01  0.45045682880E+02  0.00000000000E+00 0.  1.
         11    1    3    3    0    0 -0.60688742057E+01  0.26322529638E+02 -0.86980146164E+01  0.28378905180E+02  0.51100000000E-03 0. -1.
        -11    1    3    3    0    0  0.50691558477E+00  0.49097829366E+01  0.10382661701E+01  0.50439001571E+01  0.51100000000E-03 0.  1.
         12    1    3    3    0    0  0.80733248173E+00  0.12590202042E+02 -0.16189523839E+01  0.12719511783E+02  0.00000000000E+00 0. -1.
</event>
<event>
 7    1  0.3980989E-008  0.4614232E+02  0.7816164E-02  0.1320468E+00
        -11   -1    0    0    0    0  0.00000000000E+00  0.00000000000E+00  0.45593999997E+02  0.45594000000E+02  0.51100000000E-03 0. -1.
         11   -1    0    0    0    0 -0.00000000000E+00 -0.00000000000E+00 -0.45593999997E+02  0.45594000000E+02  0.51100000000E-03 0.  1.
    9900012    2    1    2    0    0  0.14669979144E+02  0.42156362111E+02  0.60618906175E+01  0.46142315718E+02  0.99999813724E+01 0.  0.
        -12    1    1    2    0    0 -0.14669979144E+02 -0.42156362111E+02 -0.60618906175E+01  0.45045684282E+02  0.00000000000E+00 0.  1.
         11    1    3    3    0    0  0.80205977214E+01  0.21483460718E+02 -0.63110339744E+00  0.22940517954E+02  0.51100000000E-03 0. -1.
        -11    1    3    3    0    0  0.73163022613E+01  0.17543706723E+02  0.55104773014E+01  0.19790787875E+02  0.51100000000E-03 0.  1.
        -12    1    3    3    0    0 -0.66692083843E+00  0.31291946701E+01  0.11825167136E+01  0.34110098895E+01  0.00000000000E+00 0.  1.
</event>
<event>
 7    1  0.3980989E-008  0.4614232E+02  0.7816164E-02  0.1320468E+00
        -11   -1    0    0    0    0  0.00000000000E+00  0.00000000000E+00  0.45593999997E+02  0.45594000000E+02  0.51100000000E-03 0.  1.
         11   -1    0    0    0    0 -0.00000000000E+00 -0.00000000000E+00 -0.45593999997E+02  0.45594000000E+02  0.51100000000E-03 0. -1.
    9900012    2    1    2    0    0 -0.22010550453E+02 -0.32887828605E+02 -0.21518359634E+02  0.46142318709E+02  0.10000008648E+02 0.  0.
        -12    1    1    2    0    0  0.22010550453E+02  0.32887828605E+02  0.21518359634E+02  0.45045681291E+02  0.00000000000E+00 0.  1.
         11    1    3    3    0    0 -0.12163101155E+02 -0.12189859892E+02 -0.11780048184E+02  0.20863922195E+02  0.51100000000E-03 0. -1.
        -11    1    3    3    0    0 -0.49063554036E+01 -0.91780442728E+01 -0.67104445246E+01  0.12383007954E+02  0.51100000000E-03 0.  1.
        -12    1    3    3    0    0 -0.49410938941E+01 -0.11519924441E+02 -0.30278669249E+01  0.12895388560E+02  0.00000000000E+00 0.  1.
</event>
<event>
 7    1  0.3980989E-008  0.4614232E+02  0.7816164E-02  0.1320468E+00
        -11   -1    0    0    0    0  0.00000000000E+00  0.00000000000E+00  0.45593999997E+02  0.45594000000E+02  0.51100000000E-03 0. -1.
         11   -1    0    0    0    0 -0.00000000000E+00 -0.00000000000E+00 -0.45593999997E+02  0.45594000000E+02  0.51100000000E-03 0.  1.
    9900012    2    1    2    0    0 -0.25137623995E+02 -0.37375955676E+02 -0.50124206475E+00  0.46142318227E+02  0.10000004246E+02 0.  0.
        -12    1    1    2    0    0  0.25137623995E+02  0.37375955676E+02  0.50124206475E+00  0.45045681773E+02  0.00000000000E+00 0.  1.
         11    1    3    3    0    0 -0.10227641404E+00 -0.20934011757E+01 -0.13337520630E+01  0.24842873775E+01  0.51100000000E-03 0. -1.
        -11    1    3    3    0    0 -0.50686011766E+01 -0.44293562181E+01 -0.12597748891E+01  0.68481345947E+01  0.51100000000E-03 0.  1.
         12    1    3    3    0    0 -0.19966746404E+02 -0.30853198282E+02  0.20922848873E+01  0.36809896255E+02  0.00000000000E+00 0. -1.
</event>
<event>
 7    1  0.3980989E-008  0.4614232E+02  0.7816164E-02  0.1320468E+00
        -11   -1    0    0    0    0  0.00000000000E+00  0.00000000000E+00  0.45593999997E+02  0.45594000000E+02  0.51100000000E-03 0.  1.
         11   -1    0    0    0    0 -0.00000000000E+00 -0.00000000000E+00 -0.45593999997E+02  0.45594000000E+02  0.51100000000E-03 0. -1.
    9900012    2    1    2    0    0  0.55591431846E+01  0.23124625047E+02 -0.38255211175E+02  0.46142317204E+02  0.99999949222E+01 0.  0.
        -12    1    1    2    0    0 -0.55591431846E+01 -0.23124625047E+02  0.38255211175E+02  0.45045682796E+02  0.00000000000E+00 0.  1.
         11    1    3    3    0    0 -0.15296809721E+01  0.71548978332E+01 -0.14751257298E+02  0.16466088758E+02  0.51100000000E-03 0. -1.
        -11    1    3    3    0    0  0.23925859246E+01  0.58841534166E+01 -0.49938460401E+01  0.80799893174E+01  0.51100000000E-03 0.  1.
        -12    1    3    3    0    0  0.46962382321E+01  0.10085573797E+02 -0.18510107837E+02  0.21596239128E+02  0.00000000000E+00 0.  1.
</event>
<event>
 7    1  0.3980989E-008  0.4614232E+02  0.7816164E-02  0.1320468E+00
        -11   -1    0    0    0    0  0.00000000000E+00  0.00000000000E+00  0.45593999997E+02  0.45594000000E+02  0.51100000000E-03 0. -1.
         11   -1    0    0    0    0 -0.00000000000E+00 -0.00000000000E+00 -0.45593999997E+02  0.45594000000E+02  0.51100000000E-03 0.  1.
    9900012    2    1    2    0    0 -0.35444545646E+02 -0.22748145800E+02  0.15978722746E+02  0.46142317254E+02  0.99999953795E+01 0.  0.
        -12    1    1    2    0    0  0.35444545646E+02  0.22748145800E+02 -0.15978722746E+02  0.45045682746E+02  0.00000000000E+00 0.  1.
         11    1    3    3    0    0 -0.74748337401E+01 -0.65816487774E+01  0.50722067306E+01  0.11176695462E+02  0.51100000000E-03 0. -1.
        -11    1    3    3    0    0 -0.32044763696E+01 -0.32849020506E+01 -0.86537306870E+00  0.46699166047E+01  0.51100000000E-03 0.  1.
         12    1    3    3    0    0 -0.24765235537E+02 -0.12881594972E+02  0.11771889084E+02  0.30295705188E+02  0.00000000000E+00 0. -1.
</event>
<event>
 7    1  0.3980989E-008  0.4614232E+02  0.7816164E-02  0.1320468E+00
        -11   -1    0    0    0    0  0.00000000000E+00  0.00000000000E+00  0.45593999997E+02  0.45594000000E+02  0.51100000000E-03 0. -1.
         11   -1    0    0    0    0 -0.00000000000E+00 -0.00000000000E+00 -0.45593999997E+02  0.45594000000E+02  0.51100000000E-03 0.  1.
    9900012    2    1    2    0    0 -0.37591662688E+02 -0.11775342912E+02 -0.21847694031E+02  0.46142317201E+02  0.99999948917E+01 0.  0.
        -12    1    1    2    0    0  0.37591662688E+02  0.11775342912E+02  0.21847694031E+02  0.45045682799E+02  0.00000000000E+00 0.  1.
         11    1    3    3    0    0 -0.21190936348E+01 -0.18875548156E+01 -0.23377038578E+01  0.36767214475E+01  0.51100000000E-03 0. -1.
        -11    1    3    3    0    0 -0.98076194038E+01 -0.17074367864E+01 -0.15125984881E+01  0.10069393884E+02  0.51100000000E-03 0.  1.
         12    1    3    3    0    0 -0.25664949649E+02 -0.81803513103E+01 -0.17997391685E+02  0.32396201869E+02  0.00000000000E+00 0. -1.
</event>
<event>
 7    1  0.3980989E-008  0.4614232E+02  0.7816164E-02  0.1320468E+00
        -11   -1    0    0    0    0  0.00000000000E+00  0.00000000000E+00  0.45593999997E+02  0.45594000000E+02  0.51100000000E-03 0.  1.
         11   -1    0    0    0    0 -0.00000000000E+00 -0.00000000000E+00 -0.45593999997E+02  0.45594000000E+02  0.51100000000E-03 0. -1.
    9900012    2    1    2    0    0 -0.23825826779E+02  0.34961206292E+02 -0.15464718850E+02  0.46142317674E+02  0.99999992043E+01 0.  0.
        -12    1    1    2    0    0  0.23825826779E+02 -0.34961206292E+02  0.15464718850E+02  0.45045682326E+02  0.00000000000E+00 0.  1.
         11    1    3    3    0    0 -0.95304983394E+01  0.16068858322E+02 -0.48853198166E+01  0.19310747172E+02  0.51100000000E-03 0. -1.
        -11    1    3    3    0    0 -0.11207494860E+02  0.11866951281E+02 -0.99848856815E+01  0.19134534645E+02  0.51100000000E-03 0.  1.
        -12    1    3    3    0    0 -0.30878335792E+01  0.70253966893E+01 -0.59451335222E+00  0.76970358568E+01  0.00000000000E+00 0.  1.
</event>
<event>
 7    1  0.3980989E-008  0.4614232E+02  0.7816164E-02  0.1320468E+00
        -11   -1    0    0    0    0  0.00000000000E+00  0.00000000000E+00  0.45593999997E+02  0.45594000000E+02  0.51100000000E-03 0.  1.
         11   -1    0    0    0    0 -0.00000000000E+00 -0.00000000000E+00 -0.45593999997E+02  0.45594000000E+02  0.51100000000E-03 0. -1.
    9900012    2    1    2    0    0 -0.27543495268E+02 -0.54451119974E+01 -0.35225276663E+02  0.46142317718E+02  0.99999996082E+01 0.  0.
        -12    1    1    2    0    0  0.27543495268E+02  0.54451119974E+01  0.35225276663E+02  0.45045682282E+02  0.00000000000E+00 0.  1.
         11    1    3    3    0    0 -0.15495694837E+02 -0.45781401084E+01 -0.19805526697E+02  0.25560414968E+02  0.51100000000E-03 0. -1.
        -11    1    3    3    0    0 -0.46547969723E+01 -0.32221287435E+01 -0.83292446323E+01  0.10071026010E+02  0.51100000000E-03 0.  1.
         12    1    3    3    0    0 -0.73930034591E+01  0.23551568545E+01 -0.70905053340E+01  0.10510876740E+02  0.00000000000E+00 0. -1.
</event>
<event>
 7    1  0.3980989E-008  0.4614232E+02  0.7816164E-02  0.1320468E+00
        -11   -1    0    0    0    0  0.00000000000E+00  0.00000000000E+00  0.45593999997E+02  0.45594000000E+02  0.51100000000E-03 0.  1.
         11   -1    0    0    0    0 -0.00000000000E+00 -0.00000000000E+00 -0.45593999997E+02  0.45594000000E+02  0.51100000000E-03 0. -1.
    9900012    2    1    2    0    0 -0.16208327985E+02  0.26100059591E+02 -0.32942230733E+02  0.46142316828E+02  0.99999914942E+01 0.  0.
        -12    1    1    2    0    0  0.16208327985E+02 -0.26100059591E+02  0.32942230733E+02  0.45045683172E+02  0.00000000000E+00 0.  1.
         11    1    3    3    0    0 -0.99730629432E+01  0.14454678335E+02 -0.17633174197E+02  0.24886312357E+02  0.51100000000E-03 0. -1.
        -11    1    3    3    0    0 -0.39873733855E+01  0.11174894967E+02 -0.10169910546E+02  0.15627044020E+02  0.51100000000E-03 0.  1.
        -12    1    3    3    0    0 -0.22478916558E+01  0.47048628933E+00 -0.51391459902E+01  0.56289604505E+01  0.00000000000E+00 0.  1.
</event>
<event>
 7    1  0.3980989E-008  0.4614232E+02  0.7816164E-02  0.1320468E+00
        -11   -1    0    0    0    0  0.00000000000E+00  0.00000000000E+00  0.45593999997E+02  0.45594000000E+02  0.51100000000E-03 0.  1.
         11   -1    0    0    0    0 -0.00000000000E+00 -0.00000000000E+00 -0.45593999997E+02  0.45594000000E+02  0.51100000000E-03 0. -1.
    9900012    2    1    2    0    0 -0.28061670151E+02  0.16813782979E+02 -0.30966963245E+02  0.46142318272E+02  0.10000004658E+02 0.  0.
        -12    1    1    2    0    0  0.28061670151E+02 -0.16813782979E+02  0.30966963245E+02  0.45045681728E+02  0.00000000000E+00 0.  1.
         11    1    3    3    0    0 -0.14107061010E+02  0.12684146375E+02 -0.17546608625E+02  0.25841443731E+02  0.51100000000E-03 0. -1.
        -11    1    3    3    0    0 -0.44403545885E+01  0.35375913728E+01 -0.44834431320E+01  0.72341249762E+01  0.51100000000E-03 0.  1.
        -12    1    3    3    0    0 -0.95142545522E+01  0.59204523150E+00 -0.89369114882E+01  0.13066749565E+02  0.00000000000E+00 0.  1.
</event>
<event>
 7    1  0.3980989E-008  0.4614231E+02  0.7816164E-02  0.1320468E+00
        -11   -1    0    0    0    0  0.00000000000E+00  0.00000000000E+00  0.45593999997E+02  0.45594000000E+02  0.51100000000E-03 0.  1.
         11   -1    0    0    0    0 -0.00000000000E+00 -0.00000000000E+00 -0.45593999997E+02  0.45594000000E+02  0.51100000000E-03 0. -1.
    9900012    2    1    2    0    0  0.36460435774E+02 -0.26027524205E+02 -0.47242958433E+01  0.46142308038E+02  0.99999113376E+01 0.  0.
        -12    1    1    2    0    0 -0.36460435774E+02  0.26027524205E+02  0.47242958433E+01  0.45045691962E+02  0.00000000000E+00 0.  1.
         11    1    3    3    0    0  0.29645574554E+02 -0.18467504839E+02 -0.22896522463E+01  0.35002161837E+02  0.51100000000E-03 0. -1.
        -11    1    3    3    0    0  0.76957421773E+00  0.36379582020E+00 -0.50106437970E+00  0.98775384034E+00  0.51100000000E-03 0.  1.
        -12    1    3    3    0    0  0.60452870028E+01 -0.79238151864E+01 -0.19335792172E+01  0.10152392361E+02  0.00000000000E+00 0.  1.
</event>
<event>
 7    1  0.3980989E-008  0.4614232E+02  0.7816164E-02  0.1320468E+00
        -11   -1    0    0    0    0  0.00000000000E+00  0.00000000000E+00  0.45593999997E+02  0.45594000000E+02  0.51100000000E-03 0. -1.
         11   -1    0    0    0    0 -0.00000000000E+00 -0.00000000000E+00 -0.45593999997E+02  0.45594000000E+02  0.51100000000E-03 0.  1.
    9900012    2    1    2    0    0 -0.24158899048E+01 -0.12861018840E+02  0.43103030003E+02  0.46142317354E+02  0.99999962857E+01 0.  0.
        -12    1    1    2    0    0  0.24158899048E+01  0.12861018840E+02 -0.43103030003E+02  0.45045682646E+02  0.00000000000E+00 0.  1.
         11    1    3    3    0    0 -0.23635707365E+00  0.34415348320E+00  0.21498334966E+01  0.21899978563E+01  0.51100000000E-03 0. -1.
        -11    1    3    3    0    0  0.31861907813E+01 -0.66604447913E+01  0.21683084060E+02  0.22905664608E+02  0.51100000000E-03 0.  1.
         12    1    3    3    0    0 -0.53657236125E+01 -0.65447275323E+01  0.19270112446E+02  0.21046654890E+02  0.00000000000E+00 0. -1.
</event>
<event>
 7    1  0.3980989E-008  0.4614232E+02  0.7816164E-02  0.1320468E+00
        -11   -1    0    0    0    0  0.00000000000E+00  0.00000000000E+00  0.45593999997E+02  0.45594000000E+02  0.51100000000E-03 0. -1.
         11   -1    0    0    0    0 -0.00000000000E+00 -0.00000000000E+00 -0.45593999997E+02  0.45594000000E+02  0.51100000000E-03 0.  1.
    9900012    2    1    2    0    0 -0.25590130144E+02 -0.31583144228E+02 -0.19410403897E+02  0.46142317193E+02  0.99999948175E+01 0.  0.
        -12    1    1    2    0    0  0.25590130144E+02  0.31583144228E+02  0.19410403897E+02  0.45045682807E+02  0.00000000000E+00 0.  1.
         11    1    3    3    0    0 -0.54122279699E+01 -0.10345855559E+02 -0.79287439363E+01  0.14113607601E+02  0.51100000000E-03 0. -1.
        -11    1    3    3    0    0 -0.76649818419E+00 -0.28089114792E+01 -0.23708552416E+01  0.37547913394E+01  0.51100000000E-03 0.  1.
         12    1    3    3    0    0 -0.19411403990E+02 -0.18428377190E+02 -0.91108047190E+01  0.28273918252E+02  0.00000000000E+00 0. -1.
</event>
<event>
 7    1  0.3980989E-008  0.4614232E+02  0.7816164E-02  0.1320468E+00
        -11   -1    0    0    0    0  0.00000000000E+00  0.00000000000E+00  0.45593999997E+02  0.45594000000E+02  0.51100000000E-03 0.  1.
         11   -1    0    0    0    0 -0.00000000000E+00 -0.00000000000E+00 -0.45593999997E+02  0.45594000000E+02  0.51100000000E-03 0. -1.
    9900012    2    1    2    0    0  0.21226256848E+02 -0.39502581284E+02 -0.42550647593E+01  0.46142317810E+02  0.10000000448E+02 0.  0.
        -12    1    1    2    0    0 -0.21226256848E+02  0.39502581284E+02  0.42550647593E+01  0.45045682190E+02  0.00000000000E+00 0.  1.
         11    1    3    3    0    0  0.29663196989E+00 -0.12278115237E+01 -0.93088180769E+00  0.15690930069E+01  0.51100000000E-03 0. -1.
        -11    1    3    3    0    0  0.25622019385E+01 -0.12707133905E+02 -0.66531456717E+00  0.12979937388E+02  0.51100000000E-03 0.  1.
         12    1    3    3    0    0  0.18367422939E+02 -0.25567635855E+02 -0.26588683844E+01  0.31593287416E+02  0.00000000000E+00 0. -1.
</event>
<event>
 7    1  0.3980989E-008  0.4614232E+02  0.7816164E-02  0.1320468E+00
        -11   -1    0    0    0    0  0.00000000000E+00  0.00000000000E+00  0.45593999997E+02  0.45594000000E+02  0.51100000000E-03 0.  1.
         11   -1    0    0    0    0 -0.00000000000E+00 -0.00000000000E+00 -0.45593999997E+02  0.45594000000E+02  0.51100000000E-03 0. -1.
    9900012    2    1    2    0    0  0.53124237407E+01 -0.16429992517E+02 -0.41604650384E+02  0.46142318368E+02  0.10000005533E+02 0.  0.
        -12    1    1    2    0    0 -0.53124237407E+01  0.16429992517E+02  0.41604650384E+02  0.45045681632E+02  0.00000000000E+00 0.  1.
         11    1    3    3    0    0  0.37323489207E+01 -0.13140370241E+02 -0.26862319773E+02  0.30136091026E+02  0.51100000000E-03 0. -1.
        -11    1    3    3    0    0  0.24757968411E+01 -0.29160135721E+01 -0.54223743640E+01  0.66358759147E+01  0.51100000000E-03 0.  1.
        -12    1    3    3    0    0 -0.89572202115E+00 -0.37360870433E+00 -0.93199562476E+01  0.93703514267E+01  0.00000000000E+00 0.  1.
</event>
<event>
 7    1  0.3980989E-008  0.4614232E+02  0.7816164E-02  0.1320468E+00
        -11   -1    0    0    0    0  0.00000000000E+00  0.00000000000E+00  0.45593999997E+02  0.45594000000E+02  0.51100000000E-03 0.  1.
         11   -1    0    0    0    0 -0.00000000000E+00 -0.00000000000E+00 -0.45593999997E+02  0.45594000000E+02  0.51100000000E-03 0. -1.
    9900012    2    1    2    0    0  0.44424697517E+02 -0.70261509255E+01 -0.24885708710E+01  0.46142317285E+02  0.99999956581E+01 0.  0.
        -12    1    1    2    0    0 -0.44424697517E+02  0.70261509255E+01  0.24885708710E+01  0.45045682715E+02  0.00000000000E+00 0.  1.
         11    1    3    3    0    0  0.29356886058E+02 -0.45672005934E+01 -0.38720501120E+01  0.29961289235E+02  0.51100000000E-03 0. -1.
        -11    1    3    3    0    0  0.25629811536E+01  0.14266512721E+01  0.93514513834E+00  0.30787502231E+01  0.51100000000E-03 0.  1.
         12    1    3    3    0    0  0.12504830305E+02 -0.38856016042E+01  0.44833410270E+00  0.13102277827E+02  0.00000000000E+00 0. -1.
</event>
<event>
 7    1  0.3980989E-008  0.4614232E+02  0.7816164E-02  0.1320468E+00
        -11   -1    0    0    0    0  0.00000000000E+00  0.00000000000E+00  0.45593999997E+02  0.45594000000E+02  0.51100000000E-03 0.  1.
         11   -1    0    0    0    0 -0.00000000000E+00 -0.00000000000E+00 -0.45593999997E+02  0.45594000000E+02  0.51100000000E-03 0. -1.
    9900012    2    1    2    0    0  0.61834369910E+01  0.43676737020E+02 -0.91225679974E+01  0.46142317669E+02  0.99999991634E+01 0.  0.
        -12    1    1    2    0    0 -0.61834369910E+01 -0.43676737020E+02  0.91225679974E+01  0.45045682331E+02  0.00000000000E+00 0.  1.
         11    1    3    3    0    0 -0.75394828607E+00  0.11701936605E+02 -0.41177040766E+00  0.11733427182E+02  0.51100000000E-03 0. -1.
        -11    1    3    3    0    0  0.60661676708E+01  0.17499652647E+02 -0.27246043696E+01  0.18720568961E+02  0.51100000000E-03 0.  1.
        -12    1    3    3    0    0  0.87121760628E+00  0.14475147768E+02 -0.59861932202E+01  0.15688321526E+02  0.00000000000E+00 0.  1.
</event>
<event>
 7    1  0.3980989E-008  0.4614232E+02  0.7816164E-02  0.1320468E+00
        -11   -1    0    0    0    0  0.00000000000E+00  0.00000000000E+00  0.45593999997E+02  0.45594000000E+02  0.51100000000E-03 0.  1.
         11   -1    0    0    0    0 -0.00000000000E+00 -0.00000000000E+00 -0.45593999997E+02  0.45594000000E+02  0.51100000000E-03 0. -1.
    9900012    2    1    2    0    0 -0.31633289850E+01 -0.44482317470E+02 -0.63584795786E+01  0.46142317850E+02  0.10000000814E+02 0.  0.
        -12    1    1    2    0    0  0.31633289850E+01  0.44482317470E+02  0.63584795786E+01  0.45045682150E+02  0.00000000000E+00 0.  1.
         11    1    3    3    0    0 -0.27635792981E+01 -0.48572578908E+01  0.72998856987E-01  0.55888866377E+01  0.51100000000E-03 0. -1.
        -11    1    3    3    0    0  0.21847116785E+01 -0.13428731663E+02 -0.36303424858E+01  0.14081306261E+02  0.51100000000E-03 0.  1.
         12    1    3    3    0    0 -0.25844613654E+01 -0.26196327916E+02 -0.28011359498E+01  0.26472124952E+02  0.00000000000E+00 0. -1.
</event>
<event>
 7    1  0.3980989E-008  0.4614232E+02  0.7816164E-02  0.1320468E+00
        -11   -1    0    0    0    0  0.00000000000E+00  0.00000000000E+00  0.45593999997E+02  0.45594000000E+02  0.51100000000E-03 0. -1.
         11   -1    0    0    0    0 -0.00000000000E+00 -0.00000000000E+00 -0.45593999997E+02  0.45594000000E+02  0.51100000000E-03 0.  1.
    9900012    2    1    2    0    0  0.17222750901E+02  0.32897925279E+02  0.25499348742E+02  0.46142318492E+02  0.10000006667E+02 0.  0.
        -12    1    1    2    0    0 -0.17222750901E+02 -0.32897925279E+02 -0.25499348742E+02  0.45045681508E+02  0.00000000000E+00 0.  1.
         11    1    3    3    0    0  0.92741669996E+01  0.13143180616E+02  0.11316008195E+02  0.19667369218E+02  0.51100000000E-03 0. -1.
        -11    1    3    3    0    0  0.47064592117E+01  0.15897355544E+02  0.13518781527E+02  0.21392384763E+02  0.51100000000E-03 0.  1.
         12    1    3    3    0    0  0.32421246901E+01  0.38573891188E+01  0.66455901952E+00  0.50825645111E+01  0.00000000000E+00 0. -1.
</event>
<event>
 7    1  0.3980989E-008  0.4614232E+02  0.7816164E-02  0.1320468E+00
        -11   -1    0    0    0    0  0.00000000000E+00  0.00000000000E+00  0.45593999997E+02  0.45594000000E+02  0.51100000000E-03 0. -1.
         11   -1    0    0    0    0 -0.00000000000E+00 -0.00000000000E+00 -0.45593999997E+02  0.45594000000E+02  0.51100000000E-03 0.  1.
    9900012    2    1    2    0    0 -0.39949396098E+02  0.19525484787E+02  0.72051593084E+01  0.46142321790E+02  0.10000036740E+02 0.  0.
        -12    1    1    2    0    0  0.39949396098E+02 -0.19525484787E+02 -0.72051593084E+01  0.45045678210E+02  0.00000000000E+00 0.  1.
         11    1    3    3    0    0 -0.15426190063E+02  0.66927196553E+01  0.65396462570E+01  0.18042361533E+02  0.51100000000E-03 0. -1.
        -11    1    3    3    0    0 -0.14785312929E+02  0.10222377833E+02 -0.24986892995E+00  0.17976788415E+02  0.51100000000E-03 0.  1.
        -12    1    3    3    0    0 -0.97378931057E+01  0.26103872982E+01  0.91538198135E+00  0.10123171843E+02  0.00000000000E+00 0.  1.
</event>
<event>
 7    1  0.3980989E-008  0.4614232E+02  0.7816164E-02  0.1320468E+00
        -11   -1    0    0    0    0  0.00000000000E+00  0.00000000000E+00  0.45593999997E+02  0.45594000000E+02  0.51100000000E-03 0. -1.
         11   -1    0    0    0    0 -0.00000000000E+00 -0.00000000000E+00 -0.45593999997E+02  0.45594000000E+02  0.51100000000E-03 0.  1.
    9900012    2    1    2    0    0  0.36182273130E+02 -0.10166137150E+02  0.24831559729E+02  0.46142316611E+02  0.99999895143E+01 0.  0.
        -12    1    1    2    0    0 -0.36182273130E+02  0.10166137150E+02 -0.24831559729E+02  0.45045683389E+02  0.00000000000E+00 0.  1.
         11    1    3    3    0    0  0.80843031408E+01 -0.17587632027E+01  0.32319434539E+01  0.88822668292E+01  0.51100000000E-03 0. -1.
        -11    1    3    3    0    0  0.31935012359E+01  0.14350698407E+01  0.34128055485E+01  0.48892859974E+01  0.51100000000E-03 0.  1.
         12    1    3    3    0    0  0.24904468753E+02 -0.98424437881E+01  0.18186810727E+02  0.32370763785E+02  0.00000000000E+00 0. -1.
</event>
<event>
 7    1  0.3980989E-008  0.4614232E+02  0.7816164E-02  0.1320468E+00
        -11   -1    0    0    0    0  0.00000000000E+00  0.00000000000E+00  0.45593999997E+02  0.45594000000E+02  0.51100000000E-03 0. -1.
         11   -1    0    0    0    0 -0.00000000000E+00 -0.00000000000E+00 -0.45593999997E+02  0.45594000000E+02  0.51100000000E-03 0.  1.
    9900012    2    1    2    0    0 -0.38158412917E+02 -0.22893269334E+02 -0.69962283197E+01  0.46142317988E+02  0.10000002072E+02 0.  0.
        -12    1    1    2    0    0  0.38158412917E+02  0.22893269334E+02  0.69962283197E+01  0.45045682012E+02  0.00000000000E+00 0.  1.
         11    1    3    3    0    0 -0.19139311737E+02 -0.10352619904E+02 -0.52657240173E+01  0.22387894996E+02  0.51100000000E-03 0. -1.
        -11    1    3    3    0    0 -0.18000609631E+02 -0.92556432125E+01 -0.12204297053E+01  0.20277532574E+02  0.51100000000E-03 0.  1.
        -12    1    3    3    0    0 -0.10184915489E+01 -0.32850062176E+01 -0.51007459709E+00  0.34768904181E+01  0.00000000000E+00 0.  1.
</event>
<event>
 7    1  0.3980989E-008  0.4614232E+02  0.7816164E-02  0.1320468E+00
        -11   -1    0    0    0    0  0.00000000000E+00  0.00000000000E+00  0.45593999997E+02  0.45594000000E+02  0.51100000000E-03 0.  1.
         11   -1    0    0    0    0 -0.00000000000E+00 -0.00000000000E+00 -0.45593999997E+02  0.45594000000E+02  0.51100000000E-03 0. -1.
    9900012    2    1    2    0    0  0.36153887239E+02 -0.72583533874E+01 -0.25871338684E+02  0.46142318501E+02  0.10000006748E+02 0.  0.
        -12    1    1    2    0    0 -0.36153887239E+02  0.72583533874E+01  0.25871338684E+02  0.45045681499E+02  0.00000000000E+00 0.  1.
         11    1    3    3    0    0  0.99682977292E+01 -0.41004454421E+01 -0.85150760492E+01  0.13736343503E+02  0.51100000000E-03 0. -1.
        -11    1    3    3    0    0  0.25868632122E+02 -0.36766579159E+01 -0.17832376062E+02  0.31633804348E+02  0.51100000000E-03 0.  1.
        -12    1    3    3    0    0  0.31695738810E+00  0.51874997065E+00  0.47611342664E+00  0.77217065015E+00  0.00000000000E+00 0.  1.
</event>
<event>
 7    1  0.3980989E-008  0.4614232E+02  0.7816164E-02  0.1320468E+00
        -11   -1    0    0    0    0  0.00000000000E+00  0.00000000000E+00  0.45593999997E+02  0.45594000000E+02  0.51100000000E-03 0.  1.
         11   -1    0    0    0    0 -0.00000000000E+00 -0.00000000000E+00 -0.45593999997E+02  0.45594000000E+02  0.51100000000E-03 0. -1.
    9900012    2    1    2    0    0 -0.25239377624E+02  0.92276917374E+01 -0.36151583569E+02  0.46142317941E+02  0.10000001637E+02 0.  0.
        -12    1    1    2    0    0  0.25239377624E+02 -0.92276917374E+01  0.36151583569E+02  0.45045682059E+02  0.00000000000E+00 0.  1.
         11    1    3    3    0    0 -0.23567667599E+01 -0.10318123337E+01 -0.71239777222E+01  0.75743016246E+01  0.51100000000E-03 0. -1.
        -11    1    3    3    0    0 -0.92618836692E+01  0.39977496385E+01 -0.87719444247E+01  0.13368302081E+02  0.51100000000E-03 0.  1.
         12    1    3    3    0    0 -0.13620727194E+02  0.62617544326E+01 -0.20255661422E+02  0.25199714235E+02  0.00000000000E+00 0. -1.
</event>
<event>
 7    1  0.3980989E-008  0.4614232E+02  0.7816164E-02  0.1320468E+00
        -11   -1    0    0    0    0  0.00000000000E+00  0.00000000000E+00  0.45593999997E+02  0.45594000000E+02  0.51100000000E-03 0.  1.
         11   -1    0    0    0    0 -0.00000000000E+00 -0.00000000000E+00 -0.45593999997E+02  0.45594000000E+02  0.51100000000E-03 0. -1.
    9900012    2    1    2    0    0 -0.22185553423E+01 -0.40414800220E+02  0.19769558266E+02  0.46142317647E+02  0.99999989564E+01 0.  0.
        -12    1    1    2    0    0  0.22185553423E+01  0.40414800220E+02 -0.19769558266E+02  0.45045682353E+02  0.00000000000E+00 0.  1.
         11    1    3    3    0    0 -0.29248471638E+01 -0.24150564089E+02  0.82481450358E+01  0.25687280385E+02  0.51100000000E-03 0. -1.
        -11    1    3    3    0    0  0.25303233460E+01 -0.11683239834E+02  0.85662798565E+01  0.14706521686E+02  0.51100000000E-03 0.  1.
        -12    1    3    3    0    0 -0.18240315244E+01 -0.45809962970E+01  0.29551333739E+01  0.57485155764E+01  0.00000000000E+00 0.  1.
</event>
<event>
 7    1  0.3980989E-008  0.4614232E+02  0.7816164E-02  0.1320468E+00
        -11   -1    0    0    0    0  0.00000000000E+00  0.00000000000E+00  0.45593999997E+02  0.45594000000E+02  0.51100000000E-03 0.  1.
         11   -1    0    0    0    0 -0.00000000000E+00 -0.00000000000E+00 -0.45593999997E+02  0.45594000000E+02  0.51100000000E-03 0. -1.
    9900012    2    1    2    0    0  0.58454493485E+00  0.38537801072E+02 -0.23315441184E+02  0.46142316501E+02  0.99999885128E+01 0.  0.
        -12    1    1    2    0    0 -0.58454493485E+00 -0.38537801072E+02  0.23315441184E+02  0.45045683499E+02  0.00000000000E+00 0.  1.
         11    1    3    3    0    0  0.28333885923E+01  0.82192440565E+01 -0.78572947352E+01  0.11718410498E+02  0.51100000000E-03 0. -1.
        -11    1    3    3    0    0 -0.25691489019E+01  0.14761242187E+02 -0.55576562141E+01  0.15980686464E+02  0.51100000000E-03 0.  1.
         12    1    3    3    0    0  0.32030524445E+00  0.15557314828E+02 -0.99004902351E+01  0.18443219540E+02  0.00000000000E+00 0. -1.
</event>
<event>
 7    1  0.3980989E-008  0.4614232E+02  0.7816164E-02  0.1320468E+00
        -11   -1    0    0    0    0  0.00000000000E+00  0.00000000000E+00  0.45593999997E+02  0.45594000000E+02  0.51100000000E-03 0. -1.
         11   -1    0    0    0    0 -0.00000000000E+00 -0.00000000000E+00 -0.45593999997E+02  0.45594000000E+02  0.51100000000E-03 0.  1.
    9900012    2    1    2    0    0 -0.27518562745E+02 -0.30535547343E+02  0.18423425355E+02  0.46142317090E+02  0.99999938761E+01 0.  0.
        -12    1    1    2    0    0  0.27518562745E+02  0.30535547343E+02 -0.18423425355E+02  0.45045682910E+02  0.00000000000E+00 0.  1.
         11    1    3    3    0    0 -0.52614700930E+01 -0.73403059885E+01  0.34874490401E+01  0.96811910741E+01  0.51100000000E-03 0. -1.
        -11    1    3    3    0    0 -0.94409684758E+01 -0.14943955278E+02  0.54059834577E+01  0.18484543340E+02  0.51100000000E-03 0.  1.
        -12    1    3    3    0    0 -0.12816124176E+02 -0.82512860766E+01  0.95299928572E+01  0.17976582675E+02  0.00000000000E+00 0.  1.
</event>
<event>
 7    1  0.3980989E-008  0.4614232E+02  0.7816164E-02  0.1320468E+00
        -11   -1    0    0    0    0  0.00000000000E+00  0.00000000000E+00  0.45593999997E+02  0.45594000000E+02  0.51100000000E-03 0.  1.
         11   -1    0    0    0    0 -0.00000000000E+00 -0.00000000000E+00 -0.45593999997E+02  0.45594000000E+02  0.51100000000E-03 0. -1.
    9900012    2    1    2    0    0  0.29000922126E+02 -0.22808751654E+02 -0.25842225322E+02  0.46142320454E+02  0.10000024559E+02 0.  0.
        -12    1    1    2    0    0 -0.29000922126E+02  0.22808751654E+02  0.25842225322E+02  0.45045679546E+02  0.00000000000E+00 0.  1.
         11    1    3    3    0    0  0.21802526729E+02 -0.15239092218E+02 -0.18638781679E+02  0.32480521642E+02  0.51100000000E-03 0. -1.
        -11    1    3    3    0    0  0.32868485049E+01 -0.37998386237E+00 -0.12340288022E+01  0.35313719962E+01  0.51100000000E-03 0.  1.
         12    1    3    3    0    0  0.39115468922E+01 -0.71896755734E+01 -0.59694148409E+01  0.10130426816E+02  0.00000000000E+00 0. -1.
</event>
<event>
 7    1  0.3980989E-008  0.4614232E+02  0.7816164E-02  0.1320468E+00
        -11   -1    0    0    0    0  0.00000000000E+00  0.00000000000E+00  0.45593999997E+02  0.45594000000E+02  0.51100000000E-03 0.  1.
         11   -1    0    0    0    0 -0.00000000000E+00 -0.00000000000E+00 -0.45593999997E+02  0.45594000000E+02  0.51100000000E-03 0. -1.
    9900012    2    1    2    0    0  0.11550864677E+02 -0.33229823742E+02 -0.28133073562E+02  0.46142317757E+02  0.99999999595E+01 0.  0.
        -12    1    1    2    0    0 -0.11550864677E+02  0.33229823742E+02  0.28133073562E+02  0.45045682243E+02  0.00000000000E+00 0.  1.
         11    1    3    3    0    0  0.24277879262E+01 -0.12715639680E+02 -0.13042578975E+02  0.18376357454E+02  0.51100000000E-03 0. -1.
        -11    1    3    3    0    0  0.73604742508E+01 -0.20165696516E+02 -0.13446560020E+02  0.25330650876E+02  0.51100000000E-03 0.  1.
        -12    1    3    3    0    0  0.17626025004E+01 -0.34848754600E+00 -0.16439345661E+01  0.24353094263E+01  0.00000000000E+00 0.  1.
</event>
<event>
 7    1  0.3980989E-008  0.4614232E+02  0.7816164E-02  0.1320468E+00
        -11   -1    0    0    0    0  0.00000000000E+00  0.00000000000E+00  0.45593999997E+02  0.45594000000E+02  0.51100000000E-03 0.  1.
         11   -1    0    0    0    0 -0.00000000000E+00 -0.00000000000E+00 -0.45593999997E+02  0.45594000000E+02  0.51100000000E-03 0. -1.
    9900012    2    1    2    0    0  0.18128897670E+01  0.43725233715E+02 -0.10673833737E+02  0.46142319193E+02  0.10000013053E+02 0.  0.
        -12    1    1    2    0    0 -0.18128897670E+01 -0.43725233715E+02  0.10673833737E+02  0.45045680807E+02  0.00000000000E+00 0.  1.
         11    1    3    3    0    0  0.54462776097E+01  0.23817247664E+02 -0.60342139266E+01  0.25166147184E+02  0.51100000000E-03 0. -1.
        -11    1    3    3    0    0 -0.56530985752E+00  0.42689457736E+00 -0.36548996664E+00  0.79711817946E+00  0.51100000000E-03 0.  1.
         12    1    3    3    0    0 -0.30680779851E+01  0.19481091473E+02 -0.42741298439E+01  0.20179053829E+02  0.00000000000E+00 0. -1.
</event>
<event>
 7    1  0.3980989E-008  0.4614232E+02  0.7816164E-02  0.1320468E+00
        -11   -1    0    0    0    0  0.00000000000E+00  0.00000000000E+00  0.45593999997E+02  0.45594000000E+02  0.51100000000E-03 0.  1.
         11   -1    0    0    0    0 -0.00000000000E+00 -0.00000000000E+00 -0.45593999997E+02  0.45594000000E+02  0.51100000000E-03 0. -1.
    9900012    2    1    2    0    0  0.36145135901E+01 -0.10128457194E+02 -0.43743149338E+02  0.46142317992E+02  0.10000002101E+02 0.  0.
        -12    1    1    2    0    0 -0.36145135901E+01  0.10128457194E+02  0.43743149338E+02  0.45045682008E+02  0.00000000000E+00 0.  1.
         11    1    3    3    0    0 -0.26898260895E+00 -0.32603618054E+01 -0.26207833340E+02  0.26411225632E+02  0.51100000000E-03 0. -1.
        -11    1    3    3    0    0  0.13888818200E+01 -0.50825050209E+01 -0.14448021227E+02  0.15378757025E+02  0.51100000000E-03 0.  1.
        -12    1    3    3    0    0  0.24946143791E+01 -0.17855903679E+01 -0.30872947702E+01  0.43523353341E+01  0.00000000000E+00 0.  1.
</event>
<event>
 7    1  0.3980989E-008  0.4614232E+02  0.7816164E-02  0.1320468E+00
        -11   -1    0    0    0    0  0.00000000000E+00  0.00000000000E+00  0.45593999997E+02  0.45594000000E+02  0.51100000000E-03 0.  1.
         11   -1    0    0    0    0 -0.00000000000E+00 -0.00000000000E+00 -0.45593999997E+02  0.45594000000E+02  0.51100000000E-03 0. -1.
    9900012    2    1    2    0    0 -0.50820944940E+01  0.37308308940E+02 -0.24726017056E+02  0.46142317412E+02  0.99999968139E+01 0.  0.
        -12    1    1    2    0    0  0.50820944940E+01 -0.37308308940E+02  0.24726017056E+02  0.45045682588E+02  0.00000000000E+00 0.  1.
         11    1    3    3    0    0 -0.14692388547E+00  0.75357793793E+01 -0.90777817395E+01  0.11798969406E+02  0.51100000000E-03 0. -1.
        -11    1    3    3    0    0 -0.22548480441E+01  0.65380700444E+01 -0.55515720562E+01  0.88685202916E+01  0.51100000000E-03 0.  1.
         12    1    3    3    0    0 -0.26803225645E+01  0.23234459516E+02 -0.10096663261E+02  0.25474827714E+02  0.00000000000E+00 0. -1.
</event>
<event>
 7    1  0.3980989E-008  0.4614232E+02  0.7816164E-02  0.1320468E+00
        -11   -1    0    0    0    0  0.00000000000E+00  0.00000000000E+00  0.45593999997E+02  0.45594000000E+02  0.51100000000E-03 0.  1.
         11   -1    0    0    0    0 -0.00000000000E+00 -0.00000000000E+00 -0.45593999997E+02  0.45594000000E+02  0.51100000000E-03 0. -1.
    9900012    2    1    2    0    0  0.43605422493E+02  0.91535987218E+01 -0.66251243406E+01  0.46142317489E+02  0.99999975152E+01 0.  0.
        -12    1    1    2    0    0 -0.43605422493E+02 -0.91535987218E+01  0.66251243406E+01  0.45045682511E+02  0.00000000000E+00 0.  1.
         11    1    3    3    0    0  0.12726932824E+02  0.24694515487E+01 -0.24805437340E+01  0.13199473760E+02  0.51100000000E-03 0. -1.
        -11    1    3    3    0    0  0.12810499135E+02  0.34892473222E+01 -0.58633665869E+01  0.14514227604E+02  0.51100000000E-03 0.  1.
         12    1    3    3    0    0  0.18067990534E+02  0.31948998509E+01  0.17187859803E+01  0.18428616124E+02  0.00000000000E+00 0. -1.
</event>
<event>
 7    1  0.3980989E-008  0.4614232E+02  0.7816164E-02  0.1320468E+00
        -11   -1    0    0    0    0  0.00000000000E+00  0.00000000000E+00  0.45593999997E+02  0.45594000000E+02  0.51100000000E-03 0.  1.
         11   -1    0    0    0    0 -0.00000000000E+00 -0.00000000000E+00 -0.45593999997E+02  0.45594000000E+02  0.51100000000E-03 0. -1.
    9900012    2    1    2    0    0  0.40540217990E+02  0.15675475067E+01 -0.19574140399E+02  0.46142318163E+02  0.10000003661E+02 0.  0.
        -12    1    1    2    0    0 -0.40540217990E+02 -0.15675475067E+01  0.19574140399E+02  0.45045681837E+02  0.00000000000E+00 0.  1.
         11    1    3    3    0    0  0.20022549407E+02  0.36303029206E+01 -0.13359334614E+02  0.24342419880E+02  0.51100000000E-03 0. -1.
        -11    1    3    3    0    0  0.84483679963E+00  0.43507221332E+00 -0.80253724766E+00  0.12438260907E+01  0.51100000000E-03 0.  1.
         12    1    3    3    0    0  0.19672831783E+02 -0.24978276272E+01 -0.54122685374E+01  0.20556072192E+02  0.00000000000E+00 0. -1.
</event>
<event>
 7    1  0.3980989E-008  0.4614232E+02  0.7816164E-02  0.1320468E+00
        -11   -1    0    0    0    0  0.00000000000E+00  0.00000000000E+00  0.45593999997E+02  0.45594000000E+02  0.51100000000E-03 0. -1.
         11   -1    0    0    0    0 -0.00000000000E+00 -0.00000000000E+00 -0.45593999997E+02  0.45594000000E+02  0.51100000000E-03 0.  1.
    9900012    2    1    2    0    0 -0.20739280821E+02  0.62299808925E+01  0.39499144922E+02  0.46142324509E+02  0.10000061529E+02 0.  0.
        -12    1    1    2    0    0  0.20739280821E+02 -0.62299808925E+01 -0.39499144922E+02  0.45045675491E+02  0.00000000000E+00 0.  1.
         11    1    3    3    0    0 -0.50523866152E+00 -0.26536851596E-01  0.63386506906E+01  0.63588098846E+01  0.51100000000E-03 0. -1.
        -11    1    3    3    0    0 -0.17406423881E+01  0.12925841171E+01  0.72387148951E+01  0.75564279403E+01  0.51100000000E-03 0.  1.
         12    1    3    3    0    0 -0.18493399771E+02  0.49639336270E+01  0.25921779336E+02  0.32227086684E+02  0.00000000000E+00 0. -1.
</event>
<event>
 7    1  0.3980989E-008  0.4614232E+02  0.7816164E-02  0.1320468E+00
        -11   -1    0    0    0    0  0.00000000000E+00  0.00000000000E+00  0.45593999997E+02  0.45594000000E+02  0.51100000000E-03 0. -1.
         11   -1    0    0    0    0 -0.00000000000E+00 -0.00000000000E+00 -0.45593999997E+02  0.45594000000E+02  0.51100000000E-03 0.  1.
    9900012    2    1    2    0    0 -0.40684364668E+01 -0.42059323174E+02 -0.15606878267E+02  0.46142317739E+02  0.99999997992E+01 0.  0.
        -12    1    1    2    0    0  0.40684364668E+01  0.42059323174E+02  0.15606878267E+02  0.45045682261E+02  0.00000000000E+00 0.  1.
         11    1    3    3    0    0 -0.58212158978E+01 -0.23731464403E+02 -0.10062676336E+02  0.26425866354E+02  0.51100000000E-03 0. -1.
        -11    1    3    3    0    0 -0.10971644987E+01 -0.17397766057E+01 -0.97450076121E+00  0.22760150636E+01  0.51100000000E-03 0.  1.
        -12    1    3    3    0    0  0.28499439297E+01 -0.16588082165E+02 -0.45697011698E+01  0.17440436322E+02  0.00000000000E+00 0.  1.
</event>
<event>
 7    1  0.3980989E-008  0.4614232E+02  0.7816164E-02  0.1320468E+00
        -11   -1    0    0    0    0  0.00000000000E+00  0.00000000000E+00  0.45593999997E+02  0.45594000000E+02  0.51100000000E-03 0.  1.
         11   -1    0    0    0    0 -0.00000000000E+00 -0.00000000000E+00 -0.45593999997E+02  0.45594000000E+02  0.51100000000E-03 0. -1.
    9900012    2    1    2    0    0 -0.37296240474E+02  0.21017098978E+02  0.14013759907E+02  0.46142317968E+02  0.10000001890E+02 0.  0.
        -12    1    1    2    0    0  0.37296240474E+02 -0.21017098978E+02 -0.14013759907E+02  0.45045682032E+02  0.00000000000E+00 0.  1.
         11    1    3    3    0    0 -0.27737050532E+02  0.18926309636E+02  0.96702610850E+01  0.34943713575E+02  0.51100000000E-03 0. -1.
        -11    1    3    3    0    0 -0.19006911787E+00 -0.31586231403E+00 -0.29362632143E+00  0.47128754360E+00  0.51100000000E-03 0.  1.
         12    1    3    3    0    0 -0.93691208241E+01  0.24066516558E+01  0.46371251435E+01  0.10727316850E+02  0.00000000000E+00 0. -1.
</event>
<event>
 7    1  0.3980989E-008  0.4614232E+02  0.7816164E-02  0.1320468E+00
        -11   -1    0    0    0    0  0.00000000000E+00  0.00000000000E+00  0.45593999997E+02  0.45594000000E+02  0.51100000000E-03 0. -1.
         11   -1    0    0    0    0 -0.00000000000E+00 -0.00000000000E+00 -0.45593999997E+02  0.45594000000E+02  0.51100000000E-03 0.  1.
    9900012    2    1    2    0    0 -0.42024000425E+02 -0.14945500217E+02  0.63030799736E+01  0.46142318680E+02  0.10000008377E+02 0.  0.
        -12    1    1    2    0    0  0.42024000425E+02  0.14945500217E+02 -0.63030799736E+01  0.45045681320E+02  0.00000000000E+00 0.  1.
         11    1    3    3    0    0 -0.70176412651E+01 -0.41122864584E+01  0.17020653933E+01  0.83099467932E+01  0.51100000000E-03 0. -1.
        -11    1    3    3    0    0 -0.16407540561E+02 -0.62573116883E+01  0.61751341531E+01  0.18614339067E+02  0.51100000000E-03 0.  1.
        -12    1    3    3    0    0 -0.18598818599E+02 -0.45759020704E+01 -0.15741195728E+01  0.19218032820E+02  0.00000000000E+00 0.  1.
</event>
<event>
 7    1  0.3980989E-008  0.4614232E+02  0.7816164E-02  0.1320468E+00
        -11   -1    0    0    0    0  0.00000000000E+00  0.00000000000E+00  0.45593999997E+02  0.45594000000E+02  0.51100000000E-03 0. -1.
         11   -1    0    0    0    0 -0.00000000000E+00 -0.00000000000E+00 -0.45593999997E+02  0.45594000000E+02  0.51100000000E-03 0.  1.
    9900012    2    1    2    0    0  0.40283280227E+02  0.87515044162E+01  0.18159900902E+02  0.46142317674E+02  0.99999992073E+01 0.  0.
        -12    1    1    2    0    0 -0.40283280227E+02 -0.87515044162E+01 -0.18159900902E+02  0.45045682326E+02  0.00000000000E+00 0.  1.
         11    1    3    3    0    0  0.53530854403E+01  0.45635197508E+01  0.26827109499E+01  0.75284908547E+01  0.51100000000E-03 0. -1.
        -11    1    3    3    0    0  0.20049082579E+01 -0.34694170591E-01  0.18578535072E+01  0.27335838607E+01  0.51100000000E-03 0.  1.
         12    1    3    3    0    0  0.32925286529E+02  0.42226788360E+01  0.13619336445E+02  0.35880242959E+02  0.00000000000E+00 0. -1.
</event>
<event>
 7    1  0.3980989E-008  0.4614232E+02  0.7816164E-02  0.1320468E+00
        -11   -1    0    0    0    0  0.00000000000E+00  0.00000000000E+00  0.45593999997E+02  0.45594000000E+02  0.51100000000E-03 0.  1.
         11   -1    0    0    0    0 -0.00000000000E+00 -0.00000000000E+00 -0.45593999997E+02  0.45594000000E+02  0.51100000000E-03 0. -1.
    9900012    2    1    2    0    0  0.20261488641E+02 -0.22113414043E+02 -0.33609263230E+02  0.46142316772E+02  0.99999909827E+01 0.  0.
        -12    1    1    2    0    0 -0.20261488641E+02  0.22113414043E+02  0.33609263230E+02  0.45045683228E+02  0.00000000000E+00 0.  1.
         11    1    3    3    0    0  0.85455161625E+01 -0.83525597407E+01 -0.12442075355E+02  0.17250980845E+02  0.51100000000E-03 0. -1.
        -11    1    3    3    0    0  0.98791925373E+01 -0.14578761825E+02 -0.18385863932E+02  0.25459354554E+02  0.51100000000E-03 0.  1.
        -12    1    3    3    0    0  0.18367799413E+01  0.81790752289E+00 -0.27813239428E+01  0.34319813729E+01  0.00000000000E+00 0.  1.
</event>
<event>
 7    1  0.3980989E-008  0.4614232E+02  0.7816164E-02  0.1320468E+00
        -11   -1    0    0    0    0  0.00000000000E+00  0.00000000000E+00  0.45593999997E+02  0.45594000000E+02  0.51100000000E-03 0.  1.
         11   -1    0    0    0    0 -0.00000000000E+00 -0.00000000000E+00 -0.45593999997E+02  0.45594000000E+02  0.51100000000E-03 0. -1.
    9900012    2    1    2    0    0 -0.10202495153E+02 -0.10768712384E+02 -0.42533016051E+02  0.46142317319E+02  0.99999959698E+01 0.  0.
        -12    1    1    2    0    0  0.10202495153E+02  0.10768712384E+02  0.42533016051E+02  0.45045682681E+02  0.00000000000E+00 0.  1.
         11    1    3    3    0    0  0.32705281009E+00 -0.46386313220E+01 -0.12159104510E+02  0.13017975527E+02  0.51100000000E-03 0. -1.
        -11    1    3    3    0    0 -0.48117973889E+01 -0.57288352718E+01 -0.17490565273E+02  0.19023480794E+02  0.51100000000E-03 0.  1.
        -12    1    3    3    0    0 -0.57177505744E+01 -0.40124579003E+00 -0.12883346269E+02  0.14100860998E+02  0.00000000000E+00 0.  1.
</event>
<event>
 7    1  0.3980989E-008  0.4614232E+02  0.7816164E-02  0.1320468E+00
        -11   -1    0    0    0    0  0.00000000000E+00  0.00000000000E+00  0.45593999997E+02  0.45594000000E+02  0.51100000000E-03 0.  1.
         11   -1    0    0    0    0 -0.00000000000E+00 -0.00000000000E+00 -0.45593999997E+02  0.45594000000E+02  0.51100000000E-03 0. -1.
    9900012    2    1    2    0    0 -0.12709559521E+02  0.40478331447E+02 -0.15135557399E+02  0.46142319655E+02  0.10000017270E+02 0.  0.
        -12    1    1    2    0    0  0.12709559521E+02 -0.40478331447E+02  0.15135557399E+02  0.45045680345E+02  0.00000000000E+00 0.  1.
         11    1    3    3    0    0 -0.47685421305E+01  0.20906296840E+02 -0.50640630855E+01  0.22033088227E+02  0.51100000000E-03 0. -1.
        -11    1    3    3    0    0 -0.46928498514E-01  0.38240336105E+01 -0.38512601675E+01  0.54274893346E+01  0.51100000000E-03 0.  1.
         12    1    3    3    0    0 -0.78940888921E+01  0.15748000996E+02 -0.62202341463E+01  0.18681742094E+02  0.00000000000E+00 0. -1.
</event>
<event>
 7    1  0.3980989E-008  0.4614232E+02  0.7816164E-02  0.1320468E+00
        -11   -1    0    0    0    0  0.00000000000E+00  0.00000000000E+00  0.45593999997E+02  0.45594000000E+02  0.51100000000E-03 0. -1.
         11   -1    0    0    0    0 -0.00000000000E+00 -0.00000000000E+00 -0.45593999997E+02  0.45594000000E+02  0.51100000000E-03 0.  1.
    9900012    2    1    2    0    0  0.30879950064E+02  0.18908172434E+01  0.32740905812E+02  0.46142318529E+02  0.10000007001E+02 0.  0.
        -12    1    1    2    0    0 -0.30879950064E+02 -0.18908172434E+01 -0.32740905812E+02  0.45045681471E+02  0.00000000000E+00 0.  1.
         11    1    3    3    0    0  0.88720507965E+01 -0.46061426653E+00  0.12285839129E+02  0.15161375076E+02  0.51100000000E-03 0. -1.
        -11    1    3    3    0    0  0.20271609267E+00  0.13391347676E+01  0.18900156497E+01  0.23251957245E+01  0.51100000000E-03 0.  1.
        -12    1    3    3    0    0  0.21805183175E+02  0.10122967424E+01  0.18565051033E+02  0.28655747728E+02  0.00000000000E+00 0.  1.
</event>
<event>
 7    1  0.3980989E-008  0.4614232E+02  0.7816164E-02  0.1320468E+00
        -11   -1    0    0    0    0  0.00000000000E+00  0.00000000000E+00  0.45593999997E+02  0.45594000000E+02  0.51100000000E-03 0.  1.
         11   -1    0    0    0    0 -0.00000000000E+00 -0.00000000000E+00 -0.45593999997E+02  0.45594000000E+02  0.51100000000E-03 0. -1.
    9900012    2    1    2    0    0  0.19792033957E+01 -0.52638635846E+01 -0.44693264124E+02  0.46142319142E+02  0.10000012595E+02 0.  0.
        -12    1    1    2    0    0 -0.19792033957E+01  0.52638635846E+01  0.44693264124E+02  0.45045680858E+02  0.00000000000E+00 0.  1.
         11    1    3    3    0    0 -0.13592957043E+01  0.66680178545E+00 -0.89143678423E+01  0.90420276334E+01  0.51100000000E-03 0. -1.
        -11    1    3    3    0    0 -0.19387432826E+01 -0.22419929329E+01 -0.68537064196E+01  0.74671647748E+01  0.51100000000E-03 0.  1.
        -12    1    3    3    0    0  0.52772423826E+01 -0.36886724372E+01 -0.28925189862E+02  0.29633126734E+02  0.00000000000E+00 0.  1.
</event>
<event>
 7    1  0.3980989E-008  0.4614232E+02  0.7816164E-02  0.1320468E+00
        -11   -1    0    0    0    0  0.00000000000E+00  0.00000000000E+00  0.45593999997E+02  0.45594000000E+02  0.51100000000E-03 0.  1.
         11   -1    0    0    0    0 -0.00000000000E+00 -0.00000000000E+00 -0.45593999997E+02  0.45594000000E+02  0.51100000000E-03 0. -1.
    9900012    2    1    2    0    0  0.23283672542E+02  0.36847680068E+02 -0.11368049061E+02  0.46142317933E+02  0.10000001567E+02 0.  0.
        -12    1    1    2    0    0 -0.23283672542E+02 -0.36847680068E+02  0.11368049061E+02  0.45045682067E+02  0.00000000000E+00 0.  1.
         11    1    3    3    0    0  0.16645751251E+01  0.25488899827E+01 -0.21972155958E+01  0.37543850531E+01  0.51100000000E-03 0. -1.
        -11    1    3    3    0    0  0.18392182499E+02  0.22376865801E+02 -0.75324231268E+01  0.29928813852E+02  0.51100000000E-03 0.  1.
        -12    1    3    3    0    0  0.32269149181E+01  0.11921924284E+02 -0.16384103388E+01  0.12459119028E+02  0.00000000000E+00 0.  1.
</event>
<event>
 7    1  0.3980989E-008  0.4614232E+02  0.7816164E-02  0.1320468E+00
        -11   -1    0    0    0    0  0.00000000000E+00  0.00000000000E+00  0.45593999997E+02  0.45594000000E+02  0.51100000000E-03 0.  1.
         11   -1    0    0    0    0 -0.00000000000E+00 -0.00000000000E+00 -0.45593999997E+02  0.45594000000E+02  0.51100000000E-03 0. -1.
    9900012    2    1    2    0    0 -0.34022559460E+01  0.33388624519E+01 -0.44792746495E+02  0.46142317781E+02  0.10000000185E+02 0.  0.
        -12    1    1    2    0    0  0.34022559460E+01 -0.33388624519E+01  0.44792746495E+02  0.45045682219E+02  0.00000000000E+00 0.  1.
         11    1    3    3    0    0 -0.20777696136E+00  0.77729293016E+00 -0.18038757101E+01  0.19751768031E+01  0.51100000000E-03 0. -1.
        -11    1    3    3    0    0  0.29739586395E+01 -0.29288485387E+00 -0.83730585849E+01  0.88903499287E+01  0.51100000000E-03 0.  1.
         12    1    3    3    0    0 -0.61684376241E+01  0.28544543756E+01 -0.34615812200E+02  0.35276791050E+02  0.00000000000E+00 0. -1.
</event>
<event>
 7    1  0.3980989E-008  0.4614232E+02  0.7816164E-02  0.1320468E+00
        -11   -1    0    0    0    0  0.00000000000E+00  0.00000000000E+00  0.45593999997E+02  0.45594000000E+02  0.51100000000E-03 0.  1.
         11   -1    0    0    0    0 -0.00000000000E+00 -0.00000000000E+00 -0.45593999997E+02  0.45594000000E+02  0.51100000000E-03 0. -1.
    9900012    2    1    2    0    0 -0.40805209815E+02  0.50558642870E+01 -0.18398001935E+02  0.46142318887E+02  0.10000010268E+02 0.  0.
        -12    1    1    2    0    0  0.40805209815E+02 -0.50558642870E+01  0.18398001935E+02  0.45045681113E+02  0.00000000000E+00 0.  1.
         11    1    3    3    0    0 -0.16173324318E+02  0.47368334647E+01 -0.40187998034E+01  0.17325263717E+02  0.51100000000E-03 0. -1.
        -11    1    3    3    0    0 -0.33834049527E+01  0.14801591794E+01 -0.21131235731E+01  0.42548315791E+01  0.51100000000E-03 0.  1.
         12    1    3    3    0    0 -0.21248480545E+02 -0.11611283571E+01 -0.12266078558E+02  0.24562223591E+02  0.00000000000E+00 0. -1.
</event>
