<event>
 7    1  0.2412036E-009  0.4778726E+02  0.7816164E-02  0.1312668E+00
        -11   -1    0    0    0    0  0.00000000000E+00  0.00000000000E+00  0.45593999997E+02  0.45594000000E+02  0.51100000000E-03 0. -1.
         11   -1    0    0    0    0 -0.00000000000E+00 -0.00000000000E+00 -0.45593999997E+02  0.45594000000E+02  0.51100000000E-03 0.  1.
    9900012    2    1    2    0    0  0.19410296976E+02 -0.38106608842E+02  0.73993614460E+01  0.47787264799E+02  0.19999971526E+02 0.  0.
         12    1    1    2    0    0 -0.19410296976E+02  0.38106608842E+02 -0.73993614460E+01  0.43400735201E+02  0.00000000000E+00 0. -1.
         11    1    3    3    0    0  0.70030425143E+01 -0.39413534017E+01  0.75245159751E+01  0.11008869697E+02  0.51100000000E-03 0. -1.
        -11    1    3    3    0    0  0.97839507262E+01 -0.31709546631E+02 -0.79472129973E-01  0.33184745824E+02  0.51100000000E-03 0.  1.
        -12    1    3    3    0    0  0.26233037358E+01 -0.24557088098E+01 -0.45682399171E-01  0.35936492776E+01  0.00000000000E+00 0.  1.
</event>
<event>
 7    1  0.2412036E-009  0.4778727E+02  0.7816164E-02  0.1312668E+00
        -11   -1    0    0    0    0  0.00000000000E+00  0.00000000000E+00  0.45593999997E+02  0.45594000000E+02  0.51100000000E-03 0.  1.
         11   -1    0    0    0    0 -0.00000000000E+00 -0.00000000000E+00 -0.45593999997E+02  0.45594000000E+02  0.51100000000E-03 0. -1.
    9900012    2    1    2    0    0  0.38584327171E+01 -0.18231434171E+02  0.39196309374E+02  0.47787270012E+02  0.19999995291E+02 0.  0.
         12    1    1    2    0    0 -0.38584327171E+01  0.18231434171E+02 -0.39196309374E+02  0.43400729988E+02  0.00000000000E+00 0. -1.
         11    1    3    3    0    0  0.11485244219E+01  0.56657417844E+00 -0.12494068139E+01  0.17891708401E+01  0.51100000000E-03 0. -1.
        -11    1    3    3    0    0  0.59434396310E+01 -0.17310964060E+02  0.34908848553E+02  0.39416007648E+02  0.51100000000E-03 0.  1.
         12    1    3    3    0    0 -0.32335313357E+01 -0.14870442892E+01  0.55368676353E+01  0.65820915238E+01  0.00000000000E+00 0. -1.
</event>
<event>
 7    1  0.2412036E-009  0.4778727E+02  0.7816164E-02  0.1312668E+00
        -11   -1    0    0    0    0  0.00000000000E+00  0.00000000000E+00  0.45593999997E+02  0.45594000000E+02  0.51100000000E-03 0.  1.
         11   -1    0    0    0    0 -0.00000000000E+00 -0.00000000000E+00 -0.45593999997E+02  0.45594000000E+02  0.51100000000E-03 0. -1.
    9900012    2    1    2    0    0  0.15942649358E+02  0.33703746324E+02  0.22215154178E+02  0.47787266596E+02  0.19999979718E+02 0.  0.
         12    1    1    2    0    0 -0.15942649358E+02 -0.33703746324E+02 -0.22215154178E+02  0.43400733404E+02  0.00000000000E+00 0. -1.
         11    1    3    3    0    0  0.10297734952E+02  0.80763947472E+01  0.16949963646E+01  0.13196382466E+02  0.51100000000E-03 0. -1.
        -11    1    3    3    0    0  0.13206341116E+00  0.19821115098E+02  0.15187238222E+02  0.24970908064E+02  0.51100000000E-03 0.  1.
        -12    1    3    3    0    0  0.55128509957E+01  0.58062364794E+01  0.53329195910E+01  0.96199760664E+01  0.00000000000E+00 0.  1.
</event>
<event>
 7    1  0.2412036E-009  0.4778727E+02  0.7816164E-02  0.1312668E+00
        -11   -1    0    0    0    0  0.00000000000E+00  0.00000000000E+00  0.45593999997E+02  0.45594000000E+02  0.51100000000E-03 0. -1.
         11   -1    0    0    0    0 -0.00000000000E+00 -0.00000000000E+00 -0.45593999997E+02  0.45594000000E+02  0.51100000000E-03 0.  1.
    9900012    2    1    2    0    0 -0.51319532563E+01 -0.81209281115E+01 -0.42324187731E+02  0.47787270920E+02  0.19999999432E+02 0.  0.
         12    1    1    2    0    0  0.51319532563E+01  0.81209281115E+01  0.42324187731E+02  0.43400729080E+02  0.00000000000E+00 0. -1.
         11    1    3    3    0    0 -0.40017742961E+01 -0.10753016236E+02 -0.14836157060E+02  0.18755082304E+02  0.51100000000E-03 0. -1.
        -11    1    3    3    0    0 -0.33432008679E+01  0.47164485880E+01 -0.22121034113E+02  0.22863989805E+02  0.51100000000E-03 0.  1.
        -12    1    3    3    0    0  0.22130219077E+01 -0.20843604640E+01 -0.53669965587E+01  0.61681988107E+01  0.00000000000E+00 0.  1.
</event>
<event>
 7    1  0.2412036E-009  0.4778727E+02  0.7816164E-02  0.1312668E+00
        -11   -1    0    0    0    0  0.00000000000E+00  0.00000000000E+00  0.45593999997E+02  0.45594000000E+02  0.51100000000E-03 0.  1.
         11   -1    0    0    0    0 -0.00000000000E+00 -0.00000000000E+00 -0.45593999997E+02  0.45594000000E+02  0.51100000000E-03 0. -1.
    9900012    2    1    2    0    0 -0.41426739627E+02 -0.49433991633E+01  0.11958733083E+02  0.47787271338E+02  0.20000001338E+02 0.  0.
         12    1    1    2    0    0  0.41426739627E+02  0.49433991633E+01 -0.11958733083E+02  0.43400728662E+02  0.00000000000E+00 0. -1.
         11    1    3    3    0    0 -0.27823433019E+02  0.85750872889E-01 -0.73673129661E+00  0.27833317291E+02  0.51100000000E-03 0. -1.
        -11    1    3    3    0    0 -0.10668539254E+02 -0.14616895635E+01  0.86133622607E+01  0.13789281195E+02  0.51100000000E-03 0.  1.
         12    1    3    3    0    0 -0.29347673547E+01 -0.35674604727E+01  0.40821021192E+01  0.61646728512E+01  0.00000000000E+00 0. -1.
</event>
<event>
 7    1  0.2412036E-009  0.4778726E+02  0.7816164E-02  0.1312668E+00
        -11   -1    0    0    0    0  0.00000000000E+00  0.00000000000E+00  0.45593999997E+02  0.45594000000E+02  0.51100000000E-03 0.  1.
         11   -1    0    0    0    0 -0.00000000000E+00 -0.00000000000E+00 -0.45593999997E+02  0.45594000000E+02  0.51100000000E-03 0. -1.
    9900012    2    1    2    0    0 -0.29206122070E+02  0.21236311991E+02  0.24075827297E+02  0.47787262986E+02  0.19999963259E+02 0.  0.
         12    1    1    2    0    0  0.29206122070E+02 -0.21236311991E+02 -0.24075827297E+02  0.43400737014E+02  0.00000000000E+00 0. -1.
         11    1    3    3    0    0 -0.74548861726E+01 -0.13872008145E+01  0.42962629272E+01  0.87153616877E+01  0.51100000000E-03 0. -1.
        -11    1    3    3    0    0 -0.11826573254E+02  0.38150234829E+01  0.70706218993E+01  0.14297410024E+02  0.51100000000E-03 0.  1.
         12    1    3    3    0    0 -0.99246626436E+01  0.18808489322E+02  0.12708942470E+02  0.24774491274E+02  0.00000000000E+00 0. -1.
</event>
<event>
 7    1  0.2412036E-009  0.4778728E+02  0.7816164E-02  0.1312668E+00
        -11   -1    0    0    0    0  0.00000000000E+00  0.00000000000E+00  0.45593999997E+02  0.45594000000E+02  0.51100000000E-03 0. -1.
         11   -1    0    0    0    0 -0.00000000000E+00 -0.00000000000E+00 -0.45593999997E+02  0.45594000000E+02  0.51100000000E-03 0.  1.
    9900012    2    1    2    0    0  0.23284383676E+02 -0.36541528408E+02 -0.24853455062E+01  0.47787276920E+02  0.20000026788E+02 0.  0.
         12    1    1    2    0    0 -0.23284383676E+02  0.36541528408E+02  0.24853455062E+01  0.43400723080E+02  0.00000000000E+00 0. -1.
         11    1    3    3    0    0  0.24217070363E-01 -0.94028051912E+01 -0.61822536047E+01  0.11253159193E+02  0.51100000000E-03 0. -1.
        -11    1    3    3    0    0  0.14642006877E+02 -0.20830576133E+02  0.43645526135E+01  0.25833129644E+02  0.51100000000E-03 0.  1.
         12    1    3    3    0    0  0.86181597291E+01 -0.63081470840E+01 -0.66764451497E+00  0.10700988083E+02  0.00000000000E+00 0. -1.
</event>
<event>
 7    1  0.2412036E-009  0.4778727E+02  0.7816164E-02  0.1312668E+00
        -11   -1    0    0    0    0  0.00000000000E+00  0.00000000000E+00  0.45593999997E+02  0.45594000000E+02  0.51100000000E-03 0.  1.
         11   -1    0    0    0    0 -0.00000000000E+00 -0.00000000000E+00 -0.45593999997E+02  0.45594000000E+02  0.51100000000E-03 0. -1.
    9900012    2    1    2    0    0 -0.60078539857E+01 -0.41527214350E+02  0.11091409073E+02  0.47787271937E+02  0.20000004069E+02 0.  0.
         12    1    1    2    0    0  0.60078539857E+01  0.41527214350E+02 -0.11091409073E+02  0.43400728063E+02  0.00000000000E+00 0. -1.
         11    1    3    3    0    0  0.65952759306E+00 -0.60556795887E+00 -0.85624638396E+00  0.12388895552E+01  0.51100000000E-03 0. -1.
        -11    1    3    3    0    0 -0.48170456562E+01 -0.34011365931E+02  0.21513191539E+01  0.34418092854E+02  0.51100000000E-03 0.  1.
        -12    1    3    3    0    0 -0.18503359226E+01 -0.69102804600E+01  0.97963363026E+01  0.12130289527E+02  0.00000000000E+00 0.  1.
</event>
<event>
 7    1  0.2412036E-009  0.4778727E+02  0.7816164E-02  0.1312668E+00
        -11   -1    0    0    0    0  0.00000000000E+00  0.00000000000E+00  0.45593999997E+02  0.45594000000E+02  0.51100000000E-03 0.  1.
         11   -1    0    0    0    0 -0.00000000000E+00 -0.00000000000E+00 -0.45593999997E+02  0.45594000000E+02  0.51100000000E-03 0. -1.
    9900012    2    1    2    0    0  0.20420906689E+02 -0.28622472938E+02 -0.25443343401E+02  0.47787272926E+02  0.20000008578E+02 0.  0.
         12    1    1    2    0    0 -0.20420906689E+02  0.28622472938E+02  0.25443343401E+02  0.43400727074E+02  0.00000000000E+00 0. -1.
         11    1    3    3    0    0  0.11814682106E+02 -0.92788211437E+01 -0.90912100157E+01  0.17559422966E+02  0.51100000000E-03 0. -1.
        -11    1    3    3    0    0 -0.25196728206E+01 -0.69757868338E+01 -0.99329838917E+01  0.12396552841E+02  0.51100000000E-03 0.  1.
        -12    1    3    3    0    0  0.11125897404E+02 -0.12367864961E+02 -0.64191494940E+01  0.17831297119E+02  0.00000000000E+00 0.  1.
</event>
<event>
 7    1  0.2412036E-009  0.4778731E+02  0.7816164E-02  0.1312668E+00
        -11   -1    0    0    0    0  0.00000000000E+00  0.00000000000E+00  0.45593999997E+02  0.45594000000E+02  0.51100000000E-03 0. -1.
         11   -1    0    0    0    0 -0.00000000000E+00 -0.00000000000E+00 -0.45593999997E+02  0.45594000000E+02  0.51100000000E-03 0.  1.
    9900012    2    1    2    0    0  0.41575215024E+02  0.88523145084E+01 -0.87611420819E+01  0.47787313519E+02  0.20000193656E+02 0.  0.
         12    1    1    2    0    0 -0.41575215024E+02 -0.88523145084E+01  0.87611420819E+01  0.43400686481E+02  0.00000000000E+00 0. -1.
         11    1    3    3    0    0  0.32966962001E+02  0.60727757990E+01 -0.11095970097E+01  0.33539982040E+02  0.51100000000E-03 0. -1.
        -11    1    3    3    0    0  0.95857258856E+00 -0.15695531699E+01 -0.45660211039E+01  0.49224899739E+01  0.51100000000E-03 0.  1.
         12    1    3    3    0    0  0.76496804348E+01  0.43490918793E+01 -0.30855239684E+01  0.93248415047E+01  0.00000000000E+00 0. -1.
</event>
<event>
 7    1  0.2412036E-009  0.4778727E+02  0.7816164E-02  0.1312668E+00
        -11   -1    0    0    0    0  0.00000000000E+00  0.00000000000E+00  0.45593999997E+02  0.45594000000E+02  0.51100000000E-03 0.  1.
         11   -1    0    0    0    0 -0.00000000000E+00 -0.00000000000E+00 -0.45593999997E+02  0.45594000000E+02  0.51100000000E-03 0. -1.
    9900012    2    1    2    0    0  0.48679577265E+01 -0.42520952246E+02  0.72038272111E+01  0.47787268223E+02  0.19999987135E+02 0.  0.
         12    1    1    2    0    0 -0.48679577265E+01  0.42520952246E+02 -0.72038272111E+01  0.43400731777E+02  0.00000000000E+00 0. -1.
         11    1    3    3    0    0  0.26552117264E+00 -0.21927369925E+00  0.41813771816E+00  0.54168428145E+00  0.51100000000E-03 0. -1.
        -11    1    3    3    0    0 -0.41798037082E+01 -0.33732044101E+02  0.79887178490E+01  0.34916202133E+02  0.51100000000E-03 0.  1.
        -12    1    3    3    0    0  0.87822402620E+01 -0.85696344458E+01 -0.12030283561E+01  0.12329381809E+02  0.00000000000E+00 0.  1.
</event>
<event>
 7    1  0.2412036E-009  0.4778727E+02  0.7816164E-02  0.1312668E+00
        -11   -1    0    0    0    0  0.00000000000E+00  0.00000000000E+00  0.45593999997E+02  0.45594000000E+02  0.51100000000E-03 0.  1.
         11   -1    0    0    0    0 -0.00000000000E+00 -0.00000000000E+00 -0.45593999997E+02  0.45594000000E+02  0.51100000000E-03 0. -1.
    9900012    2    1    2    0    0  0.10389704056E+02  0.36869915161E+02  0.20403110326E+02  0.47787268378E+02  0.19999987844E+02 0.  0.
         12    1    1    2    0    0 -0.10389704056E+02 -0.36869915161E+02 -0.20403110326E+02  0.43400731622E+02  0.00000000000E+00 0. -1.
         11    1    3    3    0    0  0.61605108291E+01  0.30863379316E+02  0.11914913769E+02  0.33652120986E+02  0.51100000000E-03 0. -1.
        -11    1    3    3    0    0  0.52266556845E+01  0.76865649580E+01  0.75109974652E+01  0.11950577127E+02  0.51100000000E-03 0.  1.
         12    1    3    3    0    0 -0.99746245750E+00 -0.16800291135E+01  0.97719909158E+00  0.21845702646E+01  0.00000000000E+00 0. -1.
</event>
<event>
 7    1  0.2412036E-009  0.4778727E+02  0.7816164E-02  0.1312668E+00
        -11   -1    0    0    0    0  0.00000000000E+00  0.00000000000E+00  0.45593999997E+02  0.45594000000E+02  0.51100000000E-03 0.  1.
         11   -1    0    0    0    0 -0.00000000000E+00 -0.00000000000E+00 -0.45593999997E+02  0.45594000000E+02  0.51100000000E-03 0. -1.
    9900012    2    1    2    0    0 -0.11969749075E+02  0.36184645568E+02  0.20761013512E+02  0.47787272474E+02  0.20000006517E+02 0.  0.
         12    1    1    2    0    0  0.11969749075E+02 -0.36184645568E+02 -0.20761013512E+02  0.43400727526E+02  0.00000000000E+00 0. -1.
         11    1    3    3    0    0  0.24246499904E+01  0.18788662377E+02  0.46477805000E+01  0.19506271436E+02  0.51100000000E-03 0. -1.
        -11    1    3    3    0    0 -0.63570444180E+01  0.49813236271E+01  0.81932422104E+01  0.11504556358E+02  0.51100000000E-03 0.  1.
         12    1    3    3    0    0 -0.80373546472E+01  0.12414659563E+02  0.79199908013E+01  0.16776444680E+02  0.00000000000E+00 0. -1.
</event>
<event>
 7    1  0.2412036E-009  0.4778727E+02  0.7816164E-02  0.1312668E+00
        -11   -1    0    0    0    0  0.00000000000E+00  0.00000000000E+00  0.45593999997E+02  0.45594000000E+02  0.51100000000E-03 0.  1.
         11   -1    0    0    0    0 -0.00000000000E+00 -0.00000000000E+00 -0.45593999997E+02  0.45594000000E+02  0.51100000000E-03 0. -1.
    9900012    2    1    2    0    0  0.11707643512E+02 -0.38308211276E+02  0.16704345242E+02  0.47787272843E+02  0.20000008202E+02 0.  0.
         12    1    1    2    0    0 -0.11707643512E+02  0.38308211276E+02 -0.16704345242E+02  0.43400727157E+02  0.00000000000E+00 0. -1.
         11    1    3    3    0    0  0.95858455700E+01 -0.17233732094E+02 -0.14368997978E+01  0.19772572884E+02  0.51100000000E-03 0. -1.
        -11    1    3    3    0    0  0.13600763629E+01 -0.19702015007E+02  0.17167066915E+02  0.26167296188E+02  0.51100000000E-03 0.  1.
         12    1    3    3    0    0  0.76172157939E+00 -0.13724641746E+01  0.97417812509E+00  0.18474037714E+01  0.00000000000E+00 0. -1.
</event>
<event>
 7    1  0.2412036E-009  0.4778728E+02  0.7816164E-02  0.1312668E+00
        -11   -1    0    0    0    0  0.00000000000E+00  0.00000000000E+00  0.45593999997E+02  0.45594000000E+02  0.51100000000E-03 0.  1.
         11   -1    0    0    0    0 -0.00000000000E+00 -0.00000000000E+00 -0.45593999997E+02  0.45594000000E+02  0.51100000000E-03 0. -1.
    9900012    2    1    2    0    0 -0.17107820536E+02 -0.37483069528E+00  0.39884891514E+02  0.47787278893E+02  0.20000035784E+02 0.  0.
         12    1    1    2    0    0  0.17107820536E+02  0.37483069528E+00 -0.39884891514E+02  0.43400721107E+02  0.00000000000E+00 0. -1.
         11    1    3    3    0    0 -0.34127212426E+01 -0.79520635268E+01  0.19623827473E+02  0.21447064730E+02  0.51100000000E-03 0. -1.
        -11    1    3    3    0    0 -0.97426492616E+01  0.79813031321E+01  0.17233369186E+02  0.21345009442E+02  0.51100000000E-03 0.  1.
         12    1    3    3    0    0 -0.39524500320E+01 -0.40407030054E+00  0.30276948553E+01  0.49952047205E+01  0.00000000000E+00 0. -1.
</event>
<event>
 7    1  0.2412036E-009  0.4778727E+02  0.7816164E-02  0.1312668E+00
        -11   -1    0    0    0    0  0.00000000000E+00  0.00000000000E+00  0.45593999997E+02  0.45594000000E+02  0.51100000000E-03 0.  1.
         11   -1    0    0    0    0 -0.00000000000E+00 -0.00000000000E+00 -0.45593999997E+02  0.45594000000E+02  0.51100000000E-03 0. -1.
    9900012    2    1    2    0    0 -0.14407987090E+02  0.40228281081E+02  0.75972771080E+01  0.47787270626E+02  0.19999998092E+02 0.  0.
         12    1    1    2    0    0  0.14407987090E+02 -0.40228281081E+02 -0.75972771080E+01  0.43400729374E+02  0.00000000000E+00 0. -1.
         11    1    3    3    0    0 -0.65446175588E+01  0.36323429033E+01 -0.85444939578E+00  0.75336590040E+01  0.51100000000E-03 0. -1.
        -11    1    3    3    0    0 -0.68932719656E+01  0.11450616427E+02 -0.92974212806E+00  0.13397695161E+02  0.51100000000E-03 0.  1.
         12    1    3    3    0    0 -0.97009756608E+00  0.25145321751E+02  0.93814686318E+01  0.26855916461E+02  0.00000000000E+00 0. -1.
</event>
<event>
 7    1  0.2412036E-009  0.4778727E+02  0.7816164E-02  0.1312668E+00
        -11   -1    0    0    0    0  0.00000000000E+00  0.00000000000E+00  0.45593999997E+02  0.45594000000E+02  0.51100000000E-03 0.  1.
         11   -1    0    0    0    0 -0.00000000000E+00 -0.00000000000E+00 -0.45593999997E+02  0.45594000000E+02  0.51100000000E-03 0. -1.
    9900012    2    1    2    0    0 -0.31727988973E+02 -0.35282929557E+01  0.29402532955E+02  0.47787273282E+02  0.20000010202E+02 0.  0.
         12    1    1    2    0    0  0.31727988973E+02  0.35282929557E+01 -0.29402532955E+02  0.43400726718E+02  0.00000000000E+00 0. -1.
         11    1    3    3    0    0 -0.21016378775E+02  0.60050233340E+01  0.12448818193E+02  0.25153957079E+02  0.51100000000E-03 0. -1.
        -11    1    3    3    0    0 -0.70185433686E+01 -0.55308225207E+01  0.13483274742E+02  0.16175557078E+02  0.51100000000E-03 0.  1.
         12    1    3    3    0    0 -0.36930668293E+01 -0.40024937690E+01  0.34704400205E+01  0.64577591247E+01  0.00000000000E+00 0. -1.
</event>
<event>
 7    1  0.2412036E-009  0.4778727E+02  0.7816164E-02  0.1312668E+00
        -11   -1    0    0    0    0  0.00000000000E+00  0.00000000000E+00  0.45593999997E+02  0.45594000000E+02  0.51100000000E-03 0. -1.
         11   -1    0    0    0    0 -0.00000000000E+00 -0.00000000000E+00 -0.45593999997E+02  0.45594000000E+02  0.51100000000E-03 0.  1.
    9900012    2    1    2    0    0 -0.36406973985E+02 -0.19154164189E+02  0.13830168976E+02  0.47787270347E+02  0.19999996819E+02 0.  0.
         12    1    1    2    0    0  0.36406973985E+02  0.19154164189E+02 -0.13830168976E+02  0.43400729653E+02  0.00000000000E+00 0. -1.
         11    1    3    3    0    0 -0.22013953073E+02 -0.19138905215E+02  0.14971368693E+02  0.32788011582E+02  0.51100000000E-03 0. -1.
        -11    1    3    3    0    0 -0.14071981590E+02  0.66292064902E+00 -0.65025544328E+00  0.14102587070E+02  0.51100000000E-03 0.  1.
         12    1    3    3    0    0 -0.32103932213E+00 -0.67817962308E+00 -0.49094427398E+00  0.89667169447E+00  0.00000000000E+00 0. -1.
</event>
<event>
 7    1  0.2412036E-009  0.4778726E+02  0.7816164E-02  0.1312668E+00
        -11   -1    0    0    0    0  0.00000000000E+00  0.00000000000E+00  0.45593999997E+02  0.45594000000E+02  0.51100000000E-03 0. -1.
         11   -1    0    0    0    0 -0.00000000000E+00 -0.00000000000E+00 -0.45593999997E+02  0.45594000000E+02  0.51100000000E-03 0.  1.
    9900012    2    1    2    0    0 -0.84431323438E+01 -0.42562727795E+02 -0.86705553238E+00  0.47787261914E+02  0.19999958372E+02 0.  0.
         12    1    1    2    0    0  0.84431323438E+01  0.42562727795E+02  0.86705553238E+00  0.43400738086E+02  0.00000000000E+00 0. -1.
         11    1    3    3    0    0 -0.32144877647E+01 -0.51460547312E+00 -0.72584090083E+00  0.33353554019E+01  0.51100000000E-03 0. -1.
        -11    1    3    3    0    0 -0.60815129371E+01 -0.36102036715E+02 -0.46997643577E+01  0.36911104560E+02  0.51100000000E-03 0.  1.
        -12    1    3    3    0    0  0.85286835799E+00 -0.59460856066E+01  0.45585497261E+01  0.75408019522E+01  0.00000000000E+00 0.  1.
</event>
<event>
 7    1  0.2412036E-009  0.4778727E+02  0.7816164E-02  0.1312668E+00
        -11   -1    0    0    0    0  0.00000000000E+00  0.00000000000E+00  0.45593999997E+02  0.45594000000E+02  0.51100000000E-03 0.  1.
         11   -1    0    0    0    0 -0.00000000000E+00 -0.00000000000E+00 -0.45593999997E+02  0.45594000000E+02  0.51100000000E-03 0. -1.
    9900012    2    1    2    0    0  0.18005930005E+00  0.77373685853E+01  0.42705081323E+02  0.47787271149E+02  0.20000000477E+02 0.  0.
         12    1    1    2    0    0 -0.18005930005E+00 -0.77373685853E+01 -0.42705081323E+02  0.43400728851E+02  0.00000000000E+00 0. -1.
         11    1    3    3    0    0 -0.38043372988E+01  0.66288952417E+01  0.90849489990E+01  0.11872301082E+02  0.51100000000E-03 0. -1.
        -11    1    3    3    0    0  0.43967642626E+01  0.21688607848E+01  0.34260427012E+02  0.34609425773E+02  0.51100000000E-03 0.  1.
        -12    1    3    3    0    0 -0.41236766373E+00 -0.10603874412E+01 -0.64029468741E+00  0.13055442935E+01  0.00000000000E+00 0.  1.
</event>
<event>
 7    1  0.2412036E-009  0.4778727E+02  0.7816164E-02  0.1312668E+00
        -11   -1    0    0    0    0  0.00000000000E+00  0.00000000000E+00  0.45593999997E+02  0.45594000000E+02  0.51100000000E-03 0. -1.
         11   -1    0    0    0    0 -0.00000000000E+00 -0.00000000000E+00 -0.45593999997E+02  0.45594000000E+02  0.51100000000E-03 0.  1.
    9900012    2    1    2    0    0  0.76207858571E+01  0.29703028063E+02  0.30712814967E+02  0.47787271246E+02  0.20000000917E+02 0.  0.
         12    1    1    2    0    0 -0.76207858571E+01 -0.29703028063E+02 -0.30712814967E+02  0.43400728754E+02  0.00000000000E+00 0. -1.
         11    1    3    3    0    0 -0.35568776973E+01  0.13655684299E+02  0.17879449378E+02  0.22777265046E+02  0.51100000000E-03 0. -1.
        -11    1    3    3    0    0  0.10894120328E+02  0.12016461633E+02  0.13255455054E+02  0.20947178733E+02  0.51100000000E-03 0.  1.
         12    1    3    3    0    0  0.28354322683E+00  0.40308821304E+01 -0.42208946532E+00  0.40628274671E+01  0.00000000000E+00 0. -1.
</event>
<event>
 7    1  0.2412036E-009  0.4778727E+02  0.7816164E-02  0.1312668E+00
        -11   -1    0    0    0    0  0.00000000000E+00  0.00000000000E+00  0.45593999997E+02  0.45594000000E+02  0.51100000000E-03 0.  1.
         11   -1    0    0    0    0 -0.00000000000E+00 -0.00000000000E+00 -0.45593999997E+02  0.45594000000E+02  0.51100000000E-03 0. -1.
    9900012    2    1    2    0    0  0.19673527825E+02  0.35051498982E+02 -0.16369719997E+02  0.47787274077E+02  0.20000013825E+02 0.  0.
         12    1    1    2    0    0 -0.19673527825E+02 -0.35051498982E+02  0.16369719997E+02  0.43400725923E+02  0.00000000000E+00 0. -1.
         11    1    3    3    0    0  0.13565738519E+02  0.90897526541E+01 -0.47691657059E+01  0.17011696173E+02  0.51100000000E-03 0. -1.
        -11    1    3    3    0    0  0.41778834859E+01  0.18268416402E+02 -0.28335832417E+01  0.18953072112E+02  0.51100000000E-03 0.  1.
         12    1    3    3    0    0  0.19299058198E+01  0.76933299258E+01 -0.87669710490E+01  0.11822505792E+02  0.00000000000E+00 0. -1.
</event>
<event>
 7    1  0.2412036E-009  0.4778727E+02  0.7816164E-02  0.1312668E+00
        -11   -1    0    0    0    0  0.00000000000E+00  0.00000000000E+00  0.45593999997E+02  0.45594000000E+02  0.51100000000E-03 0.  1.
         11   -1    0    0    0    0 -0.00000000000E+00 -0.00000000000E+00 -0.45593999997E+02  0.45594000000E+02  0.51100000000E-03 0. -1.
    9900012    2    1    2    0    0  0.16715741909E+02  0.19011028208E+02  0.35253197589E+02  0.47787272341E+02  0.20000005910E+02 0.  0.
         12    1    1    2    0    0 -0.16715741909E+02 -0.19011028208E+02 -0.35253197589E+02  0.43400727659E+02  0.00000000000E+00 0. -1.
         11    1    3    3    0    0  0.15034477361E+02  0.11009805679E+02  0.20685685575E+02  0.27841496342E+02  0.51100000000E-03 0. -1.
        -11    1    3    3    0    0 -0.13467262398E+01  0.85849762929E+01  0.53000090962E+01  0.10178682930E+02  0.51100000000E-03 0.  1.
         12    1    3    3    0    0  0.30279907880E+01 -0.58375376405E+00  0.92675029182E+01  0.97670930685E+01  0.00000000000E+00 0. -1.
</event>
<event>
 7    1  0.2412036E-009  0.4778727E+02  0.7816164E-02  0.1312668E+00
        -11   -1    0    0    0    0  0.00000000000E+00  0.00000000000E+00  0.45593999997E+02  0.45594000000E+02  0.51100000000E-03 0.  1.
         11   -1    0    0    0    0 -0.00000000000E+00 -0.00000000000E+00 -0.45593999997E+02  0.45594000000E+02  0.51100000000E-03 0. -1.
    9900012    2    1    2    0    0  0.41704577544E+02 -0.11974784946E+02 -0.97761177862E+00  0.47787274345E+02  0.20000015047E+02 0.  0.
         12    1    1    2    0    0 -0.41704577544E+02  0.11974784946E+02  0.97761177862E+00  0.43400725655E+02  0.00000000000E+00 0. -1.
         11    1    3    3    0    0  0.13070484307E+02 -0.93814012183E+01  0.18938828621E+01  0.16199846956E+02  0.51100000000E-03 0.  1.
        -11    1    3    3    0    0  0.29841314413E+02 -0.33063419500E+01 -0.30301685567E+01  0.30176445529E+02  0.51100000000E-03 0. -1.
        -12    1    3    3    0    0 -0.12072211767E+01  0.71295822253E+00  0.15867391606E+00  0.14109818596E+01  0.00000000000E+00 0.  1.
</event>
<event>
 7    1  0.2412036E-009  0.4778727E+02  0.7816164E-02  0.1312668E+00
        -11   -1    0    0    0    0  0.00000000000E+00  0.00000000000E+00  0.45593999997E+02  0.45594000000E+02  0.51100000000E-03 0.  1.
         11   -1    0    0    0    0 -0.00000000000E+00 -0.00000000000E+00 -0.45593999997E+02  0.45594000000E+02  0.51100000000E-03 0. -1.
    9900012    2    1    2    0    0 -0.21579887338E+01 -0.41609810107E+01  0.43146870483E+02  0.47787272923E+02  0.20000008564E+02 0.  0.
         12    1    1    2    0    0  0.21579887338E+01  0.41609810107E+01 -0.43146870483E+02  0.43400727077E+02  0.00000000000E+00 0. -1.
         11    1    3    3    0    0 -0.31816165958E+01  0.70620451336E+01  0.21814947825E+02  0.23149235721E+02  0.51100000000E-03 0. -1.
        -11    1    3    3    0    0 -0.13515545492E+01 -0.70746404099E+01  0.98643410269E+01  0.12214027214E+02  0.51100000000E-03 0.  1.
        -12    1    3    3    0    0  0.23751824112E+01 -0.41483857343E+01  0.11467581632E+02  0.12424009987E+02  0.00000000000E+00 0.  1.
</event>
<event>
 7    1  0.2412036E-009  0.4778729E+02  0.7816164E-02  0.1312668E+00
        -11   -1    0    0    0    0  0.00000000000E+00  0.00000000000E+00  0.45593999997E+02  0.45594000000E+02  0.51100000000E-03 0.  1.
         11   -1    0    0    0    0 -0.00000000000E+00 -0.00000000000E+00 -0.45593999997E+02  0.45594000000E+02  0.51100000000E-03 0. -1.
    9900012    2    1    2    0    0  0.22998741788E+02 -0.36643762429E+02  0.34516760981E+01  0.47787291288E+02  0.20000092300E+02 0.  0.
         12    1    1    2    0    0 -0.22998741788E+02  0.36643762429E+02 -0.34516760981E+01  0.43400708712E+02  0.00000000000E+00 0. -1.
         11    1    3    3    0    0  0.16487773729E+02 -0.33875272817E+02  0.58802917601E+01  0.38130809359E+02  0.51100000000E-03 0.  1.
        -11    1    3    3    0    0  0.54814480630E+01  0.77126597139E+00 -0.68228148940E+00  0.55773320107E+01  0.51100000000E-03 0. -1.
        -12    1    3    3    0    0  0.10295199961E+01 -0.35397555835E+01 -0.17463341725E+01  0.40791499182E+01  0.00000000000E+00 0.  1.
</event>
<event>
 7    1  0.2412036E-009  0.4778727E+02  0.7816164E-02  0.1312668E+00
        -11   -1    0    0    0    0  0.00000000000E+00  0.00000000000E+00  0.45593999997E+02  0.45594000000E+02  0.51100000000E-03 0.  1.
         11   -1    0    0    0    0 -0.00000000000E+00 -0.00000000000E+00 -0.45593999997E+02  0.45594000000E+02  0.51100000000E-03 0. -1.
    9900012    2    1    2    0    0 -0.19340272939E+02 -0.31816058132E+02  0.22300570176E+02  0.47787272557E+02  0.20000006896E+02 0.  0.
         12    1    1    2    0    0  0.19340272939E+02  0.31816058132E+02 -0.22300570176E+02  0.43400727443E+02  0.00000000000E+00 0. -1.
         11    1    3    3    0    0  0.87208835532E+00 -0.39157956819E+01  0.38846839497E+01  0.55843319719E+01  0.51100000000E-03 0. -1.
        -11    1    3    3    0    0 -0.94198851983E+01 -0.23422345341E+02  0.78187686255E+01  0.26428651905E+02  0.51100000000E-03 0.  1.
        -12    1    3    3    0    0 -0.10792476096E+02 -0.44779171091E+01  0.10597117600E+02  0.15774288680E+02  0.00000000000E+00 0.  1.
</event>
<event>
 7    1  0.2412036E-009  0.4778728E+02  0.7816164E-02  0.1312668E+00
        -11   -1    0    0    0    0  0.00000000000E+00  0.00000000000E+00  0.45593999997E+02  0.45594000000E+02  0.51100000000E-03 0.  1.
         11   -1    0    0    0    0 -0.00000000000E+00 -0.00000000000E+00 -0.45593999997E+02  0.45594000000E+02  0.51100000000E-03 0. -1.
    9900012    2    1    2    0    0  0.27483549232E+02  0.13900907312E+02  0.30578457719E+02  0.47787276746E+02  0.20000025995E+02 0.  0.
         12    1    1    2    0    0 -0.27483549232E+02 -0.13900907312E+02 -0.30578457719E+02  0.43400723254E+02  0.00000000000E+00 0. -1.
         11    1    3    3    0    0  0.78089969097E+01  0.12676866989E+02  0.88899347090E+01  0.17341116711E+02  0.51100000000E-03 0. -1.
        -11    1    3    3    0    0  0.16959256673E+02  0.35003041547E+01  0.20190414126E+02  0.26599273278E+02  0.51100000000E-03 0.  1.
         12    1    3    3    0    0  0.27152956493E+01 -0.22762638314E+01  0.14981088847E+01  0.38468867573E+01  0.00000000000E+00 0. -1.
</event>
<event>
 7    1  0.2412036E-009  0.4778727E+02  0.7816164E-02  0.1312668E+00
        -11   -1    0    0    0    0  0.00000000000E+00  0.00000000000E+00  0.45593999997E+02  0.45594000000E+02  0.51100000000E-03 0. -1.
         11   -1    0    0    0    0 -0.00000000000E+00 -0.00000000000E+00 -0.45593999997E+02  0.45594000000E+02  0.51100000000E-03 0.  1.
    9900012    2    1    2    0    0  0.27122334871E+02  0.25162482656E+02 -0.22690350017E+02  0.47787267677E+02  0.19999984647E+02 0.  0.
         12    1    1    2    0    0 -0.27122334871E+02 -0.25162482656E+02  0.22690350017E+02  0.43400732323E+02  0.00000000000E+00 0. -1.
         11    1    3    3    0    0  0.92518058593E+01  0.57453228595E+01 -0.14483445409E+02  0.18121115793E+02  0.51100000000E-03 0. -1.
        -11    1    3    3    0    0  0.18354970617E+02  0.18337942862E+02 -0.52366460027E+01  0.26468992357E+02  0.51100000000E-03 0.  1.
         12    1    3    3    0    0 -0.48444160511E+00  0.10792169343E+01 -0.29702586054E+01  0.31971595273E+01  0.00000000000E+00 0. -1.
</event>
<event>
 7    1  0.2412036E-009  0.4778727E+02  0.7816164E-02  0.1312668E+00
        -11   -1    0    0    0    0  0.00000000000E+00  0.00000000000E+00  0.45593999997E+02  0.45594000000E+02  0.51100000000E-03 0.  1.
         11   -1    0    0    0    0 -0.00000000000E+00 -0.00000000000E+00 -0.45593999997E+02  0.45594000000E+02  0.51100000000E-03 0. -1.
    9900012    2    1    2    0    0 -0.30348916574E+02  0.29091796409E+02  0.10781176040E+02  0.47787272906E+02  0.20000008485E+02 0.  0.
         12    1    1    2    0    0  0.30348916574E+02 -0.29091796409E+02 -0.10781176040E+02  0.43400727094E+02  0.00000000000E+00 0. -1.
         11    1    3    3    0    0  0.10979879350E+01 -0.10338743834E+01 -0.17591663013E+00  0.15183611783E+01  0.51100000000E-03 0. -1.
        -11    1    3    3    0    0 -0.26961957972E+02  0.21355390160E+02  0.11847936443E+02  0.36378200406E+02  0.51100000000E-03 0.  1.
        -12    1    3    3    0    0 -0.44849465369E+01  0.87702806320E+01 -0.89084377270E+00  0.98907113207E+01  0.00000000000E+00 0.  1.
</event>
<event>
 7    1  0.2412036E-009  0.4778727E+02  0.7816164E-02  0.1312668E+00
        -11   -1    0    0    0    0  0.00000000000E+00  0.00000000000E+00  0.45593999997E+02  0.45594000000E+02  0.51100000000E-03 0.  1.
         11   -1    0    0    0    0 -0.00000000000E+00 -0.00000000000E+00 -0.45593999997E+02  0.45594000000E+02  0.51100000000E-03 0. -1.
    9900012    2    1    2    0    0 -0.63002710234E+01  0.27453169594E+02  0.33018992277E+02  0.47787265136E+02  0.19999973063E+02 0.  0.
         12    1    1    2    0    0  0.63002710234E+01 -0.27453169594E+02 -0.33018992277E+02  0.43400734864E+02  0.00000000000E+00 0. -1.
         11    1    3    3    0    0  0.16945445708E+01  0.77782209402E+01  0.31611416022E+01  0.85653382179E+01  0.51100000000E-03 0. -1.
        -11    1    3    3    0    0 -0.65654784714E+01  0.11053595836E+02  0.27203781963E+02  0.30088756070E+02  0.51100000000E-03 0.  1.
        -12    1    3    3    0    0 -0.14293371228E+01  0.86213528183E+01  0.26540687112E+01  0.91331708488E+01  0.00000000000E+00 0.  1.
</event>
<event>
 7    1  0.2412036E-009  0.4778727E+02  0.7816164E-02  0.1312668E+00
        -11   -1    0    0    0    0  0.00000000000E+00  0.00000000000E+00  0.45593999997E+02  0.45594000000E+02  0.51100000000E-03 0.  1.
         11   -1    0    0    0    0 -0.00000000000E+00 -0.00000000000E+00 -0.45593999997E+02  0.45594000000E+02  0.51100000000E-03 0. -1.
    9900012    2    1    2    0    0 -0.24121237020E+02 -0.61684641380E+01  0.35549107631E+02  0.47787273295E+02  0.20000010260E+02 0.  0.
         12    1    1    2    0    0  0.24121237020E+02  0.61684641380E+01 -0.35549107631E+02  0.43400726705E+02  0.00000000000E+00 0. -1.
         11    1    3    3    0    0 -0.99275032326E+01  0.68072938819E+01  0.12601184769E+02  0.17426543785E+02  0.51100000000E-03 0. -1.
        -11    1    3    3    0    0 -0.12640498960E+02 -0.11315220747E+02  0.17107039250E+02  0.24092887471E+02  0.51100000000E-03 0.  1.
         12    1    3    3    0    0 -0.15532348272E+01 -0.16605372725E+01  0.58408836118E+01  0.62678420392E+01  0.00000000000E+00 0. -1.
</event>
<event>
 7    1  0.2412036E-009  0.4778727E+02  0.7816164E-02  0.1312668E+00
        -11   -1    0    0    0    0  0.00000000000E+00  0.00000000000E+00  0.45593999997E+02  0.45594000000E+02  0.51100000000E-03 0. -1.
         11   -1    0    0    0    0 -0.00000000000E+00 -0.00000000000E+00 -0.45593999997E+02  0.45594000000E+02  0.51100000000E-03 0.  1.
    9900012    2    1    2    0    0 -0.43028080670E+02  0.24987558337E+01 -0.50954834804E+01  0.47787268915E+02  0.19999990290E+02 0.  0.
         12    1    1    2    0    0  0.43028080670E+02 -0.24987558337E+01  0.50954834804E+01  0.43400731085E+02  0.00000000000E+00 0. -1.
         11    1    3    3    0    0 -0.34503309125E+02 -0.38394251719E+01 -0.88646292756E+01  0.35830171346E+02  0.51100000000E-03 0. -1.
        -11    1    3    3    0    0 -0.84243373203E+01  0.56474709175E+01  0.43628848980E+01  0.11040749610E+02  0.51100000000E-03 0.  1.
        -12    1    3    3    0    0 -0.10043422387E+00  0.69071008809E+00 -0.59373910282E+00  0.91634795866E+00  0.00000000000E+00 0.  1.
</event>
<event>
 7    1  0.2412036E-009  0.4778726E+02  0.7816164E-02  0.1312668E+00
        -11   -1    0    0    0    0  0.00000000000E+00  0.00000000000E+00  0.45593999997E+02  0.45594000000E+02  0.51100000000E-03 0.  1.
         11   -1    0    0    0    0 -0.00000000000E+00 -0.00000000000E+00 -0.45593999997E+02  0.45594000000E+02  0.51100000000E-03 0. -1.
    9900012    2    1    2    0    0 -0.42188952665E+02 -0.99994992847E+01  0.19304855252E+01  0.47787257066E+02  0.19999936265E+02 0.  0.
         12    1    1    2    0    0  0.42188952665E+02  0.99994992847E+01 -0.19304855252E+01  0.43400742934E+02  0.00000000000E+00 0. -1.
         11    1    3    3    0    0 -0.10608186072E+02  0.13367375057E+01 -0.19213553564E+01  0.10863336760E+02  0.51100000000E-03 0. -1.
        -11    1    3    3    0    0 -0.13324351921E+02  0.14481039915E+01  0.56901241122E+01  0.14560661797E+02  0.51100000000E-03 0.  1.
        -12    1    3    3    0    0 -0.18256414672E+02 -0.12784340782E+02 -0.18382832306E+01  0.22363258509E+02  0.00000000000E+00 0.  1.
</event>
<event>
 7    1  0.2412036E-009  0.4778727E+02  0.7816164E-02  0.1312668E+00
        -11   -1    0    0    0    0  0.00000000000E+00  0.00000000000E+00  0.45593999997E+02  0.45594000000E+02  0.51100000000E-03 0. -1.
         11   -1    0    0    0    0 -0.00000000000E+00 -0.00000000000E+00 -0.45593999997E+02  0.45594000000E+02  0.51100000000E-03 0.  1.
    9900012    2    1    2    0    0  0.30323260526E+02  0.15938640317E+02 -0.26647382474E+02  0.47787269858E+02  0.19999994592E+02 0.  0.
         12    1    1    2    0    0 -0.30323260526E+02 -0.15938640317E+02  0.26647382474E+02  0.43400730142E+02  0.00000000000E+00 0. -1.
         11    1    3    3    0    0  0.93613703427E+01  0.34554371038E+01 -0.15556545347E+02  0.18481920995E+02  0.51100000000E-03 0. -1.
        -11    1    3    3    0    0  0.90582960754E+01  0.79988089475E+01 -0.11355174278E+02  0.16582329617E+02  0.51100000000E-03 0.  1.
         12    1    3    3    0    0  0.11903594108E+02  0.44843942653E+01  0.26433715068E+00  0.12723019247E+02  0.00000000000E+00 0. -1.
</event>
<event>
 7    1  0.2412036E-009  0.4778727E+02  0.7816164E-02  0.1312668E+00
        -11   -1    0    0    0    0  0.00000000000E+00  0.00000000000E+00  0.45593999997E+02  0.45594000000E+02  0.51100000000E-03 0.  1.
         11   -1    0    0    0    0 -0.00000000000E+00 -0.00000000000E+00 -0.45593999997E+02  0.45594000000E+02  0.51100000000E-03 0. -1.
    9900012    2    1    2    0    0 -0.17038041694E+02  0.27972047418E+02 -0.28476186833E+02  0.47787268231E+02  0.19999987174E+02 0.  0.
         12    1    1    2    0    0  0.17038041694E+02 -0.27972047418E+02  0.28476186833E+02  0.43400731769E+02  0.00000000000E+00 0. -1.
         11    1    3    3    0    0 -0.12809605252E+02  0.63674185110E+01 -0.13800426043E+02  0.19876663815E+02  0.51100000000E-03 0. -1.
        -11    1    3    3    0    0 -0.61319798444E+01  0.19687101376E+02 -0.14490502997E+02  0.25202337486E+02  0.51100000000E-03 0.  1.
         12    1    3    3    0    0  0.19035434020E+01  0.19175275303E+01 -0.18525779337E+00  0.27082669297E+01  0.00000000000E+00 0. -1.
</event>
<event>
 7    1  0.2412036E-009  0.4778727E+02  0.7816164E-02  0.1312668E+00
        -11   -1    0    0    0    0  0.00000000000E+00  0.00000000000E+00  0.45593999997E+02  0.45594000000E+02  0.51100000000E-03 0.  1.
         11   -1    0    0    0    0 -0.00000000000E+00 -0.00000000000E+00 -0.45593999997E+02  0.45594000000E+02  0.51100000000E-03 0. -1.
    9900012    2    1    2    0    0 -0.22183968895E+02  0.80503738917E+01  0.36423707706E+02  0.47787268684E+02  0.19999989237E+02 0.  0.
         12    1    1    2    0    0  0.22183968895E+02 -0.80503738917E+01 -0.36423707706E+02  0.43400731316E+02  0.00000000000E+00 0. -1.
         11    1    3    3    0    0 -0.17470448106E+02 -0.19663856637E+01  0.13981037527E+02  0.22462249224E+02  0.51100000000E-03 0. -1.
        -11    1    3    3    0    0 -0.46888466552E+01  0.56028053927E+01  0.14580539886E+02  0.16308551587E+02  0.51100000000E-03 0.  1.
         12    1    3    3    0    0 -0.24674133722E-01  0.44139541627E+01  0.78621302924E+01  0.90164678726E+01  0.00000000000E+00 0. -1.
</event>
<event>
 7    1  0.2412036E-009  0.4778727E+02  0.7816164E-02  0.1312668E+00
        -11   -1    0    0    0    0  0.00000000000E+00  0.00000000000E+00  0.45593999997E+02  0.45594000000E+02  0.51100000000E-03 0. -1.
         11   -1    0    0    0    0 -0.00000000000E+00 -0.00000000000E+00 -0.45593999997E+02  0.45594000000E+02  0.51100000000E-03 0.  1.
    9900012    2    1    2    0    0 -0.34370890270E+02  0.26180365871E+02 -0.41053273782E+01  0.47787269961E+02  0.19999995058E+02 0.  0.
         12    1    1    2    0    0  0.34370890270E+02 -0.26180365871E+02  0.41053273782E+01  0.43400730039E+02  0.00000000000E+00 0. -1.
         11    1    3    3    0    0  0.82918215075E-02 -0.90656187657E+00  0.17388834566E+01  0.19610301188E+01  0.51100000000E-03 0. -1.
        -11    1    3    3    0    0 -0.27725473068E+02  0.23672829162E+02 -0.20094401927E+00  0.36457441986E+02  0.51100000000E-03 0.  1.
        -12    1    3    3    0    0 -0.66537090231E+01  0.34140985858E+01 -0.56432668155E+01  0.93687978561E+01  0.00000000000E+00 0.  1.
</event>
<event>
 7    1  0.2412036E-009  0.4778727E+02  0.7816164E-02  0.1312668E+00
        -11   -1    0    0    0    0  0.00000000000E+00  0.00000000000E+00  0.45593999997E+02  0.45594000000E+02  0.51100000000E-03 0.  1.
         11   -1    0    0    0    0 -0.00000000000E+00 -0.00000000000E+00 -0.45593999997E+02  0.45594000000E+02  0.51100000000E-03 0. -1.
    9900012    2    1    2    0    0 -0.29904929338E+02  0.84269923977E+01  0.30303535817E+02  0.47787270944E+02  0.19999999544E+02 0.  0.
         12    1    1    2    0    0  0.29904929338E+02 -0.84269923977E+01 -0.30303535817E+02  0.43400729056E+02  0.00000000000E+00 0. -1.
         11    1    3    3    0    0 -0.10212961896E+02 -0.16027723128E+01  0.15729634171E+02  0.18822721939E+02  0.51100000000E-03 0.  1.
        -11    1    3    3    0    0 -0.44751165696E+01  0.86466704930E+01  0.51814467785E+01  0.11029005844E+02  0.51100000000E-03 0. -1.
        -12    1    3    3    0    0 -0.15216850872E+02  0.13830942175E+01  0.93924548676E+01  0.17935543162E+02  0.00000000000E+00 0.  1.
</event>
<event>
 7    1  0.2412036E-009  0.4778727E+02  0.7816164E-02  0.1312668E+00
        -11   -1    0    0    0    0  0.00000000000E+00  0.00000000000E+00  0.45593999997E+02  0.45594000000E+02  0.51100000000E-03 0.  1.
         11   -1    0    0    0    0 -0.00000000000E+00 -0.00000000000E+00 -0.45593999997E+02  0.45594000000E+02  0.51100000000E-03 0. -1.
    9900012    2    1    2    0    0 -0.61787719579E+01 -0.40463426733E+02  0.14427660192E+02  0.47787268388E+02  0.19999987886E+02 0.  0.
         12    1    1    2    0    0  0.61787719579E+01  0.40463426733E+02 -0.14427660192E+02  0.43400731612E+02  0.00000000000E+00 0. -1.
         11    1    3    3    0    0 -0.36281319320E+01 -0.12094587036E+02 -0.36969731198E+01  0.13157126867E+02  0.51100000000E-03 0. -1.
        -11    1    3    3    0    0 -0.48529306235E+01 -0.18542186518E+02  0.13960951831E+02  0.23712270933E+02  0.51100000000E-03 0.  1.
        -12    1    3    3    0    0  0.23022905976E+01 -0.98266531789E+01  0.41636814805E+01  0.10917870588E+02  0.00000000000E+00 0.  1.
</event>
<event>
 7    1  0.2412036E-009  0.4778727E+02  0.7816164E-02  0.1312668E+00
        -11   -1    0    0    0    0  0.00000000000E+00  0.00000000000E+00  0.45593999997E+02  0.45594000000E+02  0.51100000000E-03 0.  1.
         11   -1    0    0    0    0 -0.00000000000E+00 -0.00000000000E+00 -0.45593999997E+02  0.45594000000E+02  0.51100000000E-03 0. -1.
    9900012    2    1    2    0    0 -0.51011931717E+01  0.35058412530E+02  0.25070078109E+02  0.47787271005E+02  0.19999999820E+02 0.  0.
         12    1    1    2    0    0  0.51011931717E+01 -0.35058412530E+02 -0.25070078109E+02  0.43400728995E+02  0.00000000000E+00 0. -1.
         11    1    3    3    0    0  0.40618024926E+01  0.58483985134E+01 -0.46806983152E+00  0.71359017852E+01  0.51100000000E-03 0. -1.
        -11    1    3    3    0    0 -0.30011616923E+01  0.18099992136E+02  0.18807186384E+02  0.26274073662E+02  0.51100000000E-03 0.  1.
        -12    1    3    3    0    0 -0.61618339720E+01  0.11110021881E+02  0.67309615560E+01  0.14377295558E+02  0.00000000000E+00 0.  1.
</event>
<event>
 7    1  0.2412036E-009  0.4778729E+02  0.7816164E-02  0.1312668E+00
        -11   -1    0    0    0    0  0.00000000000E+00  0.00000000000E+00  0.45593999997E+02  0.45594000000E+02  0.51100000000E-03 0.  1.
         11   -1    0    0    0    0 -0.00000000000E+00 -0.00000000000E+00 -0.45593999997E+02  0.45594000000E+02  0.51100000000E-03 0. -1.
    9900012    2    1    2    0    0  0.28633283172E+02 -0.24171089731E+02  0.21897837708E+02  0.47787288251E+02  0.20000078453E+02 0.  0.
         12    1    1    2    0    0 -0.28633283172E+02  0.24171089731E+02 -0.21897837708E+02  0.43400711749E+02  0.00000000000E+00 0. -1.
         11    1    3    3    0    0 -0.52773070486E+00 -0.74270894665E+00  0.33864217303E+00  0.97200568865E+00  0.51100000000E-03 0. -1.
        -11    1    3    3    0    0  0.56791464431E+00 -0.60637830089E+01  0.94413837557E+01  0.11235289000E+02  0.51100000000E-03 0.  1.
        -12    1    3    3    0    0  0.28593099232E+02 -0.17364597776E+02  0.12117811779E+02  0.35579993563E+02  0.00000000000E+00 0.  1.
</event>
<event>
 7    1  0.2412036E-009  0.4778727E+02  0.7816164E-02  0.1312668E+00
        -11   -1    0    0    0    0  0.00000000000E+00  0.00000000000E+00  0.45593999997E+02  0.45594000000E+02  0.51100000000E-03 0. -1.
         11   -1    0    0    0    0 -0.00000000000E+00 -0.00000000000E+00 -0.45593999997E+02  0.45594000000E+02  0.51100000000E-03 0.  1.
    9900012    2    1    2    0    0 -0.29848234143E+01 -0.29922707904E+02 -0.31294498364E+02  0.47787271355E+02  0.20000001415E+02 0.  0.
         12    1    1    2    0    0  0.29848234143E+01  0.29922707904E+02  0.31294498364E+02  0.43400728645E+02  0.00000000000E+00 0. -1.
         11    1    3    3    0    0 -0.35597104775E+01 -0.10134774132E+02 -0.15916830048E+02  0.19202360908E+02  0.51100000000E-03 0. -1.
        -11    1    3    3    0    0  0.83669810622E+00 -0.20369965558E+02 -0.91871101050E+01  0.22361541827E+02  0.51100000000E-03 0.  1.
         12    1    3    3    0    0 -0.26181104309E+00  0.58203178604E+00 -0.61905582102E+01  0.62233686197E+01  0.00000000000E+00 0. -1.
</event>
<event>
 7    1  0.2412036E-009  0.4778725E+02  0.7816164E-02  0.1312668E+00
        -11   -1    0    0    0    0  0.00000000000E+00  0.00000000000E+00  0.45593999997E+02  0.45594000000E+02  0.51100000000E-03 0.  1.
         11   -1    0    0    0    0 -0.00000000000E+00 -0.00000000000E+00 -0.45593999997E+02  0.45594000000E+02  0.51100000000E-03 0. -1.
    9900012    2    1    2    0    0  0.41181245316E+02 -0.99442384884E+01  0.94256170431E+01  0.47787249989E+02  0.19999903999E+02 0.  0.
         12    1    1    2    0    0 -0.41181245316E+02  0.99442384884E+01 -0.94256170431E+01  0.43400750011E+02  0.00000000000E+00 0. -1.
         11    1    3    3    0    0  0.46987296656E+01 -0.20735177413E+01 -0.42011199529E+01  0.66352803568E+01  0.51100000000E-03 0. -1.
        -11    1    3    3    0    0  0.22405320255E+02 -0.64497499306E+01  0.13622672872E+02  0.27003238071E+02  0.51100000000E-03 0.  1.
         12    1    3    3    0    0  0.14077195396E+02 -0.14209708164E+01  0.40641241929E-02  0.14148731561E+02  0.00000000000E+00 0. -1.
</event>
<event>
 7    1  0.2412036E-009  0.4778727E+02  0.7816164E-02  0.1312668E+00
        -11   -1    0    0    0    0  0.00000000000E+00  0.00000000000E+00  0.45593999997E+02  0.45594000000E+02  0.51100000000E-03 0.  1.
         11   -1    0    0    0    0 -0.00000000000E+00 -0.00000000000E+00 -0.45593999997E+02  0.45594000000E+02  0.51100000000E-03 0. -1.
    9900012    2    1    2    0    0  0.13544379984E+02  0.25612928475E+02  0.32313325795E+02  0.47787270073E+02  0.19999995573E+02 0.  0.
         12    1    1    2    0    0 -0.13544379984E+02 -0.25612928475E+02 -0.32313325795E+02  0.43400729927E+02  0.00000000000E+00 0. -1.
         11    1    3    3    0    0  0.85415457201E+01  0.19066397716E+02  0.26571128361E+02  0.33801041223E+02  0.51100000000E-03 0.  1.
        -11    1    3    3    0    0  0.32492767404E+01 -0.21038325432E+01  0.23629903143E+01  0.45351553659E+01  0.51100000000E-03 0. -1.
        -12    1    3    3    0    0  0.17535575233E+01  0.86503633021E+01  0.33792071202E+01  0.94510734843E+01  0.00000000000E+00 0.  1.
</event>
<event>
 7    1  0.2412036E-009  0.4778729E+02  0.7816164E-02  0.1312668E+00
        -11   -1    0    0    0    0  0.00000000000E+00  0.00000000000E+00  0.45593999997E+02  0.45594000000E+02  0.51100000000E-03 0. -1.
         11   -1    0    0    0    0 -0.00000000000E+00 -0.00000000000E+00 -0.45593999997E+02  0.45594000000E+02  0.51100000000E-03 0.  1.
    9900012    2    1    2    0    0  0.25714216493E+02 -0.33335728243E+02  0.10541824456E+02  0.47787288367E+02  0.20000078981E+02 0.  0.
         12    1    1    2    0    0 -0.25714216493E+02  0.33335728243E+02 -0.10541824456E+02  0.43400711633E+02  0.00000000000E+00 0. -1.
         11    1    3    3    0    0  0.88002114867E+00  0.44979400873E+00 -0.31875052646E+01  0.33372057092E+01  0.51100000000E-03 0. -1.
        -11    1    3    3    0    0  0.15520967254E+02 -0.17231061001E+02  0.89991636243E+01  0.24875587108E+02  0.51100000000E-03 0.  1.
         12    1    3    3    0    0  0.93132280903E+01 -0.16554461250E+02  0.47301660967E+01  0.19574495550E+02  0.00000000000E+00 0. -1.
</event>
<event>
 7    1  0.2412036E-009  0.4778727E+02  0.7816164E-02  0.1312668E+00
        -11   -1    0    0    0    0  0.00000000000E+00  0.00000000000E+00  0.45593999997E+02  0.45594000000E+02  0.51100000000E-03 0. -1.
         11   -1    0    0    0    0 -0.00000000000E+00 -0.00000000000E+00 -0.45593999997E+02  0.45594000000E+02  0.51100000000E-03 0.  1.
    9900012    2    1    2    0    0  0.38814872717E+02  0.11590654209E+02 -0.15578376360E+02  0.47787269372E+02  0.19999992374E+02 0.  0.
         12    1    1    2    0    0 -0.38814872717E+02 -0.11590654209E+02  0.15578376360E+02  0.43400730628E+02  0.00000000000E+00 0. -1.
         11    1    3    3    0    0  0.53595338814E+01 -0.15240109734E+01  0.18599519071E+01  0.58742347783E+01  0.51100000000E-03 0. -1.
        -11    1    3    3    0    0  0.14179103599E+02  0.12058620821E+02 -0.10676266268E+02  0.21457865147E+02  0.51100000000E-03 0.  1.
        -12    1    3    3    0    0  0.19276235237E+02  0.10560443605E+01 -0.67620619991E+01  0.20455169446E+02  0.00000000000E+00 0.  1.
</event>
<event>
 7    1  0.2412036E-009  0.4778727E+02  0.7816164E-02  0.1312668E+00
        -11   -1    0    0    0    0  0.00000000000E+00  0.00000000000E+00  0.45593999997E+02  0.45594000000E+02  0.51100000000E-03 0.  1.
         11   -1    0    0    0    0 -0.00000000000E+00 -0.00000000000E+00 -0.45593999997E+02  0.45594000000E+02  0.51100000000E-03 0. -1.
    9900012    2    1    2    0    0 -0.34297761394E+02 -0.20071284816E+02  0.17447928469E+02  0.47787272832E+02  0.20000008152E+02 0.  0.
         12    1    1    2    0    0  0.34297761394E+02  0.20071284816E+02 -0.17447928469E+02  0.43400727168E+02  0.00000000000E+00 0. -1.
         11    1    3    3    0    0 -0.16709141957E+02 -0.94671139479E+01  0.17100360384E+02  0.25714665018E+02  0.51100000000E-03 0. -1.
        -11    1    3    3    0    0 -0.16169486746E+02 -0.11740938142E+02  0.12908748123E+01  0.20024192571E+02  0.51100000000E-03 0.  1.
         12    1    3    3    0    0 -0.14191326907E+01  0.11367672733E+01 -0.94330672740E+00  0.20484152434E+01  0.00000000000E+00 0. -1.
</event>
<event>
 7    1  0.2412036E-009  0.4778727E+02  0.7816164E-02  0.1312668E+00
        -11   -1    0    0    0    0  0.00000000000E+00  0.00000000000E+00  0.45593999997E+02  0.45594000000E+02  0.51100000000E-03 0.  1.
         11   -1    0    0    0    0 -0.00000000000E+00 -0.00000000000E+00 -0.45593999997E+02  0.45594000000E+02  0.51100000000E-03 0. -1.
    9900012    2    1    2    0    0  0.41317372859E+02  0.12009928084E+02  0.56797310734E+01  0.47787273997E+02  0.20000013463E+02 0.  0.
         12    1    1    2    0    0 -0.41317372859E+02 -0.12009928084E+02 -0.56797310734E+01  0.43400726003E+02  0.00000000000E+00 0. -1.
         11    1    3    3    0    0  0.82196327251E+01  0.74196724671E+01  0.56613987659E+01  0.12436451982E+02  0.51100000000E-03 0. -1.
        -11    1    3    3    0    0  0.12846024255E+02 -0.38396067645E+01 -0.33681871023E+00  0.13411799520E+02  0.51100000000E-03 0.  1.
        -12    1    3    3    0    0  0.20251715878E+02  0.84298623811E+01  0.35515101778E+00  0.21939022495E+02  0.00000000000E+00 0.  1.
</event>
<event>
 7    1  0.2412036E-009  0.4778727E+02  0.7816164E-02  0.1312668E+00
        -11   -1    0    0    0    0  0.00000000000E+00  0.00000000000E+00  0.45593999997E+02  0.45594000000E+02  0.51100000000E-03 0. -1.
         11   -1    0    0    0    0 -0.00000000000E+00 -0.00000000000E+00 -0.45593999997E+02  0.45594000000E+02  0.51100000000E-03 0.  1.
    9900012    2    1    2    0    0 -0.31528359117E+02 -0.23029758751E+02 -0.18953000370E+02  0.47787269133E+02  0.19999991285E+02 0.  0.
         12    1    1    2    0    0  0.31528359117E+02  0.23029758751E+02  0.18953000370E+02  0.43400730867E+02  0.00000000000E+00 0. -1.
         11    1    3    3    0    0 -0.19476681025E+01 -0.15828628284E+01  0.29957749270E+01  0.39081368253E+01  0.51100000000E-03 0. -1.
        -11    1    3    3    0    0 -0.10795102713E+02 -0.69536425897E+01 -0.22404611372E+01  0.13034840015E+02  0.51100000000E-03 0.  1.
         12    1    3    3    0    0 -0.18785588302E+02 -0.14493253333E+02 -0.19708314160E+02  0.30844292293E+02  0.00000000000E+00 0. -1.
</event>
<event>
 7    1  0.2412036E-009  0.4778727E+02  0.7816164E-02  0.1312668E+00
        -11   -1    0    0    0    0  0.00000000000E+00  0.00000000000E+00  0.45593999997E+02  0.45594000000E+02  0.51100000000E-03 0.  1.
         11   -1    0    0    0    0 -0.00000000000E+00 -0.00000000000E+00 -0.45593999997E+02  0.45594000000E+02  0.51100000000E-03 0. -1.
    9900012    2    1    2    0    0  0.41276949592E+02 -0.13319195008E+02 -0.15606573412E+01  0.47787272188E+02  0.20000005212E+02 0.  0.
         12    1    1    2    0    0 -0.41276949592E+02  0.13319195008E+02  0.15606573412E+01  0.43400727812E+02  0.00000000000E+00 0. -1.
         11    1    3    3    0    0  0.11969010332E+02 -0.21955328919E+01  0.76810209223E+01  0.14390123546E+02  0.51100000000E-03 0. -1.
        -11    1    3    3    0    0  0.22638570255E+02 -0.11180457741E+02 -0.58635244727E+01  0.25920810520E+02  0.51100000000E-03 0.  1.
         12    1    3    3    0    0  0.66693690052E+01  0.56795625376E-01 -0.33781537908E+01  0.74763381213E+01  0.00000000000E+00 0. -1.
</event>
<event>
 7    1  0.2412036E-009  0.4778727E+02  0.7816164E-02  0.1312668E+00
        -11   -1    0    0    0    0  0.00000000000E+00  0.00000000000E+00  0.45593999997E+02  0.45594000000E+02  0.51100000000E-03 0.  1.
         11   -1    0    0    0    0 -0.00000000000E+00 -0.00000000000E+00 -0.45593999997E+02  0.45594000000E+02  0.51100000000E-03 0. -1.
    9900012    2    1    2    0    0 -0.78999722774E+01  0.12386735403E+02  0.40838491704E+02  0.47787272119E+02  0.20000004900E+02 0.  0.
         12    1    1    2    0    0  0.78999722774E+01 -0.12386735403E+02 -0.40838491704E+02  0.43400727881E+02  0.00000000000E+00 0. -1.
         11    1    3    3    0    0  0.33241615104E+01 -0.12635575813E+01  0.12868346889E+02  0.13350692095E+02  0.51100000000E-03 0. -1.
        -11    1    3    3    0    0 -0.11222920133E+02  0.11179748735E+02  0.27753978891E+02  0.31956596543E+02  0.51100000000E-03 0.  1.
         12    1    3    3    0    0 -0.12136547564E-02  0.24705442486E+01  0.21616592465E+00  0.24799834807E+01  0.00000000000E+00 0. -1.
</event>
<event>
 7    1  0.2412036E-009  0.4778727E+02  0.7816164E-02  0.1312668E+00
        -11   -1    0    0    0    0  0.00000000000E+00  0.00000000000E+00  0.45593999997E+02  0.45594000000E+02  0.51100000000E-03 0.  1.
         11   -1    0    0    0    0 -0.00000000000E+00 -0.00000000000E+00 -0.45593999997E+02  0.45594000000E+02  0.51100000000E-03 0. -1.
    9900012    2    1    2    0    0 -0.39512668688E+02  0.17121937073E+02  0.54047769115E+01  0.47787270405E+02  0.19999997083E+02 0.  0.
         12    1    1    2    0    0  0.39512668688E+02 -0.17121937073E+02 -0.54047769115E+01  0.43400729595E+02  0.00000000000E+00 0. -1.
         11    1    3    3    0    0 -0.12769569628E+02  0.11033684749E+02  0.37168870039E+01  0.17280606381E+02  0.51100000000E-03 0. -1.
        -11    1    3    3    0    0 -0.92803432862E+01 -0.18585565471E+01  0.54986291824E+01  0.10945954828E+02  0.51100000000E-03 0.  1.
        -12    1    3    3    0    0 -0.17462755774E+02  0.79468088706E+01 -0.38107392748E+01  0.19560709196E+02  0.00000000000E+00 0.  1.
</event>
<event>
 7    1  0.2412036E-009  0.4778727E+02  0.7816164E-02  0.1312668E+00
        -11   -1    0    0    0    0  0.00000000000E+00  0.00000000000E+00  0.45593999997E+02  0.45594000000E+02  0.51100000000E-03 0.  1.
         11   -1    0    0    0    0 -0.00000000000E+00 -0.00000000000E+00 -0.45593999997E+02  0.45594000000E+02  0.51100000000E-03 0. -1.
    9900012    2    1    2    0    0  0.10785129832E+02 -0.21170496107E+02  0.36319617423E+02  0.47787267971E+02  0.19999985987E+02 0.  0.
         12    1    1    2    0    0 -0.10785129832E+02  0.21170496107E+02 -0.36319617423E+02  0.43400732029E+02  0.00000000000E+00 0. -1.
         11    1    3    3    0    0 -0.19402976460E+01 -0.10078224036E+02  0.49126706750E+01  0.11378474770E+02  0.51100000000E-03 0. -1.
        -11    1    3    3    0    0  0.41381263716E+01 -0.52767092879E+01  0.19487186614E+02  0.20608692175E+02  0.51100000000E-03 0.  1.
        -12    1    3    3    0    0  0.85873011065E+01 -0.58155627831E+01  0.11919760134E+02  0.15800101026E+02  0.00000000000E+00 0.  1.
</event>
<event>
 7    1  0.2412036E-009  0.4778727E+02  0.7816164E-02  0.1312668E+00
        -11   -1    0    0    0    0  0.00000000000E+00  0.00000000000E+00  0.45593999997E+02  0.45594000000E+02  0.51100000000E-03 0. -1.
         11   -1    0    0    0    0 -0.00000000000E+00 -0.00000000000E+00 -0.45593999997E+02  0.45594000000E+02  0.51100000000E-03 0.  1.
    9900012    2    1    2    0    0 -0.34445219885E+01 -0.64205868442E+01 -0.42784748484E+02  0.47787269937E+02  0.19999994950E+02 0.  0.
         12    1    1    2    0    0  0.34445219885E+01  0.64205868442E+01  0.42784748484E+02  0.43400730063E+02  0.00000000000E+00 0. -1.
         11    1    3    3    0    0 -0.10350401872E+02 -0.14767539627E+01 -0.18111856925E+02  0.20912938166E+02  0.51100000000E-03 0. -1.
        -11    1    3    3    0    0  0.79112654786E+01 -0.46915881788E+01 -0.19020358165E+02  0.21127544725E+02  0.51100000000E-03 0.  1.
        -12    1    3    3    0    0 -0.10053855951E+01 -0.25224470267E+00 -0.56525333938E+01  0.57467870460E+01  0.00000000000E+00 0.  1.
</event>
<event>
 7    1  0.2412036E-009  0.4778728E+02  0.7816164E-02  0.1312668E+00
        -11   -1    0    0    0    0  0.00000000000E+00  0.00000000000E+00  0.45593999997E+02  0.45594000000E+02  0.51100000000E-03 0. -1.
         11   -1    0    0    0    0 -0.00000000000E+00 -0.00000000000E+00 -0.45593999997E+02  0.45594000000E+02  0.51100000000E-03 0.  1.
    9900012    2    1    2    0    0  0.10807130495E+02  0.51694697404E+01 -0.41714568633E+02  0.47787277389E+02  0.20000028925E+02 0.  0.
         12    1    1    2    0    0 -0.10807130495E+02 -0.51694697404E+01  0.41714568633E+02  0.43400722611E+02  0.00000000000E+00 0. -1.
         11    1    3    3    0    0  0.51772659050E+01  0.94192583060E+01 -0.25274974074E+02  0.27465447821E+02  0.51100000000E-03 0.  1.
        -11    1    3    3    0    0  0.60498711186E+01 -0.64419123546E+01 -0.15615089863E+02  0.17942413634E+02  0.51100000000E-03 0. -1.
         12    1    3    3    0    0 -0.42000652849E+00  0.21921237889E+01 -0.82450469621E+00  0.23794159334E+01  0.00000000000E+00 0. -1.
</event>
<event>
 7    1  0.2412036E-009  0.4778727E+02  0.7816164E-02  0.1312668E+00
        -11   -1    0    0    0    0  0.00000000000E+00  0.00000000000E+00  0.45593999997E+02  0.45594000000E+02  0.51100000000E-03 0.  1.
         11   -1    0    0    0    0 -0.00000000000E+00 -0.00000000000E+00 -0.45593999997E+02  0.45594000000E+02  0.51100000000E-03 0. -1.
    9900012    2    1    2    0    0 -0.22819333751E+02 -0.33608723008E+02  0.15275963396E+02  0.47787270597E+02  0.19999997960E+02 0.  0.
         12    1    1    2    0    0  0.22819333751E+02  0.33608723008E+02 -0.15275963396E+02  0.43400729403E+02  0.00000000000E+00 0. -1.
         11    1    3    3    0    0 -0.36382612491E+01 -0.87461252349E+01 -0.45881908793E+01  0.10525357350E+02  0.51100000000E-03 0. -1.
        -11    1    3    3    0    0 -0.13461402419E+02 -0.17070227131E+02  0.12220950343E+02  0.24938998315E+02  0.51100000000E-03 0.  1.
         12    1    3    3    0    0 -0.57196700823E+01 -0.77923706415E+01  0.76432039320E+01  0.12322914932E+02  0.00000000000E+00 0. -1.
</event>
<event>
 7    1  0.2412036E-009  0.4778727E+02  0.7816164E-02  0.1312668E+00
        -11   -1    0    0    0    0  0.00000000000E+00  0.00000000000E+00  0.45593999997E+02  0.45594000000E+02  0.51100000000E-03 0.  1.
         11   -1    0    0    0    0 -0.00000000000E+00 -0.00000000000E+00 -0.45593999997E+02  0.45594000000E+02  0.51100000000E-03 0. -1.
    9900012    2    1    2    0    0 -0.42415146257E+02 -0.91616941456E+01 -0.80128331962E+00  0.47787270437E+02  0.19999997232E+02 0.  0.
         12    1    1    2    0    0  0.42415146257E+02  0.91616941456E+01  0.80128331962E+00  0.43400729563E+02  0.00000000000E+00 0. -1.
         11    1    3    3    0    0 -0.24134201095E+01 -0.21832356035E+01  0.37781888760E+01  0.49865645257E+01  0.51100000000E-03 0. -1.
        -11    1    3    3    0    0 -0.33458638110E+02 -0.70417919190E+00 -0.41872658551E+01  0.33726985162E+02  0.51100000000E-03 0.  1.
        -12    1    3    3    0    0 -0.65430880370E+01 -0.62742793502E+01 -0.39220634043E+00  0.90737207493E+01  0.00000000000E+00 0.  1.
</event>
<event>
 7    1  0.2412036E-009  0.4778727E+02  0.7816164E-02  0.1312668E+00
        -11   -1    0    0    0    0  0.00000000000E+00  0.00000000000E+00  0.45593999997E+02  0.45594000000E+02  0.51100000000E-03 0.  1.
         11   -1    0    0    0    0 -0.00000000000E+00 -0.00000000000E+00 -0.45593999997E+02  0.45594000000E+02  0.51100000000E-03 0. -1.
    9900012    2    1    2    0    0 -0.23146419873E+02  0.69363805114E+01  0.36052086987E+02  0.47787273006E+02  0.20000008941E+02 0.  0.
         12    1    1    2    0    0  0.23146419873E+02 -0.69363805114E+01 -0.36052086987E+02  0.43400726994E+02  0.00000000000E+00 0. -1.
         11    1    3    3    0    0 -0.98839515638E+01  0.65368320543E+01  0.37876230041E+01  0.12440609314E+02  0.51100000000E-03 0. -1.
        -11    1    3    3    0    0 -0.83049708716E+01  0.28106054297E+01  0.22249976358E+02  0.23915131032E+02  0.51100000000E-03 0.  1.
         12    1    3    3    0    0 -0.49574974378E+01 -0.24110569726E+01  0.10014487624E+02  0.11431532660E+02  0.00000000000E+00 0. -1.
</event>
<event>
 7    1  0.2412036E-009  0.4778726E+02  0.7816164E-02  0.1312668E+00
        -11   -1    0    0    0    0  0.00000000000E+00  0.00000000000E+00  0.45593999997E+02  0.45594000000E+02  0.51100000000E-03 0. -1.
         11   -1    0    0    0    0 -0.00000000000E+00 -0.00000000000E+00 -0.45593999997E+02  0.45594000000E+02  0.51100000000E-03 0.  1.
    9900012    2    1    2    0    0 -0.14754445744E+02  0.31359360907E+02 -0.26125097110E+02  0.47787264008E+02  0.19999967916E+02 0.  0.
         12    1    1    2    0    0  0.14754445744E+02 -0.31359360907E+02  0.26125097110E+02  0.43400735992E+02  0.00000000000E+00 0. -1.
         11    1    3    3    0    0 -0.29086936869E+01  0.14319729660E+02 -0.17256029237E+02  0.22611627579E+02  0.51100000000E-03 0. -1.
        -11    1    3    3    0    0 -0.11568396804E+02  0.15912520248E+02 -0.38785552999E+01  0.20051915039E+02  0.51100000000E-03 0.  1.
        -12    1    3    3    0    0 -0.27735525357E+00  0.11271109993E+01 -0.49905125724E+01  0.51237213894E+01  0.00000000000E+00 0.  1.
</event>
<event>
 7    1  0.2412036E-009  0.4778727E+02  0.7816164E-02  0.1312668E+00
        -11   -1    0    0    0    0  0.00000000000E+00  0.00000000000E+00  0.45593999997E+02  0.45594000000E+02  0.51100000000E-03 0. -1.
         11   -1    0    0    0    0 -0.00000000000E+00 -0.00000000000E+00 -0.45593999997E+02  0.45594000000E+02  0.51100000000E-03 0.  1.
    9900012    2    1    2    0    0  0.37453996211E+02 -0.18278736647E+02  0.12112350942E+02  0.47787273152E+02  0.20000009611E+02 0.  0.
         12    1    1    2    0    0 -0.37453996211E+02  0.18278736647E+02 -0.12112350942E+02  0.43400726848E+02  0.00000000000E+00 0. -1.
         11    1    3    3    0    0  0.60630938798E+01 -0.94440750728E+01  0.94778431146E+01  0.14689491882E+02  0.51100000000E-03 0. -1.
        -11    1    3    3    0    0  0.25021205824E+02 -0.54502513060E+01  0.34481837862E+01  0.25839039299E+02  0.51100000000E-03 0.  1.
         12    1    3    3    0    0  0.63696965070E+01 -0.33844102678E+01 -0.81367595900E+00  0.72587419721E+01  0.00000000000E+00 0. -1.
</event>
<event>
 7    1  0.2412036E-009  0.4778726E+02  0.7816164E-02  0.1312668E+00
        -11   -1    0    0    0    0  0.00000000000E+00  0.00000000000E+00  0.45593999997E+02  0.45594000000E+02  0.51100000000E-03 0.  1.
         11   -1    0    0    0    0 -0.00000000000E+00 -0.00000000000E+00 -0.45593999997E+02  0.45594000000E+02  0.51100000000E-03 0. -1.
    9900012    2    1    2    0    0 -0.35092619665E+02 -0.15225529635E+01  0.25491456476E+02  0.47787257198E+02  0.19999936868E+02 0.  0.
         12    1    1    2    0    0  0.35092619665E+02  0.15225529635E+01 -0.25491456476E+02  0.43400742802E+02  0.00000000000E+00 0. -1.
         11    1    3    3    0    0 -0.27810528362E+02 -0.12868115403E+01  0.18634869127E+02  0.33501339068E+02  0.51100000000E-03 0. -1.
        -11    1    3    3    0    0 -0.96383238431E+00 -0.13563561782E+01  0.76421028116E+01  0.78211514876E+01  0.51100000000E-03 0.  1.
         12    1    3    3    0    0 -0.63182589190E+01  0.11206147550E+01 -0.78551546223E+00  0.64647666422E+01  0.00000000000E+00 0. -1.
</event>
<event>
 7    1  0.2412036E-009  0.4778727E+02  0.7816164E-02  0.1312668E+00
        -11   -1    0    0    0    0  0.00000000000E+00  0.00000000000E+00  0.45593999997E+02  0.45594000000E+02  0.51100000000E-03 0. -1.
         11   -1    0    0    0    0 -0.00000000000E+00 -0.00000000000E+00 -0.45593999997E+02  0.45594000000E+02  0.51100000000E-03 0.  1.
    9900012    2    1    2    0    0 -0.16993103024E+02  0.79305244348E+01 -0.39140320407E+02  0.47787269018E+02  0.19999990759E+02 0.  0.
         12    1    1    2    0    0  0.16993103024E+02 -0.79305244348E+01  0.39140320407E+02  0.43400730982E+02  0.00000000000E+00 0. -1.
         11    1    3    3    0    0 -0.28078436211E+01  0.74552801439E+00  0.16172261412E+01  0.33249388676E+01  0.51100000000E-03 0. -1.
        -11    1    3    3    0    0 -0.10560245082E+02  0.87273765136E+01 -0.29255429497E+02  0.32304272663E+02  0.51100000000E-03 0.  1.
        -12    1    3    3    0    0 -0.36250143210E+01 -0.15423800932E+01 -0.11502117052E+02  0.12158057487E+02  0.00000000000E+00 0.  1.
</event>
<event>
 7    1  0.2412036E-009  0.4778727E+02  0.7816164E-02  0.1312668E+00
        -11   -1    0    0    0    0  0.00000000000E+00  0.00000000000E+00  0.45593999997E+02  0.45594000000E+02  0.51100000000E-03 0.  1.
         11   -1    0    0    0    0 -0.00000000000E+00 -0.00000000000E+00 -0.45593999997E+02  0.45594000000E+02  0.51100000000E-03 0. -1.
    9900012    2    1    2    0    0  0.39635543349E+02 -0.16361765925E+02  0.67036857692E+01  0.47787273236E+02  0.20000009994E+02 0.  0.
         12    1    1    2    0    0 -0.39635543349E+02  0.16361765925E+02 -0.67036857692E+01  0.43400726764E+02  0.00000000000E+00 0. -1.
         11    1    3    3    0    0  0.97133237465E+01 -0.53439428785E+01 -0.68655833107E+01  0.13040039039E+02  0.51100000000E-03 0. -1.
        -11    1    3    3    0    0  0.13177971403E+02 -0.50793743935E+01  0.73718705683E+01  0.15931209950E+02  0.51100000000E-03 0.  1.
         12    1    3    3    0    0  0.16744248199E+02 -0.59384486531E+01  0.61973985116E+01  0.18816024247E+02  0.00000000000E+00 0. -1.
</event>
<event>
 7    1  0.2412036E-009  0.4778727E+02  0.7816164E-02  0.1312668E+00
        -11   -1    0    0    0    0  0.00000000000E+00  0.00000000000E+00  0.45593999997E+02  0.45594000000E+02  0.51100000000E-03 0.  1.
         11   -1    0    0    0    0 -0.00000000000E+00 -0.00000000000E+00 -0.45593999997E+02  0.45594000000E+02  0.51100000000E-03 0. -1.
    9900012    2    1    2    0    0  0.16683826866E+02 -0.21979974759E+02  0.33498571128E+02  0.47787266862E+02  0.19999980931E+02 0.  0.
         12    1    1    2    0    0 -0.16683826866E+02  0.21979974759E+02 -0.33498571128E+02  0.43400733138E+02  0.00000000000E+00 0. -1.
         11    1    3    3    0    0  0.11747622937E+02 -0.77407622654E+01  0.73945293913E+01  0.15893555622E+02  0.51100000000E-03 0. -1.
        -11    1    3    3    0    0  0.20547230806E+00 -0.13540561301E+02  0.19204752903E+02  0.23499181976E+02  0.51100000000E-03 0.  1.
        -12    1    3    3    0    0  0.47307316206E+01 -0.69865119236E+00  0.68992888340E+01  0.83945292643E+01  0.00000000000E+00 0.  1.
</event>
<event>
 7    1  0.2412036E-009  0.4778727E+02  0.7816164E-02  0.1312668E+00
        -11   -1    0    0    0    0  0.00000000000E+00  0.00000000000E+00  0.45593999997E+02  0.45594000000E+02  0.51100000000E-03 0.  1.
         11   -1    0    0    0    0 -0.00000000000E+00 -0.00000000000E+00 -0.45593999997E+02  0.45594000000E+02  0.51100000000E-03 0. -1.
    9900012    2    1    2    0    0  0.33863787592E+02 -0.20725830023E+01  0.27066059281E+02  0.47787271027E+02  0.19999999920E+02 0.  0.
         12    1    1    2    0    0 -0.33863787592E+02  0.20725830023E+01 -0.27066059281E+02  0.43400728973E+02  0.00000000000E+00 0. -1.
         11    1    3    3    0    0  0.10505542533E+02 -0.68426407436E+01  0.68656675685E+01  0.14294248762E+02  0.51100000000E-03 0. -1.
        -11    1    3    3    0    0  0.21423327559E+02  0.63102088206E+01  0.21230371925E+02  0.30814061586E+02  0.51100000000E-03 0.  1.
        -12    1    3    3    0    0  0.19349175002E+01 -0.15401510793E+01 -0.10299802129E+01  0.26789606788E+01  0.00000000000E+00 0.  1.
</event>
<event>
 7    1  0.2412036E-009  0.4778727E+02  0.7816164E-02  0.1312668E+00
        -11   -1    0    0    0    0  0.00000000000E+00  0.00000000000E+00  0.45593999997E+02  0.45594000000E+02  0.51100000000E-03 0.  1.
         11   -1    0    0    0    0 -0.00000000000E+00 -0.00000000000E+00 -0.45593999997E+02  0.45594000000E+02  0.51100000000E-03 0. -1.
    9900012    2    1    2    0    0 -0.24845595867E+02  0.28640828661E+02  0.21119249989E+02  0.47787269356E+02  0.19999992301E+02 0.  0.
         12    1    1    2    0    0  0.24845595867E+02 -0.28640828661E+02 -0.21119249989E+02  0.43400730644E+02  0.00000000000E+00 0. -1.
         11    1    3    3    0    0 -0.25944225311E+01  0.47684680508E+01 -0.89943390515E-01  0.54293098913E+01  0.51100000000E-03 0. -1.
        -11    1    3    3    0    0 -0.23183307920E+01 -0.75201144126E+00 -0.19446192116E+01  0.31179677689E+01  0.51100000000E-03 0.  1.
        -12    1    3    3    0    0 -0.19932842544E+02  0.24624372051E+02  0.23153812591E+02  0.39239991696E+02  0.00000000000E+00 0.  1.
</event>
<event>
 7    1  0.2412036E-009  0.4778727E+02  0.7816164E-02  0.1312668E+00
        -11   -1    0    0    0    0  0.00000000000E+00  0.00000000000E+00  0.45593999997E+02  0.45594000000E+02  0.51100000000E-03 0.  1.
         11   -1    0    0    0    0 -0.00000000000E+00 -0.00000000000E+00 -0.45593999997E+02  0.45594000000E+02  0.51100000000E-03 0. -1.
    9900012    2    1    2    0    0  0.54666433193E+01  0.21237645933E+02  0.37452653153E+02  0.47787273945E+02  0.20000013224E+02 0.  0.
         12    1    1    2    0    0 -0.54666433193E+01 -0.21237645933E+02 -0.37452653153E+02  0.43400726055E+02  0.00000000000E+00 0. -1.
         11    1    3    3    0    0  0.48102518908E+01  0.18390402293E+02  0.27052878835E+02  0.33063630673E+02  0.51100000000E-03 0. -1.
        -11    1    3    3    0    0  0.62480572651E+00  0.59832251588E+01  0.98469634196E+01  0.11539153103E+02  0.51100000000E-03 0.  1.
         12    1    3    3    0    0  0.31585702012E-01 -0.31359815188E+01  0.55281089772E+00  0.31844901682E+01  0.00000000000E+00 0. -1.
</event>
<event>
 7    1  0.2412036E-009  0.4778727E+02  0.7816164E-02  0.1312668E+00
        -11   -1    0    0    0    0  0.00000000000E+00  0.00000000000E+00  0.45593999997E+02  0.45594000000E+02  0.51100000000E-03 0. -1.
         11   -1    0    0    0    0 -0.00000000000E+00 -0.00000000000E+00 -0.45593999997E+02  0.45594000000E+02  0.51100000000E-03 0.  1.
    9900012    2    1    2    0    0 -0.16399034969E+02  0.11434068974E+02 -0.38522166871E+02  0.47787267038E+02  0.19999981732E+02 0.  0.
         12    1    1    2    0    0  0.16399034969E+02 -0.11434068974E+02  0.38522166871E+02  0.43400732962E+02  0.00000000000E+00 0. -1.
         11    1    3    3    0    0 -0.19289104361E+02  0.10210695801E+02 -0.28665199588E+02  0.36028065774E+02  0.51100000000E-03 0. -1.
        -11    1    3    3    0    0  0.29016016418E+01 -0.16130718629E+01 -0.36447639059E+01  0.49300707007E+01  0.51100000000E-03 0.  1.
         12    1    3    3    0    0 -0.11532249573E-01  0.28364450367E+01 -0.62122033775E+01  0.68291305627E+01  0.00000000000E+00 0. -1.
</event>
<event>
 7    1  0.2412036E-009  0.4778727E+02  0.7816164E-02  0.1312668E+00
        -11   -1    0    0    0    0  0.00000000000E+00  0.00000000000E+00  0.45593999997E+02  0.45594000000E+02  0.51100000000E-03 0.  1.
         11   -1    0    0    0    0 -0.00000000000E+00 -0.00000000000E+00 -0.45593999997E+02  0.45594000000E+02  0.51100000000E-03 0. -1.
    9900012    2    1    2    0    0  0.30213695876E+02  0.11363726327E+02  0.29010723325E+02  0.47787265417E+02  0.19999974340E+02 0.  0.
         12    1    1    2    0    0 -0.30213695876E+02 -0.11363726327E+02 -0.29010723325E+02  0.43400734583E+02  0.00000000000E+00 0. -1.
         11    1    3    3    0    0  0.34093434295E+01 -0.22255648144E+01  0.74758261581E+01  0.85126222969E+01  0.51100000000E-03 0. -1.
        -11    1    3    3    0    0  0.63414753328E+01  0.99990639393E+01  0.56339622221E+01  0.13112479538E+02  0.51100000000E-03 0.  1.
        -12    1    3    3    0    0  0.20462877114E+02  0.35902272020E+01  0.15900934945E+02  0.26162163581E+02  0.00000000000E+00 0.  1.
</event>
<event>
 7    1  0.2412036E-009  0.4778728E+02  0.7816164E-02  0.1312668E+00
        -11   -1    0    0    0    0  0.00000000000E+00  0.00000000000E+00  0.45593999997E+02  0.45594000000E+02  0.51100000000E-03 0.  1.
         11   -1    0    0    0    0 -0.00000000000E+00 -0.00000000000E+00 -0.45593999997E+02  0.45594000000E+02  0.51100000000E-03 0. -1.
    9900012    2    1    2    0    0 -0.41661689693E+02  0.11113043693E+02  0.49423102054E+01  0.47787279288E+02  0.20000037585E+02 0.  0.
         12    1    1    2    0    0  0.41661689693E+02 -0.11113043693E+02 -0.49423102054E+01  0.43400720712E+02  0.00000000000E+00 0. -1.
         11    1    3    3    0    0 -0.99147578822E+01  0.11354257654E+02  0.31228726403E+00  0.15077105635E+02  0.51100000000E-03 0. -1.
        -11    1    3    3    0    0 -0.19462177664E+02  0.14423473003E+01  0.12017330080E+00  0.19515920860E+02  0.51100000000E-03 0.  1.
         12    1    3    3    0    0 -0.12284754147E+02 -0.16835612615E+01  0.45098496405E+01  0.13194252792E+02  0.00000000000E+00 0. -1.
</event>
<event>
 7    1  0.2412036E-009  0.4778727E+02  0.7816164E-02  0.1312668E+00
        -11   -1    0    0    0    0  0.00000000000E+00  0.00000000000E+00  0.45593999997E+02  0.45594000000E+02  0.51100000000E-03 0.  1.
         11   -1    0    0    0    0 -0.00000000000E+00 -0.00000000000E+00 -0.45593999997E+02  0.45594000000E+02  0.51100000000E-03 0. -1.
    9900012    2    1    2    0    0 -0.41055549791E+02 -0.96127232367E+01  0.10279133743E+02  0.47787271813E+02  0.20000003502E+02 0.  0.
         12    1    1    2    0    0  0.41055549791E+02  0.96127232367E+01 -0.10279133743E+02  0.43400728187E+02  0.00000000000E+00 0. -1.
         11    1    3    3    0    0 -0.58664424073E+01 -0.36431548917E+01  0.81264525244E+01  0.10664284082E+02  0.51100000000E-03 0. -1.
        -11    1    3    3    0    0 -0.20220353374E+02 -0.75776465839E+01  0.39809753970E+01  0.21957494932E+02  0.51100000000E-03 0.  1.
         12    1    3    3    0    0 -0.14968754009E+02  0.16080782389E+01 -0.18282941780E+01  0.15165492798E+02  0.00000000000E+00 0. -1.
</event>
<event>
 7    1  0.2412036E-009  0.4778727E+02  0.7816164E-02  0.1312668E+00
        -11   -1    0    0    0    0  0.00000000000E+00  0.00000000000E+00  0.45593999997E+02  0.45594000000E+02  0.51100000000E-03 0. -1.
         11   -1    0    0    0    0 -0.00000000000E+00 -0.00000000000E+00 -0.45593999997E+02  0.45594000000E+02  0.51100000000E-03 0.  1.
    9900012    2    1    2    0    0  0.17475545410E+02 -0.39653473366E+02 -0.24147059742E+01  0.47787269104E+02  0.19999991152E+02 0.  0.
         12    1    1    2    0    0 -0.17475545410E+02  0.39653473366E+02  0.24147059742E+01  0.43400730896E+02  0.00000000000E+00 0. -1.
         11    1    3    3    0    0  0.67905062839E+01 -0.41357424766E+01 -0.26942956987E+00  0.79553713917E+01  0.51100000000E-03 0. -1.
        -11    1    3    3    0    0  0.94039171204E+00 -0.25274032793E+02  0.11389681926E+01  0.25317154639E+02  0.51100000000E-03 0.  1.
        -12    1    3    3    0    0  0.97446474140E+01 -0.10243698097E+02 -0.32842445969E+01  0.14514743074E+02  0.00000000000E+00 0.  1.
</event>
<event>
 7    1  0.2412036E-009  0.4778727E+02  0.7816164E-02  0.1312668E+00
        -11   -1    0    0    0    0  0.00000000000E+00  0.00000000000E+00  0.45593999997E+02  0.45594000000E+02  0.51100000000E-03 0. -1.
         11   -1    0    0    0    0 -0.00000000000E+00 -0.00000000000E+00 -0.45593999997E+02  0.45594000000E+02  0.51100000000E-03 0.  1.
    9900012    2    1    2    0    0  0.38481711343E+02  0.17986948786E+02 -0.89022876436E+01  0.47787272359E+02  0.20000005992E+02 0.  0.
         12    1    1    2    0    0 -0.38481711343E+02 -0.17986948786E+02  0.89022876436E+01  0.43400727641E+02  0.00000000000E+00 0. -1.
         11    1    3    3    0    0  0.63104152625E+01  0.15934082805E+01 -0.86667334136E+01  0.10838475864E+02  0.51100000000E-03 0. -1.
        -11    1    3    3    0    0  0.30592638461E+01  0.16963677150E+01 -0.24364732859E+01  0.42629990662E+01  0.51100000000E-03 0.  1.
         12    1    3    3    0    0  0.29112032234E+02  0.14697172790E+02  0.22009190559E+01  0.32685797428E+02  0.00000000000E+00 0. -1.
</event>
<event>
 7    1  0.2412036E-009  0.4778727E+02  0.7816164E-02  0.1312668E+00
        -11   -1    0    0    0    0  0.00000000000E+00  0.00000000000E+00  0.45593999997E+02  0.45594000000E+02  0.51100000000E-03 0.  1.
         11   -1    0    0    0    0 -0.00000000000E+00 -0.00000000000E+00 -0.45593999997E+02  0.45594000000E+02  0.51100000000E-03 0. -1.
    9900012    2    1    2    0    0 -0.21344211572E+01 -0.18205621178E+02  0.39339838371E+02  0.47787270983E+02  0.19999999721E+02 0.  0.
         12    1    1    2    0    0  0.21344211572E+01  0.18205621178E+02 -0.39339838371E+02  0.43400729017E+02  0.00000000000E+00 0. -1.
         11    1    3    3    0    0  0.18797876809E+01 -0.91848044376E+01  0.25932525095E+02  0.27575171664E+02  0.51100000000E-03 0.  1.
        -11    1    3    3    0    0 -0.16035948714E+01 -0.84753078515E+01  0.24320523183E+01  0.89619885310E+01  0.51100000000E-03 0. -1.
        -12    1    3    3    0    0 -0.24106139667E+01 -0.54550888873E+00  0.10975260958E+02  0.11250110788E+02  0.00000000000E+00 0.  1.
</event>
<event>
 7    1  0.2412036E-009  0.4778727E+02  0.7816164E-02  0.1312668E+00
        -11   -1    0    0    0    0  0.00000000000E+00  0.00000000000E+00  0.45593999997E+02  0.45594000000E+02  0.51100000000E-03 0.  1.
         11   -1    0    0    0    0 -0.00000000000E+00 -0.00000000000E+00 -0.45593999997E+02  0.45594000000E+02  0.51100000000E-03 0. -1.
    9900012    2    1    2    0    0 -0.54797324526E+01 -0.16542744415E+02  0.39748375943E+02  0.47787271312E+02  0.20000001221E+02 0.  0.
         12    1    1    2    0    0  0.54797324526E+01  0.16542744415E+02 -0.39748375943E+02  0.43400728688E+02  0.00000000000E+00 0. -1.
         11    1    3    3    0    0 -0.80497856029E+01 -0.23685123063E+01  0.17827744293E+02  0.19703739890E+02  0.51100000000E-03 0. -1.
        -11    1    3    3    0    0 -0.46946456664E+00  0.14818026671E+01  0.13816306791E+01  0.20796729834E+01  0.51100000000E-03 0.  1.
         12    1    3    3    0    0  0.30395177169E+01 -0.15656034775E+02  0.20539000971E+02  0.26003858439E+02  0.00000000000E+00 0. -1.
</event>
<event>
 7    1  0.2412036E-009  0.4778727E+02  0.7816164E-02  0.1312668E+00
        -11   -1    0    0    0    0  0.00000000000E+00  0.00000000000E+00  0.45593999997E+02  0.45594000000E+02  0.51100000000E-03 0.  1.
         11   -1    0    0    0    0 -0.00000000000E+00 -0.00000000000E+00 -0.45593999997E+02  0.45594000000E+02  0.51100000000E-03 0. -1.
    9900012    2    1    2    0    0  0.17462354249E+01 -0.79029622772E+01  0.42639386260E+02  0.47787269459E+02  0.19999992770E+02 0.  0.
         12    1    1    2    0    0 -0.17462354249E+01  0.79029622772E+01 -0.42639386260E+02  0.43400730541E+02  0.00000000000E+00 0. -1.
         11    1    3    3    0    0  0.72459975009E+01 -0.40512222044E+01  0.94444757340E+01  0.12574378843E+02  0.51100000000E-03 0. -1.
        -11    1    3    3    0    0 -0.62202292509E+01 -0.60181537780E+01  0.30378294575E+02  0.31587184242E+02  0.51100000000E-03 0.  1.
        -12    1    3    3    0    0  0.72046717485E+00  0.21664137052E+01  0.28166159509E+01  0.36257063735E+01  0.00000000000E+00 0.  1.
</event>
<event>
 7    1  0.2412036E-009  0.4778727E+02  0.7816164E-02  0.1312668E+00
        -11   -1    0    0    0    0  0.00000000000E+00  0.00000000000E+00  0.45593999997E+02  0.45594000000E+02  0.51100000000E-03 0.  1.
         11   -1    0    0    0    0 -0.00000000000E+00 -0.00000000000E+00 -0.45593999997E+02  0.45594000000E+02  0.51100000000E-03 0. -1.
    9900012    2    1    2    0    0  0.21551870412E+02  0.37615328033E+02  0.20560182301E+01  0.47787271524E+02  0.20000002186E+02 0.  0.
         12    1    1    2    0    0 -0.21551870412E+02 -0.37615328033E+02 -0.20560182301E+01  0.43400728476E+02  0.00000000000E+00 0. -1.
         11    1    3    3    0    0  0.21889731872E+02  0.31588486022E+02 -0.21905628108E+01  0.38494043387E+02  0.51100000000E-03 0. -1.
        -11    1    3    3    0    0 -0.22392716875E+01  0.23466760490E+01 -0.15710959546E+00  0.32474466671E+01  0.51100000000E-03 0.  1.
         12    1    3    3    0    0  0.19014102277E+01  0.36801659622E+01  0.44036906363E+01  0.60457814700E+01  0.00000000000E+00 0. -1.
</event>
<event>
 7    1  0.2412036E-009  0.4778727E+02  0.7816164E-02  0.1312668E+00
        -11   -1    0    0    0    0  0.00000000000E+00  0.00000000000E+00  0.45593999997E+02  0.45594000000E+02  0.51100000000E-03 0.  1.
         11   -1    0    0    0    0 -0.00000000000E+00 -0.00000000000E+00 -0.45593999997E+02  0.45594000000E+02  0.51100000000E-03 0. -1.
    9900012    2    1    2    0    0  0.18902699430E+02 -0.37142953288E+02  0.12112479269E+02  0.47787272140E+02  0.20000004996E+02 0.  0.
         12    1    1    2    0    0 -0.18902699430E+02  0.37142953288E+02 -0.12112479269E+02  0.43400727860E+02  0.00000000000E+00 0. -1.
         11    1    3    3    0    0 -0.17031833956E+01 -0.23512432659E+01 -0.19824843851E+00  0.29100655111E+01  0.51100000000E-03 0. -1.
        -11    1    3    3    0    0  0.19448806958E+02 -0.19143389887E+02  0.97471049132E+01  0.28978121452E+02  0.51100000000E-03 0.  1.
        -12    1    3    3    0    0  0.11570758678E+01 -0.15648320135E+02  0.25636227946E+01  0.15899085177E+02  0.00000000000E+00 0.  1.
</event>
<event>
 7    1  0.2412036E-009  0.4778726E+02  0.7816164E-02  0.1312668E+00
        -11   -1    0    0    0    0  0.00000000000E+00  0.00000000000E+00  0.45593999997E+02  0.45594000000E+02  0.51100000000E-03 0. -1.
         11   -1    0    0    0    0 -0.00000000000E+00 -0.00000000000E+00 -0.45593999997E+02  0.45594000000E+02  0.51100000000E-03 0.  1.
    9900012    2    1    2    0    0  0.39798412226E+02  0.95748597699E+01 -0.14423339202E+02  0.47787259580E+02  0.19999947729E+02 0.  0.
         12    1    1    2    0    0 -0.39798412226E+02 -0.95748597699E+01  0.14423339202E+02  0.43400740420E+02  0.00000000000E+00 0. -1.
         11    1    3    3    0    0  0.23671081224E+02 -0.22545259677E+01 -0.79902678610E+01  0.25084803256E+02  0.51100000000E-03 0.  1.
        -11    1    3    3    0    0  0.31043961733E+01  0.73015331776E+01 -0.30960526242E+01  0.85167602090E+01  0.51100000000E-03 0. -1.
        -12    1    3    3    0    0  0.13022934828E+02  0.45278525601E+01 -0.33370187165E+01  0.14185696115E+02  0.00000000000E+00 0.  1.
</event>
<event>
 7    1  0.2412036E-009  0.4778726E+02  0.7816164E-02  0.1312668E+00
        -11   -1    0    0    0    0  0.00000000000E+00  0.00000000000E+00  0.45593999997E+02  0.45594000000E+02  0.51100000000E-03 0.  1.
         11   -1    0    0    0    0 -0.00000000000E+00 -0.00000000000E+00 -0.45593999997E+02  0.45594000000E+02  0.51100000000E-03 0. -1.
    9900012    2    1    2    0    0  0.43131754112E+02 -0.45796354259E+01 -0.15174253852E+01  0.47787264371E+02  0.19999969571E+02 0.  0.
         12    1    1    2    0    0 -0.43131754112E+02  0.45796354259E+01  0.15174253852E+01  0.43400735629E+02  0.00000000000E+00 0. -1.
         11    1    3    3    0    0  0.13838571925E+02 -0.33106991649E+01 -0.31128744499E+01  0.14565602957E+02  0.51100000000E-03 0. -1.
        -11    1    3    3    0    0  0.23181147796E+02 -0.61462592031E+01  0.53127071629E+01  0.24563529326E+02  0.51100000000E-03 0.  1.
        -12    1    3    3    0    0  0.61120343909E+01  0.48773229421E+01 -0.37172580982E+01  0.86581320876E+01  0.00000000000E+00 0.  1.
</event>
<event>
 7    1  0.2412036E-009  0.4778727E+02  0.7816164E-02  0.1312668E+00
        -11   -1    0    0    0    0  0.00000000000E+00  0.00000000000E+00  0.45593999997E+02  0.45594000000E+02  0.51100000000E-03 0. -1.
         11   -1    0    0    0    0 -0.00000000000E+00 -0.00000000000E+00 -0.45593999997E+02  0.45594000000E+02  0.51100000000E-03 0.  1.
    9900012    2    1    2    0    0  0.32643470138E+02  0.25616429862E+02 -0.12721066583E+02  0.47787272396E+02  0.20000006162E+02 0.  0.
         12    1    1    2    0    0 -0.32643470138E+02 -0.25616429862E+02  0.12721066583E+02  0.43400727604E+02  0.00000000000E+00 0. -1.
         11    1    3    3    0    0 -0.16846664801E+01  0.15923921451E+01 -0.40580623542E+01  0.46735087702E+01  0.51100000000E-03 0. -1.
        -11    1    3    3    0    0  0.17618882013E+02  0.93991886780E+01 -0.52467041082E+01  0.20646976909E+02  0.51100000000E-03 0.  1.
         12    1    3    3    0    0  0.16709254605E+02  0.14624849039E+02 -0.34163001202E+01  0.22466786717E+02  0.00000000000E+00 0. -1.
</event>
<event>
 7    1  0.2412036E-009  0.4778732E+02  0.7816164E-02  0.1312668E+00
        -11   -1    0    0    0    0  0.00000000000E+00  0.00000000000E+00  0.45593999997E+02  0.45594000000E+02  0.51100000000E-03 0.  1.
         11   -1    0    0    0    0 -0.00000000000E+00 -0.00000000000E+00 -0.45593999997E+02  0.45594000000E+02  0.51100000000E-03 0. -1.
    9900012    2    1    2    0    0 -0.14420349703E+02  0.40132479525E+02  0.80657559624E+01  0.47787322383E+02  0.20000234070E+02 0.  0.
         12    1    1    2    0    0  0.14420349703E+02 -0.40132479525E+02 -0.80657559624E+01  0.43400677617E+02  0.00000000000E+00 0. -1.
         11    1    3    3    0    0 -0.82759868314E+01  0.46867355288E+01 -0.12472530410E+01  0.95923453003E+01  0.51100000000E-03 0.  1.
        -11    1    3    3    0    0 -0.15171865177E+00  0.23727277228E+02  0.43195863244E+01  0.24117743043E+02  0.51100000000E-03 0. -1.
        -12    1    3    3    0    0 -0.59926442201E+01  0.11718466768E+02  0.49934226790E+01  0.14077234039E+02  0.00000000000E+00 0.  1.
</event>
<event>
 7    1  0.2412036E-009  0.4778727E+02  0.7816164E-02  0.1312668E+00
        -11   -1    0    0    0    0  0.00000000000E+00  0.00000000000E+00  0.45593999997E+02  0.45594000000E+02  0.51100000000E-03 0. -1.
         11   -1    0    0    0    0 -0.00000000000E+00 -0.00000000000E+00 -0.45593999997E+02  0.45594000000E+02  0.51100000000E-03 0.  1.
    9900012    2    1    2    0    0 -0.28580781022E+02  0.30126272289E+02  0.12616262451E+02  0.47787269544E+02  0.19999993160E+02 0.  0.
         12    1    1    2    0    0  0.28580781022E+02 -0.30126272289E+02 -0.12616262451E+02  0.43400730456E+02  0.00000000000E+00 0. -1.
         11    1    3    3    0    0 -0.22294783150E+02  0.30839104710E+02  0.14691227753E+02  0.40791419541E+02  0.51100000000E-03 0. -1.
        -11    1    3    3    0    0 -0.17567229964E+01 -0.11587160359E+01 -0.94272652560E+00  0.23059557891E+01  0.51100000000E-03 0.  1.
         12    1    3    3    0    0 -0.45292748753E+01  0.44588361506E+00 -0.11322387757E+01  0.46898942141E+01  0.00000000000E+00 0. -1.
</event>
<event>
 7    1  0.2412036E-009  0.4778729E+02  0.7816164E-02  0.1312668E+00
        -11   -1    0    0    0    0  0.00000000000E+00  0.00000000000E+00  0.45593999997E+02  0.45594000000E+02  0.51100000000E-03 0.  1.
         11   -1    0    0    0    0 -0.00000000000E+00 -0.00000000000E+00 -0.45593999997E+02  0.45594000000E+02  0.51100000000E-03 0. -1.
    9900012    2    1    2    0    0 -0.29584186273E+02  0.29166566768E+02  0.12558210313E+02  0.47787293315E+02  0.20000101542E+02 0.  0.
         12    1    1    2    0    0  0.29584186273E+02 -0.29166566768E+02 -0.12558210313E+02  0.43400706685E+02  0.00000000000E+00 0. -1.
         11    1    3    3    0    0 -0.15026510544E+02  0.13751756469E+02  0.15761134523E+02  0.25755003142E+02  0.51100000000E-03 0. -1.
        -11    1    3    3    0    0 -0.12454861292E+02  0.10470717027E+02 -0.12640762731E+01  0.16320458754E+02  0.51100000000E-03 0.  1.
        -12    1    3    3    0    0 -0.21028144364E+01  0.49440932719E+01 -0.19388479376E+01  0.57118314191E+01  0.00000000000E+00 0.  1.
</event>
<event>
 7    1  0.2412036E-009  0.4778727E+02  0.7816164E-02  0.1312668E+00
        -11   -1    0    0    0    0  0.00000000000E+00  0.00000000000E+00  0.45593999997E+02  0.45594000000E+02  0.51100000000E-03 0. -1.
         11   -1    0    0    0    0 -0.00000000000E+00 -0.00000000000E+00 -0.45593999997E+02  0.45594000000E+02  0.51100000000E-03 0.  1.
    9900012    2    1    2    0    0 -0.22707428216E+02  0.10449914980E+01 -0.36971664561E+02  0.47787270930E+02  0.19999999479E+02 0.  0.
         12    1    1    2    0    0  0.22707428216E+02 -0.10449914980E+01  0.36971664561E+02  0.43400729070E+02  0.00000000000E+00 0. -1.
         11    1    3    3    0    0 -0.48728431214E+01 -0.51717934625E+01 -0.11402638452E+02  0.13435483304E+02  0.51100000000E-03 0. -1.
        -11    1    3    3    0    0 -0.19716088356E+02  0.55170855233E+01 -0.24899220422E+02  0.32235594467E+02  0.51100000000E-03 0.  1.
        -12    1    3    3    0    0  0.18815032619E+01  0.69969943726E+00 -0.66980568679E+00  0.21161931587E+01  0.00000000000E+00 0.  1.
</event>
<event>
 7    1  0.2412036E-009  0.4778728E+02  0.7816164E-02  0.1312668E+00
        -11   -1    0    0    0    0  0.00000000000E+00  0.00000000000E+00  0.45593999997E+02  0.45594000000E+02  0.51100000000E-03 0.  1.
         11   -1    0    0    0    0 -0.00000000000E+00 -0.00000000000E+00 -0.45593999997E+02  0.45594000000E+02  0.51100000000E-03 0. -1.
    9900012    2    1    2    0    0  0.77069433237E+01 -0.42650763125E+02  0.22666656797E+01  0.47787281759E+02  0.20000048852E+02 0.  0.
         12    1    1    2    0    0 -0.77069433237E+01  0.42650763125E+02 -0.22666656797E+01  0.43400718241E+02  0.00000000000E+00 0. -1.
         11    1    3    3    0    0  0.14825009818E+01 -0.29181596530E+02 -0.39718082783E+01  0.29487940695E+02  0.51100000000E-03 0. -1.
        -11    1    3    3    0    0  0.49672043621E+01 -0.64836000835E+01  0.75018332944E+01  0.11089981617E+02  0.51100000000E-03 0.  1.
        -12    1    3    3    0    0  0.12572379799E+01 -0.69855665115E+01 -0.12633593364E+01  0.72093594471E+01  0.00000000000E+00 0.  1.
</event>
<event>
 7    1  0.2412036E-009  0.4778727E+02  0.7816164E-02  0.1312668E+00
        -11   -1    0    0    0    0  0.00000000000E+00  0.00000000000E+00  0.45593999997E+02  0.45594000000E+02  0.51100000000E-03 0. -1.
         11   -1    0    0    0    0 -0.00000000000E+00 -0.00000000000E+00 -0.45593999997E+02  0.45594000000E+02  0.51100000000E-03 0.  1.
    9900012    2    1    2    0    0 -0.21620177524E+02 -0.25352255985E+02  0.27811043310E+02  0.47787273166E+02  0.20000009675E+02 0.  0.
         12    1    1    2    0    0  0.21620177524E+02  0.25352255985E+02 -0.27811043310E+02  0.43400726834E+02  0.00000000000E+00 0. -1.
         11    1    3    3    0    0 -0.13795150448E+02 -0.23037359796E+02  0.28181473881E+02  0.38925847359E+02  0.51100000000E-03 0. -1.
        -11    1    3    3    0    0 -0.78320053779E+01 -0.28256159820E+01 -0.47653401877E+00  0.83397541241E+01  0.51100000000E-03 0.  1.
        -12    1    3    3    0    0  0.69783015230E-02  0.51071979301E+00  0.10610344740E+00  0.52167168336E+00  0.00000000000E+00 0.  1.
</event>
<event>
 7    1  0.2412036E-009  0.4778727E+02  0.7816164E-02  0.1312668E+00
        -11   -1    0    0    0    0  0.00000000000E+00  0.00000000000E+00  0.45593999997E+02  0.45594000000E+02  0.51100000000E-03 0.  1.
         11   -1    0    0    0    0 -0.00000000000E+00 -0.00000000000E+00 -0.45593999997E+02  0.45594000000E+02  0.51100000000E-03 0. -1.
    9900012    2    1    2    0    0  0.28020431170E+02  0.32801705915E+02 -0.47462096469E+01  0.47787274431E+02  0.20000015440E+02 0.  0.
         12    1    1    2    0    0 -0.28020431170E+02 -0.32801705915E+02  0.47462096469E+01  0.43400725569E+02  0.00000000000E+00 0. -1.
         11    1    3    3    0    0  0.22344005485E+01 -0.17896691287E+01 -0.35827165912E+01  0.45859916960E+01  0.51100000000E-03 0. -1.
        -11    1    3    3    0    0  0.20570570666E+02  0.28030787871E+02 -0.16319054093E+01  0.34807133776E+02  0.51100000000E-03 0.  1.
         12    1    3    3    0    0  0.52154599561E+01  0.65605871734E+01  0.46841235360E+00  0.83941489590E+01  0.00000000000E+00 0. -1.
</event>
<event>
 7    1  0.2412036E-009  0.4778725E+02  0.7816164E-02  0.1312668E+00
        -11   -1    0    0    0    0  0.00000000000E+00  0.00000000000E+00  0.45593999997E+02  0.45594000000E+02  0.51100000000E-03 0. -1.
         11   -1    0    0    0    0 -0.00000000000E+00 -0.00000000000E+00 -0.45593999997E+02  0.45594000000E+02  0.51100000000E-03 0.  1.
    9900012    2    1    2    0    0  0.25756255863E+02  0.34502804086E+02 -0.54586628692E+01  0.47787248783E+02  0.19999898500E+02 0.  0.
         12    1    1    2    0    0 -0.25756255863E+02 -0.34502804086E+02  0.54586628692E+01  0.43400751217E+02  0.00000000000E+00 0. -1.
         11    1    3    3    0    0  0.18068812739E+02  0.13496333796E+02  0.16857537584E+01  0.22615808315E+02  0.51100000000E-03 0. -1.
        -11    1    3    3    0    0  0.72582444635E+01  0.19761579072E+02 -0.35579863462E+01  0.21350910688E+02  0.51100000000E-03 0.  1.
        -12    1    3    3    0    0  0.42919866016E+00  0.12448912180E+01 -0.35864302814E+01  0.38205297798E+01  0.00000000000E+00 0.  1.
</event>
<event>
 7    1  0.2412036E-009  0.4778727E+02  0.7816164E-02  0.1312668E+00
        -11   -1    0    0    0    0  0.00000000000E+00  0.00000000000E+00  0.45593999997E+02  0.45594000000E+02  0.51100000000E-03 0. -1.
         11   -1    0    0    0    0 -0.00000000000E+00 -0.00000000000E+00 -0.45593999997E+02  0.45594000000E+02  0.51100000000E-03 0.  1.
    9900012    2    1    2    0    0  0.98170742118E+00 -0.31890440908E+02 -0.29422086178E+02  0.47787272750E+02  0.20000007776E+02 0.  0.
         12    1    1    2    0    0 -0.98170742118E+00  0.31890440908E+02  0.29422086178E+02  0.43400727250E+02  0.00000000000E+00 0. -1.
         11    1    3    3    0    0 -0.17424979484E+01  0.11073175364E+01 -0.52676396009E+01  0.56577803468E+01  0.51100000000E-03 0. -1.
        -11    1    3    3    0    0 -0.20159903000E+01 -0.50926958577E+01 -0.75046493197E+01  0.92908304075E+01  0.51100000000E-03 0.  1.
         12    1    3    3    0    0  0.47401956696E+01 -0.27905062586E+02 -0.16649797258E+02  0.32838661996E+02  0.00000000000E+00 0. -1.
</event>
<event>
 7    1  0.2412036E-009  0.4778727E+02  0.7816164E-02  0.1312668E+00
        -11   -1    0    0    0    0  0.00000000000E+00  0.00000000000E+00  0.45593999997E+02  0.45594000000E+02  0.51100000000E-03 0.  1.
         11   -1    0    0    0    0 -0.00000000000E+00 -0.00000000000E+00 -0.45593999997E+02  0.45594000000E+02  0.51100000000E-03 0. -1.
    9900012    2    1    2    0    0  0.65868970734E+01  0.33866582389E+02  0.26330416387E+02  0.47787269097E+02  0.19999991121E+02 0.  0.
         12    1    1    2    0    0 -0.65868970734E+01 -0.33866582389E+02 -0.26330416387E+02  0.43400730903E+02  0.00000000000E+00 0. -1.
         11    1    3    3    0    0 -0.19082802131E+01 -0.13307519555E+01 -0.83716885175E+00  0.24725060336E+01  0.51100000000E-03 0. -1.
        -11    1    3    3    0    0  0.75410237907E+01  0.29114706247E+02  0.23284669391E+02  0.38035627884E+02  0.51100000000E-03 0.  1.
         12    1    3    3    0    0  0.95415349593E+00  0.60826280983E+01  0.38829158478E+01  0.72791351792E+01  0.00000000000E+00 0. -1.
</event>
<event>
 7    1  0.2412036E-009  0.4778725E+02  0.7816164E-02  0.1312668E+00
        -11   -1    0    0    0    0  0.00000000000E+00  0.00000000000E+00  0.45593999997E+02  0.45594000000E+02  0.51100000000E-03 0. -1.
         11   -1    0    0    0    0 -0.00000000000E+00 -0.00000000000E+00 -0.45593999997E+02  0.45594000000E+02  0.51100000000E-03 0.  1.
    9900012    2    1    2    0    0 -0.30669428141E+02  0.28613039955E+02 -0.11149210598E+02  0.47787253751E+02  0.19999921154E+02 0.  0.
         12    1    1    2    0    0  0.30669428141E+02 -0.28613039955E+02  0.11149210598E+02  0.43400746249E+02  0.00000000000E+00 0. -1.
         11    1    3    3    0    0 -0.10010346277E+02  0.42806815389E+01  0.31242616061E+01  0.11326618113E+02  0.51100000000E-03 0. -1.
        -11    1    3    3    0    0 -0.73817262092E+01  0.22127892221E+01 -0.24908984852E+01  0.80988205002E+01  0.51100000000E-03 0.  1.
         12    1    3    3    0    0 -0.13277355655E+02  0.22119569194E+02 -0.11782573719E+02  0.28361815138E+02  0.00000000000E+00 0. -1.
</event>
<event>
 7    1  0.2412036E-009  0.4778729E+02  0.7816164E-02  0.1312668E+00
        -11   -1    0    0    0    0  0.00000000000E+00  0.00000000000E+00  0.45593999997E+02  0.45594000000E+02  0.51100000000E-03 0.  1.
         11   -1    0    0    0    0 -0.00000000000E+00 -0.00000000000E+00 -0.45593999997E+02  0.45594000000E+02  0.51100000000E-03 0. -1.
    9900012    2    1    2    0    0  0.11969127246E+02 -0.13669579642E+02  0.39414515822E+02  0.47787291802E+02  0.20000094641E+02 0.  0.
         12    1    1    2    0    0 -0.11969127246E+02  0.13669579642E+02 -0.39414515822E+02  0.43400708198E+02  0.00000000000E+00 0. -1.
         11    1    3    3    0    0  0.15129072990E+02 -0.62349977014E+01  0.17245038902E+02  0.23772997557E+02  0.51100000000E-03 0. -1.
        -11    1    3    3    0    0 -0.83179664170E+00 -0.42283621266E+01  0.16782918576E+02  0.17327356640E+02  0.51100000000E-03 0.  1.
         12    1    3    3    0    0 -0.23281491022E+01 -0.32062198138E+01  0.53865583437E+01  0.66869376045E+01  0.00000000000E+00 0. -1.
</event>
<event>
 7    1  0.2412036E-009  0.4778728E+02  0.7816164E-02  0.1312668E+00
        -11   -1    0    0    0    0  0.00000000000E+00  0.00000000000E+00  0.45593999997E+02  0.45594000000E+02  0.51100000000E-03 0.  1.
         11   -1    0    0    0    0 -0.00000000000E+00 -0.00000000000E+00 -0.45593999997E+02  0.45594000000E+02  0.51100000000E-03 0. -1.
    9900012    2    1    2    0    0 -0.35916731601E+02  0.14561148289E+02  0.19534177326E+02  0.47787277285E+02  0.20000028455E+02 0.  0.
         12    1    1    2    0    0  0.35916731601E+02 -0.14561148289E+02 -0.19534177326E+02  0.43400722715E+02  0.00000000000E+00 0. -1.
         11    1    3    3    0    0 -0.69201441537E+00 -0.12265701604E+01 -0.24116846509E+01  0.27927730710E+01  0.51100000000E-03 0. -1.
        -11    1    3    3    0    0 -0.23925305666E+02  0.10689668230E+02  0.10865869507E+02  0.28368228328E+02  0.51100000000E-03 0.  1.
        -12    1    3    3    0    0 -0.11299411519E+02  0.50980502192E+01  0.11079992469E+02  0.16626275886E+02  0.00000000000E+00 0.  1.
</event>
<event>
 7    1  0.2412036E-009  0.4778727E+02  0.7816164E-02  0.1312668E+00
        -11   -1    0    0    0    0  0.00000000000E+00  0.00000000000E+00  0.45593999997E+02  0.45594000000E+02  0.51100000000E-03 0. -1.
         11   -1    0    0    0    0 -0.00000000000E+00 -0.00000000000E+00 -0.45593999997E+02  0.45594000000E+02  0.51100000000E-03 0.  1.
    9900012    2    1    2    0    0  0.37766425111E+02  0.93361429156E+01 -0.19239463498E+02  0.47787269754E+02  0.19999994117E+02 0.  0.
         12    1    1    2    0    0 -0.37766425111E+02 -0.93361429156E+01  0.19239463498E+02  0.43400730246E+02  0.00000000000E+00 0. -1.
         11    1    3    3    0    0  0.95748997438E+01  0.14637135831E+01  0.29578503506E+01  0.10127686879E+02  0.51100000000E-03 0. -1.
        -11    1    3    3    0    0  0.31015466259E+00  0.18083884764E+01 -0.83628032766E+00  0.20163903005E+01  0.51100000000E-03 0.  1.
         12    1    3    3    0    0  0.27881370704E+02  0.60640408562E+01 -0.21361033521E+02  0.35643192575E+02  0.00000000000E+00 0. -1.
</event>
<event>
 7    1  0.2412036E-009  0.4778727E+02  0.7816164E-02  0.1312668E+00
        -11   -1    0    0    0    0  0.00000000000E+00  0.00000000000E+00  0.45593999997E+02  0.45594000000E+02  0.51100000000E-03 0.  1.
         11   -1    0    0    0    0 -0.00000000000E+00 -0.00000000000E+00 -0.45593999997E+02  0.45594000000E+02  0.51100000000E-03 0. -1.
    9900012    2    1    2    0    0  0.23349750336E+02  0.35006641111E+02  0.10627679816E+02  0.47787270272E+02  0.19999996480E+02 0.  0.
         12    1    1    2    0    0 -0.23349750336E+02 -0.35006641111E+02 -0.10627679816E+02  0.43400729728E+02  0.00000000000E+00 0. -1.
         11    1    3    3    0    0  0.10202150117E+02  0.27511825565E+02  0.89800504745E+01  0.30685920545E+02  0.51100000000E-03 0. -1.
        -11    1    3    3    0    0  0.13814857128E+02  0.72509726505E+01  0.33142768359E+00  0.15605663281E+02  0.51100000000E-03 0.  1.
         12    1    3    3    0    0 -0.66725690951E+00  0.24384289532E+00  0.13162016582E+01  0.14956864464E+01  0.00000000000E+00 0. -1.
</event>
<event>
 7    1  0.2412036E-009  0.4778723E+02  0.7816164E-02  0.1312668E+00
        -11   -1    0    0    0    0  0.00000000000E+00  0.00000000000E+00  0.45593999997E+02  0.45594000000E+02  0.51100000000E-03 0. -1.
         11   -1    0    0    0    0 -0.00000000000E+00 -0.00000000000E+00 -0.45593999997E+02  0.45594000000E+02  0.51100000000E-03 0.  1.
    9900012    2    1    2    0    0  0.62088053949E+01  0.20368204433E+02 -0.37818171961E+02  0.47787226427E+02  0.19999796572E+02 0.  0.
         12    1    1    2    0    0 -0.62088053949E+01 -0.20368204433E+02  0.37818171961E+02  0.43400773573E+02  0.00000000000E+00 0. -1.
         11    1    3    3    0    0  0.71257640828E+01  0.59762506346E+01 -0.22987322326E+02  0.24797360210E+02  0.51100000000E-03 0. -1.
        -11    1    3    3    0    0 -0.26445557420E+01  0.12860209464E+02 -0.15750100851E+02  0.20504739443E+02  0.51100000000E-03 0.  1.
        -12    1    3    3    0    0  0.17275970542E+01  0.15317443341E+01  0.91925121615E+00  0.24851267744E+01  0.00000000000E+00 0.  1.
</event>
<event>
 7    1  0.2412036E-009  0.4778727E+02  0.7816164E-02  0.1312668E+00
        -11   -1    0    0    0    0  0.00000000000E+00  0.00000000000E+00  0.45593999997E+02  0.45594000000E+02  0.51100000000E-03 0.  1.
         11   -1    0    0    0    0 -0.00000000000E+00 -0.00000000000E+00 -0.45593999997E+02  0.45594000000E+02  0.51100000000E-03 0. -1.
    9900012    2    1    2    0    0 -0.11640912154E+02 -0.45795759990E+01  0.41558876011E+02  0.47787268124E+02  0.19999986684E+02 0.  0.
         12    1    1    2    0    0  0.11640912154E+02  0.45795759990E+01 -0.41558876011E+02  0.43400731876E+02  0.00000000000E+00 0. -1.
         11    1    3    3    0    0 -0.13771666016E+02 -0.20717350639E+01  0.39493404842E+02  0.41876961415E+02  0.51100000000E-03 0. -1.
        -11    1    3    3    0    0  0.73437911437E+00  0.17131372035E+00  0.27169423627E+01  0.28196519533E+01  0.51100000000E-03 0.  1.
         12    1    3    3    0    0  0.13963747473E+01 -0.26791546554E+01 -0.65147119422E+00  0.30906547558E+01  0.00000000000E+00 0. -1.
</event>
<event>
 7    1  0.2412036E-009  0.4778727E+02  0.7816164E-02  0.1312668E+00
        -11   -1    0    0    0    0  0.00000000000E+00  0.00000000000E+00  0.45593999997E+02  0.45594000000E+02  0.51100000000E-03 0. -1.
         11   -1    0    0    0    0 -0.00000000000E+00 -0.00000000000E+00 -0.45593999997E+02  0.45594000000E+02  0.51100000000E-03 0.  1.
    9900012    2    1    2    0    0  0.14081494512E+02 -0.50455566954E+01 -0.40741593748E+02  0.47787267389E+02  0.19999983333E+02 0.  0.
         12    1    1    2    0    0 -0.14081494512E+02  0.50455566954E+01  0.40741593748E+02  0.43400732611E+02  0.00000000000E+00 0. -1.
         11    1    3    3    0    0 -0.22131501172E+01  0.12150185256E+01 -0.19697726124E+01  0.32022348235E+01  0.51100000000E-03 0. -1.
        -11    1    3    3    0    0  0.61045734325E-01  0.31930348538E+01 -0.65462323191E+01  0.72837048263E+01  0.51100000000E-03 0.  1.
        -12    1    3    3    0    0  0.16233598895E+02 -0.94536100748E+01 -0.32225588816E+02  0.37301327739E+02  0.00000000000E+00 0.  1.
</event>
<event>
 7    1  0.2412036E-009  0.4778727E+02  0.7816164E-02  0.1312668E+00
        -11   -1    0    0    0    0  0.00000000000E+00  0.00000000000E+00  0.45593999997E+02  0.45594000000E+02  0.51100000000E-03 0. -1.
         11   -1    0    0    0    0 -0.00000000000E+00 -0.00000000000E+00 -0.45593999997E+02  0.45594000000E+02  0.51100000000E-03 0.  1.
    9900012    2    1    2    0    0  0.34076110468E+02 -0.12356976695E+02  0.23869374404E+02  0.47787271756E+02  0.20000003245E+02 0.  0.
         12    1    1    2    0    0 -0.34076110468E+02  0.12356976695E+02 -0.23869374404E+02  0.43400728244E+02  0.00000000000E+00 0. -1.
         11    1    3    3    0    0  0.25539760002E+02 -0.13141137499E+02  0.20742861517E+02  0.35429297762E+02  0.51100000000E-03 0. -1.
        -11    1    3    3    0    0  0.18407591898E+01  0.32196006281E+01  0.36634883530E+01  0.52130000741E+01  0.51100000000E-03 0.  1.
         12    1    3    3    0    0  0.66955912762E+01 -0.24354398240E+01 -0.53697546550E+00  0.71449739205E+01  0.00000000000E+00 0. -1.
</event>
<event>
 7    1  0.2412036E-009  0.4778727E+02  0.7816164E-02  0.1312668E+00
        -11   -1    0    0    0    0  0.00000000000E+00  0.00000000000E+00  0.45593999997E+02  0.45594000000E+02  0.51100000000E-03 0.  1.
         11   -1    0    0    0    0 -0.00000000000E+00 -0.00000000000E+00 -0.45593999997E+02  0.45594000000E+02  0.51100000000E-03 0. -1.
    9900012    2    1    2    0    0  0.13243388422E+02 -0.31641882276E+02  0.26589986347E+02  0.47787269306E+02  0.19999992072E+02 0.  0.
         12    1    1    2    0    0 -0.13243388422E+02  0.31641882276E+02 -0.26589986347E+02  0.43400730694E+02  0.00000000000E+00 0. -1.
         11    1    3    3    0    0  0.42434504442E+01 -0.35629075895E+01 -0.20058835788E+01  0.58927711102E+01  0.51100000000E-03 0. -1.
        -11    1    3    3    0    0  0.36223731304E+01 -0.22596481263E+02  0.22454079775E+02  0.32061008271E+02  0.51100000000E-03 0.  1.
         12    1    3    3    0    0  0.53775648478E+01 -0.54824934236E+01  0.61417901510E+01  0.98334899243E+01  0.00000000000E+00 0. -1.
</event>
<event>
 7    1  0.3422657E-009  0.4778727E+02  0.7816164E-02  0.1312668E+00
        -11   -1    0    0    0    0  0.00000000000E+00  0.00000000000E+00  0.45593999997E+02  0.45594000000E+02  0.51100000000E-03 0.  1.
         11   -1    0    0    0    0 -0.00000000000E+00 -0.00000000000E+00 -0.45593999997E+02  0.45594000000E+02  0.51100000000E-03 0. -1.
    9900012    2    1    2    0    0 -0.23662710248E+02  0.20620682567E+02  0.29974770385E+02  0.47787271142E+02  0.20000000444E+02 0.  0.
         12    1    1    2    0    0  0.23662710248E+02 -0.20620682567E+02 -0.29974770385E+02  0.43400728858E+02  0.00000000000E+00 0. -1.
         11    1    3    3    0    0 -0.47660026883E+00 -0.65013440648E+00 -0.38677023794E+00  0.89409956985E+00  0.51100000000E-03 0.  1.
        -11    1    3    3    0    0 -0.42923931469E+01  0.11378515864E+01 -0.15426030439E+01  0.47009541130E+01  0.51100000000E-03 0. -1.
        -12    1    3    3    0    0 -0.18893716832E+02  0.20132965387E+02  0.31904143666E+02  0.42192217459E+02  0.00000000000E+00 0.  1.
</event>
<event>
 7    1  0.2412036E-009  0.4778731E+02  0.7816164E-02  0.1312668E+00
        -11   -1    0    0    0    0  0.00000000000E+00  0.00000000000E+00  0.45593999997E+02  0.45594000000E+02  0.51100000000E-03 0. -1.
         11   -1    0    0    0    0 -0.00000000000E+00 -0.00000000000E+00 -0.45593999997E+02  0.45594000000E+02  0.51100000000E-03 0.  1.
    9900012    2    1    2    0    0  0.41532762784E+02  0.95063656651E+01  0.82630604955E+01  0.47787314044E+02  0.20000196053E+02 0.  0.
         12    1    1    2    0    0 -0.41532762784E+02 -0.95063656651E+01 -0.82630604955E+01  0.43400685956E+02  0.00000000000E+00 0. -1.
         11    1    3    3    0    0 -0.41558553049E-01  0.90452606145E+00  0.40563446129E+01  0.41561793018E+01  0.51100000000E-03 0. -1.
        -11    1    3    3    0    0  0.22743617150E+02  0.39557933453E+01 -0.22373849399E+01  0.23193238534E+02  0.51100000000E-03 0.  1.
         12    1    3    3    0    0  0.18830704188E+02  0.46460462583E+01  0.64441008226E+01  0.20437896209E+02  0.00000000000E+00 0. -1.
</event>
<event>
 7    1  0.2412036E-009  0.4778727E+02  0.7816164E-02  0.1312668E+00
        -11   -1    0    0    0    0  0.00000000000E+00  0.00000000000E+00  0.45593999997E+02  0.45594000000E+02  0.51100000000E-03 0.  1.
         11   -1    0    0    0    0 -0.00000000000E+00 -0.00000000000E+00 -0.45593999997E+02  0.45594000000E+02  0.51100000000E-03 0. -1.
    9900012    2    1    2    0    0  0.67509738838E+01 -0.42853231740E+02 -0.12839841526E+01  0.47787265741E+02  0.19999975820E+02 0.  0.
         12    1    1    2    0    0 -0.67509738838E+01  0.42853231740E+02  0.12839841526E+01  0.43400734259E+02  0.00000000000E+00 0. -1.
         11    1    3    3    0    0  0.16258730735E+01 -0.15640853350E+01  0.37925130068E+01  0.44128201135E+01  0.51100000000E-03 0. -1.
        -11    1    3    3    0    0 -0.87845272179E+00 -0.30386812613E+02 -0.15524244637E+01  0.30439120913E+02  0.51100000000E-03 0.  1.
        -12    1    3    3    0    0  0.60035535321E+01 -0.10902333791E+02 -0.35240726957E+01  0.12935324715E+02  0.00000000000E+00 0.  1.
</event>
<event>
 7    1  0.2412036E-009  0.4778727E+02  0.7816164E-02  0.1312668E+00
        -11   -1    0    0    0    0  0.00000000000E+00  0.00000000000E+00  0.45593999997E+02  0.45594000000E+02  0.51100000000E-03 0. -1.
         11   -1    0    0    0    0 -0.00000000000E+00 -0.00000000000E+00 -0.45593999997E+02  0.45594000000E+02  0.51100000000E-03 0.  1.
    9900012    2    1    2    0    0 -0.43405493114E+01 -0.32252395240E+02 -0.28715251667E+02  0.47787273677E+02  0.20000012003E+02 0.  0.
         12    1    1    2    0    0  0.43405493114E+01  0.32252395240E+02  0.28715251667E+02  0.43400726323E+02  0.00000000000E+00 0. -1.
         11    1    3    3    0    0  0.15736724730E+01  0.15460805901E+01 -0.70684357297E+00  0.23165574332E+01  0.51100000000E-03 0. -1.
        -11    1    3    3    0    0  0.12745912193E+01 -0.21733894578E+02 -0.16639749796E+02  0.27401971276E+02  0.51100000000E-03 0.  1.
         12    1    3    3    0    0 -0.71888130037E+01 -0.12064581253E+02 -0.11368658298E+02  0.18068744968E+02  0.00000000000E+00 0. -1.
</event>
<event>
 7    1  0.2412036E-009  0.4778727E+02  0.7816164E-02  0.1312668E+00
        -11   -1    0    0    0    0  0.00000000000E+00  0.00000000000E+00  0.45593999997E+02  0.45594000000E+02  0.51100000000E-03 0. -1.
         11   -1    0    0    0    0 -0.00000000000E+00 -0.00000000000E+00 -0.45593999997E+02  0.45594000000E+02  0.51100000000E-03 0.  1.
    9900012    2    1    2    0    0 -0.91665104505E+01 -0.27714207314E+02 -0.32117299991E+02  0.47787272361E+02  0.20000006003E+02 0.  0.
         12    1    1    2    0    0  0.91665104505E+01  0.27714207314E+02  0.32117299991E+02  0.43400727639E+02  0.00000000000E+00 0. -1.
         11    1    3    3    0    0 -0.60569863611E+01 -0.13616002870E+01 -0.16820267223E+01  0.64319711812E+01  0.51100000000E-03 0. -1.
        -11    1    3    3    0    0 -0.21843674532E+01 -0.15700175616E+02 -0.24342674900E+02  0.29048800269E+02  0.51100000000E-03 0.  1.
        -12    1    3    3    0    0 -0.92515663614E+00 -0.10652431411E+02 -0.60925983683E+01  0.12306500910E+02  0.00000000000E+00 0.  1.
</event>
<event>
 7    1  0.2412036E-009  0.4778727E+02  0.7816164E-02  0.1312668E+00
        -11   -1    0    0    0    0  0.00000000000E+00  0.00000000000E+00  0.45593999997E+02  0.45594000000E+02  0.51100000000E-03 0. -1.
         11   -1    0    0    0    0 -0.00000000000E+00 -0.00000000000E+00 -0.45593999997E+02  0.45594000000E+02  0.51100000000E-03 0.  1.
    9900012    2    1    2    0    0 -0.30502774683E+02 -0.21834394237E+02 -0.21828040274E+02  0.47787269853E+02  0.19999994570E+02 0.  0.
         12    1    1    2    0    0  0.30502774683E+02  0.21834394237E+02  0.21828040274E+02  0.43400730147E+02  0.00000000000E+00 0. -1.
         11    1    3    3    0    0 -0.17614612929E+02 -0.12373370445E+02 -0.15949390613E+02  0.26791004946E+02  0.51100000000E-03 0. -1.
        -11    1    3    3    0    0 -0.12644489860E+02 -0.72609008419E+01 -0.90259268278E+01  0.17148503148E+02  0.51100000000E-03 0.  1.
         12    1    3    3    0    0 -0.24367189378E+00 -0.22001229499E+01  0.31472771676E+01  0.38477617593E+01  0.00000000000E+00 0. -1.
</event>
<event>
 7    1  0.2412036E-009  0.4778727E+02  0.7816164E-02  0.1312668E+00
        -11   -1    0    0    0    0  0.00000000000E+00  0.00000000000E+00  0.45593999997E+02  0.45594000000E+02  0.51100000000E-03 0. -1.
         11   -1    0    0    0    0 -0.00000000000E+00 -0.00000000000E+00 -0.45593999997E+02  0.45594000000E+02  0.51100000000E-03 0.  1.
    9900012    2    1    2    0    0  0.28672893921E+02 -0.40105263207E+01 -0.32332709468E+02  0.47787271104E+02  0.20000000270E+02 0.  0.
         12    1    1    2    0    0 -0.28672893921E+02  0.40105263207E+01  0.32332709468E+02  0.43400728896E+02  0.00000000000E+00 0. -1.
         11    1    3    3    0    0  0.82894179664E+01 -0.35841819241E+00 -0.45306893604E+01  0.94535739360E+01  0.51100000000E-03 0. -1.
        -11    1    3    3    0    0  0.96028927725E+01 -0.96722950192E+01 -0.11186702135E+02  0.17632672669E+02  0.51100000000E-03 0.  1.
        -12    1    3    3    0    0  0.10780583182E+02  0.60201868909E+01 -0.16615317973E+02  0.20701024499E+02  0.00000000000E+00 0.  1.
</event>
<event>
 7    1  0.2412036E-009  0.4778723E+02  0.7816164E-02  0.1312668E+00
        -11   -1    0    0    0    0  0.00000000000E+00  0.00000000000E+00  0.45593999997E+02  0.45594000000E+02  0.51100000000E-03 0.  1.
         11   -1    0    0    0    0 -0.00000000000E+00 -0.00000000000E+00 -0.45593999997E+02  0.45594000000E+02  0.51100000000E-03 0. -1.
    9900012    2    1    2    0    0  0.30323557000E+02  0.28186392708E+02 -0.13024430559E+02  0.47787232329E+02  0.19999823482E+02 0.  0.
         12    1    1    2    0    0 -0.30323557000E+02 -0.28186392708E+02  0.13024430559E+02  0.43400767671E+02  0.00000000000E+00 0. -1.
         11    1    3    3    0    0  0.66357777929E+01  0.16567795591E+02 -0.35219881644E+01  0.18191475986E+02  0.51100000000E-03 0. -1.
        -11    1    3    3    0    0  0.11328206006E+02  0.50508164670E+00 -0.48695057289E+01  0.12340804070E+02  0.51100000000E-03 0.  1.
        -12    1    3    3    0    0  0.12359573201E+02  0.11113515471E+02 -0.46329366656E+01  0.17254952274E+02  0.00000000000E+00 0.  1.
</event>
<event>
 7    1  0.2412036E-009  0.4778727E+02  0.7816164E-02  0.1312668E+00
        -11   -1    0    0    0    0  0.00000000000E+00  0.00000000000E+00  0.45593999997E+02  0.45594000000E+02  0.51100000000E-03 0.  1.
         11   -1    0    0    0    0 -0.00000000000E+00 -0.00000000000E+00 -0.45593999997E+02  0.45594000000E+02  0.51100000000E-03 0. -1.
    9900012    2    1    2    0    0  0.38581910237E+02  0.12167050958E+02  0.15716948938E+02  0.47787269471E+02  0.19999992824E+02 0.  0.
         12    1    1    2    0    0 -0.38581910237E+02 -0.12167050958E+02 -0.15716948938E+02  0.43400730529E+02  0.00000000000E+00 0. -1.
         11    1    3    3    0    0  0.66382812904E+01 -0.41225535302E+00  0.87376295487E+01  0.10981024695E+02  0.51100000000E-03 0. -1.
        -11    1    3    3    0    0  0.20492179815E+02  0.13654788111E+02  0.51943534426E+01  0.25166723662E+02  0.51100000000E-03 0.  1.
        -12    1    3    3    0    0  0.11451449132E+02 -0.10754817996E+01  0.17849659463E+01  0.11639521114E+02  0.00000000000E+00 0.  1.
</event>
<event>
 7    1  0.2412036E-009  0.4778727E+02  0.7816164E-02  0.1312668E+00
        -11   -1    0    0    0    0  0.00000000000E+00  0.00000000000E+00  0.45593999997E+02  0.45594000000E+02  0.51100000000E-03 0. -1.
         11   -1    0    0    0    0 -0.00000000000E+00 -0.00000000000E+00 -0.45593999997E+02  0.45594000000E+02  0.51100000000E-03 0.  1.
    9900012    2    1    2    0    0  0.84257534583E+01  0.10791683018E+02 -0.41184583080E+02  0.47787266974E+02  0.19999981443E+02 0.  0.
         12    1    1    2    0    0 -0.84257534583E+01 -0.10791683018E+02  0.41184583080E+02  0.43400733026E+02  0.00000000000E+00 0. -1.
         11    1    3    3    0    0  0.84772885810E+01  0.16457074662E+02 -0.31584482330E+02  0.36609824534E+02  0.51100000000E-03 0.  1.
        -11    1    3    3    0    0  0.32298441454E+00 -0.38431293543E+01 -0.61988730895E+01  0.73006842150E+01  0.51100000000E-03 0. -1.
        -12    1    3    3    0    0 -0.37451953721E+00 -0.18222622903E+01 -0.34012276608E+01  0.38767582255E+01  0.00000000000E+00 0.  1.
</event>
<event>
 7    1  0.2412036E-009  0.4778727E+02  0.7816164E-02  0.1312668E+00
        -11   -1    0    0    0    0  0.00000000000E+00  0.00000000000E+00  0.45593999997E+02  0.45594000000E+02  0.51100000000E-03 0. -1.
         11   -1    0    0    0    0 -0.00000000000E+00 -0.00000000000E+00 -0.45593999997E+02  0.45594000000E+02  0.51100000000E-03 0.  1.
    9900012    2    1    2    0    0  0.29863636608E+02 -0.25783691417E+02  0.18082808452E+02  0.47787268485E+02  0.19999988331E+02 0.  0.
         12    1    1    2    0    0 -0.29863636608E+02  0.25783691417E+02 -0.18082808452E+02  0.43400731515E+02  0.00000000000E+00 0. -1.
         11    1    3    3    0    0  0.18641411599E+01 -0.74434973120E+01  0.75157554622E+00  0.77100934210E+01  0.51100000000E-03 0. -1.
        -11    1    3    3    0    0  0.29263258780E+02 -0.18734632409E+02  0.17124532825E+02  0.38737248104E+02  0.51100000000E-03 0.  1.
        -12    1    3    3    0    0 -0.12637633320E+01  0.39443830452E+00  0.20670008112E+00  0.13399269603E+01  0.00000000000E+00 0.  1.
</event>
<event>
 7    1  0.2412036E-009  0.4778727E+02  0.7816164E-02  0.1312668E+00
        -11   -1    0    0    0    0  0.00000000000E+00  0.00000000000E+00  0.45593999997E+02  0.45594000000E+02  0.51100000000E-03 0.  1.
         11   -1    0    0    0    0 -0.00000000000E+00 -0.00000000000E+00 -0.45593999997E+02  0.45594000000E+02  0.51100000000E-03 0. -1.
    9900012    2    1    2    0    0 -0.34029607385E+02  0.73028600388E+01  0.25928311071E+02  0.47787271221E+02  0.20000000806E+02 0.  0.
         12    1    1    2    0    0  0.34029607385E+02 -0.73028600388E+01 -0.25928311071E+02  0.43400728779E+02  0.00000000000E+00 0. -1.
         11    1    3    3    0    0 -0.23443109836E+02  0.23345107903E+01  0.80905498329E+01  0.24909563149E+02  0.51100000000E-03 0. -1.
        -11    1    3    3    0    0  0.59431313487E+00 -0.11223034020E+01  0.49477670267E+00  0.13629296662E+01  0.51100000000E-03 0.  1.
         12    1    3    3    0    0 -0.11180810684E+02  0.60906526505E+01  0.17342984535E+02  0.21514778406E+02  0.00000000000E+00 0. -1.
</event>
<event>
 7    1  0.2412036E-009  0.4778727E+02  0.7816164E-02  0.1312668E+00
        -11   -1    0    0    0    0  0.00000000000E+00  0.00000000000E+00  0.45593999997E+02  0.45594000000E+02  0.51100000000E-03 0. -1.
         11   -1    0    0    0    0 -0.00000000000E+00 -0.00000000000E+00 -0.45593999997E+02  0.45594000000E+02  0.51100000000E-03 0.  1.
    9900012    2    1    2    0    0  0.42957632517E+02  0.54817986772E+01  0.28661944811E+01  0.47787269833E+02  0.19999994478E+02 0.  0.
         12    1    1    2    0    0 -0.42957632517E+02 -0.54817986772E+01 -0.28661944811E+01  0.43400730167E+02  0.00000000000E+00 0. -1.
         11    1    3    3    0    0  0.11110132486E+02  0.97791605384E+01  0.32876126643E+01  0.15161643116E+02  0.51100000000E-03 0. -1.
        -11    1    3    3    0    0  0.23883477846E+02 -0.92721513946E+00 -0.12776529249E+01  0.23935593563E+02  0.51100000000E-03 0.  1.
         12    1    3    3    0    0  0.79640221853E+01 -0.33701467218E+01  0.85623474164E+00  0.86900331545E+01  0.00000000000E+00 0. -1.
</event>
<event>
 7    1  0.2412036E-009  0.4778727E+02  0.7816164E-02  0.1312668E+00
        -11   -1    0    0    0    0  0.00000000000E+00  0.00000000000E+00  0.45593999997E+02  0.45594000000E+02  0.51100000000E-03 0.  1.
         11   -1    0    0    0    0 -0.00000000000E+00 -0.00000000000E+00 -0.45593999997E+02  0.45594000000E+02  0.51100000000E-03 0. -1.
    9900012    2    1    2    0    0 -0.11429212543E+02  0.47733274920E+01  0.41595818895E+02  0.47787266087E+02  0.19999977396E+02 0.  0.
         12    1    1    2    0    0  0.11429212543E+02 -0.47733274920E+01 -0.41595818895E+02  0.43400733913E+02  0.00000000000E+00 0. -1.
         11    1    3    3    0    0 -0.81540938211E+01 -0.10801585286E+01  0.18369904337E+02  0.20127329035E+02  0.51100000000E-03 0. -1.
        -11    1    3    3    0    0  0.12735181758E+01 -0.52685682690E+00 -0.13110580146E+01  0.19021829667E+01  0.51100000000E-03 0.  1.
        -12    1    3    3    0    0 -0.45486368973E+01  0.63803428475E+01  0.24536972572E+02  0.25757754085E+02  0.00000000000E+00 0.  1.
</event>
<event>
 7    1  0.2412036E-009  0.4778727E+02  0.7816164E-02  0.1312668E+00
        -11   -1    0    0    0    0  0.00000000000E+00  0.00000000000E+00  0.45593999997E+02  0.45594000000E+02  0.51100000000E-03 0. -1.
         11   -1    0    0    0    0 -0.00000000000E+00 -0.00000000000E+00 -0.45593999997E+02  0.45594000000E+02  0.51100000000E-03 0.  1.
    9900012    2    1    2    0    0  0.10726660721E+01  0.15397949312E+02 -0.40563238383E+02  0.47787265402E+02  0.19999974275E+02 0.  0.
         12    1    1    2    0    0 -0.10726660721E+01 -0.15397949312E+02  0.40563238383E+02  0.43400734598E+02  0.00000000000E+00 0. -1.
         11    1    3    3    0    0 -0.79435645311E+01  0.34494440349E+01 -0.10597667563E+02  0.13686103888E+02  0.51100000000E-03 0. -1.
        -11    1    3    3    0    0  0.77564038784E+01  0.52253119492E+01 -0.15564865601E+02  0.18158489131E+02  0.51100000000E-03 0.  1.
        -12    1    3    3    0    0  0.12598267248E+01  0.67231933274E+01 -0.14400705219E+02  0.15942672383E+02  0.00000000000E+00 0.  1.
</event>
<event>
 7    1  0.2412036E-009  0.4778727E+02  0.7816164E-02  0.1312668E+00
        -11   -1    0    0    0    0  0.00000000000E+00  0.00000000000E+00  0.45593999997E+02  0.45594000000E+02  0.51100000000E-03 0.  1.
         11   -1    0    0    0    0 -0.00000000000E+00 -0.00000000000E+00 -0.45593999997E+02  0.45594000000E+02  0.51100000000E-03 0. -1.
    9900012    2    1    2    0    0  0.70819792054E+01 -0.69773371828E+01  0.42246727732E+02  0.47787266507E+02  0.19999979313E+02 0.  0.
         12    1    1    2    0    0 -0.70819792054E+01  0.69773371828E+01 -0.42246727732E+02  0.43400733493E+02  0.00000000000E+00 0. -1.
         11    1    3    3    0    0 -0.12620743481E+01 -0.98753093842E+00 -0.15331612803E+01  0.22177990862E+01  0.51100000000E-03 0. -1.
        -11    1    3    3    0    0  0.58431890488E+01 -0.76618381904E+01  0.33112088573E+02  0.34485606166E+02  0.51100000000E-03 0.  1.
        -12    1    3    3    0    0  0.25008645047E+01  0.16720319460E+01  0.10667800440E+02  0.11083861255E+02  0.00000000000E+00 0.  1.
</event>
<event>
 7    1  0.2412036E-009  0.4778727E+02  0.7816164E-02  0.1312668E+00
        -11   -1    0    0    0    0  0.00000000000E+00  0.00000000000E+00  0.45593999997E+02  0.45594000000E+02  0.51100000000E-03 0. -1.
         11   -1    0    0    0    0 -0.00000000000E+00 -0.00000000000E+00 -0.45593999997E+02  0.45594000000E+02  0.51100000000E-03 0.  1.
    9900012    2    1    2    0    0 -0.33324512645E+02  0.13190831893E+02 -0.24476556756E+02  0.47787273973E+02  0.20000013352E+02 0.  0.
         12    1    1    2    0    0  0.33324512645E+02 -0.13190831893E+02  0.24476556756E+02  0.43400726027E+02  0.00000000000E+00 0. -1.
         11    1    3    3    0    0 -0.23567453238E+02  0.20447808611E+01 -0.78036137831E+01  0.24909884970E+02  0.51100000000E-03 0. -1.
        -11    1    3    3    0    0 -0.89274576371E+01  0.69509813202E+01 -0.13057378949E+02  0.17277464700E+02  0.51100000000E-03 0.  1.
         12    1    3    3    0    0 -0.82960176945E+00  0.41950697119E+01 -0.36155640244E+01  0.55999243029E+01  0.00000000000E+00 0. -1.
</event>
<event>
 7    1  0.2412036E-009  0.4778726E+02  0.7816164E-02  0.1312668E+00
        -11   -1    0    0    0    0  0.00000000000E+00  0.00000000000E+00  0.45593999997E+02  0.45594000000E+02  0.51100000000E-03 0. -1.
         11   -1    0    0    0    0 -0.00000000000E+00 -0.00000000000E+00 -0.45593999997E+02  0.45594000000E+02  0.51100000000E-03 0.  1.
    9900012    2    1    2    0    0 -0.23456842844E+01  0.41960853996E+02 -0.10835523256E+02  0.47787261906E+02  0.19999958336E+02 0.  0.
         12    1    1    2    0    0  0.23456842844E+01 -0.41960853996E+02  0.10835523256E+02  0.43400738094E+02  0.00000000000E+00 0. -1.
         11    1    3    3    0    0 -0.50979026219E+00  0.26807733394E+02 -0.10510392574E+02  0.28799007069E+02  0.51100000000E-03 0. -1.
        -11    1    3    3    0    0  0.29290545535E+01  0.10625339640E+02  0.32696075081E+01  0.11496414074E+02  0.51100000000E-03 0.  1.
         12    1    3    3    0    0 -0.47649485757E+01  0.45277809622E+01 -0.35947381896E+01  0.74918407633E+01  0.00000000000E+00 0. -1.
</event>
<event>
 7    1  0.2412036E-009  0.4778727E+02  0.7816164E-02  0.1312668E+00
        -11   -1    0    0    0    0  0.00000000000E+00  0.00000000000E+00  0.45593999997E+02  0.45594000000E+02  0.51100000000E-03 0. -1.
         11   -1    0    0    0    0 -0.00000000000E+00 -0.00000000000E+00 -0.45593999997E+02  0.45594000000E+02  0.51100000000E-03 0.  1.
    9900012    2    1    2    0    0 -0.25403250930E+02 -0.25246264064E+02 -0.24513752060E+02  0.47787273658E+02  0.20000011915E+02 0.  0.
         12    1    1    2    0    0  0.25403250930E+02  0.25246264064E+02  0.24513752060E+02  0.43400726342E+02  0.00000000000E+00 0. -1.
         11    1    3    3    0    0 -0.16381980035E+01 -0.91959271737E+01 -0.47656595601E+00  0.93528543586E+01  0.51100000000E-03 0. -1.
        -11    1    3    3    0    0 -0.10477240447E+02 -0.12046658763E+02 -0.14746916387E+02  0.21733984860E+02  0.51100000000E-03 0.  1.
         12    1    3    3    0    0 -0.13287812480E+02 -0.40036781277E+01 -0.92902697170E+01  0.16700434439E+02  0.00000000000E+00 0. -1.
</event>
<event>
 7    1  0.2412036E-009  0.4778727E+02  0.7816164E-02  0.1312668E+00
        -11   -1    0    0    0    0  0.00000000000E+00  0.00000000000E+00  0.45593999997E+02  0.45594000000E+02  0.51100000000E-03 0.  1.
         11   -1    0    0    0    0 -0.00000000000E+00 -0.00000000000E+00 -0.45593999997E+02  0.45594000000E+02  0.51100000000E-03 0. -1.
    9900012    2    1    2    0    0  0.39389844386E+02  0.36746885264E+01  0.17848258918E+02  0.47787268175E+02  0.19999986917E+02 0.  0.
         12    1    1    2    0    0 -0.39389844386E+02 -0.36746885264E+01 -0.17848258918E+02  0.43400731825E+02  0.00000000000E+00 0. -1.
         11    1    3    3    0    0  0.15809765025E+02  0.51839499718E+00  0.11484250664E+01  0.15859895458E+02  0.51100000000E-03 0. -1.
        -11    1    3    3    0    0  0.35202776534E+01  0.41618533943E+01  0.87858413205E+01  0.10339457742E+02  0.51100000000E-03 0.  1.
        -12    1    3    3    0    0  0.20059801708E+02 -0.10055598651E+01  0.79139925312E+01  0.21587914975E+02  0.00000000000E+00 0.  1.
</event>
<event>
 7    1  0.2412036E-009  0.4778727E+02  0.7816164E-02  0.1312668E+00
        -11   -1    0    0    0    0  0.00000000000E+00  0.00000000000E+00  0.45593999997E+02  0.45594000000E+02  0.51100000000E-03 0.  1.
         11   -1    0    0    0    0 -0.00000000000E+00 -0.00000000000E+00 -0.45593999997E+02  0.45594000000E+02  0.51100000000E-03 0. -1.
    9900012    2    1    2    0    0  0.21168025066E+02  0.35474231842E+01  0.37722064198E+02  0.47787267013E+02  0.19999981618E+02 0.  0.
         12    1    1    2    0    0 -0.21168025066E+02 -0.35474231842E+01 -0.37722064198E+02  0.43400732987E+02  0.00000000000E+00 0. -1.
         11    1    3    3    0    0  0.20797417816E+02 -0.42100623623E+01  0.25335587381E+02  0.33047680722E+02  0.51100000000E-03 0. -1.
        -11    1    3    3    0    0  0.11413826072E+00  0.63727035981E+01  0.11249256125E+02  0.12929429311E+02  0.51100000000E-03 0.  1.
         12    1    3    3    0    0  0.25646898957E+00  0.13847819484E+01  0.11372206921E+01  0.18101569794E+01  0.00000000000E+00 0. -1.
</event>
<event>
 7    1  0.2412036E-009  0.4778727E+02  0.7816164E-02  0.1312668E+00
        -11   -1    0    0    0    0  0.00000000000E+00  0.00000000000E+00  0.45593999997E+02  0.45594000000E+02  0.51100000000E-03 0.  1.
         11   -1    0    0    0    0 -0.00000000000E+00 -0.00000000000E+00 -0.45593999997E+02  0.45594000000E+02  0.51100000000E-03 0. -1.
    9900012    2    1    2    0    0  0.87131740660E+01  0.28137556373E+02  0.31874468497E+02  0.47787271632E+02  0.20000002677E+02 0.  0.
         12    1    1    2    0    0 -0.87131740660E+01 -0.28137556373E+02 -0.31874468497E+02  0.43400728368E+02  0.00000000000E+00 0. -1.
         11    1    3    3    0    0  0.35236058484E+01  0.45440975576E+01  0.43258593146E+01  0.71956709109E+01  0.51100000000E-03 0. -1.
        -11    1    3    3    0    0  0.23861367690E+00  0.11994429876E+02  0.20858424128E+01  0.12176782144E+02  0.51100000000E-03 0.  1.
        -12    1    3    3    0    0  0.49509545408E+01  0.11599028939E+02  0.25462766769E+02  0.28414818577E+02  0.00000000000E+00 0.  1.
</event>
<event>
 7    1  0.2412036E-009  0.4778728E+02  0.7816164E-02  0.1312668E+00
        -11   -1    0    0    0    0  0.00000000000E+00  0.00000000000E+00  0.45593999997E+02  0.45594000000E+02  0.51100000000E-03 0. -1.
         11   -1    0    0    0    0 -0.00000000000E+00 -0.00000000000E+00 -0.45593999997E+02  0.45594000000E+02  0.51100000000E-03 0.  1.
    9900012    2    1    2    0    0  0.34555486322E+02  0.54656270215E+01  0.25684000625E+02  0.47787278787E+02  0.20000035303E+02 0.  0.
         12    1    1    2    0    0 -0.34555486322E+02 -0.54656270215E+01 -0.25684000625E+02  0.43400721213E+02  0.00000000000E+00 0. -1.
         11    1    3    3    0    0  0.11090154544E+02  0.76169804799E+01  0.12615167567E+02  0.18443220230E+02  0.51100000000E-03 0. -1.
        -11    1    3    3    0    0  0.99972014203E+01 -0.55166845804E+01  0.98820632617E+01  0.15100762218E+02  0.51100000000E-03 0.  1.
        -12    1    3    3    0    0  0.13468130357E+02  0.33653311220E+01  0.31867697962E+01  0.14243296339E+02  0.00000000000E+00 0.  1.
</event>
<event>
 7    1  0.2412036E-009  0.4778729E+02  0.7816164E-02  0.1312668E+00
        -11   -1    0    0    0    0  0.00000000000E+00  0.00000000000E+00  0.45593999997E+02  0.45594000000E+02  0.51100000000E-03 0.  1.
         11   -1    0    0    0    0 -0.00000000000E+00 -0.00000000000E+00 -0.45593999997E+02  0.45594000000E+02  0.51100000000E-03 0. -1.
    9900012    2    1    2    0    0  0.33519805317E+01 -0.43187868724E+02 -0.26820893171E+01  0.47787292845E+02  0.20000099398E+02 0.  0.
         12    1    1    2    0    0 -0.33519805317E+01  0.43187868724E+02  0.26820893171E+01  0.43400707155E+02  0.00000000000E+00 0. -1.
         11    1    3    3    0    0 -0.56600323919E+01 -0.64902031770E+01  0.22569036981E+01  0.89023771275E+01  0.51100000000E-03 0.  1.
        -11    1    3    3    0    0  0.88473969488E+01 -0.31747768385E+02 -0.17695982702E+01  0.33004980056E+02  0.51100000000E-03 0. -1.
         12    1    3    3    0    0  0.16461597472E+00 -0.49498971618E+01 -0.31693947450E+01  0.58799356613E+01  0.00000000000E+00 0. -1.
</event>
<event>
 7    1  0.2412036E-009  0.4778728E+02  0.7816164E-02  0.1312668E+00
        -11   -1    0    0    0    0  0.00000000000E+00  0.00000000000E+00  0.45593999997E+02  0.45594000000E+02  0.51100000000E-03 0. -1.
         11   -1    0    0    0    0 -0.00000000000E+00 -0.00000000000E+00 -0.45593999997E+02  0.45594000000E+02  0.51100000000E-03 0.  1.
    9900012    2    1    2    0    0 -0.69167025858E+01  0.12026831149E+02 -0.41123441445E+02  0.47787275600E+02  0.20000020772E+02 0.  0.
         12    1    1    2    0    0  0.69167025858E+01 -0.12026831149E+02  0.41123441445E+02  0.43400724400E+02  0.00000000000E+00 0. -1.
         11    1    3    3    0    0  0.56837642813E+01  0.66746472486E+01 -0.14376505120E+02  0.16838645789E+02  0.51100000000E-03 0. -1.
        -11    1    3    3    0    0 -0.56099563848E+01 -0.14565191300E+01 -0.10640912513E+02  0.12117016051E+02  0.51100000000E-03 0.  1.
         12    1    3    3    0    0 -0.69905104823E+01  0.68087030305E+01 -0.16106023812E+02  0.18831613760E+02  0.00000000000E+00 0. -1.
</event>
<event>
 7    1  0.2412036E-009  0.4778725E+02  0.7816164E-02  0.1312668E+00
        -11   -1    0    0    0    0  0.00000000000E+00  0.00000000000E+00  0.45593999997E+02  0.45594000000E+02  0.51100000000E-03 0.  1.
         11   -1    0    0    0    0 -0.00000000000E+00 -0.00000000000E+00 -0.45593999997E+02  0.45594000000E+02  0.51100000000E-03 0. -1.
    9900012    2    1    2    0    0 -0.10800183255E+02 -0.23588193710E+02  0.34793363199E+02  0.47787251579E+02  0.19999911249E+02 0.  0.
         12    1    1    2    0    0  0.10800183255E+02  0.23588193710E+02 -0.34793363199E+02  0.43400748421E+02  0.00000000000E+00 0. -1.
         11    1    3    3    0    0  0.11761100574E+01 -0.33606057077E+01  0.33631439658E+01  0.48977181611E+01  0.51100000000E-03 0.  1.
        -11    1    3    3    0    0  0.32390837612E+00 -0.16248992279E+02  0.17822110482E+02  0.24119748942E+02  0.51100000000E-03 0. -1.
        -12    1    3    3    0    0 -0.12300201688E+02 -0.39785957228E+01  0.13608108751E+02  0.18769784476E+02  0.00000000000E+00 0.  1.
</event>
<event>
 7    1  0.2412036E-009  0.4778727E+02  0.7816164E-02  0.1312668E+00
        -11   -1    0    0    0    0  0.00000000000E+00  0.00000000000E+00  0.45593999997E+02  0.45594000000E+02  0.51100000000E-03 0. -1.
         11   -1    0    0    0    0 -0.00000000000E+00 -0.00000000000E+00 -0.45593999997E+02  0.45594000000E+02  0.51100000000E-03 0.  1.
    9900012    2    1    2    0    0  0.19458654249E+02 -0.38305020289E+02  0.61408359147E+01  0.47787266478E+02  0.19999979180E+02 0.  0.
         12    1    1    2    0    0 -0.19458654249E+02  0.38305020289E+02 -0.61408359147E+01  0.43400733522E+02  0.00000000000E+00 0. -1.
         11    1    3    3    0    0  0.11226367233E+01 -0.93932660682E+01  0.65045261561E+01  0.11480532279E+02  0.51100000000E-03 0. -1.
        -11    1    3    3    0    0  0.17300364754E+02 -0.29560614881E+02  0.12603722984E+01  0.34274204751E+02  0.51100000000E-03 0.  1.
        -12    1    3    3    0    0  0.10356527720E+01  0.64886066022E+00 -0.16240625398E+01  0.20325294472E+01  0.00000000000E+00 0.  1.
</event>
<event>
 7    1  0.2412036E-009  0.4778726E+02  0.7816164E-02  0.1312668E+00
        -11   -1    0    0    0    0  0.00000000000E+00  0.00000000000E+00  0.45593999997E+02  0.45594000000E+02  0.51100000000E-03 0.  1.
         11   -1    0    0    0    0 -0.00000000000E+00 -0.00000000000E+00 -0.45593999997E+02  0.45594000000E+02  0.51100000000E-03 0. -1.
    9900012    2    1    2    0    0 -0.28750785924E+02  0.31414329370E+02 -0.83759653990E+01  0.47787256028E+02  0.19999931532E+02 0.  0.
         12    1    1    2    0    0  0.28750785924E+02 -0.31414329370E+02  0.83759653990E+01  0.43400743972E+02  0.00000000000E+00 0. -1.
         11    1    3    3    0    0 -0.11257315965E+02  0.34485320743E+01 -0.80647595519E+01  0.14270945417E+02  0.51100000000E-03 0. -1.
        -11    1    3    3    0    0 -0.73540930900E+01  0.15775668629E+02  0.18922579801E+01  0.17508142289E+02  0.51100000000E-03 0.  1.
         12    1    3    3    0    0 -0.10139376869E+02  0.12190128666E+02 -0.22034638271E+01  0.16008168322E+02  0.00000000000E+00 0. -1.
</event>
<event>
 7    1  0.2412036E-009  0.4778727E+02  0.7816164E-02  0.1312668E+00
        -11   -1    0    0    0    0  0.00000000000E+00  0.00000000000E+00  0.45593999997E+02  0.45594000000E+02  0.51100000000E-03 0.  1.
         11   -1    0    0    0    0 -0.00000000000E+00 -0.00000000000E+00 -0.45593999997E+02  0.45594000000E+02  0.51100000000E-03 0. -1.
    9900012    2    1    2    0    0  0.10574881513E+02  0.52142621884E+01  0.41768484689E+02  0.47787274632E+02  0.20000016358E+02 0.  0.
         12    1    1    2    0    0 -0.10574881513E+02 -0.52142621884E+01 -0.41768484689E+02  0.43400725368E+02  0.00000000000E+00 0. -1.
         11    1    3    3    0    0  0.87476971167E+01 -0.31520975483E+01  0.10630684547E+02  0.14123362843E+02  0.51100000000E-03 0. -1.
        -11    1    3    3    0    0 -0.26709692329E+01  0.30038638881E+01  0.20765372386E+02  0.21150838412E+02  0.51100000000E-03 0.  1.
        -12    1    3    3    0    0  0.44981536296E+01  0.53624958486E+01  0.10372427756E+02  0.12513073377E+02  0.00000000000E+00 0.  1.
</event>
<event>
 7    1  0.2412036E-009  0.4778727E+02  0.7816164E-02  0.1312668E+00
        -11   -1    0    0    0    0  0.00000000000E+00  0.00000000000E+00  0.45593999997E+02  0.45594000000E+02  0.51100000000E-03 0.  1.
         11   -1    0    0    0    0 -0.00000000000E+00 -0.00000000000E+00 -0.45593999997E+02  0.45594000000E+02  0.51100000000E-03 0. -1.
    9900012    2    1    2    0    0  0.13118422753E+02  0.28880498644E+01  0.41269713682E+02  0.47787272876E+02  0.20000008350E+02 0.  0.
         12    1    1    2    0    0 -0.13118422753E+02 -0.28880498644E+01 -0.41269713682E+02  0.43400727124E+02  0.00000000000E+00 0. -1.
         11    1    3    3    0    0 -0.11606577186E+01 -0.27049105980E+01  0.20867461694E+02  0.21074027273E+02  0.51100000000E-03 0. -1.
        -11    1    3    3    0    0  0.10002934889E+02  0.19564863398E+01  0.17832154874E+02  0.20539530006E+02  0.51100000000E-03 0.  1.
         12    1    3    3    0    0  0.42761455832E+01  0.36364741226E+01  0.25700971141E+01  0.61737155967E+01  0.00000000000E+00 0. -1.
</event>
<event>
 7    1  0.2412036E-009  0.4778727E+02  0.7816164E-02  0.1312668E+00
        -11   -1    0    0    0    0  0.00000000000E+00  0.00000000000E+00  0.45593999997E+02  0.45594000000E+02  0.51100000000E-03 0. -1.
         11   -1    0    0    0    0 -0.00000000000E+00 -0.00000000000E+00 -0.45593999997E+02  0.45594000000E+02  0.51100000000E-03 0.  1.
    9900012    2    1    2    0    0  0.25388069627E+02  0.62666784361E+01 -0.34638097671E+02  0.47787272492E+02  0.20000006598E+02 0.  0.
         12    1    1    2    0    0 -0.25388069627E+02 -0.62666784361E+01  0.34638097671E+02  0.43400727508E+02  0.00000000000E+00 0. -1.
         11    1    3    3    0    0  0.11031191033E+02  0.45987389080E+01 -0.29392440595E+02  0.31729341934E+02  0.51100000000E-03 0.  1.
        -11    1    3    3    0    0  0.11530577936E+02 -0.40306854497E+00 -0.49069451858E+01  0.12537735167E+02  0.51100000000E-03 0. -1.
        -12    1    3    3    0    0  0.28263006578E+01  0.20710080731E+01 -0.33871189003E+00  0.35201953911E+01  0.00000000000E+00 0.  1.
</event>
<event>
 7    1  0.2412036E-009  0.4778727E+02  0.7816164E-02  0.1312668E+00
        -11   -1    0    0    0    0  0.00000000000E+00  0.00000000000E+00  0.45593999997E+02  0.45594000000E+02  0.51100000000E-03 0. -1.
         11   -1    0    0    0    0 -0.00000000000E+00 -0.00000000000E+00 -0.45593999997E+02  0.45594000000E+02  0.51100000000E-03 0.  1.
    9900012    2    1    2    0    0 -0.28391235856E+02  0.28964069467E+02 -0.15448102174E+02  0.47787268966E+02  0.19999990524E+02 0.  0.
         12    1    1    2    0    0  0.28391235856E+02 -0.28964069467E+02  0.15448102174E+02  0.43400731034E+02  0.00000000000E+00 0. -1.
         11    1    3    3    0    0  0.16437473191E+01 -0.18418843647E+00  0.13408941962E+01  0.21292787830E+01  0.51100000000E-03 0. -1.
        -11    1    3    3    0    0 -0.18375116290E+02  0.12984906651E+02 -0.97454610869E+01  0.24519924785E+02  0.51100000000E-03 0.  1.
         12    1    3    3    0    0 -0.11659866884E+02  0.16163351252E+02 -0.70435352833E+01  0.21138065398E+02  0.00000000000E+00 0. -1.
</event>
<event>
 7    1  0.2412036E-009  0.4778727E+02  0.7816164E-02  0.1312668E+00
        -11   -1    0    0    0    0  0.00000000000E+00  0.00000000000E+00  0.45593999997E+02  0.45594000000E+02  0.51100000000E-03 0. -1.
         11   -1    0    0    0    0 -0.00000000000E+00 -0.00000000000E+00 -0.45593999997E+02  0.45594000000E+02  0.51100000000E-03 0.  1.
    9900012    2    1    2    0    0 -0.15711392376E+02 -0.11771891132E+02 -0.38706559242E+02  0.47787274204E+02  0.20000014406E+02 0.  0.
         12    1    1    2    0    0  0.15711392376E+02  0.11771891132E+02  0.38706559242E+02  0.43400725796E+02  0.00000000000E+00 0. -1.
         11    1    3    3    0    0 -0.46531510238E+01 -0.10315715451E+02 -0.59067838156E+01  0.12765417933E+02  0.51100000000E-03 0. -1.
        -11    1    3    3    0    0 -0.10426229487E+02 -0.26859980626E+01 -0.30425165366E+02  0.32274007106E+02  0.51100000000E-03 0.  1.
        -12    1    3    3    0    0 -0.63201186531E+00  0.12298223812E+01 -0.23746100610E+01  0.27478491642E+01  0.00000000000E+00 0.  1.
</event>
<event>
 7    1  0.2412036E-009  0.4778727E+02  0.7816164E-02  0.1312668E+00
        -11   -1    0    0    0    0  0.00000000000E+00  0.00000000000E+00  0.45593999997E+02  0.45594000000E+02  0.51100000000E-03 0.  1.
         11   -1    0    0    0    0 -0.00000000000E+00 -0.00000000000E+00 -0.45593999997E+02  0.45594000000E+02  0.51100000000E-03 0. -1.
    9900012    2    1    2    0    0  0.17734129078E+02  0.10656741530E+02  0.38151774056E+02  0.47787270308E+02  0.19999996641E+02 0.  0.
         12    1    1    2    0    0 -0.17734129078E+02 -0.10656741530E+02 -0.38151774056E+02  0.43400729692E+02  0.00000000000E+00 0. -1.
         11    1    3    3    0    0  0.16574632757E+02  0.23385194077E+01  0.22166082969E+02  0.27776291302E+02  0.51100000000E-03 0. -1.
        -11    1    3    3    0    0  0.22573541950E+01  0.39730005290E+01  0.14632473300E+02  0.15329372338E+02  0.51100000000E-03 0.  1.
         12    1    3    3    0    0 -0.10978578739E+01  0.43452215934E+01  0.13532177875E+01  0.46816066673E+01  0.00000000000E+00 0. -1.
</event>
<event>
 7    1  0.2412036E-009  0.4778727E+02  0.7816164E-02  0.1312668E+00
        -11   -1    0    0    0    0  0.00000000000E+00  0.00000000000E+00  0.45593999997E+02  0.45594000000E+02  0.51100000000E-03 0.  1.
         11   -1    0    0    0    0 -0.00000000000E+00 -0.00000000000E+00 -0.45593999997E+02  0.45594000000E+02  0.51100000000E-03 0. -1.
    9900012    2    1    2    0    0  0.31291437717E+02  0.16562707602E+02  0.25102708456E+02  0.47787270406E+02  0.19999997087E+02 0.  0.
         12    1    1    2    0    0 -0.31291437717E+02 -0.16562707602E+02 -0.25102708456E+02  0.43400729594E+02  0.00000000000E+00 0. -1.
         11    1    3    3    0    0  0.90486151137E+00  0.90038274351E+01  0.52049181652E+01  0.10439293856E+02  0.51100000000E-03 0. -1.
        -11    1    3    3    0    0  0.24740844980E+02  0.75924068736E+01  0.17326393591E+02  0.31144148208E+02  0.51100000000E-03 0.  1.
         12    1    3    3    0    0  0.56457312254E+01 -0.33526706404E-01  0.25713966995E+01  0.62038283419E+01  0.00000000000E+00 0. -1.
</event>
<event>
 7    1  0.2412036E-009  0.4778727E+02  0.7816164E-02  0.1312668E+00
        -11   -1    0    0    0    0  0.00000000000E+00  0.00000000000E+00  0.45593999997E+02  0.45594000000E+02  0.51100000000E-03 0.  1.
         11   -1    0    0    0    0 -0.00000000000E+00 -0.00000000000E+00 -0.45593999997E+02  0.45594000000E+02  0.51100000000E-03 0. -1.
    9900012    2    1    2    0    0  0.25096983440E+02 -0.11880397202E+02  0.33355972924E+02  0.47787270223E+02  0.19999996256E+02 0.  0.
         12    1    1    2    0    0 -0.25096983440E+02  0.11880397202E+02 -0.33355972924E+02  0.43400729777E+02  0.00000000000E+00 0. -1.
         11    1    3    3    0    0  0.21460903252E+01 -0.75912891076E+01  0.32850014681E+01  0.85454437513E+01  0.51100000000E-03 0. -1.
        -11    1    3    3    0    0  0.22767947278E+02 -0.49883488789E+01  0.25234925695E+02  0.34352067229E+02  0.51100000000E-03 0.  1.
        -12    1    3    3    0    0  0.18294583614E+00  0.69924078489E+00  0.48360457608E+01  0.48897592430E+01  0.00000000000E+00 0.  1.
</event>
<event>
 7    1  0.2412036E-009  0.4778726E+02  0.7816164E-02  0.1312668E+00
        -11   -1    0    0    0    0  0.00000000000E+00  0.00000000000E+00  0.45593999997E+02  0.45594000000E+02  0.51100000000E-03 0.  1.
         11   -1    0    0    0    0 -0.00000000000E+00 -0.00000000000E+00 -0.45593999997E+02  0.45594000000E+02  0.51100000000E-03 0. -1.
    9900012    2    1    2    0    0  0.11387184814E+02  0.11464091707E+01  0.41864562435E+02  0.47787264755E+02  0.19999971323E+02 0.  0.
         12    1    1    2    0    0 -0.11387184814E+02 -0.11464091707E+01 -0.41864562435E+02  0.43400735245E+02  0.00000000000E+00 0. -1.
         11    1    3    3    0    0 -0.40530294137E+01 -0.15999288986E+01  0.12570579370E+02  0.13304370931E+02  0.51100000000E-03 0. -1.
        -11    1    3    3    0    0  0.96184639328E+01 -0.28753040740E+01  0.17595022289E+02  0.20257517902E+02  0.51100000000E-03 0.  1.
         12    1    3    3    0    0  0.58217502945E+01  0.56216421433E+01  0.11698960775E+02  0.14225375921E+02  0.00000000000E+00 0. -1.
</event>
<event>
 7    1  0.2412036E-009  0.4778726E+02  0.7816164E-02  0.1312668E+00
        -11   -1    0    0    0    0  0.00000000000E+00  0.00000000000E+00  0.45593999997E+02  0.45594000000E+02  0.51100000000E-03 0.  1.
         11   -1    0    0    0    0 -0.00000000000E+00 -0.00000000000E+00 -0.45593999997E+02  0.45594000000E+02  0.51100000000E-03 0. -1.
    9900012    2    1    2    0    0 -0.95577491043E+00 -0.33702531016E+02  0.27328565638E+02  0.47787255739E+02  0.19999930216E+02 0.  0.
         12    1    1    2    0    0  0.95577491043E+00  0.33702531016E+02 -0.27328565638E+02  0.43400744261E+02  0.00000000000E+00 0. -1.
         11    1    3    3    0    0 -0.36917306450E+01 -0.16505237251E+02  0.24857918311E+01  0.17094762156E+02  0.51100000000E-03 0. -1.
        -11    1    3    3    0    0  0.25532362641E+01 -0.79069308252E+01  0.15059701342E+02  0.17199801606E+02  0.51100000000E-03 0.  1.
         12    1    3    3    0    0  0.18271947039E+00 -0.92903629401E+01  0.97830724645E+01  0.13492691978E+02  0.00000000000E+00 0. -1.
</event>
<event>
 7    1  0.2412036E-009  0.4778728E+02  0.7816164E-02  0.1312668E+00
        -11   -1    0    0    0    0  0.00000000000E+00  0.00000000000E+00  0.45593999997E+02  0.45594000000E+02  0.51100000000E-03 0. -1.
         11   -1    0    0    0    0 -0.00000000000E+00 -0.00000000000E+00 -0.45593999997E+02  0.45594000000E+02  0.51100000000E-03 0.  1.
    9900012    2    1    2    0    0  0.18297520679E+01 -0.35526240787E+02 -0.24862845789E+02  0.47787275607E+02  0.20000020805E+02 0.  0.
         12    1    1    2    0    0 -0.18297520679E+01  0.35526240787E+02  0.24862845789E+02  0.43400724393E+02  0.00000000000E+00 0. -1.
         11    1    3    3    0    0 -0.38302657691E+01 -0.16031574810E+02 -0.15590451493E+02  0.22687981505E+02  0.51100000000E-03 0. -1.
        -11    1    3    3    0    0 -0.48636811382E-01 -0.93422897800E+01 -0.96692174905E+01  0.13445241203E+02  0.51100000000E-03 0.  1.
         12    1    3    3    0    0  0.57086546484E+01 -0.10152376197E+02  0.39682319450E+00  0.11654052899E+02  0.00000000000E+00 0. -1.
</event>
<event>
 7    1  0.2412036E-009  0.4778727E+02  0.7816164E-02  0.1312668E+00
        -11   -1    0    0    0    0  0.00000000000E+00  0.00000000000E+00  0.45593999997E+02  0.45594000000E+02  0.51100000000E-03 0.  1.
         11   -1    0    0    0    0 -0.00000000000E+00 -0.00000000000E+00 -0.45593999997E+02  0.45594000000E+02  0.51100000000E-03 0. -1.
    9900012    2    1    2    0    0 -0.28738238437E+02 -0.13020595580E+02 -0.29802702226E+02  0.47787270540E+02  0.19999997699E+02 0.  0.
         12    1    1    2    0    0  0.28738238437E+02  0.13020595580E+02  0.29802702226E+02  0.43400729460E+02  0.00000000000E+00 0. -1.
         11    1    3    3    0    0 -0.13960258440E+02  0.21979842494E+01 -0.91900512091E+01  0.16857549998E+02  0.51100000000E-03 0. -1.
        -11    1    3    3    0    0 -0.90772596972E+01 -0.29819232799E+01 -0.88955153951E+01  0.13054451519E+02  0.51100000000E-03 0.  1.
         12    1    3    3    0    0 -0.57007202999E+01 -0.12236656549E+02 -0.11717135622E+02  0.17875269022E+02  0.00000000000E+00 0. -1.
</event>
<event>
 7    1  0.2412036E-009  0.4778727E+02  0.7816164E-02  0.1312668E+00
        -11   -1    0    0    0    0  0.00000000000E+00  0.00000000000E+00  0.45593999997E+02  0.45594000000E+02  0.51100000000E-03 0.  1.
         11   -1    0    0    0    0 -0.00000000000E+00 -0.00000000000E+00 -0.45593999997E+02  0.45594000000E+02  0.51100000000E-03 0. -1.
    9900012    2    1    2    0    0  0.25656892433E+02 -0.30455595636E+02 -0.17256994173E+02  0.47787270942E+02  0.19999999533E+02 0.  0.
         12    1    1    2    0    0 -0.25656892433E+02  0.30455595636E+02  0.17256994173E+02  0.43400729058E+02  0.00000000000E+00 0. -1.
         11    1    3    3    0    0 -0.20723764867E+00 -0.21146089745E+01 -0.66995816579E+00  0.22278605799E+01  0.51100000000E-03 0. -1.
        -11    1    3    3    0    0  0.87689816127E+01 -0.21256721698E+02 -0.13876557716E+02  0.26857068161E+02  0.51100000000E-03 0.  1.
        -12    1    3    3    0    0  0.17095148469E+02 -0.70842649635E+01 -0.27104782908E+01  0.18702342202E+02  0.00000000000E+00 0.  1.
</event>
<event>
 7    1  0.2412036E-009  0.4778726E+02  0.7816164E-02  0.1312668E+00
        -11   -1    0    0    0    0  0.00000000000E+00  0.00000000000E+00  0.45593999997E+02  0.45594000000E+02  0.51100000000E-03 0.  1.
         11   -1    0    0    0    0 -0.00000000000E+00 -0.00000000000E+00 -0.45593999997E+02  0.45594000000E+02  0.51100000000E-03 0. -1.
    9900012    2    1    2    0    0 -0.23121783436E+02 -0.35006015133E+02  0.11116929693E+02  0.47787261636E+02  0.19999957103E+02 0.  0.
         12    1    1    2    0    0  0.23121783436E+02  0.35006015133E+02 -0.11116929693E+02  0.43400738364E+02  0.00000000000E+00 0. -1.
         11    1    3    3    0    0  0.26088977389E+01 -0.45693408571E+00  0.20182328281E+00  0.26562885892E+01  0.51100000000E-03 0. -1.
        -11    1    3    3    0    0 -0.20360141941E+02 -0.29611828947E+02  0.11702535159E+02  0.37793453439E+02  0.51100000000E-03 0.  1.
        -12    1    3    3    0    0 -0.53705392334E+01 -0.49372521004E+01 -0.78742874842E+00  0.73375196078E+01  0.00000000000E+00 0.  1.
</event>
<event>
 7    1  0.2412036E-009  0.4778729E+02  0.7816164E-02  0.1312668E+00
        -11   -1    0    0    0    0  0.00000000000E+00  0.00000000000E+00  0.45593999997E+02  0.45594000000E+02  0.51100000000E-03 0.  1.
         11   -1    0    0    0    0 -0.00000000000E+00 -0.00000000000E+00 -0.45593999997E+02  0.45594000000E+02  0.51100000000E-03 0. -1.
    9900012    2    1    2    0    0  0.28509000681E+02 -0.26125073129E+02  0.19706318175E+02  0.47787290999E+02  0.20000090979E+02 0.  0.
         12    1    1    2    0    0 -0.28509000681E+02  0.26125073129E+02 -0.19706318175E+02  0.43400709001E+02  0.00000000000E+00 0. -1.
         11    1    3    3    0    0  0.25026423465E+01 -0.29529908582E+01 -0.22926689095E+01  0.44988559338E+01  0.51100000000E-03 0. -1.
        -11    1    3    3    0    0  0.95387019453E+01 -0.51150006864E+01  0.13742126755E+02  0.17492744634E+02  0.51100000000E-03 0.  1.
        -12    1    3    3    0    0  0.16467656389E+02 -0.18057081584E+02  0.82568603296E+01  0.25795690430E+02  0.00000000000E+00 0.  1.
</event>
<event>
 7    1  0.2412036E-009  0.4778727E+02  0.7816164E-02  0.1312668E+00
        -11   -1    0    0    0    0  0.00000000000E+00  0.00000000000E+00  0.45593999997E+02  0.45594000000E+02  0.51100000000E-03 0. -1.
         11   -1    0    0    0    0 -0.00000000000E+00 -0.00000000000E+00 -0.45593999997E+02  0.45594000000E+02  0.51100000000E-03 0.  1.
    9900012    2    1    2    0    0  0.36712713157E+02  0.10665916571E+01 -0.23122769240E+02  0.47787269794E+02  0.19999994297E+02 0.  0.
         12    1    1    2    0    0 -0.36712713157E+02 -0.10665916571E+01  0.23122769240E+02  0.43400730206E+02  0.00000000000E+00 0. -1.
         11    1    3    3    0    0  0.42407755648E+01 -0.19452599106E+01  0.22095475428E+01  0.51623942232E+01  0.51100000000E-03 0. -1.
        -11    1    3    3    0    0  0.26707659669E+02  0.38628335101E+01 -0.25004021694E+02  0.36788879691E+02  0.51100000000E-03 0.  1.
         12    1    3    3    0    0  0.57642779234E+01 -0.85098194233E+00 -0.32829508790E+00  0.58359958798E+01  0.00000000000E+00 0. -1.
</event>
<event>
 7    1  0.2412036E-009  0.4778727E+02  0.7816164E-02  0.1312668E+00
        -11   -1    0    0    0    0  0.00000000000E+00  0.00000000000E+00  0.45593999997E+02  0.45594000000E+02  0.51100000000E-03 0.  1.
         11   -1    0    0    0    0 -0.00000000000E+00 -0.00000000000E+00 -0.45593999997E+02  0.45594000000E+02  0.51100000000E-03 0. -1.
    9900012    2    1    2    0    0 -0.46181548247E-01  0.38053810767E+02  0.20869331941E+02  0.47787266570E+02  0.19999979598E+02 0.  0.
         12    1    1    2    0    0  0.46181548247E-01 -0.38053810767E+02 -0.20869331941E+02  0.43400733430E+02  0.00000000000E+00 0. -1.
         11    1    3    3    0    0 -0.44723258171E+01  0.10817820446E+02  0.22561026855E+01  0.11921280846E+02  0.51100000000E-03 0. -1.
        -11    1    3    3    0    0  0.91803003596E+01  0.17296311349E+02  0.10839841832E+02  0.22381744172E+02  0.51100000000E-03 0.  1.
         12    1    3    3    0    0 -0.47541560908E+01  0.99396789720E+01  0.77733874228E+01  0.13484241552E+02  0.00000000000E+00 0. -1.
</event>
<event>
 7    1  0.2412036E-009  0.4778728E+02  0.7816164E-02  0.1312668E+00
        -11   -1    0    0    0    0  0.00000000000E+00  0.00000000000E+00  0.45593999997E+02  0.45594000000E+02  0.51100000000E-03 0.  1.
         11   -1    0    0    0    0 -0.00000000000E+00 -0.00000000000E+00 -0.45593999997E+02  0.45594000000E+02  0.51100000000E-03 0. -1.
    9900012    2    1    2    0    0 -0.13244585455E+01  0.97050723573E+01  0.42280964358E+02  0.47787279189E+02  0.20000037134E+02 0.  0.
         12    1    1    2    0    0  0.13244585455E+01 -0.97050723573E+01 -0.42280964358E+02  0.43400720811E+02  0.00000000000E+00 0. -1.
         11    1    3    3    0    0 -0.24569437003E+01  0.15131010939E+02  0.30222383655E+02  0.33887704827E+02  0.51100000000E-03 0. -1.
        -11    1    3    3    0    0  0.42098833859E+00 -0.37316592632E+01  0.11306820961E+02  0.11914139186E+02  0.51100000000E-03 0.  1.
         12    1    3    3    0    0  0.71149681614E+00 -0.16942793187E+01  0.75175974231E+00  0.19854351763E+01  0.00000000000E+00 0. -1.
</event>
<event>
 7    1  0.2412036E-009  0.4778727E+02  0.7816164E-02  0.1312668E+00
        -11   -1    0    0    0    0  0.00000000000E+00  0.00000000000E+00  0.45593999997E+02  0.45594000000E+02  0.51100000000E-03 0.  1.
         11   -1    0    0    0    0 -0.00000000000E+00 -0.00000000000E+00 -0.45593999997E+02  0.45594000000E+02  0.51100000000E-03 0. -1.
    9900012    2    1    2    0    0  0.70998789699E+01 -0.16156940136E+02  0.39650575665E+02  0.47787272511E+02  0.20000006688E+02 0.  0.
         12    1    1    2    0    0 -0.70998789699E+01  0.16156940136E+02 -0.39650575665E+02  0.43400727489E+02  0.00000000000E+00 0. -1.
         11    1    3    3    0    0  0.27620978409E+01  0.26223008307E+01  0.17590525899E+02  0.17998117895E+02  0.51100000000E-03 0. -1.
        -11    1    3    3    0    0 -0.29373428102E+00 -0.84235284382E+01  0.71411847375E+01  0.11047109617E+02  0.51100000000E-03 0.  1.
         12    1    3    3    0    0  0.46315154100E+01 -0.10355712529E+02  0.14918865029E+02  0.18742044999E+02  0.00000000000E+00 0. -1.
</event>
<event>
 7    1  0.2412036E-009  0.4778726E+02  0.7816164E-02  0.1312668E+00
        -11   -1    0    0    0    0  0.00000000000E+00  0.00000000000E+00  0.45593999997E+02  0.45594000000E+02  0.51100000000E-03 0.  1.
         11   -1    0    0    0    0 -0.00000000000E+00 -0.00000000000E+00 -0.45593999997E+02  0.45594000000E+02  0.51100000000E-03 0. -1.
    9900012    2    1    2    0    0  0.10965117090E+02  0.13133155272E+02  0.39886216198E+02  0.47787264951E+02  0.19999972216E+02 0.  0.
         12    1    1    2    0    0 -0.10965117090E+02 -0.13133155272E+02 -0.39886216198E+02  0.43400735049E+02  0.00000000000E+00 0. -1.
         11    1    3    3    0    0  0.10884329384E+02  0.50598658357E+01  0.20870393543E+02  0.24075801032E+02  0.51100000000E-03 0. -1.
        -11    1    3    3    0    0  0.47847539594E+01  0.68679415154E+01  0.15821044577E+02  0.17898825181E+02  0.51100000000E-03 0.  1.
         12    1    3    3    0    0 -0.47039662534E+01  0.12053479213E+01  0.31947780783E+01  0.58126387376E+01  0.00000000000E+00 0. -1.
</event>
<event>
 7    1  0.2412036E-009  0.4778728E+02  0.7816164E-02  0.1312668E+00
        -11   -1    0    0    0    0  0.00000000000E+00  0.00000000000E+00  0.45593999997E+02  0.45594000000E+02  0.51100000000E-03 0.  1.
         11   -1    0    0    0    0 -0.00000000000E+00 -0.00000000000E+00 -0.45593999997E+02  0.45594000000E+02  0.51100000000E-03 0. -1.
    9900012    2    1    2    0    0  0.41880214076E+02  0.83595873460E+01  0.77322634014E+01  0.47787275018E+02  0.20000018117E+02 0.  0.
         12    1    1    2    0    0 -0.41880214076E+02 -0.83595873460E+01 -0.77322634014E+01  0.43400724982E+02  0.00000000000E+00 0. -1.
         11    1    3    3    0    0  0.96500884904E+01  0.43498555784E+01  0.10249493620E+02  0.14734231271E+02  0.51100000000E-03 0. -1.
        -11    1    3    3    0    0  0.24254914005E+02  0.26696239387E+01 -0.42857818039E+01  0.24774900026E+02  0.51100000000E-03 0.  1.
         12    1    3    3    0    0  0.79752115803E+01  0.13401078288E+01  0.17685515851E+01  0.82781437203E+01  0.00000000000E+00 0. -1.
</event>
<event>
 7    1  0.2412036E-009  0.4778727E+02  0.7816164E-02  0.1312668E+00
        -11   -1    0    0    0    0  0.00000000000E+00  0.00000000000E+00  0.45593999997E+02  0.45594000000E+02  0.51100000000E-03 0.  1.
         11   -1    0    0    0    0 -0.00000000000E+00 -0.00000000000E+00 -0.45593999997E+02  0.45594000000E+02  0.51100000000E-03 0. -1.
    9900012    2    1    2    0    0  0.36913944623E+02 -0.22717629753E+02  0.22121180500E+01  0.47787268722E+02  0.19999989410E+02 0.  0.
         12    1    1    2    0    0 -0.36913944623E+02  0.22717629753E+02 -0.22121180500E+01  0.43400731278E+02  0.00000000000E+00 0. -1.
         11    1    3    3    0    0  0.12048836681E+02  0.12693596392E+01 -0.16840593747E+01  0.12231998835E+02  0.51100000000E-03 0. -1.
        -11    1    3    3    0    0  0.19452121291E+02 -0.21710351976E+02  0.14268237413E+01  0.29184931590E+02  0.51100000000E-03 0.  1.
        -12    1    3    3    0    0  0.54129866513E+01 -0.22766374162E+01  0.24693536834E+01  0.63703382976E+01  0.00000000000E+00 0.  1.
</event>
<event>
 7    1  0.2412036E-009  0.4778727E+02  0.7816164E-02  0.1312668E+00
        -11   -1    0    0    0    0  0.00000000000E+00  0.00000000000E+00  0.45593999997E+02  0.45594000000E+02  0.51100000000E-03 0. -1.
         11   -1    0    0    0    0 -0.00000000000E+00 -0.00000000000E+00 -0.45593999997E+02  0.45594000000E+02  0.51100000000E-03 0.  1.
    9900012    2    1    2    0    0  0.24454875897E+02 -0.29450168480E+02 -0.20451640275E+02  0.47787274561E+02  0.20000016034E+02 0.  0.
         12    1    1    2    0    0 -0.24454875897E+02  0.29450168480E+02  0.20451640275E+02  0.43400725439E+02  0.00000000000E+00 0. -1.
         11    1    3    3    0    0 -0.12076028959E+01  0.14955825065E+01 -0.18934329215E+01  0.26981772138E+01  0.51100000000E-03 0. -1.
        -11    1    3    3    0    0  0.23040608612E+02 -0.27275377386E+02 -0.19189353946E+02  0.40534518153E+02  0.51100000000E-03 0.  1.
         12    1    3    3    0    0  0.26218701814E+01 -0.36703736005E+01  0.63114659268E+00  0.45545791942E+01  0.00000000000E+00 0. -1.
</event>
<event>
 7    1  0.2412036E-009  0.4778727E+02  0.7816164E-02  0.1312668E+00
        -11   -1    0    0    0    0  0.00000000000E+00  0.00000000000E+00  0.45593999997E+02  0.45594000000E+02  0.51100000000E-03 0. -1.
         11   -1    0    0    0    0 -0.00000000000E+00 -0.00000000000E+00 -0.45593999997E+02  0.45594000000E+02  0.51100000000E-03 0.  1.
    9900012    2    1    2    0    0  0.16265958493E+02 -0.34919768746E+02 -0.19991285394E+02  0.47787272510E+02  0.20000006680E+02 0.  0.
         12    1    1    2    0    0 -0.16265958493E+02  0.34919768746E+02  0.19991285394E+02  0.43400727490E+02  0.00000000000E+00 0. -1.
         11    1    3    3    0    0  0.13791955130E+02 -0.33684701175E+02 -0.19847321353E+02  0.41458331910E+02  0.51100000000E-03 0.  1.
        -11    1    3    3    0    0  0.37680821789E+01  0.54407879044E+00 -0.10505813611E+01  0.39494539489E+01  0.51100000000E-03 0. -1.
        -12    1    3    3    0    0 -0.12940788159E+01 -0.17791463614E+01  0.90661732017E+00  0.23794866510E+01  0.00000000000E+00 0.  1.
</event>
<event>
 7    1  0.2412036E-009  0.4778727E+02  0.7816164E-02  0.1312668E+00
        -11   -1    0    0    0    0  0.00000000000E+00  0.00000000000E+00  0.45593999997E+02  0.45594000000E+02  0.51100000000E-03 0.  1.
         11   -1    0    0    0    0 -0.00000000000E+00 -0.00000000000E+00 -0.45593999997E+02  0.45594000000E+02  0.51100000000E-03 0. -1.
    9900012    2    1    2    0    0 -0.12024772167E+02  0.41499425268E+02 -0.41019365482E+01  0.47787270436E+02  0.19999997226E+02 0.  0.
         12    1    1    2    0    0  0.12024772167E+02 -0.41499425268E+02  0.41019365482E+01  0.43400729564E+02  0.00000000000E+00 0. -1.
         11    1    3    3    0    0  0.33640496862E+01  0.27276911705E+01 -0.14725903601E+01  0.45744564751E+01  0.51100000000E-03 0. -1.
        -11    1    3    3    0    0 -0.14196049762E+02  0.38775613989E+02 -0.38923390959E+01  0.41475611785E+02  0.51100000000E-03 0.  1.
        -12    1    3    3    0    0 -0.11927720915E+01 -0.38798912378E-02  0.12629929077E+01  0.17372021761E+01  0.00000000000E+00 0.  1.
</event>
<event>
 7    1  0.2412036E-009  0.4778731E+02  0.7816164E-02  0.1312668E+00
        -11   -1    0    0    0    0  0.00000000000E+00  0.00000000000E+00  0.45593999997E+02  0.45594000000E+02  0.51100000000E-03 0.  1.
         11   -1    0    0    0    0 -0.00000000000E+00 -0.00000000000E+00 -0.45593999997E+02  0.45594000000E+02  0.51100000000E-03 0. -1.
    9900012    2    1    2    0    0  0.19038957705E+02  0.29201383558E+02  0.25853768399E+02  0.47787308155E+02  0.20000169201E+02 0.  0.
         12    1    1    2    0    0 -0.19038957705E+02 -0.29201383558E+02 -0.25853768399E+02  0.43400691845E+02  0.00000000000E+00 0. -1.
         11    1    3    3    0    0 -0.14060737281E+01 -0.30651530351E+00 -0.79907322892E+00  0.16460599158E+01  0.51100000000E-03 0. -1.
        -11    1    3    3    0    0  0.10807192342E+02  0.12855457454E+02  0.19197639801E+02  0.25507010152E+02  0.51100000000E-03 0.  1.
        -12    1    3    3    0    0  0.96378390915E+01  0.16652441407E+02  0.74552018266E+01  0.20634238088E+02  0.00000000000E+00 0.  1.
</event>
<event>
 7    1  0.2412036E-009  0.4778727E+02  0.7816164E-02  0.1312668E+00
        -11   -1    0    0    0    0  0.00000000000E+00  0.00000000000E+00  0.45593999997E+02  0.45594000000E+02  0.51100000000E-03 0. -1.
         11   -1    0    0    0    0 -0.00000000000E+00 -0.00000000000E+00 -0.45593999997E+02  0.45594000000E+02  0.51100000000E-03 0.  1.
    9900012    2    1    2    0    0  0.38417435358E+02 -0.11066083772E+02  0.16889811045E+02  0.47787271127E+02  0.20000000378E+02 0.  0.
         12    1    1    2    0    0 -0.38417435358E+02  0.11066083772E+02 -0.16889811045E+02  0.43400728873E+02  0.00000000000E+00 0. -1.
         11    1    3    3    0    0  0.13085119890E+02  0.32142105496E+01  0.71643223773E+01  0.15260374418E+02  0.51100000000E-03 0. -1.
        -11    1    3    3    0    0  0.80204305951E+01 -0.99239500499E+01  0.14224026548E+01  0.12838820861E+02  0.51100000000E-03 0.  1.
        -12    1    3    3    0    0  0.17311884873E+02 -0.43563442713E+01  0.83030860134E+01  0.19688075848E+02  0.00000000000E+00 0.  1.
</event>
<event>
 7    1  0.2412036E-009  0.4778727E+02  0.7816164E-02  0.1312668E+00
        -11   -1    0    0    0    0  0.00000000000E+00  0.00000000000E+00  0.45593999997E+02  0.45594000000E+02  0.51100000000E-03 0.  1.
         11   -1    0    0    0    0 -0.00000000000E+00 -0.00000000000E+00 -0.45593999997E+02  0.45594000000E+02  0.51100000000E-03 0. -1.
    9900012    2    1    2    0    0  0.12901887810E+02  0.32955497045E+02  0.25121707465E+02  0.47787266360E+02  0.19999978641E+02 0.  0.
         12    1    1    2    0    0 -0.12901887810E+02 -0.32955497045E+02 -0.25121707465E+02  0.43400733640E+02  0.00000000000E+00 0. -1.
         11    1    3    3    0    0  0.18734391444E+01  0.15602703506E+02  0.19967782780E+02  0.25409968130E+02  0.51100000000E-03 0. -1.
        -11    1    3    3    0    0  0.57037127049E+01  0.14814084827E+02  0.36053807293E+01  0.16278458721E+02  0.51100000000E-03 0.  1.
         12    1    3    3    0    0  0.53247359604E+01  0.25387087122E+01  0.15485439551E+01  0.60988395088E+01  0.00000000000E+00 0. -1.
</event>
<event>
 7    1  0.2412036E-009  0.4778727E+02  0.7816164E-02  0.1312668E+00
        -11   -1    0    0    0    0  0.00000000000E+00  0.00000000000E+00  0.45593999997E+02  0.45594000000E+02  0.51100000000E-03 0. -1.
         11   -1    0    0    0    0 -0.00000000000E+00 -0.00000000000E+00 -0.45593999997E+02  0.45594000000E+02  0.51100000000E-03 0.  1.
    9900012    2    1    2    0    0  0.50822877613E+01  0.59588081726E+01 -0.42688247520E+02  0.47787268208E+02  0.19999987067E+02 0.  0.
         12    1    1    2    0    0 -0.50822877613E+01 -0.59588081726E+01  0.42688247520E+02  0.43400731792E+02  0.00000000000E+00 0. -1.
         11    1    3    3    0    0 -0.25933973845E+01 -0.17309458826E+01 -0.19313676155E+01  0.36677056547E+01  0.51100000000E-03 0. -1.
        -11    1    3    3    0    0  0.28157532992E+01  0.58669133377E+01 -0.37345719741E+02  0.37908467682E+02  0.51100000000E-03 0.  1.
         12    1    3    3    0    0  0.48599318466E+01  0.18228407175E+01 -0.34111601642E+01  0.62110948714E+01  0.00000000000E+00 0. -1.
</event>
<event>
 7    1  0.2412036E-009  0.4778729E+02  0.7816164E-02  0.1312668E+00
        -11   -1    0    0    0    0  0.00000000000E+00  0.00000000000E+00  0.45593999997E+02  0.45594000000E+02  0.51100000000E-03 0. -1.
         11   -1    0    0    0    0 -0.00000000000E+00 -0.00000000000E+00 -0.45593999997E+02  0.45594000000E+02  0.51100000000E-03 0.  1.
    9900012    2    1    2    0    0  0.31524634722E+02  0.26074268345E+01 -0.29715652282E+02  0.47787294250E+02  0.20000105803E+02 0.  0.
         12    1    1    2    0    0 -0.31524634722E+02 -0.26074268345E+01  0.29715652282E+02  0.43400705750E+02  0.00000000000E+00 0. -1.
         11    1    3    3    0    0  0.78310262108E+01  0.32958074164E+01 -0.18175236244E+02  0.20063063844E+02  0.51100000000E-03 0. -1.
        -11    1    3    3    0    0  0.17408845844E+02 -0.12220578198E+01 -0.12329497591E+02  0.21367682374E+02  0.51100000000E-03 0.  1.
         12    1    3    3    0    0  0.62847626680E+01  0.53367723788E+00  0.78908155288E+00  0.63565480321E+01  0.00000000000E+00 0. -1.
</event>
<event>
 7    1  0.2412036E-009  0.4778727E+02  0.7816164E-02  0.1312668E+00
        -11   -1    0    0    0    0  0.00000000000E+00  0.00000000000E+00  0.45593999997E+02  0.45594000000E+02  0.51100000000E-03 0. -1.
         11   -1    0    0    0    0 -0.00000000000E+00 -0.00000000000E+00 -0.45593999997E+02  0.45594000000E+02  0.51100000000E-03 0.  1.
    9900012    2    1    2    0    0  0.38929781008E+02 -0.16324676363E+02 -0.10079699658E+02  0.47787271286E+02  0.20000001102E+02 0.  0.
         12    1    1    2    0    0 -0.38929781008E+02  0.16324676363E+02  0.10079699658E+02  0.43400728714E+02  0.00000000000E+00 0. -1.
         11    1    3    3    0    0  0.99928687389E+01 -0.32884816477E+01 -0.70918646128E+00  0.10543931092E+02  0.51100000000E-03 0.  1.
        -11    1    3    3    0    0  0.83251196209E+01 -0.55876481160E+01  0.48293869443E+01  0.11128899617E+02  0.51100000000E-03 0. -1.
        -12    1    3    3    0    0  0.20611792648E+02 -0.74485465993E+01 -0.14199900141E+02  0.26114440577E+02  0.00000000000E+00 0.  1.
</event>
<event>
 7    1  0.2412036E-009  0.4778727E+02  0.7816164E-02  0.1312668E+00
        -11   -1    0    0    0    0  0.00000000000E+00  0.00000000000E+00  0.45593999997E+02  0.45594000000E+02  0.51100000000E-03 0.  1.
         11   -1    0    0    0    0 -0.00000000000E+00 -0.00000000000E+00 -0.45593999997E+02  0.45594000000E+02  0.51100000000E-03 0. -1.
    9900012    2    1    2    0    0  0.81394558617E+01 -0.70551758182E+01  0.42042797909E+02  0.47787273006E+02  0.20000008946E+02 0.  0.
         12    1    1    2    0    0 -0.81394558617E+01  0.70551758182E+01 -0.42042797909E+02  0.43400726994E+02  0.00000000000E+00 0. -1.
         11    1    3    3    0    0  0.77968548058E+01  0.17314017716E+01  0.85323330686E+01  0.11687146992E+02  0.51100000000E-03 0. -1.
        -11    1    3    3    0    0 -0.54963133313E+00 -0.90576932925E+01  0.14758888792E+02  0.17325377370E+02  0.51100000000E-03 0.  1.
        -12    1    3    3    0    0  0.89223238905E+00  0.27111570264E+00  0.18751576048E+02  0.18774748644E+02  0.00000000000E+00 0.  1.
</event>
<event>
 7    1  0.2412036E-009  0.4778727E+02  0.7816164E-02  0.1312668E+00
        -11   -1    0    0    0    0  0.00000000000E+00  0.00000000000E+00  0.45593999997E+02  0.45594000000E+02  0.51100000000E-03 0.  1.
         11   -1    0    0    0    0 -0.00000000000E+00 -0.00000000000E+00 -0.45593999997E+02  0.45594000000E+02  0.51100000000E-03 0. -1.
    9900012    2    1    2    0    0  0.11649329094E+02 -0.16814906757E+02  0.38277609551E+02  0.47787270161E+02  0.19999995971E+02 0.  0.
         12    1    1    2    0    0 -0.11649329094E+02  0.16814906757E+02 -0.38277609551E+02  0.43400729839E+02  0.00000000000E+00 0. -1.
         11    1    3    3    0    0  0.62851314641E+01  0.24769749765E+01  0.72514583154E+01  0.99106977814E+01  0.51100000000E-03 0. -1.
        -11    1    3    3    0    0  0.68092066942E+01 -0.18096109779E+02  0.30124405644E+02  0.35795450836E+02  0.51100000000E-03 0.  1.
        -12    1    3    3    0    0 -0.14450090641E+01 -0.11957719553E+01  0.90174559230E+00  0.20811215432E+01  0.00000000000E+00 0.  1.
</event>
<event>
 7    1  0.2412036E-009  0.4778727E+02  0.7816164E-02  0.1312668E+00
        -11   -1    0    0    0    0  0.00000000000E+00  0.00000000000E+00  0.45593999997E+02  0.45594000000E+02  0.51100000000E-03 0.  1.
         11   -1    0    0    0    0 -0.00000000000E+00 -0.00000000000E+00 -0.45593999997E+02  0.45594000000E+02  0.51100000000E-03 0. -1.
    9900012    2    1    2    0    0  0.11427322750E+02 -0.20043178135E+02  0.36760175025E+02  0.47787272324E+02  0.20000005833E+02 0.  0.
         12    1    1    2    0    0 -0.11427322750E+02  0.20043178135E+02 -0.36760175025E+02  0.43400727676E+02  0.00000000000E+00 0. -1.
         11    1    3    3    0    0 -0.21008180925E+01  0.34310922573E-01  0.10717676103E+02  0.10921684633E+02  0.51100000000E-03 0. -1.
        -11    1    3    3    0    0  0.11363654639E+02 -0.90965114620E+01  0.17640074131E+02  0.22870316638E+02  0.51100000000E-03 0.  1.
        -12    1    3    3    0    0  0.21644862029E+01 -0.10980977596E+02  0.84024247907E+01  0.13995271053E+02  0.00000000000E+00 0.  1.
</event>
<event>
 7    1  0.2412036E-009  0.4778727E+02  0.7816164E-02  0.1312668E+00
        -11   -1    0    0    0    0  0.00000000000E+00  0.00000000000E+00  0.45593999997E+02  0.45594000000E+02  0.51100000000E-03 0. -1.
         11   -1    0    0    0    0 -0.00000000000E+00 -0.00000000000E+00 -0.45593999997E+02  0.45594000000E+02  0.51100000000E-03 0.  1.
    9900012    2    1    2    0    0 -0.16540056395E+02  0.31790600625E+02 -0.24482797599E+02  0.47787272680E+02  0.20000007456E+02 0.  0.
         12    1    1    2    0    0  0.16540056395E+02 -0.31790600625E+02  0.24482797599E+02  0.43400727320E+02  0.00000000000E+00 0. -1.
         11    1    3    3    0    0 -0.79063754170E+01  0.38761922339E+01 -0.13606703319E+02  0.16207344444E+02  0.51100000000E-03 0. -1.
        -11    1    3    3    0    0 -0.45045544296E+01  0.14611834637E+02 -0.83574095556E+01  0.17425355572E+02  0.51100000000E-03 0.  1.
         12    1    3    3    0    0 -0.41291265485E+01  0.13302573754E+02 -0.25186847241E+01  0.14154572663E+02  0.00000000000E+00 0. -1.
</event>
<event>
 7    1  0.2412036E-009  0.4778727E+02  0.7816164E-02  0.1312668E+00
        -11   -1    0    0    0    0  0.00000000000E+00  0.00000000000E+00  0.45593999997E+02  0.45594000000E+02  0.51100000000E-03 0. -1.
         11   -1    0    0    0    0 -0.00000000000E+00 -0.00000000000E+00 -0.45593999997E+02  0.45594000000E+02  0.51100000000E-03 0.  1.
    9900012    2    1    2    0    0  0.10184568910E+02 -0.38429587885E+01 -0.42013440743E+02  0.47787274440E+02  0.20000015481E+02 0.  0.
         12    1    1    2    0    0 -0.10184568910E+02  0.38429587885E+01  0.42013440743E+02  0.43400725560E+02  0.00000000000E+00 0. -1.
         11    1    3    3    0    0  0.90089618734E+01 -0.87968882939E+00 -0.69532068884E+01  0.11414128647E+02  0.51100000000E-03 0. -1.
        -11    1    3    3    0    0  0.18255154721E+00 -0.43143502006E+01 -0.67485929204E+01  0.80118942446E+01  0.51100000000E-03 0.  1.
         12    1    3    3    0    0  0.99305548912E+00  0.13510802415E+01 -0.28311640934E+02  0.28361251548E+02  0.00000000000E+00 0. -1.
</event>
<event>
 7    1  0.2412036E-009  0.4778727E+02  0.7816164E-02  0.1312668E+00
        -11   -1    0    0    0    0  0.00000000000E+00  0.00000000000E+00  0.45593999997E+02  0.45594000000E+02  0.51100000000E-03 0.  1.
         11   -1    0    0    0    0 -0.00000000000E+00 -0.00000000000E+00 -0.45593999997E+02  0.45594000000E+02  0.51100000000E-03 0. -1.
    9900012    2    1    2    0    0  0.10953670435E+01  0.42155644516E+02  0.10262802920E+02  0.47787270544E+02  0.19999997720E+02 0.  0.
         12    1    1    2    0    0 -0.10953670435E+01 -0.42155644516E+02 -0.10262802920E+02  0.43400729456E+02  0.00000000000E+00 0. -1.
         11    1    3    3    0    0  0.68261135443E+01  0.73970022860E+01 -0.16980839642E+01  0.10207593171E+02  0.51100000000E-03 0. -1.
        -11    1    3    3    0    0 -0.14320205106E+01  0.20109365866E+02  0.87575531847E+01  0.21980264246E+02  0.51100000000E-03 0.  1.
         12    1    3    3    0    0 -0.42987259902E+01  0.14649276364E+02  0.32033336992E+01  0.15599413127E+02  0.00000000000E+00 0. -1.
</event>
<event>
 7    1  0.2412036E-009  0.4778726E+02  0.7816164E-02  0.1312668E+00
        -11   -1    0    0    0    0  0.00000000000E+00  0.00000000000E+00  0.45593999997E+02  0.45594000000E+02  0.51100000000E-03 0.  1.
         11   -1    0    0    0    0 -0.00000000000E+00 -0.00000000000E+00 -0.45593999997E+02  0.45594000000E+02  0.51100000000E-03 0. -1.
    9900012    2    1    2    0    0 -0.44193336159E+01 -0.41925686228E+02 -0.10311679711E+02  0.47787257912E+02  0.19999940125E+02 0.  0.
         12    1    1    2    0    0  0.44193336159E+01  0.41925686228E+02  0.10311679711E+02  0.43400742088E+02  0.00000000000E+00 0. -1.
         11    1    3    3    0    0  0.50927513123E+01 -0.20427167661E+02  0.54758703689E+00  0.21059561876E+02  0.51100000000E-03 0. -1.
        -11    1    3    3    0    0 -0.77706864526E+01 -0.16959136369E+02 -0.54068591890E+01  0.19422409760E+02  0.51100000000E-03 0.  1.
        -12    1    3    3    0    0 -0.17413984757E+01 -0.45393821982E+01 -0.54524075592E+01  0.73052862767E+01  0.00000000000E+00 0.  1.
</event>
<event>
 7    1  0.2412036E-009  0.4778727E+02  0.7816164E-02  0.1312668E+00
        -11   -1    0    0    0    0  0.00000000000E+00  0.00000000000E+00  0.45593999997E+02  0.45594000000E+02  0.51100000000E-03 0.  1.
         11   -1    0    0    0    0 -0.00000000000E+00 -0.00000000000E+00 -0.45593999997E+02  0.45594000000E+02  0.51100000000E-03 0. -1.
    9900012    2    1    2    0    0 -0.91667285782E+00 -0.14163688654E+02  0.41014298581E+02  0.47787273583E+02  0.20000011573E+02 0.  0.
         12    1    1    2    0    0  0.91667285782E+00  0.14163688654E+02 -0.41014298581E+02  0.43400726417E+02  0.00000000000E+00 0. -1.
         11    1    3    3    0    0  0.47743306759E+01 -0.88198376204E+01  0.65925819120E+01  0.12001912580E+02  0.51100000000E-03 0. -1.
        -11    1    3    3    0    0 -0.40318858917E+01 -0.64782918100E+01  0.24446690059E+02  0.25609861845E+02  0.51100000000E-03 0.  1.
         12    1    3    3    0    0 -0.16591176421E+01  0.11344407760E+01  0.99750266102E+01  0.10175499157E+02  0.00000000000E+00 0. -1.
</event>
<event>
 7    1  0.2412036E-009  0.4778728E+02  0.7816164E-02  0.1312668E+00
        -11   -1    0    0    0    0  0.00000000000E+00  0.00000000000E+00  0.45593999997E+02  0.45594000000E+02  0.51100000000E-03 0. -1.
         11   -1    0    0    0    0 -0.00000000000E+00 -0.00000000000E+00 -0.45593999997E+02  0.45594000000E+02  0.51100000000E-03 0.  1.
    9900012    2    1    2    0    0  0.40297234980E+02 -0.12901350624E+02 -0.96597266702E+01  0.47787282099E+02  0.20000050403E+02 0.  0.
         12    1    1    2    0    0 -0.40297234980E+02  0.12901350624E+02  0.96597266702E+01  0.43400717901E+02  0.00000000000E+00 0. -1.
         11    1    3    3    0    0  0.18849983027E+02 -0.10028960678E+02  0.32280201748E+01  0.21594490661E+02  0.51100000000E-03 0. -1.
        -11    1    3    3    0    0  0.19263751201E+02 -0.36594295710E+00 -0.96353300162E+01  0.21542182094E+02  0.51100000000E-03 0.  1.
         12    1    3    3    0    0  0.21835007519E+01 -0.25064469894E+01 -0.32524168288E+01  0.46506093442E+01  0.00000000000E+00 0. -1.
</event>
<event>
 7    1  0.2412036E-009  0.4778726E+02  0.7816164E-02  0.1312668E+00
        -11   -1    0    0    0    0  0.00000000000E+00  0.00000000000E+00  0.45593999997E+02  0.45594000000E+02  0.51100000000E-03 0.  1.
         11   -1    0    0    0    0 -0.00000000000E+00 -0.00000000000E+00 -0.45593999997E+02  0.45594000000E+02  0.51100000000E-03 0. -1.
    9900012    2    1    2    0    0 -0.20643371287E+02  0.27048414003E+02  0.26941760512E+02  0.47787263398E+02  0.19999965136E+02 0.  0.
         12    1    1    2    0    0  0.20643371287E+02 -0.27048414003E+02 -0.26941760512E+02  0.43400736602E+02  0.00000000000E+00 0. -1.
         11    1    3    3    0    0 -0.23747403393E+01  0.90428794698E+00 -0.39050651085E-01  0.25413881216E+01  0.51100000000E-03 0.  1.
        -11    1    3    3    0    0 -0.18319089346E+02  0.12997711644E+02  0.12571340599E+02  0.25740399126E+02  0.51100000000E-03 0. -1.
        -12    1    3    3    0    0  0.50458398255E-01  0.13146414411E+02  0.14409470563E+02  0.19505476150E+02  0.00000000000E+00 0.  1.
</event>
<event>
 7    1  0.2412036E-009  0.4778727E+02  0.7816164E-02  0.1312668E+00
        -11   -1    0    0    0    0  0.00000000000E+00  0.00000000000E+00  0.45593999997E+02  0.45594000000E+02  0.51100000000E-03 0.  1.
         11   -1    0    0    0    0 -0.00000000000E+00 -0.00000000000E+00 -0.45593999997E+02  0.45594000000E+02  0.51100000000E-03 0. -1.
    9900012    2    1    2    0    0 -0.75176167492E+01  0.24469287005E+02  0.35048004286E+02  0.47787272211E+02  0.20000005321E+02 0.  0.
         12    1    1    2    0    0  0.75176167492E+01 -0.24469287005E+02 -0.35048004286E+02  0.43400727789E+02  0.00000000000E+00 0. -1.
         11    1    3    3    0    0 -0.47575636461E+00  0.88826809584E+01  0.20526304064E+02  0.22370907981E+02  0.51100000000E-03 0. -1.
        -11    1    3    3    0    0 -0.36846076434E+01  0.16512872157E+02  0.98101183665E+01  0.19557343965E+02  0.51100000000E-03 0.  1.
         12    1    3    3    0    0 -0.33572527412E+01 -0.92626611054E+00  0.47115818562E+01  0.58590202648E+01  0.00000000000E+00 0. -1.
</event>
<event>
 7    1  0.2412036E-009  0.4778727E+02  0.7816164E-02  0.1312668E+00
        -11   -1    0    0    0    0  0.00000000000E+00  0.00000000000E+00  0.45593999997E+02  0.45594000000E+02  0.51100000000E-03 0. -1.
         11   -1    0    0    0    0 -0.00000000000E+00 -0.00000000000E+00 -0.45593999997E+02  0.45594000000E+02  0.51100000000E-03 0.  1.
    9900012    2    1    2    0    0  0.90760725638E+01 -0.20344940554E+02 -0.37246897822E+02  0.47787273086E+02  0.20000009309E+02 0.  0.
         12    1    1    2    0    0 -0.90760725638E+01  0.20344940554E+02  0.37246897822E+02  0.43400726914E+02  0.00000000000E+00 0. -1.
         11    1    3    3    0    0  0.52398768369E+01 -0.15534083073E+01 -0.17921844933E+02  0.18736646250E+02  0.51100000000E-03 0. -1.
        -11    1    3    3    0    0  0.22383600115E+01 -0.18609208678E+02 -0.19905188167E+02  0.27340984243E+02  0.51100000000E-03 0.  1.
        -12    1    3    3    0    0  0.15978357153E+01 -0.18232356853E+00  0.58013527779E+00  0.17096425935E+01  0.00000000000E+00 0.  1.
</event>
<event>
 7    1  0.2412036E-009  0.4778727E+02  0.7816164E-02  0.1312668E+00
        -11   -1    0    0    0    0  0.00000000000E+00  0.00000000000E+00  0.45593999997E+02  0.45594000000E+02  0.51100000000E-03 0.  1.
         11   -1    0    0    0    0 -0.00000000000E+00 -0.00000000000E+00 -0.45593999997E+02  0.45594000000E+02  0.51100000000E-03 0. -1.
    9900012    2    1    2    0    0  0.43054579422E+02 -0.26666021741E+01 -0.47765493702E+01  0.47787274196E+02  0.20000014371E+02 0.  0.
         12    1    1    2    0    0 -0.43054579422E+02  0.26666021741E+01  0.47765493702E+01  0.43400725804E+02  0.00000000000E+00 0. -1.
         11    1    3    3    0    0  0.39998518287E+02  0.79068868802E+00 -0.59590760549E+01  0.40447709966E+02  0.51100000000E-03 0.  1.
        -11    1    3    3    0    0  0.53373848299E+00 -0.12717241490E+01  0.31686665138E+01  0.34558076938E+01  0.51100000000E-03 0. -1.
        -12    1    3    3    0    0  0.25223226522E+01 -0.21855667131E+01 -0.19861398292E+01  0.38837565372E+01  0.00000000000E+00 0.  1.
</event>
<event>
 7    1  0.2412036E-009  0.4778727E+02  0.7816164E-02  0.1312668E+00
        -11   -1    0    0    0    0  0.00000000000E+00  0.00000000000E+00  0.45593999997E+02  0.45594000000E+02  0.51100000000E-03 0.  1.
         11   -1    0    0    0    0 -0.00000000000E+00 -0.00000000000E+00 -0.45593999997E+02  0.45594000000E+02  0.51100000000E-03 0. -1.
    9900012    2    1    2    0    0  0.33800398720E+01 -0.18392982573E+02  0.39164994737E+02  0.47787270856E+02  0.19999999140E+02 0.  0.
         12    1    1    2    0    0 -0.33800398720E+01  0.18392982573E+02 -0.39164994737E+02  0.43400729144E+02  0.00000000000E+00 0. -1.
         11    1    3    3    0    0  0.10051836771E+02 -0.78812338780E+01  0.17433996036E+02  0.21612438270E+02  0.51100000000E-03 0. -1.
        -11    1    3    3    0    0 -0.74213785605E+01 -0.11287574828E+02  0.19979528179E+02  0.24117789114E+02  0.51100000000E-03 0.  1.
         12    1    3    3    0    0  0.74958166164E+00  0.77582613283E+00  0.17514705219E+01  0.20570434718E+01  0.00000000000E+00 0. -1.
</event>
<event>
 7    1  0.2412036E-009  0.4778727E+02  0.7816164E-02  0.1312668E+00
        -11   -1    0    0    0    0  0.00000000000E+00  0.00000000000E+00  0.45593999997E+02  0.45594000000E+02  0.51100000000E-03 0.  1.
         11   -1    0    0    0    0 -0.00000000000E+00 -0.00000000000E+00 -0.45593999997E+02  0.45594000000E+02  0.51100000000E-03 0. -1.
    9900012    2    1    2    0    0  0.22602471853E+01 -0.40592016211E+01  0.43151331386E+02  0.47787271486E+02  0.20000002013E+02 0.  0.
         12    1    1    2    0    0 -0.22602471853E+01  0.40592016211E+01 -0.43151331386E+02  0.43400728514E+02  0.00000000000E+00 0. -1.
         11    1    3    3    0    0  0.61847909739E+01 -0.95862879263E+01  0.21751247064E+02  0.24561459743E+02  0.51100000000E-03 0. -1.
        -11    1    3    3    0    0 -0.12295214859E+01  0.60589945438E+01  0.16297663348E+02  0.17430919908E+02  0.51100000000E-03 0.  1.
         12    1    3    3    0    0 -0.26950223027E+01 -0.53190823855E+00  0.51024209742E+01  0.57948918354E+01  0.00000000000E+00 0. -1.
</event>
<event>
 7    1  0.2412036E-009  0.4778727E+02  0.7816164E-02  0.1312668E+00
        -11   -1    0    0    0    0  0.00000000000E+00  0.00000000000E+00  0.45593999997E+02  0.45594000000E+02  0.51100000000E-03 0. -1.
         11   -1    0    0    0    0 -0.00000000000E+00 -0.00000000000E+00 -0.45593999997E+02  0.45594000000E+02  0.51100000000E-03 0.  1.
    9900012    2    1    2    0    0  0.11226473272E+02 -0.35793421457E+02 -0.21827055674E+02  0.47787273265E+02  0.20000010124E+02 0.  0.
         12    1    1    2    0    0 -0.11226473272E+02  0.35793421457E+02  0.21827055674E+02  0.43400726735E+02  0.00000000000E+00 0. -1.
         11    1    3    3    0    0  0.77695589095E+01 -0.14778433883E+02 -0.24486813687E+00  0.16698147033E+02  0.51100000000E-03 0. -1.
        -11    1    3    3    0    0  0.16219668167E+01 -0.85206096368E+01 -0.13661334273E+02  0.16182200694E+02  0.51100000000E-03 0.  1.
         12    1    3    3    0    0  0.18349475460E+01 -0.12494377938E+02 -0.79208532640E+01  0.14906925538E+02  0.00000000000E+00 0. -1.
</event>
<event>
 7    1  0.2412036E-009  0.4778727E+02  0.7816164E-02  0.1312668E+00
        -11   -1    0    0    0    0  0.00000000000E+00  0.00000000000E+00  0.45593999997E+02  0.45594000000E+02  0.51100000000E-03 0.  1.
         11   -1    0    0    0    0 -0.00000000000E+00 -0.00000000000E+00 -0.45593999997E+02  0.45594000000E+02  0.51100000000E-03 0. -1.
    9900012    2    1    2    0    0 -0.42147771605E+01  0.41309253109E+02  0.12625544273E+02  0.47787272966E+02  0.20000008760E+02 0.  0.
         12    1    1    2    0    0  0.42147771605E+01 -0.41309253109E+02 -0.12625544273E+02  0.43400727034E+02  0.00000000000E+00 0. -1.
         11    1    3    3    0    0 -0.12023497543E+01  0.22293480665E+01  0.36653584847E+01  0.44553889635E+01  0.51100000000E-03 0. -1.
        -11    1    3    3    0    0 -0.73241967148E+00  0.86533559756E+01  0.94257659757E+01  0.12816476610E+02  0.51100000000E-03 0.  1.
        -12    1    3    3    0    0 -0.22800077347E+01  0.30426549067E+02 -0.46558018783E+00  0.30515407392E+02  0.00000000000E+00 0.  1.
</event>
<event>
 7    1  0.2412036E-009  0.4778727E+02  0.7816164E-02  0.1312668E+00
        -11   -1    0    0    0    0  0.00000000000E+00  0.00000000000E+00  0.45593999997E+02  0.45594000000E+02  0.51100000000E-03 0. -1.
         11   -1    0    0    0    0 -0.00000000000E+00 -0.00000000000E+00 -0.45593999997E+02  0.45594000000E+02  0.51100000000E-03 0.  1.
    9900012    2    1    2    0    0  0.67692503733E+01  0.66372101916E+01 -0.42352663625E+02  0.47787269293E+02  0.19999992014E+02 0.  0.
         12    1    1    2    0    0 -0.67692503733E+01 -0.66372101916E+01  0.42352663625E+02  0.43400730707E+02  0.00000000000E+00 0. -1.
         11    1    3    3    0    0  0.83870061155E+01  0.50576541041E+01 -0.28716849099E+02  0.30341047428E+02  0.51100000000E-03 0.  1.
        -11    1    3    3    0    0 -0.75718602254E+00  0.85062193792E-01  0.17789650571E+01  0.19352734135E+01  0.51100000000E-03 0. -1.
        -12    1    3    3    0    0 -0.86056971963E+00  0.14944938937E+01 -0.15414779584E+02  0.15510948451E+02  0.00000000000E+00 0.  1.
</event>
<event>
 7    1  0.2412036E-009  0.4778727E+02  0.7816164E-02  0.1312668E+00
        -11   -1    0    0    0    0  0.00000000000E+00  0.00000000000E+00  0.45593999997E+02  0.45594000000E+02  0.51100000000E-03 0.  1.
         11   -1    0    0    0    0 -0.00000000000E+00 -0.00000000000E+00 -0.45593999997E+02  0.45594000000E+02  0.51100000000E-03 0. -1.
    9900012    2    1    2    0    0  0.34879757610E+02 -0.23627325864E+02  0.10429539707E+02  0.47787270549E+02  0.19999997739E+02 0.  0.
         12    1    1    2    0    0 -0.34879757610E+02  0.23627325864E+02 -0.10429539707E+02  0.43400729451E+02  0.00000000000E+00 0. -1.
         11    1    3    3    0    0  0.10686119966E+02 -0.11699482372E+02  0.12882249151E+02  0.20421150584E+02  0.51100000000E-03 0. -1.
        -11    1    3    3    0    0  0.25070479703E+01 -0.13424385002E+01  0.94334035583E+00  0.29962179394E+01  0.51100000000E-03 0.  1.
         12    1    3    3    0    0  0.21686589673E+02 -0.10585404992E+02 -0.33960497995E+01  0.24369902026E+02  0.00000000000E+00 0. -1.
</event>
<event>
 7    1  0.2412036E-009  0.4778727E+02  0.7816164E-02  0.1312668E+00
        -11   -1    0    0    0    0  0.00000000000E+00  0.00000000000E+00  0.45593999997E+02  0.45594000000E+02  0.51100000000E-03 0. -1.
         11   -1    0    0    0    0 -0.00000000000E+00 -0.00000000000E+00 -0.45593999997E+02  0.45594000000E+02  0.51100000000E-03 0.  1.
    9900012    2    1    2    0    0 -0.16213394842E+02 -0.27048326736E+02 -0.29818397297E+02  0.47787274558E+02  0.20000016021E+02 0.  0.
         12    1    1    2    0    0  0.16213394842E+02  0.27048326736E+02  0.29818397297E+02  0.43400725442E+02  0.00000000000E+00 0. -1.
         11    1    3    3    0    0 -0.54821162508E+01 -0.24082922578E+02 -0.22998481552E+02  0.33748643120E+02  0.51100000000E-03 0. -1.
        -11    1    3    3    0    0 -0.84116532422E+01 -0.39281555556E+01 -0.36050325604E+01  0.99590449521E+01  0.51100000000E-03 0.  1.
         12    1    3    3    0    0 -0.23196253487E+01  0.96275139726E+00 -0.32148831839E+01  0.40795864860E+01  0.00000000000E+00 0. -1.
</event>
<event>
 7    1  0.2412036E-009  0.4778727E+02  0.7816164E-02  0.1312668E+00
        -11   -1    0    0    0    0  0.00000000000E+00  0.00000000000E+00  0.45593999997E+02  0.45594000000E+02  0.51100000000E-03 0. -1.
         11   -1    0    0    0    0 -0.00000000000E+00 -0.00000000000E+00 -0.45593999997E+02  0.45594000000E+02  0.51100000000E-03 0.  1.
    9900012    2    1    2    0    0 -0.24901736719E+02 -0.34032805322E+02 -0.10261333866E+02  0.47787270716E+02  0.19999998500E+02 0.  0.
         12    1    1    2    0    0  0.24901736719E+02  0.34032805322E+02  0.10261333866E+02  0.43400729284E+02  0.00000000000E+00 0. -1.
         11    1    3    3    0    0 -0.94424132606E+01 -0.16265643234E+02  0.19956469848E+01  0.18913300218E+02  0.51100000000E-03 0. -1.
        -11    1    3    3    0    0 -0.33455016155E+00 -0.24895961720E+01 -0.59678232930E+01  0.64749461795E+01  0.51100000000E-03 0.  1.
        -12    1    3    3    0    0 -0.15124773297E+02 -0.15277565916E+02 -0.62891575578E+01  0.22399024318E+02  0.00000000000E+00 0.  1.
</event>
<event>
 7    1  0.2412036E-009  0.4778727E+02  0.7816164E-02  0.1312668E+00
        -11   -1    0    0    0    0  0.00000000000E+00  0.00000000000E+00  0.45593999997E+02  0.45594000000E+02  0.51100000000E-03 0. -1.
         11   -1    0    0    0    0 -0.00000000000E+00 -0.00000000000E+00 -0.45593999997E+02  0.45594000000E+02  0.51100000000E-03 0.  1.
    9900012    2    1    2    0    0 -0.37217798056E+02 -0.89118539947E+01 -0.20470409455E+02  0.47787270778E+02  0.19999998783E+02 0.  0.
         12    1    1    2    0    0  0.37217798056E+02  0.89118539947E+01  0.20470409455E+02  0.43400729222E+02  0.00000000000E+00 0. -1.
         11    1    3    3    0    0 -0.82859866965E+01 -0.86640009454E+01 -0.84142206251E+01  0.14646555804E+02  0.51100000000E-03 0. -1.
        -11    1    3    3    0    0 -0.23609329087E+02  0.25119383633E+01 -0.13004437610E+02  0.27070752706E+02  0.51100000000E-03 0.  1.
        -12    1    3    3    0    0 -0.53224822728E+01 -0.27597914125E+01  0.94824877948E+00  0.60699622678E+01  0.00000000000E+00 0.  1.
</event>
<event>
 7    1  0.2412036E-009  0.4778727E+02  0.7816164E-02  0.1312668E+00
        -11   -1    0    0    0    0  0.00000000000E+00  0.00000000000E+00  0.45593999997E+02  0.45594000000E+02  0.51100000000E-03 0.  1.
         11   -1    0    0    0    0 -0.00000000000E+00 -0.00000000000E+00 -0.45593999997E+02  0.45594000000E+02  0.51100000000E-03 0. -1.
    9900012    2    1    2    0    0  0.32109052660E+02 -0.29058277159E+02  0.28720334093E+01  0.47787270627E+02  0.19999998098E+02 0.  0.
         12    1    1    2    0    0 -0.32109052660E+02  0.29058277159E+02 -0.28720334093E+01  0.43400729373E+02  0.00000000000E+00 0. -1.
         11    1    3    3    0    0  0.13235455856E+02 -0.62291394126E+01  0.18833595759E+01  0.14748780054E+02  0.51100000000E-03 0. -1.
        -11    1    3    3    0    0  0.24095505316E+00 -0.33323053751E+01 -0.44122463886E+01  0.55344590436E+01  0.51100000000E-03 0.  1.
        -12    1    3    3    0    0  0.18632641751E+02 -0.19496832372E+02  0.54009202219E+01  0.27504031530E+02  0.00000000000E+00 0.  1.
</event>
<event>
 7    1  0.2412036E-009  0.4778727E+02  0.7816164E-02  0.1312668E+00
        -11   -1    0    0    0    0  0.00000000000E+00  0.00000000000E+00  0.45593999997E+02  0.45594000000E+02  0.51100000000E-03 0. -1.
         11   -1    0    0    0    0 -0.00000000000E+00 -0.00000000000E+00 -0.45593999997E+02  0.45594000000E+02  0.51100000000E-03 0.  1.
    9900012    2    1    2    0    0 -0.11538716344E+02 -0.28806286574E+02  0.30342695342E+02  0.47787270955E+02  0.19999999592E+02 0.  0.
         12    1    1    2    0    0  0.11538716344E+02  0.28806286574E+02 -0.30342695342E+02  0.43400729045E+02  0.00000000000E+00 0. -1.
         11    1    3    3    0    0 -0.84523024653E+01 -0.48113746514E+01  0.13940253531E+01  0.98251742960E+01  0.51100000000E-03 0. -1.
        -11    1    3    3    0    0 -0.40100212038E+01 -0.15943896803E+02  0.18788049217E+02  0.24965554449E+02  0.51100000000E-03 0.  1.
         12    1    3    3    0    0  0.92360732472E+00 -0.80510151193E+01  0.10160620772E+02  0.12996542210E+02  0.00000000000E+00 0. -1.
</event>
<event>
 7    1  0.2412036E-009  0.4778727E+02  0.7816164E-02  0.1312668E+00
        -11   -1    0    0    0    0  0.00000000000E+00  0.00000000000E+00  0.45593999997E+02  0.45594000000E+02  0.51100000000E-03 0.  1.
         11   -1    0    0    0    0 -0.00000000000E+00 -0.00000000000E+00 -0.45593999997E+02  0.45594000000E+02  0.51100000000E-03 0. -1.
    9900012    2    1    2    0    0 -0.52967638463E+01  0.38505483433E+02  0.19310498050E+02  0.47787270782E+02  0.19999998806E+02 0.  0.
         12    1    1    2    0    0  0.52967638463E+01 -0.38505483433E+02 -0.19310498050E+02  0.43400729218E+02  0.00000000000E+00 0. -1.
         11    1    3    3    0    0 -0.13509114789E+01 -0.60776452829E+00 -0.49819712140E+00  0.15628628150E+01  0.51100000000E-03 0. -1.
        -11    1    3    3    0    0 -0.34261127219E+01  0.40297238511E+02  0.18880524387E+02  0.44632722092E+02  0.51100000000E-03 0.  1.
        -12    1    3    3    0    0 -0.51973964543E+00 -0.11839905493E+01  0.92817078427E+00  0.15916858750E+01  0.00000000000E+00 0.  1.
</event>
<event>
 7    1  0.2412036E-009  0.4778727E+02  0.7816164E-02  0.1312668E+00
        -11   -1    0    0    0    0  0.00000000000E+00  0.00000000000E+00  0.45593999997E+02  0.45594000000E+02  0.51100000000E-03 0.  1.
         11   -1    0    0    0    0 -0.00000000000E+00 -0.00000000000E+00 -0.45593999997E+02  0.45594000000E+02  0.51100000000E-03 0. -1.
    9900012    2    1    2    0    0 -0.18824605962E+02 -0.27014846396E+02  0.28274643704E+02  0.47787271988E+02  0.20000004301E+02 0.  0.
         12    1    1    2    0    0  0.18824605962E+02  0.27014846396E+02 -0.28274643704E+02  0.43400728012E+02  0.00000000000E+00 0. -1.
         11    1    3    3    0    0 -0.11303145000E+02 -0.40688289264E+01  0.75667298835E+01  0.14197600400E+02  0.51100000000E-03 0. -1.
        -11    1    3    3    0    0 -0.90155178649E+01 -0.11106264659E+02  0.13371659937E+02  0.19581367848E+02  0.51100000000E-03 0.  1.
         12    1    3    3    0    0  0.14940569031E+01 -0.11839752810E+02  0.73362538836E+01  0.14008303740E+02  0.00000000000E+00 0. -1.
</event>
<event>
 7    1  0.2412036E-009  0.4778724E+02  0.7816164E-02  0.1312668E+00
        -11   -1    0    0    0    0  0.00000000000E+00  0.00000000000E+00  0.45593999997E+02  0.45594000000E+02  0.51100000000E-03 0.  1.
         11   -1    0    0    0    0 -0.00000000000E+00 -0.00000000000E+00 -0.45593999997E+02  0.45594000000E+02  0.51100000000E-03 0. -1.
    9900012    2    1    2    0    0  0.36569768509E+02  0.13180197837E+02  0.19301829973E+02  0.47787237056E+02  0.19999845031E+02 0.  0.
         12    1    1    2    0    0 -0.36569768509E+02 -0.13180197837E+02 -0.19301829973E+02  0.43400762944E+02  0.00000000000E+00 0. -1.
         11    1    3    3    0    0  0.16486590023E+02  0.29718608519E+01 -0.16351888094E+00  0.16753099600E+02  0.51100000000E-03 0.  1.
        -11    1    3    3    0    0  0.24804222954E+01  0.31761684046E+01  0.24233339982E+00  0.40372349740E+01  0.51100000000E-03 0. -1.
         12    1    3    3    0    0  0.17602756191E+02  0.70321685801E+01  0.19223015455E+02  0.26996902482E+02  0.00000000000E+00 0. -1.
</event>
<event>
 7    1  0.2412036E-009  0.4778727E+02  0.7816164E-02  0.1312668E+00
        -11   -1    0    0    0    0  0.00000000000E+00  0.00000000000E+00  0.45593999997E+02  0.45594000000E+02  0.51100000000E-03 0.  1.
         11   -1    0    0    0    0 -0.00000000000E+00 -0.00000000000E+00 -0.45593999997E+02  0.45594000000E+02  0.51100000000E-03 0. -1.
    9900012    2    1    2    0    0 -0.20601317597E+02 -0.33981446004E+02  0.17449080440E+02  0.47787269966E+02  0.19999995084E+02 0.  0.
         12    1    1    2    0    0  0.20601317597E+02  0.33981446004E+02 -0.17449080440E+02  0.43400730034E+02  0.00000000000E+00 0. -1.
         11    1    3    3    0    0 -0.62906612774E+01 -0.17849708478E+01  0.87215193368E+01  0.10900616498E+02  0.51100000000E-03 0. -1.
        -11    1    3    3    0    0 -0.39366917073E+01 -0.66334951482E+01  0.46291922456E+01  0.89961225307E+01  0.51100000000E-03 0.  1.
         12    1    3    3    0    0 -0.10373964612E+02 -0.25562980008E+02  0.40983688579E+01  0.27890530937E+02  0.00000000000E+00 0. -1.
</event>
<event>
 7    1  0.2412036E-009  0.4778726E+02  0.7816164E-02  0.1312668E+00
        -11   -1    0    0    0    0  0.00000000000E+00  0.00000000000E+00  0.45593999997E+02  0.45594000000E+02  0.51100000000E-03 0.  1.
         11   -1    0    0    0    0 -0.00000000000E+00 -0.00000000000E+00 -0.45593999997E+02  0.45594000000E+02  0.51100000000E-03 0. -1.
    9900012    2    1    2    0    0 -0.25585587876E+02  0.11731837881E+02  0.33035829126E+02  0.47787258842E+02  0.19999944364E+02 0.  0.
         12    1    1    2    0    0  0.25585587876E+02 -0.11731837881E+02 -0.33035829126E+02  0.43400741158E+02  0.00000000000E+00 0. -1.
         11    1    3    3    0    0 -0.22255999014E+01 -0.16087192037E+01 -0.17640655132E+01  0.32639239870E+01  0.51100000000E-03 0. -1.
        -11    1    3    3    0    0 -0.63799200347E+01  0.16874487900E+01  0.49094604421E+01  0.82251848102E+01  0.51100000000E-03 0.  1.
         12    1    3    3    0    0 -0.16980067940E+02  0.11653108295E+02  0.29890434197E+02  0.36298150045E+02  0.00000000000E+00 0. -1.
</event>
<event>
 7    1  0.2412036E-009  0.4778726E+02  0.7816164E-02  0.1312668E+00
        -11   -1    0    0    0    0  0.00000000000E+00  0.00000000000E+00  0.45593999997E+02  0.45594000000E+02  0.51100000000E-03 0.  1.
         11   -1    0    0    0    0 -0.00000000000E+00 -0.00000000000E+00 -0.45593999997E+02  0.45594000000E+02  0.51100000000E-03 0. -1.
    9900012    2    1    2    0    0  0.38500793313E+02 -0.15426120176E+02  0.12780749639E+02  0.47787264629E+02  0.19999970748E+02 0.  0.
         12    1    1    2    0    0 -0.38500793313E+02  0.15426120176E+02 -0.12780749639E+02  0.43400735371E+02  0.00000000000E+00 0. -1.
         11    1    3    3    0    0  0.17844705238E+02  0.17506796815E+01  0.58559924946E+01  0.18862423830E+02  0.51100000000E-03 0. -1.
        -11    1    3    3    0    0  0.49491795514E+01 -0.12015486452E+01  0.36896204467E+01  0.62889901161E+01  0.51100000000E-03 0.  1.
         12    1    3    3    0    0  0.15706908524E+02 -0.15975251213E+02  0.32351366979E+01  0.22635850683E+02  0.00000000000E+00 0. -1.
</event>
<event>
 7    1  0.2412036E-009  0.4778727E+02  0.7816164E-02  0.1312668E+00
        -11   -1    0    0    0    0  0.00000000000E+00  0.00000000000E+00  0.45593999997E+02  0.45594000000E+02  0.51100000000E-03 0.  1.
         11   -1    0    0    0    0 -0.00000000000E+00 -0.00000000000E+00 -0.45593999997E+02  0.45594000000E+02  0.51100000000E-03 0. -1.
    9900012    2    1    2    0    0  0.36084367897E+02  0.23891042742E+02 -0.32802083676E+01  0.47787270781E+02  0.19999998799E+02 0.  0.
         12    1    1    2    0    0 -0.36084367897E+02 -0.23891042742E+02  0.32802083676E+01  0.43400729219E+02  0.00000000000E+00 0. -1.
         11    1    3    3    0    0 -0.13031619918E+01 -0.10010690521E+01 -0.12097366624E+01  0.20405473475E+01  0.51100000000E-03 0. -1.
        -11    1    3    3    0    0  0.36402073712E+02  0.23658136269E+02 -0.35622108810E+00  0.43415956467E+02  0.51100000000E-03 0.  1.
        -12    1    3    3    0    0  0.98545617633E+00  0.12339755254E+01 -0.17142506171E+01  0.23307669663E+01  0.00000000000E+00 0.  1.
</event>
<event>
 7    1  0.2412036E-009  0.4778729E+02  0.7816164E-02  0.1312668E+00
        -11   -1    0    0    0    0  0.00000000000E+00  0.00000000000E+00  0.45593999997E+02  0.45594000000E+02  0.51100000000E-03 0.  1.
         11   -1    0    0    0    0 -0.00000000000E+00 -0.00000000000E+00 -0.45593999997E+02  0.45594000000E+02  0.51100000000E-03 0. -1.
    9900012    2    1    2    0    0  0.10671007121E+02  0.28745701792E+02  0.30715400507E+02  0.47787290411E+02  0.20000088302E+02 0.  0.
         12    1    1    2    0    0 -0.10671007121E+02 -0.28745701792E+02 -0.30715400507E+02  0.43400709589E+02  0.00000000000E+00 0. -1.
         11    1    3    3    0    0  0.10835446262E+02  0.14525317373E+02  0.11102890848E+02  0.21252433412E+02  0.51100000000E-03 0. -1.
        -11    1    3    3    0    0  0.53242165639E+01  0.74398592182E+01  0.10167014498E+02  0.13677242824E+02  0.51100000000E-03 0.  1.
         12    1    3    3    0    0 -0.54886557048E+01  0.67805252002E+01  0.94454951615E+01  0.12857614175E+02  0.00000000000E+00 0. -1.
</event>
<event>
 7    1  0.2412036E-009  0.4778726E+02  0.7816164E-02  0.1312668E+00
        -11   -1    0    0    0    0  0.00000000000E+00  0.00000000000E+00  0.45593999997E+02  0.45594000000E+02  0.51100000000E-03 0.  1.
         11   -1    0    0    0    0 -0.00000000000E+00 -0.00000000000E+00 -0.45593999997E+02  0.45594000000E+02  0.51100000000E-03 0. -1.
    9900012    2    1    2    0    0  0.39293789247E+02  0.15579725128E+01  0.18362865166E+02  0.47787263038E+02  0.19999963497E+02 0.  0.
         12    1    1    2    0    0 -0.39293789247E+02 -0.15579725128E+01 -0.18362865166E+02  0.43400736962E+02  0.00000000000E+00 0. -1.
         11    1    3    3    0    0  0.16390595257E+02 -0.31656656231E-01 -0.13132004658E+01  0.16443147836E+02  0.51100000000E-03 0. -1.
        -11    1    3    3    0    0  0.69148652578E+01 -0.16867903672E+01  0.22405957562E+01  0.74619630715E+01  0.51100000000E-03 0.  1.
         12    1    3    3    0    0  0.15988328732E+02  0.32764195363E+01  0.17435469876E+02  0.23882152131E+02  0.00000000000E+00 0. -1.
</event>
<event>
 7    1  0.2412036E-009  0.4778727E+02  0.7816164E-02  0.1312668E+00
        -11   -1    0    0    0    0  0.00000000000E+00  0.00000000000E+00  0.45593999997E+02  0.45594000000E+02  0.51100000000E-03 0.  1.
         11   -1    0    0    0    0 -0.00000000000E+00 -0.00000000000E+00 -0.45593999997E+02  0.45594000000E+02  0.51100000000E-03 0. -1.
    9900012    2    1    2    0    0  0.73729108372E+00 -0.39329099032E+02  0.18338534289E+02  0.47787268800E+02  0.19999989768E+02 0.  0.
         12    1    1    2    0    0 -0.73729108372E+00  0.39329099032E+02 -0.18338534289E+02  0.43400731200E+02  0.00000000000E+00 0. -1.
         11    1    3    3    0    0  0.55690290597E+00 -0.10915607530E+01 -0.46454325560E+00  0.13105138006E+01  0.51100000000E-03 0. -1.
        -11    1    3    3    0    0 -0.16392923021E+01  0.11640704181E+01  0.37564353515E+01  0.42606508894E+01  0.51100000000E-03 0.  1.
        -12    1    3    3    0    0  0.18196804798E+01 -0.39401608697E+02  0.15046642193E+02  0.42216104110E+02  0.00000000000E+00 0.  1.
</event>
<event>
 7    1  0.2412036E-009  0.4778727E+02  0.7816164E-02  0.1312668E+00
        -11   -1    0    0    0    0  0.00000000000E+00  0.00000000000E+00  0.45593999997E+02  0.45594000000E+02  0.51100000000E-03 0.  1.
         11   -1    0    0    0    0 -0.00000000000E+00 -0.00000000000E+00 -0.45593999997E+02  0.45594000000E+02  0.51100000000E-03 0. -1.
    9900012    2    1    2    0    0 -0.35181835898E+02 -0.25310239597E+02  0.22920839474E+01  0.47787268965E+02  0.19999990518E+02 0.  0.
         12    1    1    2    0    0  0.35181835898E+02  0.25310239597E+02 -0.22920839474E+01  0.43400731035E+02  0.00000000000E+00 0. -1.
         11    1    3    3    0    0 -0.36935012967E+01 -0.40624332370E+01  0.47215330000E+01  0.72414218055E+01  0.51100000000E-03 0. -1.
        -11    1    3    3    0    0 -0.27383454936E+02 -0.11409411528E+02 -0.25720711276E+00  0.29666385547E+02  0.51100000000E-03 0.  1.
        -12    1    3    3    0    0 -0.41048796647E+01 -0.98383948321E+01 -0.21722419398E+01  0.10879461613E+02  0.00000000000E+00 0.  1.
</event>
<event>
 7    1  0.2412036E-009  0.4778727E+02  0.7816164E-02  0.1312668E+00
        -11   -1    0    0    0    0  0.00000000000E+00  0.00000000000E+00  0.45593999997E+02  0.45594000000E+02  0.51100000000E-03 0.  1.
         11   -1    0    0    0    0 -0.00000000000E+00 -0.00000000000E+00 -0.45593999997E+02  0.45594000000E+02  0.51100000000E-03 0. -1.
    9900012    2    1    2    0    0 -0.38992174691E+02 -0.56482927019E+01  0.18202493657E+02  0.47787266447E+02  0.19999979040E+02 0.  0.
         12    1    1    2    0    0  0.38992174691E+02  0.56482927019E+01 -0.18202493657E+02  0.43400733553E+02  0.00000000000E+00 0. -1.
         11    1    3    3    0    0 -0.87197301626E+01  0.16490646113E+00  0.75584029661E+01  0.11540812099E+02  0.51100000000E-03 0. -1.
        -11    1    3    3    0    0 -0.31027219660E+02 -0.34355144997E+01  0.72732740712E+01  0.32052950499E+02  0.51100000000E-03 0.  1.
        -12    1    3    3    0    0  0.75477513120E+00 -0.23776846633E+01  0.33708166193E+01  0.41935038497E+01  0.00000000000E+00 0.  1.
</event>
<event>
 7    1  0.2412036E-009  0.4778728E+02  0.7816164E-02  0.1312668E+00
        -11   -1    0    0    0    0  0.00000000000E+00  0.00000000000E+00  0.45593999997E+02  0.45594000000E+02  0.51100000000E-03 0.  1.
         11   -1    0    0    0    0 -0.00000000000E+00 -0.00000000000E+00 -0.45593999997E+02  0.45594000000E+02  0.51100000000E-03 0. -1.
    9900012    2    1    2    0    0  0.29256895010E+02  0.12145825091E+02  0.29667079938E+02  0.47787278752E+02  0.20000035143E+02 0.  0.
         12    1    1    2    0    0 -0.29256895010E+02 -0.12145825091E+02 -0.29667079938E+02  0.43400721248E+02  0.00000000000E+00 0. -1.
         11    1    3    3    0    0  0.62933393376E+01  0.64413191680E+00  0.48170502455E+01  0.79514149227E+01  0.51100000000E-03 0. -1.
        -11    1    3    3    0    0  0.11900653947E+02  0.34513791801E+01  0.11167282426E+01  0.12441248524E+02  0.51100000000E-03 0.  1.
        -12    1    3    3    0    0  0.11062901725E+02  0.80503139940E+01  0.23733301450E+02  0.27394615305E+02  0.00000000000E+00 0.  1.
</event>
<event>
 7    1  0.2412036E-009  0.4778727E+02  0.7816164E-02  0.1312668E+00
        -11   -1    0    0    0    0  0.00000000000E+00  0.00000000000E+00  0.45593999997E+02  0.45594000000E+02  0.51100000000E-03 0.  1.
         11   -1    0    0    0    0 -0.00000000000E+00 -0.00000000000E+00 -0.45593999997E+02  0.45594000000E+02  0.51100000000E-03 0. -1.
    9900012    2    1    2    0    0  0.36245375831E+02  0.57566621770E+01  0.23168011544E+02  0.47787272040E+02  0.20000004539E+02 0.  0.
         12    1    1    2    0    0 -0.36245375831E+02 -0.57566621770E+01 -0.23168011544E+02  0.43400727960E+02  0.00000000000E+00 0. -1.
         11    1    3    3    0    0  0.59923468247E+01  0.66612531515E+01  0.11246855306E+02  0.14379578177E+02  0.51100000000E-03 0. -1.
        -11    1    3    3    0    0  0.23688188021E+02 -0.38469246134E+01  0.87213300438E+01  0.25534108144E+02  0.51100000000E-03 0.  1.
        -12    1    3    3    0    0  0.65648409852E+01  0.29423336390E+01  0.31998261947E+01  0.78735857194E+01  0.00000000000E+00 0.  1.
</event>
<event>
 7    1  0.2412036E-009  0.4778730E+02  0.7816164E-02  0.1312668E+00
        -11   -1    0    0    0    0  0.00000000000E+00  0.00000000000E+00  0.45593999997E+02  0.45594000000E+02  0.51100000000E-03 0.  1.
         11   -1    0    0    0    0 -0.00000000000E+00 -0.00000000000E+00 -0.45593999997E+02  0.45594000000E+02  0.51100000000E-03 0. -1.
    9900012    2    1    2    0    0  0.32375382840E+02 -0.28554379813E+02  0.44836006443E+01  0.47787300751E+02  0.20000135442E+02 0.  0.
         12    1    1    2    0    0 -0.32375382840E+02  0.28554379813E+02 -0.44836006443E+01  0.43400699249E+02  0.00000000000E+00 0. -1.
         11    1    3    3    0    0  0.45557230069E+01  0.50400489927E+00  0.42576445249E+01  0.62558908411E+01  0.51100000000E-03 0. -1.
        -11    1    3    3    0    0  0.20076350575E+02 -0.13628562452E+02 -0.61667630871E-01  0.24265229652E+02  0.51100000000E-03 0.  1.
         12    1    3    3    0    0  0.77433092590E+01 -0.15429822260E+02  0.28762375029E+00  0.17266180258E+02  0.00000000000E+00 0. -1.
</event>
<event>
 7    1  0.2412036E-009  0.4778727E+02  0.7816164E-02  0.1312668E+00
        -11   -1    0    0    0    0  0.00000000000E+00  0.00000000000E+00  0.45593999997E+02  0.45594000000E+02  0.51100000000E-03 0.  1.
         11   -1    0    0    0    0 -0.00000000000E+00 -0.00000000000E+00 -0.45593999997E+02  0.45594000000E+02  0.51100000000E-03 0. -1.
    9900012    2    1    2    0    0  0.29663394364E+02 -0.28862698003E+02 -0.13063351348E+02  0.47787269019E+02  0.19999990767E+02 0.  0.
         12    1    1    2    0    0 -0.29663394364E+02  0.28862698003E+02  0.13063351348E+02  0.43400730981E+02  0.00000000000E+00 0. -1.
         11    1    3    3    0    0  0.10967795785E+02 -0.17228072134E+02 -0.89324189774E+01  0.22290965050E+02  0.51100000000E-03 0. -1.
        -11    1    3    3    0    0  0.20017310676E+02 -0.95988131203E+01 -0.20411867275E+01  0.22293415699E+02  0.51100000000E-03 0.  1.
         12    1    3    3    0    0 -0.13217120968E+01 -0.20358127484E+01 -0.20897456435E+01  0.32028882696E+01  0.00000000000E+00 0. -1.
</event>
<event>
 7    1  0.2412036E-009  0.4778728E+02  0.7816164E-02  0.1312668E+00
        -11   -1    0    0    0    0  0.00000000000E+00  0.00000000000E+00  0.45593999997E+02  0.45594000000E+02  0.51100000000E-03 0. -1.
         11   -1    0    0    0    0 -0.00000000000E+00 -0.00000000000E+00 -0.45593999997E+02  0.45594000000E+02  0.51100000000E-03 0.  1.
    9900012    2    1    2    0    0 -0.88233659872E+01 -0.20233910599E+02 -0.37367890640E+02  0.47787283688E+02  0.20000057647E+02 0.  0.
         12    1    1    2    0    0  0.88233659872E+01  0.20233910599E+02  0.37367890640E+02  0.43400716312E+02  0.00000000000E+00 0. -1.
         11    1    3    3    0    0 -0.59154483918E+01 -0.38821424289E+01 -0.21808258068E+02  0.22927356580E+02  0.51100000000E-03 0. -1.
        -11    1    3    3    0    0 -0.65093983346E+00 -0.86557880881E+01 -0.16971195494E+01  0.88445805508E+01  0.51100000000E-03 0.  1.
         12    1    3    3    0    0 -0.22569777619E+01 -0.76959800821E+01 -0.13862513023E+02  0.16015346557E+02  0.00000000000E+00 0. -1.
</event>
<event>
 7    1  0.2412036E-009  0.4778727E+02  0.7816164E-02  0.1312668E+00
        -11   -1    0    0    0    0  0.00000000000E+00  0.00000000000E+00  0.45593999997E+02  0.45594000000E+02  0.51100000000E-03 0.  1.
         11   -1    0    0    0    0 -0.00000000000E+00 -0.00000000000E+00 -0.45593999997E+02  0.45594000000E+02  0.51100000000E-03 0. -1.
    9900012    2    1    2    0    0 -0.29669917086E+02 -0.31671310166E+02  0.49730140187E+00  0.47787272170E+02  0.20000005132E+02 0.  0.
         12    1    1    2    0    0  0.29669917086E+02  0.31671310166E+02 -0.49730140187E+00  0.43400727830E+02  0.00000000000E+00 0. -1.
         11    1    3    3    0    0 -0.21366965740E+02 -0.25315325051E+02 -0.33008626358E+01  0.33291269153E+02  0.51100000000E-03 0. -1.
        -11    1    3    3    0    0 -0.89367860074E+01 -0.28463193610E+01  0.13021376499E+00  0.93800124698E+01  0.51100000000E-03 0.  1.
         12    1    3    3    0    0  0.63383466203E+00 -0.35096657538E+01  0.36679502726E+01  0.51159905477E+01  0.00000000000E+00 0. -1.
</event>
<event>
 7    1  0.2412036E-009  0.4778727E+02  0.7816164E-02  0.1312668E+00
        -11   -1    0    0    0    0  0.00000000000E+00  0.00000000000E+00  0.45593999997E+02  0.45594000000E+02  0.51100000000E-03 0. -1.
         11   -1    0    0    0    0 -0.00000000000E+00 -0.00000000000E+00 -0.45593999997E+02  0.45594000000E+02  0.51100000000E-03 0.  1.
    9900012    2    1    2    0    0  0.10291139603E+02 -0.42008907773E+02  0.36010120211E+01  0.47787272193E+02  0.20000005238E+02 0.  0.
         12    1    1    2    0    0 -0.10291139603E+02  0.42008907773E+02 -0.36010120211E+01  0.43400727807E+02  0.00000000000E+00 0. -1.
         11    1    3    3    0    0  0.28403961471E+01 -0.30503089266E+02  0.53567010963E+01  0.31099848101E+02  0.51100000000E-03 0. -1.
        -11    1    3    3    0    0 -0.71795251223E+00  0.10093258947E+01 -0.12111962629E+01  0.17323946491E+01  0.51100000000E-03 0.  1.
         12    1    3    3    0    0  0.81686959685E+01 -0.12515144402E+02 -0.54449281232E+00  0.14955029443E+02  0.00000000000E+00 0. -1.
</event>
<event>
 7    1  0.2412036E-009  0.4778727E+02  0.7816164E-02  0.1312668E+00
        -11   -1    0    0    0    0  0.00000000000E+00  0.00000000000E+00  0.45593999997E+02  0.45594000000E+02  0.51100000000E-03 0. -1.
         11   -1    0    0    0    0 -0.00000000000E+00 -0.00000000000E+00 -0.45593999997E+02  0.45594000000E+02  0.51100000000E-03 0.  1.
    9900012    2    1    2    0    0 -0.39050327301E+02  0.10172766941E+02 -0.15975292990E+02  0.47787271485E+02  0.20000002009E+02 0.  0.
         12    1    1    2    0    0  0.39050327301E+02 -0.10172766941E+02  0.15975292990E+02  0.43400728515E+02  0.00000000000E+00 0. -1.
         11    1    3    3    0    0 -0.14861624602E+01  0.52974667566E+01 -0.61222877966E+01  0.82312964362E+01  0.51100000000E-03 0. -1.
        -11    1    3    3    0    0 -0.25684125135E+02  0.26357516193E+01 -0.93378098283E+01  0.27455712761E+02  0.51100000000E-03 0.  1.
         12    1    3    3    0    0 -0.11880039705E+02  0.22395485647E+01 -0.51519536516E+00  0.12100262288E+02  0.00000000000E+00 0. -1.
</event>
<event>
 7    1  0.2412036E-009  0.4778727E+02  0.7816164E-02  0.1312668E+00
        -11   -1    0    0    0    0  0.00000000000E+00  0.00000000000E+00  0.45593999997E+02  0.45594000000E+02  0.51100000000E-03 0.  1.
         11   -1    0    0    0    0 -0.00000000000E+00 -0.00000000000E+00 -0.45593999997E+02  0.45594000000E+02  0.51100000000E-03 0. -1.
    9900012    2    1    2    0    0 -0.23827098734E+02  0.28931935631E+02  0.21882308650E+02  0.47787274599E+02  0.20000016208E+02 0.  0.
         12    1    1    2    0    0  0.23827098734E+02 -0.28931935631E+02 -0.21882308650E+02  0.43400725401E+02  0.00000000000E+00 0. -1.
         11    1    3    3    0    0 -0.12842169494E+02  0.24661190299E+02  0.80928611955E+01  0.28958418929E+02  0.51100000000E-03 0. -1.
        -11    1    3    3    0    0 -0.10876516009E+02  0.48502217661E+01  0.11843574746E+02  0.16795639753E+02  0.51100000000E-03 0.  1.
         12    1    3    3    0    0 -0.10841323034E+00 -0.57947643419E+00  0.19458727089E+01  0.20332159171E+01  0.00000000000E+00 0. -1.
</event>
<event>
 7    1  0.2412036E-009  0.4778727E+02  0.7816164E-02  0.1312668E+00
        -11   -1    0    0    0    0  0.00000000000E+00  0.00000000000E+00  0.45593999997E+02  0.45594000000E+02  0.51100000000E-03 0.  1.
         11   -1    0    0    0    0 -0.00000000000E+00 -0.00000000000E+00 -0.45593999997E+02  0.45594000000E+02  0.51100000000E-03 0. -1.
    9900012    2    1    2    0    0 -0.59060859028E+01  0.18259756719E+02  0.38927142752E+02  0.47787274096E+02  0.20000013915E+02 0.  0.
         12    1    1    2    0    0  0.59060859028E+01 -0.18259756719E+02 -0.38927142752E+02  0.43400725904E+02  0.00000000000E+00 0. -1.
         11    1    3    3    0    0 -0.12163678336E+01  0.22272476107E+01 -0.15077628691E+01  0.29518691971E+01  0.51100000000E-03 0. -1.
        -11    1    3    3    0    0 -0.63706563820E+01  0.60157667266E+01  0.23597698163E+02  0.25171930218E+02  0.51100000000E-03 0.  1.
         12    1    3    3    0    0  0.16809383128E+01  0.10016742382E+02  0.16837207458E+02  0.19663474681E+02  0.00000000000E+00 0. -1.
</event>
<event>
 7    1  0.2412036E-009  0.4778727E+02  0.7816164E-02  0.1312668E+00
        -11   -1    0    0    0    0  0.00000000000E+00  0.00000000000E+00  0.45593999997E+02  0.45594000000E+02  0.51100000000E-03 0. -1.
         11   -1    0    0    0    0 -0.00000000000E+00 -0.00000000000E+00 -0.45593999997E+02  0.45594000000E+02  0.51100000000E-03 0.  1.
    9900012    2    1    2    0    0 -0.56701377021E+01 -0.58588107330E+01 -0.42628006765E+02  0.47787273214E+02  0.20000009894E+02 0.  0.
         12    1    1    2    0    0  0.56701377021E+01  0.58588107330E+01  0.42628006765E+02  0.43400726786E+02  0.00000000000E+00 0. -1.
         11    1    3    3    0    0  0.35461982933E+01 -0.93514022292E+01 -0.18066068702E+02  0.20649626742E+02  0.51100000000E-03 0. -1.
        -11    1    3    3    0    0 -0.50800082887E+01  0.18518722580E+01 -0.20182346526E+02  0.20894090711E+02  0.51100000000E-03 0.  1.
         12    1    3    3    0    0 -0.41363277066E+01  0.16407192382E+01 -0.43795915365E+01  0.62435557611E+01  0.00000000000E+00 0. -1.
</event>
<event>
 7    1  0.2412036E-009  0.4778727E+02  0.7816164E-02  0.1312668E+00
        -11   -1    0    0    0    0  0.00000000000E+00  0.00000000000E+00  0.45593999997E+02  0.45594000000E+02  0.51100000000E-03 0.  1.
         11   -1    0    0    0    0 -0.00000000000E+00 -0.00000000000E+00 -0.45593999997E+02  0.45594000000E+02  0.51100000000E-03 0. -1.
    9900012    2    1    2    0    0 -0.31524575453E+01 -0.36415933972E+02  0.23400107143E+02  0.47787271320E+02  0.20000001258E+02 0.  0.
         12    1    1    2    0    0  0.31524575453E+01  0.36415933972E+02 -0.23400107143E+02  0.43400728680E+02  0.00000000000E+00 0. -1.
         11    1    3    3    0    0 -0.14564585782E+01  0.80984462813E+00  0.19670694168E+01  0.25780772415E+01  0.51100000000E-03 0. -1.
        -11    1    3    3    0    0  0.33148040663E+01 -0.26760171509E+02  0.19883295119E+02  0.33502837645E+02  0.51100000000E-03 0.  1.
        -12    1    3    3    0    0 -0.50108030333E+01 -0.10465607090E+02  0.15497426075E+01  0.11706356434E+02  0.00000000000E+00 0.  1.
</event>
<event>
 7    1  0.2412036E-009  0.4778727E+02  0.7816164E-02  0.1312668E+00
        -11   -1    0    0    0    0  0.00000000000E+00  0.00000000000E+00  0.45593999997E+02  0.45594000000E+02  0.51100000000E-03 0.  1.
         11   -1    0    0    0    0 -0.00000000000E+00 -0.00000000000E+00 -0.45593999997E+02  0.45594000000E+02  0.51100000000E-03 0. -1.
    9900012    2    1    2    0    0 -0.22965647895E+01  0.25853539981E+02  0.34784242802E+02  0.47787270897E+02  0.19999999327E+02 0.  0.
         12    1    1    2    0    0  0.22965647895E+01 -0.25853539981E+02 -0.34784242802E+02  0.43400729103E+02  0.00000000000E+00 0. -1.
         11    1    3    3    0    0  0.82590470351E+00 -0.17086354348E+00  0.75300431692E+00  0.11306319880E+01  0.51100000000E-03 0. -1.
        -11    1    3    3    0    0 -0.67248214534E+01  0.19443324189E+01  0.11613277401E+02  0.13559936003E+02  0.51100000000E-03 0.  1.
        -12    1    3    3    0    0  0.36023519603E+01  0.24080071106E+02  0.22417961084E+02  0.33096702906E+02  0.00000000000E+00 0.  1.
</event>
<event>
 7    1  0.2418587E-009  0.4778727E+02  0.7816164E-02  0.1312668E+00
        -11   -1    0    0    0    0  0.00000000000E+00  0.00000000000E+00  0.45593999997E+02  0.45594000000E+02  0.51100000000E-03 0.  1.
         11   -1    0    0    0    0 -0.00000000000E+00 -0.00000000000E+00 -0.45593999997E+02  0.45594000000E+02  0.51100000000E-03 0. -1.
    9900012    2    1    2    0    0  0.17850941504E+01  0.37683340244E+02  0.21456991960E+02  0.47787271929E+02  0.20000004034E+02 0.  0.
         12    1    1    2    0    0 -0.17850941504E+01 -0.37683340244E+02 -0.21456991960E+02  0.43400728071E+02  0.00000000000E+00 0. -1.
         11    1    3    3    0    0  0.66958109989E+01  0.81285684680E+01  0.29994116746E+00  0.10535533932E+02  0.51100000000E-03 0. -1.
        -11    1    3    3    0    0 -0.43621171476E+01  0.17710787065E+02  0.92627608551E+01  0.20457242810E+02  0.51100000000E-03 0.  1.
        -12    1    3    3    0    0 -0.54859970096E+00  0.11843984712E+02  0.11894289937E+02  0.16794495187E+02  0.00000000000E+00 0.  1.
</event>
<event>
 7    1  0.2412036E-009  0.4778727E+02  0.7816164E-02  0.1312668E+00
        -11   -1    0    0    0    0  0.00000000000E+00  0.00000000000E+00  0.45593999997E+02  0.45594000000E+02  0.51100000000E-03 0.  1.
         11   -1    0    0    0    0 -0.00000000000E+00 -0.00000000000E+00 -0.45593999997E+02  0.45594000000E+02  0.51100000000E-03 0. -1.
    9900012    2    1    2    0    0 -0.35367912510E+02 -0.25043212853E+01  0.25029233587E+02  0.47787269656E+02  0.19999993670E+02 0.  0.
         12    1    1    2    0    0  0.35367912510E+02  0.25043212853E+01 -0.25029233587E+02  0.43400730344E+02  0.00000000000E+00 0. -1.
         11    1    3    3    0    0 -0.24959450174E+02 -0.79733315642E+01  0.15442503590E+02  0.30414126432E+02  0.51100000000E-03 0. -1.
        -11    1    3    3    0    0 -0.95432492490E+01  0.26361327612E+01  0.10341171379E+02  0.14316515914E+02  0.51100000000E-03 0.  1.
         12    1    3    3    0    0 -0.86521308652E+00  0.28328775177E+01 -0.75444138127E+00  0.30566273102E+01  0.00000000000E+00 0. -1.
</event>
<event>
 7    1  0.2412036E-009  0.4778725E+02  0.7816164E-02  0.1312668E+00
        -11   -1    0    0    0    0  0.00000000000E+00  0.00000000000E+00  0.45593999997E+02  0.45594000000E+02  0.51100000000E-03 0.  1.
         11   -1    0    0    0    0 -0.00000000000E+00 -0.00000000000E+00 -0.45593999997E+02  0.45594000000E+02  0.51100000000E-03 0. -1.
    9900012    2    1    2    0    0 -0.15088549229E+02  0.35265901218E+02  0.20304609955E+02  0.47787247795E+02  0.19999893998E+02 0.  0.
         12    1    1    2    0    0  0.15088549229E+02 -0.35265901218E+02 -0.20304609955E+02  0.43400752205E+02  0.00000000000E+00 0. -1.
         11    1    3    3    0    0  0.16100011103E+01  0.39972916156E+01 -0.19006696822E+01  0.47098820938E+01  0.51100000000E-03 0. -1.
        -11    1    3    3    0    0 -0.17138820506E+02  0.23528458859E+02  0.18446186244E+02  0.34461418018E+02  0.51100000000E-03 0.  1.
         12    1    3    3    0    0  0.44027016725E+00  0.77401507428E+01  0.37590933931E+01  0.86159476832E+01  0.00000000000E+00 0. -1.
</event>
<event>
 7    1  0.2412036E-009  0.4778727E+02  0.7816164E-02  0.1312668E+00
        -11   -1    0    0    0    0  0.00000000000E+00  0.00000000000E+00  0.45593999997E+02  0.45594000000E+02  0.51100000000E-03 0.  1.
         11   -1    0    0    0    0 -0.00000000000E+00 -0.00000000000E+00 -0.45593999997E+02  0.45594000000E+02  0.51100000000E-03 0. -1.
    9900012    2    1    2    0    0 -0.26288011186E+02  0.21663851756E+02  0.26893142171E+02  0.47787273038E+02  0.20000009091E+02 0.  0.
         12    1    1    2    0    0  0.26288011186E+02 -0.21663851756E+02 -0.26893142171E+02  0.43400726962E+02  0.00000000000E+00 0. -1.
         11    1    3    3    0    0 -0.12590364702E+02  0.54044199244E+01  0.26985187305E+01  0.13964492173E+02  0.51100000000E-03 0. -1.
        -11    1    3    3    0    0 -0.30835431447E+01  0.83671240469E+01  0.15842502641E+02  0.18179711036E+02  0.51100000000E-03 0.  1.
        -12    1    3    3    0    0 -0.10614103339E+02  0.78923077846E+01  0.83521207989E+01  0.15643069830E+02  0.00000000000E+00 0.  1.
</event>
<event>
 7    1  0.2412036E-009  0.4778727E+02  0.7816164E-02  0.1312668E+00
        -11   -1    0    0    0    0  0.00000000000E+00  0.00000000000E+00  0.45593999997E+02  0.45594000000E+02  0.51100000000E-03 0. -1.
         11   -1    0    0    0    0 -0.00000000000E+00 -0.00000000000E+00 -0.45593999997E+02  0.45594000000E+02  0.51100000000E-03 0.  1.
    9900012    2    1    2    0    0  0.30252048414E+01 -0.34835405057E+02  0.25709259826E+02  0.47787270160E+02  0.19999995969E+02 0.  0.
         12    1    1    2    0    0 -0.30252048414E+01  0.34835405057E+02 -0.25709259826E+02  0.43400729840E+02  0.00000000000E+00 0. -1.
         11    1    3    3    0    0 -0.34656743792E+01 -0.75627016610E+01  0.12937002646E+02  0.15380877512E+02  0.51100000000E-03 0. -1.
        -11    1    3    3    0    0  0.55459202542E+01 -0.15426991222E+02  0.22751526530E+01  0.16550698157E+02  0.51100000000E-03 0.  1.
        -12    1    3    3    0    0  0.94495896646E+00 -0.11845712174E+02  0.10497104528E+02  0.15855694492E+02  0.00000000000E+00 0.  1.
</event>
<event>
 7    1  0.2412036E-009  0.4778727E+02  0.7816164E-02  0.1312668E+00
        -11   -1    0    0    0    0  0.00000000000E+00  0.00000000000E+00  0.45593999997E+02  0.45594000000E+02  0.51100000000E-03 0.  1.
         11   -1    0    0    0    0 -0.00000000000E+00 -0.00000000000E+00 -0.45593999997E+02  0.45594000000E+02  0.51100000000E-03 0. -1.
    9900012    2    1    2    0    0 -0.36001141583E+02  0.26787036322E+01  0.24090772659E+02  0.47787274479E+02  0.20000015660E+02 0.  0.
         12    1    1    2    0    0  0.36001141583E+02 -0.26787036322E+01 -0.24090772659E+02  0.43400725521E+02  0.00000000000E+00 0. -1.
         11    1    3    3    0    0 -0.41313090862E+01  0.60403914813E+00 -0.45646677997E+00  0.42001119319E+01  0.51100000000E-03 0. -1.
        -11    1    3    3    0    0 -0.18897659708E+02  0.87856109460E+01  0.10553150698E+02  0.23359740838E+02  0.51100000000E-03 0.  1.
        -12    1    3    3    0    0 -0.12972172789E+02 -0.67109464619E+01  0.13994088741E+02  0.20227421709E+02  0.00000000000E+00 0.  1.
</event>
<event>
 7    1  0.2412036E-009  0.4778727E+02  0.7816164E-02  0.1312668E+00
        -11   -1    0    0    0    0  0.00000000000E+00  0.00000000000E+00  0.45593999997E+02  0.45594000000E+02  0.51100000000E-03 0.  1.
         11   -1    0    0    0    0 -0.00000000000E+00 -0.00000000000E+00 -0.45593999997E+02  0.45594000000E+02  0.51100000000E-03 0. -1.
    9900012    2    1    2    0    0  0.11584821452E+02 -0.12934840267E+02  0.39775681324E+02  0.47787274135E+02  0.20000014091E+02 0.  0.
         12    1    1    2    0    0 -0.11584821452E+02  0.12934840267E+02 -0.39775681324E+02  0.43400725865E+02  0.00000000000E+00 0. -1.
         11    1    3    3    0    0 -0.26086196952E+01 -0.16712841778E+01  0.13310388679E+02  0.13666182150E+02  0.51100000000E-03 0. -1.
        -11    1    3    3    0    0  0.14996433536E+00 -0.13777506796E+01  0.10759393498E+02  0.10848282580E+02  0.51100000000E-03 0.  1.
         12    1    3    3    0    0  0.14043476811E+02 -0.98858054099E+01  0.15705899147E+02  0.23272809405E+02  0.00000000000E+00 0. -1.
</event>
<event>
 7    1  0.2412036E-009  0.4778727E+02  0.7816164E-02  0.1312668E+00
        -11   -1    0    0    0    0  0.00000000000E+00  0.00000000000E+00  0.45593999997E+02  0.45594000000E+02  0.51100000000E-03 0. -1.
         11   -1    0    0    0    0 -0.00000000000E+00 -0.00000000000E+00 -0.45593999997E+02  0.45594000000E+02  0.51100000000E-03 0.  1.
    9900012    2    1    2    0    0 -0.18266649924E+02  0.38560742430E+02 -0.79386583493E+01  0.47787266682E+02  0.19999980110E+02 0.  0.
         12    1    1    2    0    0  0.18266649924E+02 -0.38560742430E+02  0.79386583493E+01  0.43400733318E+02  0.00000000000E+00 0. -1.
         11    1    3    3    0    0  0.13627589873E+00 -0.10229798549E+01 -0.32164882628E+01  0.33779958422E+01  0.51100000000E-03 0. -1.
        -11    1    3    3    0    0 -0.18342854628E+02  0.39759932732E+02 -0.43620350663E+01  0.44003862523E+02  0.51100000000E-03 0.  1.
        -12    1    3    3    0    0 -0.60071194190E-01 -0.17621044786E+00 -0.36013502029E+00  0.40540831657E+00  0.00000000000E+00 0.  1.
</event>
<event>
 7    1  0.2412036E-009  0.4778727E+02  0.7816164E-02  0.1312668E+00
        -11   -1    0    0    0    0  0.00000000000E+00  0.00000000000E+00  0.45593999997E+02  0.45594000000E+02  0.51100000000E-03 0. -1.
         11   -1    0    0    0    0 -0.00000000000E+00 -0.00000000000E+00 -0.45593999997E+02  0.45594000000E+02  0.51100000000E-03 0.  1.
    9900012    2    1    2    0    0  0.17733243002E+02 -0.23044919185E+02 -0.32219355727E+02  0.47787273150E+02  0.20000009602E+02 0.  0.
         12    1    1    2    0    0 -0.17733243002E+02  0.23044919185E+02  0.32219355727E+02  0.43400726850E+02  0.00000000000E+00 0. -1.
         11    1    3    3    0    0  0.52487210675E+00 -0.12826127394E+02 -0.78059711837E+01  0.15023921627E+02  0.51100000000E-03 0. -1.
        -11    1    3    3    0    0  0.57205962133E+01  0.57611787454E+00 -0.41523474165E+01  0.70921874037E+01  0.51100000000E-03 0.  1.
         12    1    3    3    0    0  0.11487774682E+02 -0.10794909665E+02 -0.20261037127E+02  0.25671164120E+02  0.00000000000E+00 0. -1.
</event>
<event>
 7    1  0.2412036E-009  0.4778727E+02  0.7816164E-02  0.1312668E+00
        -11   -1    0    0    0    0  0.00000000000E+00  0.00000000000E+00  0.45593999997E+02  0.45594000000E+02  0.51100000000E-03 0.  1.
         11   -1    0    0    0    0 -0.00000000000E+00 -0.00000000000E+00 -0.45593999997E+02  0.45594000000E+02  0.51100000000E-03 0. -1.
    9900012    2    1    2    0    0 -0.10482185776E+02 -0.29145762794E+02  0.30401835267E+02  0.47787270800E+02  0.19999998885E+02 0.  0.
         12    1    1    2    0    0  0.10482185776E+02  0.29145762794E+02 -0.30401835267E+02  0.43400729200E+02  0.00000000000E+00 0. -1.
         11    1    3    3    0    0 -0.56489245479E+01 -0.23029071112E+02  0.24164453597E+02  0.33855121957E+02  0.51100000000E-03 0.  1.
        -11    1    3    3    0    0 -0.13419387008E+01 -0.46901838284E+01 -0.16822820281E+01  0.51603000789E+01  0.51100000000E-03 0. -1.
        -12    1    3    3    0    0 -0.34913225274E+01 -0.14265078537E+01  0.79196636977E+01  0.87718487636E+01  0.00000000000E+00 0.  1.
</event>
<event>
 7    1  0.2412036E-009  0.4778727E+02  0.7816164E-02  0.1312668E+00
        -11   -1    0    0    0    0  0.00000000000E+00  0.00000000000E+00  0.45593999997E+02  0.45594000000E+02  0.51100000000E-03 0. -1.
         11   -1    0    0    0    0 -0.00000000000E+00 -0.00000000000E+00 -0.45593999997E+02  0.45594000000E+02  0.51100000000E-03 0.  1.
    9900012    2    1    2    0    0  0.20275267335E+01  0.43353344466E+02 -0.22150399271E-02  0.47787270214E+02  0.19999996214E+02 0.  0.
         12    1    1    2    0    0 -0.20275267335E+01 -0.43353344466E+02  0.22150399271E-02  0.43400729786E+02  0.00000000000E+00 0. -1.
         11    1    3    3    0    0  0.41946184132E+01  0.24778356943E+02  0.70249500724E+01  0.26094285202E+02  0.51100000000E-03 0. -1.
        -11    1    3    3    0    0 -0.21681933137E+01  0.12092879618E+02 -0.21214158740E+00  0.12287546705E+02  0.51100000000E-03 0.  1.
         12    1    3    3    0    0  0.11016339920E-02  0.64821079048E+01 -0.68150235249E+01  0.94054383071E+01  0.00000000000E+00 0. -1.
</event>
<event>
 7    1  0.2412036E-009  0.4778731E+02  0.7816164E-02  0.1312668E+00
        -11   -1    0    0    0    0  0.00000000000E+00  0.00000000000E+00  0.45593999997E+02  0.45594000000E+02  0.51100000000E-03 0.  1.
         11   -1    0    0    0    0 -0.00000000000E+00 -0.00000000000E+00 -0.45593999997E+02  0.45594000000E+02  0.51100000000E-03 0. -1.
    9900012    2    1    2    0    0  0.33655379339E+02 -0.25852645379E+02 -0.90871341658E+01  0.47787310617E+02  0.20000180427E+02 0.  0.
         12    1    1    2    0    0 -0.33655379339E+02  0.25852645379E+02  0.90871341658E+01  0.43400689383E+02  0.00000000000E+00 0. -1.
         11    1    3    3    0    0  0.51047613915E+01 -0.13893673331E+02 -0.19707460407E+01  0.14932400601E+02  0.51100000000E-03 0. -1.
        -11    1    3    3    0    0  0.52427253553E+01 -0.55567762752E+01  0.63521957799E-01  0.76398931291E+01  0.51100000000E-03 0.  1.
         12    1    3    3    0    0  0.23307892592E+02 -0.64021957727E+01 -0.71799100828E+01  0.25215016887E+02  0.00000000000E+00 0. -1.
</event>
<event>
 7    1  0.2412036E-009  0.4778727E+02  0.7816164E-02  0.1312668E+00
        -11   -1    0    0    0    0  0.00000000000E+00  0.00000000000E+00  0.45593999997E+02  0.45594000000E+02  0.51100000000E-03 0.  1.
         11   -1    0    0    0    0 -0.00000000000E+00 -0.00000000000E+00 -0.45593999997E+02  0.45594000000E+02  0.51100000000E-03 0. -1.
    9900012    2    1    2    0    0  0.14287763150E+02 -0.98090018169E+01  0.39790280572E+02  0.47787272812E+02  0.20000008057E+02 0.  0.
         12    1    1    2    0    0 -0.14287763150E+02  0.98090018169E+01 -0.39790280572E+02  0.43400727188E+02  0.00000000000E+00 0. -1.
         11    1    3    3    0    0  0.10333214704E+02  0.44653672023E+01  0.17526023035E+02  0.20829697887E+02  0.51100000000E-03 0. -1.
        -11    1    3    3    0    0  0.45647336431E+01 -0.13099437886E+02  0.20164153108E+02  0.24474990030E+02  0.51100000000E-03 0.  1.
         12    1    3    3    0    0 -0.61018519767E+00 -0.11749311335E+01  0.21001044291E+01  0.24825848942E+01  0.00000000000E+00 0. -1.
</event>
<event>
 7    1  0.2412036E-009  0.4778727E+02  0.7816164E-02  0.1312668E+00
        -11   -1    0    0    0    0  0.00000000000E+00  0.00000000000E+00  0.45593999997E+02  0.45594000000E+02  0.51100000000E-03 0.  1.
         11   -1    0    0    0    0 -0.00000000000E+00 -0.00000000000E+00 -0.45593999997E+02  0.45594000000E+02  0.51100000000E-03 0. -1.
    9900012    2    1    2    0    0 -0.39170950809E+02 -0.57879323115E+00  0.18679542632E+02  0.47787266114E+02  0.19999977522E+02 0.  0.
         12    1    1    2    0    0  0.39170950809E+02  0.57879323115E+00 -0.18679542632E+02  0.43400733886E+02  0.00000000000E+00 0. -1.
         11    1    3    3    0    0 -0.71685386627E+01 -0.21611959794E+01 -0.32643185208E+01  0.81678938709E+01  0.51100000000E-03 0.  1.
        -11    1    3    3    0    0 -0.18228932381E+01  0.25989881919E+00 -0.58844896337E+00  0.19330699929E+01  0.51100000000E-03 0. -1.
         12    1    3    3    0    0 -0.30179518908E+02  0.13225039291E+01  0.22532310116E+02  0.37686302251E+02  0.00000000000E+00 0. -1.
</event>
<event>
 7    1  0.2412036E-009  0.4778727E+02  0.7816164E-02  0.1312668E+00
        -11   -1    0    0    0    0  0.00000000000E+00  0.00000000000E+00  0.45593999997E+02  0.45594000000E+02  0.51100000000E-03 0.  1.
         11   -1    0    0    0    0 -0.00000000000E+00 -0.00000000000E+00 -0.45593999997E+02  0.45594000000E+02  0.51100000000E-03 0. -1.
    9900012    2    1    2    0    0  0.52835640428E+01  0.15433150940E+01  0.43050266166E+02  0.47787270889E+02  0.19999999289E+02 0.  0.
         12    1    1    2    0    0 -0.52835640428E+01 -0.15433150940E+01 -0.43050266166E+02  0.43400729111E+02  0.00000000000E+00 0. -1.
         11    1    3    3    0    0 -0.26301909261E+01 -0.37017122531E+01  0.12450521214E+01  0.47085807797E+01  0.51100000000E-03 0. -1.
        -11    1    3    3    0    0 -0.11025608175E+00  0.13304821954E+01  0.81889588173E+01  0.82970709319E+01  0.51100000000E-03 0.  1.
         12    1    3    3    0    0  0.80240110507E+01  0.39145451518E+01  0.33616255227E+02  0.34781619177E+02  0.00000000000E+00 0. -1.
</event>
<event>
 7    1  0.2412036E-009  0.4778728E+02  0.7816164E-02  0.1312668E+00
        -11   -1    0    0    0    0  0.00000000000E+00  0.00000000000E+00  0.45593999997E+02  0.45594000000E+02  0.51100000000E-03 0. -1.
         11   -1    0    0    0    0 -0.00000000000E+00 -0.00000000000E+00 -0.45593999997E+02  0.45594000000E+02  0.51100000000E-03 0.  1.
    9900012    2    1    2    0    0 -0.20159193450E+02  0.26619806202E+02 -0.27723919020E+02  0.47787275944E+02  0.20000022339E+02 0.  0.
         12    1    1    2    0    0  0.20159193450E+02 -0.26619806202E+02  0.27723919020E+02  0.43400724056E+02  0.00000000000E+00 0. -1.
         11    1    3    3    0    0  0.15444571166E+01  0.16975739721E+01 -0.38185595398E+01  0.44551658102E+01  0.51100000000E-03 0. -1.
        -11    1    3    3    0    0 -0.20439881436E+02  0.26874156866E+02 -0.22908832762E+02  0.40802250908E+02  0.51100000000E-03 0.  1.
        -12    1    3    3    0    0 -0.12637691310E+01 -0.19519246365E+01 -0.99652671792E+00  0.25298592259E+01  0.00000000000E+00 0.  1.
</event>
<event>
 7    1  0.2412036E-009  0.4778727E+02  0.7816164E-02  0.1312668E+00
        -11   -1    0    0    0    0  0.00000000000E+00  0.00000000000E+00  0.45593999997E+02  0.45594000000E+02  0.51100000000E-03 0. -1.
         11   -1    0    0    0    0 -0.00000000000E+00 -0.00000000000E+00 -0.45593999997E+02  0.45594000000E+02  0.51100000000E-03 0.  1.
    9900012    2    1    2    0    0  0.20231098802E+02 -0.26095643489E+02 -0.28166352018E+02  0.47787270123E+02  0.19999995799E+02 0.  0.
         12    1    1    2    0    0 -0.20231098802E+02  0.26095643489E+02  0.28166352018E+02  0.43400729877E+02  0.00000000000E+00 0. -1.
         11    1    3    3    0    0  0.34023392463E+01  0.18765560887E+01 -0.35943491915E+01  0.52930824169E+01  0.51100000000E-03 0. -1.
        -11    1    3    3    0    0  0.88759645632E+01 -0.23202513279E+02 -0.21094543773E+02  0.32590169479E+02  0.51100000000E-03 0.  1.
        -12    1    3    3    0    0  0.79527949924E+01 -0.47696862991E+01 -0.34774590530E+01  0.99040182274E+01  0.00000000000E+00 0.  1.
</event>
<event>
 7    1  0.2412036E-009  0.4778727E+02  0.7816164E-02  0.1312668E+00
        -11   -1    0    0    0    0  0.00000000000E+00  0.00000000000E+00  0.45593999997E+02  0.45594000000E+02  0.51100000000E-03 0.  1.
         11   -1    0    0    0    0 -0.00000000000E+00 -0.00000000000E+00 -0.45593999997E+02  0.45594000000E+02  0.51100000000E-03 0. -1.
    9900012    2    1    2    0    0 -0.32353904899E+02 -0.19635397577E+02  0.21243800424E+02  0.47787273547E+02  0.20000011408E+02 0.  0.
         12    1    1    2    0    0  0.32353904899E+02  0.19635397577E+02 -0.21243800424E+02  0.43400726453E+02  0.00000000000E+00 0. -1.
         11    1    3    3    0    0  0.15014982184E+00 -0.27771182526E+01 -0.22270691428E+00  0.27900769503E+01  0.51100000000E-03 0. -1.
        -11    1    3    3    0    0 -0.14214994925E+01  0.82198526731E+00  0.56725468085E+01  0.59054303943E+01  0.51100000000E-03 0.  1.
        -12    1    3    3    0    0 -0.31082555228E+02 -0.17680264592E+02  0.15793960530E+02  0.39091766202E+02  0.00000000000E+00 0.  1.
</event>
<event>
 7    1  0.2412036E-009  0.4778727E+02  0.7816164E-02  0.1312668E+00
        -11   -1    0    0    0    0  0.00000000000E+00  0.00000000000E+00  0.45593999997E+02  0.45594000000E+02  0.51100000000E-03 0. -1.
         11   -1    0    0    0    0 -0.00000000000E+00 -0.00000000000E+00 -0.45593999997E+02  0.45594000000E+02  0.51100000000E-03 0.  1.
    9900012    2    1    2    0    0  0.37430096925E+02 -0.12203785953E+02 -0.18266875635E+02  0.47787270825E+02  0.19999999002E+02 0.  0.
         12    1    1    2    0    0 -0.37430096925E+02  0.12203785953E+02  0.18266875635E+02  0.43400729175E+02  0.00000000000E+00 0. -1.
         11    1    3    3    0    0 -0.15098640440E+01 -0.17728487714E+01 -0.52829032719E+00  0.23878385893E+01  0.51100000000E-03 0. -1.
        -11    1    3    3    0    0  0.75267873523E+01 -0.68212682111E+01 -0.38335290171E+01  0.10857171494E+02  0.51100000000E-03 0.  1.
         12    1    3    3    0    0  0.31413173617E+02 -0.36096689700E+01 -0.13905056291E+02  0.34542260743E+02  0.00000000000E+00 0. -1.
</event>
<event>
 7    1  0.2412036E-009  0.4778727E+02  0.7816164E-02  0.1312668E+00
        -11   -1    0    0    0    0  0.00000000000E+00  0.00000000000E+00  0.45593999997E+02  0.45594000000E+02  0.51100000000E-03 0. -1.
         11   -1    0    0    0    0 -0.00000000000E+00 -0.00000000000E+00 -0.45593999997E+02  0.45594000000E+02  0.51100000000E-03 0.  1.
    9900012    2    1    2    0    0 -0.13481206302E+02  0.41238990494E+02 -0.11073007571E+01  0.47787269876E+02  0.19999994671E+02 0.  0.
         12    1    1    2    0    0  0.13481206302E+02 -0.41238990494E+02  0.11073007571E+01  0.43400730124E+02  0.00000000000E+00 0. -1.
         11    1    3    3    0    0 -0.66345569748E+01  0.63710569555E+01 -0.64512352402E+01  0.11235041138E+02  0.51100000000E-03 0. -1.
        -11    1    3    3    0    0 -0.51923454607E+01  0.11137217321E+02  0.65049570514E+00  0.12305332420E+02  0.51100000000E-03 0.  1.
         12    1    3    3    0    0 -0.16543038666E+01  0.23730716217E+02  0.46934387780E+01  0.24246896318E+02  0.00000000000E+00 0. -1.
</event>
<event>
 7    1  0.2412036E-009  0.4778727E+02  0.7816164E-02  0.1312668E+00
        -11   -1    0    0    0    0  0.00000000000E+00  0.00000000000E+00  0.45593999997E+02  0.45594000000E+02  0.51100000000E-03 0.  1.
         11   -1    0    0    0    0 -0.00000000000E+00 -0.00000000000E+00 -0.45593999997E+02  0.45594000000E+02  0.51100000000E-03 0. -1.
    9900012    2    1    2    0    0  0.13703895736E+02  0.40478865456E+02  0.75688713712E+01  0.47787272808E+02  0.20000008041E+02 0.  0.
         12    1    1    2    0    0 -0.13703895736E+02 -0.40478865456E+02 -0.75688713712E+01  0.43400727192E+02  0.00000000000E+00 0. -1.
         11    1    3    3    0    0  0.57228710255E+00  0.15593801739E+01 -0.18179085666E+01  0.24625131212E+01  0.51100000000E-03 0. -1.
        -11    1    3    3    0    0  0.14689202818E+02  0.33855579841E+02  0.30001405654E+01  0.37026663493E+02  0.51100000000E-03 0.  1.
        -12    1    3    3    0    0 -0.15575941839E+01  0.50639054415E+01  0.63866393724E+01  0.82980961934E+01  0.00000000000E+00 0.  1.
</event>
<event>
 7    1  0.2412036E-009  0.4778727E+02  0.7816164E-02  0.1312668E+00
        -11   -1    0    0    0    0  0.00000000000E+00  0.00000000000E+00  0.45593999997E+02  0.45594000000E+02  0.51100000000E-03 0.  1.
         11   -1    0    0    0    0 -0.00000000000E+00 -0.00000000000E+00 -0.45593999997E+02  0.45594000000E+02  0.51100000000E-03 0. -1.
    9900012    2    1    2    0    0  0.25585910986E+00 -0.43522284180E+01  0.43181199365E+02  0.47787270344E+02  0.19999996807E+02 0.  0.
         12    1    1    2    0    0 -0.25585910986E+00  0.43522284180E+01 -0.43181199365E+02  0.43400729656E+02  0.00000000000E+00 0. -1.
         11    1    3    3    0    0 -0.64973353513E+01 -0.68108238757E+01  0.36606019563E+02  0.37796869672E+02  0.51100000000E-03 0. -1.
        -11    1    3    3    0    0  0.31319638651E+01  0.23138042159E+01  0.35591240552E+01  0.52754385508E+01  0.51100000000E-03 0.  1.
         12    1    3    3    0    0  0.36212305961E+01  0.14479124174E+00  0.30160557468E+01  0.47149621209E+01  0.00000000000E+00 0. -1.
</event>
<event>
 7    1  0.2412036E-009  0.4778727E+02  0.7816164E-02  0.1312668E+00
        -11   -1    0    0    0    0  0.00000000000E+00  0.00000000000E+00  0.45593999997E+02  0.45594000000E+02  0.51100000000E-03 0. -1.
         11   -1    0    0    0    0 -0.00000000000E+00 -0.00000000000E+00 -0.45593999997E+02  0.45594000000E+02  0.51100000000E-03 0.  1.
    9900012    2    1    2    0    0  0.43124309128E+01  0.28748599926E+02 -0.32226453814E+02  0.47787269781E+02  0.19999994241E+02 0.  0.
         12    1    1    2    0    0 -0.43124309128E+01 -0.28748599926E+02  0.32226453814E+02  0.43400730219E+02  0.00000000000E+00 0. -1.
         11    1    3    3    0    0  0.76065148452E+01  0.22300362477E+02 -0.18166674607E+02  0.29752198259E+02  0.51100000000E-03 0. -1.
        -11    1    3    3    0    0  0.28703601792E+01  0.23453522615E+01 -0.62960957213E+01  0.73061937000E+01  0.51100000000E-03 0.  1.
         12    1    3    3    0    0 -0.61644441116E+01  0.41028851878E+01 -0.77636834852E+01  0.10728877822E+02  0.00000000000E+00 0. -1.
</event>
<event>
 7    1  0.2412036E-009  0.4778727E+02  0.7816164E-02  0.1312668E+00
        -11   -1    0    0    0    0  0.00000000000E+00  0.00000000000E+00  0.45593999997E+02  0.45594000000E+02  0.51100000000E-03 0.  1.
         11   -1    0    0    0    0 -0.00000000000E+00 -0.00000000000E+00 -0.45593999997E+02  0.45594000000E+02  0.51100000000E-03 0. -1.
    9900012    2    1    2    0    0 -0.71274785670E+01 -0.26887759502E+02  0.33314724015E+02  0.47787269615E+02  0.19999993483E+02 0.  0.
         12    1    1    2    0    0  0.71274785670E+01  0.26887759502E+02 -0.33314724015E+02  0.43400730385E+02  0.00000000000E+00 0. -1.
         11    1    3    3    0    0 -0.11815693689E+02 -0.18425896446E+02  0.18995183573E+02  0.28981740397E+02  0.51100000000E-03 0. -1.
        -11    1    3    3    0    0 -0.20341335416E+01 -0.22255138464E+01  0.33045986344E+01  0.44733637836E+01  0.51100000000E-03 0.  1.
         12    1    3    3    0    0  0.67223486636E+01 -0.62363492092E+01  0.11014941808E+02  0.14332165434E+02  0.00000000000E+00 0. -1.
</event>
<event>
 7    1  0.2412036E-009  0.4778727E+02  0.7816164E-02  0.1312668E+00
        -11   -1    0    0    0    0  0.00000000000E+00  0.00000000000E+00  0.45593999997E+02  0.45594000000E+02  0.51100000000E-03 0. -1.
         11   -1    0    0    0    0 -0.00000000000E+00 -0.00000000000E+00 -0.45593999997E+02  0.45594000000E+02  0.51100000000E-03 0.  1.
    9900012    2    1    2    0    0 -0.11412991651E+02  0.20565601147E+02 -0.36474963448E+02  0.47787270887E+02  0.19999999283E+02 0.  0.
         12    1    1    2    0    0  0.11412991651E+02 -0.20565601147E+02  0.36474963448E+02  0.43400729113E+02  0.00000000000E+00 0. -1.
         11    1    3    3    0    0  0.48888137761E+01  0.92066493742E+01 -0.16260287497E+02  0.19314757119E+02  0.51100000000E-03 0. -1.
        -11    1    3    3    0    0 -0.15447773566E+02  0.11152485058E+02 -0.18557667946E+02  0.26596967327E+02  0.51100000000E-03 0.  1.
         12    1    3    3    0    0 -0.85403186122E+00  0.20646671495E+00 -0.16570080053E+01  0.18755464415E+01  0.00000000000E+00 0. -1.
</event>
<event>
 7    1  0.2412036E-009  0.4778729E+02  0.7816164E-02  0.1312668E+00
        -11   -1    0    0    0    0  0.00000000000E+00  0.00000000000E+00  0.45593999997E+02  0.45594000000E+02  0.51100000000E-03 0.  1.
         11   -1    0    0    0    0 -0.00000000000E+00 -0.00000000000E+00 -0.45593999997E+02  0.45594000000E+02  0.51100000000E-03 0. -1.
    9900012    2    1    2    0    0 -0.37833273728E+02  0.75453576263E+01  0.19882978081E+02  0.47787287563E+02  0.20000075314E+02 0.  0.
         12    1    1    2    0    0  0.37833273728E+02 -0.75453576263E+01 -0.19882978081E+02  0.43400712437E+02  0.00000000000E+00 0. -1.
         11    1    3    3    0    0 -0.26022347856E+02  0.12025317039E+02  0.11787438381E+02  0.30995395491E+02  0.51100000000E-03 0. -1.
        -11    1    3    3    0    0 -0.11181017220E+02 -0.55429612981E+01  0.88905742312E+01  0.15322593659E+02  0.51100000000E-03 0.  1.
         12    1    3    3    0    0 -0.62990865169E+00  0.10630018856E+01 -0.79503453099E+00  0.14692984121E+01  0.00000000000E+00 0. -1.
</event>
<event>
 7    1  0.2412036E-009  0.4778727E+02  0.7816164E-02  0.1312668E+00
        -11   -1    0    0    0    0  0.00000000000E+00  0.00000000000E+00  0.45593999997E+02  0.45594000000E+02  0.51100000000E-03 0.  1.
         11   -1    0    0    0    0 -0.00000000000E+00 -0.00000000000E+00 -0.45593999997E+02  0.45594000000E+02  0.51100000000E-03 0. -1.
    9900012    2    1    2    0    0 -0.30388721433E+02 -0.30975291342E+02  0.82465971379E+00  0.47787272728E+02  0.20000007676E+02 0.  0.
         12    1    1    2    0    0  0.30388721433E+02  0.30975291342E+02 -0.82465971379E+00  0.43400727272E+02  0.00000000000E+00 0. -1.
         11    1    3    3    0    0 -0.20710432518E+02 -0.21746491817E+02 -0.63301530472E+01  0.30690434329E+02  0.51100000000E-03 0. -1.
        -11    1    3    3    0    0 -0.82034263938E+01 -0.69135758715E+01  0.88181225741E+01  0.13887153125E+02  0.51100000000E-03 0.  1.
         12    1    3    3    0    0 -0.14748625218E+01 -0.23152236540E+01 -0.16633098131E+01  0.32096852744E+01  0.00000000000E+00 0. -1.
</event>
<event>
 7    1  0.2412036E-009  0.4778727E+02  0.7816164E-02  0.1312668E+00
        -11   -1    0    0    0    0  0.00000000000E+00  0.00000000000E+00  0.45593999997E+02  0.45594000000E+02  0.51100000000E-03 0.  1.
         11   -1    0    0    0    0 -0.00000000000E+00 -0.00000000000E+00 -0.45593999997E+02  0.45594000000E+02  0.51100000000E-03 0. -1.
    9900012    2    1    2    0    0  0.10496604867E+02  0.18954976641E+02  0.37605227673E+02  0.47787274182E+02  0.20000014305E+02 0.  0.
         12    1    1    2    0    0 -0.10496604867E+02 -0.18954976641E+02 -0.37605227673E+02  0.43400725818E+02  0.00000000000E+00 0. -1.
         11    1    3    3    0    0  0.13736045610E+01  0.31612746995E+00 -0.12877172407E+01  0.19091731248E+01  0.51100000000E-03 0. -1.
        -11    1    3    3    0    0  0.80359205576E+01  0.18507176251E+02  0.39689795115E+02  0.44523829895E+02  0.51100000000E-03 0.  1.
        -12    1    3    3    0    0  0.10870797482E+01  0.13167292042E+00 -0.79685020128E+00  0.13542711620E+01  0.00000000000E+00 0.  1.
</event>
<event>
 7    1  0.2412036E-009  0.4778727E+02  0.7816164E-02  0.1312668E+00
        -11   -1    0    0    0    0  0.00000000000E+00  0.00000000000E+00  0.45593999997E+02  0.45594000000E+02  0.51100000000E-03 0.  1.
         11   -1    0    0    0    0 -0.00000000000E+00 -0.00000000000E+00 -0.45593999997E+02  0.45594000000E+02  0.51100000000E-03 0. -1.
    9900012    2    1    2    0    0  0.51063192530E+01 -0.28216693716E+01  0.43006830297E+02  0.47787265369E+02  0.19999974122E+02 0.  0.
         12    1    1    2    0    0 -0.51063192530E+01  0.28216693716E+01 -0.43006830297E+02  0.43400734631E+02  0.00000000000E+00 0. -1.
         11    1    3    3    0    0  0.20427026709E+01  0.40740609015E+01  0.76304813941E+01  0.88879048711E+01  0.51100000000E-03 0. -1.
        -11    1    3    3    0    0 -0.97451002521E+00 -0.10257910439E+02  0.17941530603E+02  0.20689923078E+02  0.51100000000E-03 0.  1.
        -12    1    3    3    0    0  0.40381266074E+01  0.33621801657E+01  0.17434818300E+02  0.18209437419E+02  0.00000000000E+00 0.  1.
</event>
<event>
 7    1  0.2412036E-009  0.4778724E+02  0.7816164E-02  0.1312668E+00
        -11   -1    0    0    0    0  0.00000000000E+00  0.00000000000E+00  0.45593999997E+02  0.45594000000E+02  0.51100000000E-03 0.  1.
         11   -1    0    0    0    0 -0.00000000000E+00 -0.00000000000E+00 -0.45593999997E+02  0.45594000000E+02  0.51100000000E-03 0. -1.
    9900012    2    1    2    0    0  0.50843294731E+01  0.17501843049E+02  0.39388594809E+02  0.47787235982E+02  0.19999840135E+02 0.  0.
         12    1    1    2    0    0 -0.50843294731E+01 -0.17501843049E+02 -0.39388594809E+02  0.43400764018E+02  0.00000000000E+00 0. -1.
         11    1    3    3    0    0 -0.47223263704E+01  0.37770154933E+01  0.20303209225E+01  0.63787471884E+01  0.51100000000E-03 0. -1.
        -11    1    3    3    0    0  0.43654914771E+01  0.10861731196E+02  0.23956395210E+02  0.26663525501E+02  0.51100000000E-03 0.  1.
         12    1    3    3    0    0  0.54411643663E+01  0.28630963599E+01  0.13401878677E+02  0.14744963292E+02  0.00000000000E+00 0. -1.
</event>
<event>
 7    1  0.2412036E-009  0.4778727E+02  0.7816164E-02  0.1312668E+00
        -11   -1    0    0    0    0  0.00000000000E+00  0.00000000000E+00  0.45593999997E+02  0.45594000000E+02  0.51100000000E-03 0. -1.
         11   -1    0    0    0    0 -0.00000000000E+00 -0.00000000000E+00 -0.45593999997E+02  0.45594000000E+02  0.51100000000E-03 0.  1.
    9900012    2    1    2    0    0 -0.30035066811E+02  0.19811576940E+02 -0.24269725255E+02  0.47787269786E+02  0.19999994260E+02 0.  0.
         12    1    1    2    0    0  0.30035066811E+02 -0.19811576940E+02  0.24269725255E+02  0.43400730214E+02  0.00000000000E+00 0. -1.
         11    1    3    3    0    0 -0.61243830559E+01  0.28370385394E+01 -0.12849348251E+01  0.68708015003E+01  0.51100000000E-03 0. -1.
        -11    1    3    3    0    0 -0.16299382592E+01 -0.17556342222E+01  0.15455312552E+01  0.28508976433E+01  0.51100000000E-03 0.  1.
        -12    1    3    3    0    0 -0.22280745496E+02  0.18730172623E+02 -0.24530321685E+02  0.38065570642E+02  0.00000000000E+00 0.  1.
</event>
<event>
 7    1  0.2412036E-009  0.4778727E+02  0.7816164E-02  0.1312668E+00
        -11   -1    0    0    0    0  0.00000000000E+00  0.00000000000E+00  0.45593999997E+02  0.45594000000E+02  0.51100000000E-03 0. -1.
         11   -1    0    0    0    0 -0.00000000000E+00 -0.00000000000E+00 -0.45593999997E+02  0.45594000000E+02  0.51100000000E-03 0.  1.
    9900012    2    1    2    0    0 -0.36580815182E+02  0.20429842351E+02  0.11317625499E+02  0.47787272532E+02  0.20000006782E+02 0.  0.
         12    1    1    2    0    0  0.36580815182E+02 -0.20429842351E+02 -0.11317625499E+02  0.43400727468E+02  0.00000000000E+00 0. -1.
         11    1    3    3    0    0 -0.27770324508E+02  0.20392504519E+02  0.48530185975E+01  0.34793633809E+02  0.51100000000E-03 0. -1.
        -11    1    3    3    0    0 -0.23486515700E+01  0.28370167901E+01  0.40878915270E+00  0.37056628688E+01  0.51100000000E-03 0.  1.
         12    1    3    3    0    0 -0.64618391032E+01 -0.27996789583E+01  0.60558177488E+01  0.92879758544E+01  0.00000000000E+00 0. -1.
</event>
<event>
 7    1  0.2412036E-009  0.4778727E+02  0.7816164E-02  0.1312668E+00
        -11   -1    0    0    0    0  0.00000000000E+00  0.00000000000E+00  0.45593999997E+02  0.45594000000E+02  0.51100000000E-03 0.  1.
         11   -1    0    0    0    0 -0.00000000000E+00 -0.00000000000E+00 -0.45593999997E+02  0.45594000000E+02  0.51100000000E-03 0. -1.
    9900012    2    1    2    0    0  0.18247566682E+02 -0.28377364211E+02  0.27301546637E+02  0.47787274913E+02  0.20000017637E+02 0.  0.
         12    1    1    2    0    0 -0.18247566682E+02  0.28377364211E+02 -0.27301546637E+02  0.43400725087E+02  0.00000000000E+00 0. -1.
         11    1    3    3    0    0 -0.18264727155E+01 -0.60034778736E+01  0.92734608774E+01  0.11197090071E+02  0.51100000000E-03 0. -1.
        -11    1    3    3    0    0  0.20942709460E+02 -0.18780427648E+02  0.15584605471E+02  0.32158691984E+02  0.51100000000E-03 0.  1.
        -12    1    3    3    0    0 -0.86867006247E+00 -0.35934586891E+01  0.24434802878E+01  0.44314928573E+01  0.00000000000E+00 0.  1.
</event>
<event>
 7    1  0.2412036E-009  0.4778727E+02  0.7816164E-02  0.1312668E+00
        -11   -1    0    0    0    0  0.00000000000E+00  0.00000000000E+00  0.45593999997E+02  0.45594000000E+02  0.51100000000E-03 0.  1.
         11   -1    0    0    0    0 -0.00000000000E+00 -0.00000000000E+00 -0.45593999997E+02  0.45594000000E+02  0.51100000000E-03 0. -1.
    9900012    2    1    2    0    0 -0.37290922505E+02 -0.87188234236E+01  0.20420395424E+02  0.47787270370E+02  0.19999996926E+02 0.  0.
         12    1    1    2    0    0  0.37290922505E+02  0.87188234236E+01 -0.20420395424E+02  0.43400729630E+02  0.00000000000E+00 0. -1.
         11    1    3    3    0    0 -0.12203677608E+02  0.62477160587E+00  0.71442605174E+00  0.12240526605E+02  0.51100000000E-03 0. -1.
        -11    1    3    3    0    0 -0.26439129349E+02 -0.78976528604E+01  0.18131363981E+02  0.33017371814E+02  0.51100000000E-03 0.  1.
        -12    1    3    3    0    0  0.13518844528E+01 -0.14459421691E+01  0.15746053912E+01  0.25293719513E+01  0.00000000000E+00 0.  1.
</event>
<event>
 7    1  0.2412036E-009  0.4778725E+02  0.7816164E-02  0.1312668E+00
        -11   -1    0    0    0    0  0.00000000000E+00  0.00000000000E+00  0.45593999997E+02  0.45594000000E+02  0.51100000000E-03 0.  1.
         11   -1    0    0    0    0 -0.00000000000E+00 -0.00000000000E+00 -0.45593999997E+02  0.45594000000E+02  0.51100000000E-03 0. -1.
    9900012    2    1    2    0    0  0.85128826424E+00  0.18292194230E+02  0.39348389869E+02  0.47787252924E+02  0.19999917382E+02 0.  0.
         12    1    1    2    0    0 -0.85128826424E+00 -0.18292194230E+02 -0.39348389869E+02  0.43400747076E+02  0.00000000000E+00 0. -1.
         11    1    3    3    0    0 -0.42787644732E+01 -0.15084802098E+01  0.16044572528E+02  0.16673681232E+02  0.51100000000E-03 0. -1.
        -11    1    3    3    0    0  0.36601206066E+01  0.14902081642E+02  0.19048132927E+02  0.24460169427E+02  0.51100000000E-03 0.  1.
         12    1    3    3    0    0  0.14699321309E+01  0.48985927982E+01  0.42556844133E+01  0.66534022648E+01  0.00000000000E+00 0. -1.
</event>
<event>
 7    1  0.2412036E-009  0.4778727E+02  0.7816164E-02  0.1312668E+00
        -11   -1    0    0    0    0  0.00000000000E+00  0.00000000000E+00  0.45593999997E+02  0.45594000000E+02  0.51100000000E-03 0.  1.
         11   -1    0    0    0    0 -0.00000000000E+00 -0.00000000000E+00 -0.45593999997E+02  0.45594000000E+02  0.51100000000E-03 0. -1.
    9900012    2    1    2    0    0  0.41752203521E+02 -0.87341671773E+01  0.80056980574E+01  0.47787269862E+02  0.19999994607E+02 0.  0.
         12    1    1    2    0    0 -0.41752203521E+02  0.87341671773E+01 -0.80056980574E+01  0.43400730138E+02  0.00000000000E+00 0. -1.
         11    1    3    3    0    0  0.10308968715E+02  0.52860607403E+00  0.83190792125E+01  0.13257501256E+02  0.51100000000E-03 0. -1.
        -11    1    3    3    0    0  0.28020445651E+02 -0.11201439269E+02 -0.20153695104E+01  0.30243665960E+02  0.51100000000E-03 0.  1.
        -12    1    3    3    0    0  0.34227891550E+01  0.19386660173E+01  0.17019883553E+01  0.42861026456E+01  0.00000000000E+00 0.  1.
</event>
<event>
 7    1  0.2412036E-009  0.4778728E+02  0.7816164E-02  0.1312668E+00
        -11   -1    0    0    0    0  0.00000000000E+00  0.00000000000E+00  0.45593999997E+02  0.45594000000E+02  0.51100000000E-03 0.  1.
         11   -1    0    0    0    0 -0.00000000000E+00 -0.00000000000E+00 -0.45593999997E+02  0.45594000000E+02  0.51100000000E-03 0. -1.
    9900012    2    1    2    0    0 -0.45574205419E+01  0.38579308846E+02 -0.19351721883E+02  0.47787282346E+02  0.20000051528E+02 0.  0.
         12    1    1    2    0    0  0.45574205419E+01 -0.38579308846E+02  0.19351721883E+02  0.43400717654E+02  0.00000000000E+00 0. -1.
         11    1    3    3    0    0 -0.78173503432E+01  0.18697148624E+02 -0.29926483497E+01  0.20485367399E+02  0.51100000000E-03 0.  1.
        -11    1    3    3    0    0  0.48345638130E+01  0.16235032881E+02 -0.96240221667E+01  0.19482584603E+02  0.51100000000E-03 0. -1.
        -12    1    3    3    0    0 -0.15746340116E+01  0.36471273413E+01 -0.67350513665E+01  0.78193303437E+01  0.00000000000E+00 0.  1.
</event>
<event>
 7    1  0.2412036E-009  0.4778728E+02  0.7816164E-02  0.1312668E+00
        -11   -1    0    0    0    0  0.00000000000E+00  0.00000000000E+00  0.45593999997E+02  0.45594000000E+02  0.51100000000E-03 0.  1.
         11   -1    0    0    0    0 -0.00000000000E+00 -0.00000000000E+00 -0.45593999997E+02  0.45594000000E+02  0.51100000000E-03 0. -1.
    9900012    2    1    2    0    0 -0.23814252751E+02 -0.15923460324E+02  0.32602874685E+02  0.47787278111E+02  0.20000032220E+02 0.  0.
         12    1    1    2    0    0  0.23814252751E+02  0.15923460324E+02 -0.32602874685E+02  0.43400721889E+02  0.00000000000E+00 0. -1.
         11    1    3    3    0    0 -0.14004453674E+02 -0.70266644755E+01  0.25739561026E+02  0.30133432238E+02  0.51100000000E-03 0. -1.
        -11    1    3    3    0    0 -0.31021611173E+01 -0.48170432938E+01  0.78742378960E+01  0.97381174975E+01  0.51100000000E-03 0.  1.
         12    1    3    3    0    0 -0.67076379597E+01 -0.40797525543E+01 -0.10109242375E+01  0.79157283756E+01  0.00000000000E+00 0. -1.
</event>
<event>
 7    1  0.2412036E-009  0.4778727E+02  0.7816164E-02  0.1312668E+00
        -11   -1    0    0    0    0  0.00000000000E+00  0.00000000000E+00  0.45593999997E+02  0.45594000000E+02  0.51100000000E-03 0.  1.
         11   -1    0    0    0    0 -0.00000000000E+00 -0.00000000000E+00 -0.45593999997E+02  0.45594000000E+02  0.51100000000E-03 0. -1.
    9900012    2    1    2    0    0 -0.30877773561E+02  0.25737152886E+02  0.16364142734E+02  0.47787272976E+02  0.20000008808E+02 0.  0.
         12    1    1    2    0    0  0.30877773561E+02 -0.25737152886E+02 -0.16364142734E+02  0.43400727024E+02  0.00000000000E+00 0. -1.
         11    1    3    3    0    0 -0.97758530068E+01 -0.20124016018E+00  0.74180854472E-01  0.97782054935E+01  0.51100000000E-03 0. -1.
        -11    1    3    3    0    0 -0.79044200748E+01  0.15510979781E+02  0.67465804894E+01  0.18670476669E+02  0.51100000000E-03 0.  1.
         12    1    3    3    0    0 -0.13197500480E+02  0.10427413266E+02  0.95433813899E+01  0.19338590814E+02  0.00000000000E+00 0. -1.
</event>
<event>
 7    1  0.2412036E-009  0.4778727E+02  0.7816164E-02  0.1312668E+00
        -11   -1    0    0    0    0  0.00000000000E+00  0.00000000000E+00  0.45593999997E+02  0.45594000000E+02  0.51100000000E-03 0. -1.
         11   -1    0    0    0    0 -0.00000000000E+00 -0.00000000000E+00 -0.45593999997E+02  0.45594000000E+02  0.51100000000E-03 0.  1.
    9900012    2    1    2    0    0 -0.14626982638E+02 -0.30743493565E+02 -0.26916767356E+02  0.47787269792E+02  0.19999994290E+02 0.  0.
         12    1    1    2    0    0  0.14626982638E+02  0.30743493565E+02  0.26916767356E+02  0.43400730208E+02  0.00000000000E+00 0. -1.
         11    1    3    3    0    0 -0.10634434467E+02 -0.25792334612E+02 -0.20710852450E+02  0.34745864943E+02  0.51100000000E-03 0. -1.
        -11    1    3    3    0    0 -0.21659452932E+01 -0.41431182031E+01 -0.86816519768E+01  0.98604172713E+01  0.51100000000E-03 0.  1.
         12    1    3    3    0    0 -0.18266028779E+01 -0.80804075054E+00  0.24757370709E+01  0.31809875782E+01  0.00000000000E+00 0. -1.
</event>
<event>
 7    1  0.2412036E-009  0.4778728E+02  0.7816164E-02  0.1312668E+00
        -11   -1    0    0    0    0  0.00000000000E+00  0.00000000000E+00  0.45593999997E+02  0.45594000000E+02  0.51100000000E-03 0.  1.
         11   -1    0    0    0    0 -0.00000000000E+00 -0.00000000000E+00 -0.45593999997E+02  0.45594000000E+02  0.51100000000E-03 0. -1.
    9900012    2    1    2    0    0 -0.33857651156E+02  0.82848069783E+01  0.25858156966E+02  0.47787275926E+02  0.20000022257E+02 0.  0.
         12    1    1    2    0    0  0.33857651156E+02 -0.82848069783E+01 -0.25858156966E+02  0.43400724074E+02  0.00000000000E+00 0. -1.
         11    1    3    3    0    0 -0.66081527270E+01 -0.35326718120E+01  0.69283931957E+01  0.10205394903E+02  0.51100000000E-03 0.  1.
        -11    1    3    3    0    0 -0.24705271745E+02  0.14255897899E+02  0.14739087028E+02  0.32106413122E+02  0.51100000000E-03 0. -1.
         12    1    3    3    0    0 -0.25442266839E+01 -0.24384191088E+01  0.41906767423E+01  0.54754679003E+01  0.00000000000E+00 0. -1.
</event>
<event>
 7    1  0.2412036E-009  0.4778727E+02  0.7816164E-02  0.1312668E+00
        -11   -1    0    0    0    0  0.00000000000E+00  0.00000000000E+00  0.45593999997E+02  0.45594000000E+02  0.51100000000E-03 0. -1.
         11   -1    0    0    0    0 -0.00000000000E+00 -0.00000000000E+00 -0.45593999997E+02  0.45594000000E+02  0.51100000000E-03 0.  1.
    9900012    2    1    2    0    0  0.95496630708E+00 -0.26581021144E+02 -0.34295198876E+02  0.47787270610E+02  0.19999998017E+02 0.  0.
         12    1    1    2    0    0 -0.95496630708E+00  0.26581021144E+02  0.34295198876E+02  0.43400729390E+02  0.00000000000E+00 0. -1.
         11    1    3    3    0    0  0.28440413660E+01 -0.54080432854E-01 -0.92252105834E+01  0.96538078784E+01  0.51100000000E-03 0. -1.
        -11    1    3    3    0    0 -0.21939721064E+00 -0.10779970455E+01 -0.64822524876E+01  0.65749380484E+01  0.51100000000E-03 0.  1.
         12    1    3    3    0    0 -0.16696778483E+01 -0.25448943665E+02 -0.18587735805E+02  0.31558524683E+02  0.00000000000E+00 0. -1.
</event>
<event>
 7    1  0.2412036E-009  0.4778727E+02  0.7816164E-02  0.1312668E+00
        -11   -1    0    0    0    0  0.00000000000E+00  0.00000000000E+00  0.45593999997E+02  0.45594000000E+02  0.51100000000E-03 0.  1.
         11   -1    0    0    0    0 -0.00000000000E+00 -0.00000000000E+00 -0.45593999997E+02  0.45594000000E+02  0.51100000000E-03 0. -1.
    9900012    2    1    2    0    0 -0.25984894003E+02  0.17463834187E+02  0.30056995781E+02  0.47787271708E+02  0.20000003026E+02 0.  0.
         12    1    1    2    0    0  0.25984894003E+02 -0.17463834187E+02 -0.30056995781E+02  0.43400728292E+02  0.00000000000E+00 0. -1.
         11    1    3    3    0    0 -0.11094926106E+02  0.28077404967E+01  0.17255939652E+02  0.20706236875E+02  0.51100000000E-03 0. -1.
        -11    1    3    3    0    0 -0.16667436352E+02  0.12580120884E+02  0.99493910602E+01  0.23131218272E+02  0.51100000000E-03 0.  1.
        -12    1    3    3    0    0  0.17774684548E+01  0.20759728065E+01  0.28516650691E+01  0.39498165612E+01  0.00000000000E+00 0.  1.
</event>
<event>
 7    1  0.2412036E-009  0.4778727E+02  0.7816164E-02  0.1312668E+00
        -11   -1    0    0    0    0  0.00000000000E+00  0.00000000000E+00  0.45593999997E+02  0.45594000000E+02  0.51100000000E-03 0.  1.
         11   -1    0    0    0    0 -0.00000000000E+00 -0.00000000000E+00 -0.45593999997E+02  0.45594000000E+02  0.51100000000E-03 0. -1.
    9900012    2    1    2    0    0 -0.13953523131E+02  0.21649177583E+02  0.34931871491E+02  0.47787270240E+02  0.19999996334E+02 0.  0.
         12    1    1    2    0    0  0.13953523131E+02 -0.21649177583E+02 -0.34931871491E+02  0.43400729760E+02  0.00000000000E+00 0. -1.
         11    1    3    3    0    0 -0.11719393598E+02  0.61862194756E+01  0.13688872003E+02  0.19052525153E+02  0.51100000000E-03 0. -1.
        -11    1    3    3    0    0  0.16673456819E+01  0.15283470618E+02  0.15909140863E+02  0.22123862208E+02  0.51100000000E-03 0.  1.
        -12    1    3    3    0    0 -0.39014752150E+01  0.17948748949E+00  0.53338586254E+01  0.66108828795E+01  0.00000000000E+00 0.  1.
</event>
<event>
 7    1  0.2412036E-009  0.4778727E+02  0.7816164E-02  0.1312668E+00
        -11   -1    0    0    0    0  0.00000000000E+00  0.00000000000E+00  0.45593999997E+02  0.45594000000E+02  0.51100000000E-03 0. -1.
         11   -1    0    0    0    0 -0.00000000000E+00 -0.00000000000E+00 -0.45593999997E+02  0.45594000000E+02  0.51100000000E-03 0.  1.
    9900012    2    1    2    0    0  0.39950446350E+02  0.15178256376E+02 -0.75634388472E+01  0.47787271465E+02  0.20000001916E+02 0.  0.
         12    1    1    2    0    0 -0.39950446350E+02 -0.15178256376E+02  0.75634388472E+01  0.43400728535E+02  0.00000000000E+00 0. -1.
         11    1    3    3    0    0  0.47851230195E+01  0.52646998133E+01 -0.51928486815E+01  0.88079591352E+01  0.51100000000E-03 0. -1.
        -11    1    3    3    0    0  0.20595255390E+02  0.10895838001E+02  0.28445872588E+01  0.23472867470E+02  0.51100000000E-03 0.  1.
        -12    1    3    3    0    0  0.14570067940E+02 -0.98228143847E+00 -0.52151774244E+01  0.15506444859E+02  0.00000000000E+00 0.  1.
</event>
<event>
 7    1  0.2412036E-009  0.4778728E+02  0.7816164E-02  0.1312668E+00
        -11   -1    0    0    0    0  0.00000000000E+00  0.00000000000E+00  0.45593999997E+02  0.45594000000E+02  0.51100000000E-03 0.  1.
         11   -1    0    0    0    0 -0.00000000000E+00 -0.00000000000E+00 -0.45593999997E+02  0.45594000000E+02  0.51100000000E-03 0. -1.
    9900012    2    1    2    0    0 -0.16825731128E+02 -0.10087829959E+02  0.38713735368E+02  0.47787275958E+02  0.20000022401E+02 0.  0.
         12    1    1    2    0    0  0.16825731128E+02  0.10087829959E+02 -0.38713735368E+02  0.43400724042E+02  0.00000000000E+00 0. -1.
         11    1    3    3    0    0 -0.10606374672E+02  0.80027906867E+00  0.81146433207E+01  0.13378455321E+02  0.51100000000E-03 0. -1.
        -11    1    3    3    0    0 -0.27594363363E+01 -0.11634577569E+02  0.25889426328E+02  0.28517368041E+02  0.51100000000E-03 0.  1.
        -12    1    3    3    0    0 -0.34599201192E+01  0.74646854076E+00  0.47096657185E+01  0.58914525962E+01  0.00000000000E+00 0.  1.
</event>
<event>
 7    1  0.2412036E-009  0.4778727E+02  0.7816164E-02  0.1312668E+00
        -11   -1    0    0    0    0  0.00000000000E+00  0.00000000000E+00  0.45593999997E+02  0.45594000000E+02  0.51100000000E-03 0.  1.
         11   -1    0    0    0    0 -0.00000000000E+00 -0.00000000000E+00 -0.45593999997E+02  0.45594000000E+02  0.51100000000E-03 0. -1.
    9900012    2    1    2    0    0 -0.14142737853E+02  0.35333860586E+02  0.20859649535E+02  0.47787265944E+02  0.19999976744E+02 0.  0.
         12    1    1    2    0    0  0.14142737853E+02 -0.35333860586E+02 -0.20859649535E+02  0.43400734056E+02  0.00000000000E+00 0. -1.
         11    1    3    3    0    0 -0.15529931527E+01 -0.14813375590E+01 -0.15481470595E+01  0.26463008663E+01  0.51100000000E-03 0.  1.
        -11    1    3    3    0    0 -0.81918195749E+01  0.23427618409E+02  0.11673939898E+02  0.27426995557E+02  0.51100000000E-03 0. -1.
        -12    1    3    3    0    0 -0.43979251253E+01  0.13387579736E+02  0.10733856697E+02  0.17713969520E+02  0.00000000000E+00 0.  1.
</event>
<event>
 7    1  0.2412036E-009  0.4778727E+02  0.7816164E-02  0.1312668E+00
        -11   -1    0    0    0    0  0.00000000000E+00  0.00000000000E+00  0.45593999997E+02  0.45594000000E+02  0.51100000000E-03 0.  1.
         11   -1    0    0    0    0 -0.00000000000E+00 -0.00000000000E+00 -0.45593999997E+02  0.45594000000E+02  0.51100000000E-03 0. -1.
    9900012    2    1    2    0    0  0.57090029145E+01 -0.36866081710E+02  0.22179329038E+02  0.47787270381E+02  0.19999996974E+02 0.  0.
         12    1    1    2    0    0 -0.57090029145E+01  0.36866081710E+02 -0.22179329038E+02  0.43400729619E+02  0.00000000000E+00 0. -1.
         11    1    3    3    0    0  0.56766541976E+01 -0.15755759049E+02  0.17154454228E+02  0.23973811675E+02  0.51100000000E-03 0. -1.
        -11    1    3    3    0    0  0.37425993669E+01 -0.15145948522E+02  0.60128735468E+01  0.16720091364E+02  0.51100000000E-03 0.  1.
         12    1    3    3    0    0 -0.37102506500E+01 -0.59643741382E+01 -0.98799873724E+00  0.70933673422E+01  0.00000000000E+00 0. -1.
</event>
<event>
 7    1  0.2412036E-009  0.4778728E+02  0.7816164E-02  0.1312668E+00
        -11   -1    0    0    0    0  0.00000000000E+00  0.00000000000E+00  0.45593999997E+02  0.45594000000E+02  0.51100000000E-03 0.  1.
         11   -1    0    0    0    0 -0.00000000000E+00 -0.00000000000E+00 -0.45593999997E+02  0.45594000000E+02  0.51100000000E-03 0. -1.
    9900012    2    1    2    0    0  0.30960614342E+02 -0.10870468264E+02  0.28405917711E+02  0.47787275562E+02  0.20000020598E+02 0.  0.
         12    1    1    2    0    0 -0.30960614342E+02  0.10870468264E+02 -0.28405917711E+02  0.43400724438E+02  0.00000000000E+00 0. -1.
         11    1    3    3    0    0  0.23550322364E+02 -0.16314433327E+02  0.19701013668E+02  0.34769359471E+02  0.51100000000E-03 0. -1.
        -11    1    3    3    0    0  0.39918159680E+01  0.25998267069E+01  0.64878532971E+01  0.80489710084E+01  0.51100000000E-03 0.  1.
         12    1    3    3    0    0  0.34184760098E+01  0.28441383563E+01  0.22170507463E+01  0.49689450823E+01  0.00000000000E+00 0. -1.
</event>
<event>
 7    1  0.2412036E-009  0.4778727E+02  0.7816164E-02  0.1312668E+00
        -11   -1    0    0    0    0  0.00000000000E+00  0.00000000000E+00  0.45593999997E+02  0.45594000000E+02  0.51100000000E-03 0.  1.
         11   -1    0    0    0    0 -0.00000000000E+00 -0.00000000000E+00 -0.45593999997E+02  0.45594000000E+02  0.51100000000E-03 0. -1.
    9900012    2    1    2    0    0  0.14485009806E+02 -0.27514012554E+02  0.30278491538E+02  0.47787269065E+02  0.19999990974E+02 0.  0.
         12    1    1    2    0    0 -0.14485009806E+02  0.27514012554E+02 -0.30278491538E+02  0.43400730935E+02  0.00000000000E+00 0. -1.
         11    1    3    3    0    0  0.13144606633E+01 -0.26544178052E+01 -0.88817202703E+00  0.30923438571E+01  0.51100000000E-03 0. -1.
        -11    1    3    3    0    0  0.12346971467E+02 -0.21467144155E+02  0.16836935823E+02  0.29946091410E+02  0.51100000000E-03 0.  1.
        -12    1    3    3    0    0  0.82357767572E+00 -0.33924505937E+01  0.14329727742E+02  0.14748833798E+02  0.00000000000E+00 0.  1.
</event>
<event>
 7    1  0.2412036E-009  0.4778727E+02  0.7816164E-02  0.1312668E+00
        -11   -1    0    0    0    0  0.00000000000E+00  0.00000000000E+00  0.45593999997E+02  0.45594000000E+02  0.51100000000E-03 0.  1.
         11   -1    0    0    0    0 -0.00000000000E+00 -0.00000000000E+00 -0.45593999997E+02  0.45594000000E+02  0.51100000000E-03 0. -1.
    9900012    2    1    2    0    0 -0.28869186543E+02  0.12089913619E+02  0.30067048873E+02  0.47787269927E+02  0.19999994904E+02 0.  0.
         12    1    1    2    0    0  0.28869186543E+02 -0.12089913619E+02 -0.30067048873E+02  0.43400730073E+02  0.00000000000E+00 0. -1.
         11    1    3    3    0    0 -0.13831326894E+02  0.85787585009E+01  0.25707744048E+02  0.30426777769E+02  0.51100000000E-03 0. -1.
        -11    1    3    3    0    0 -0.11577655230E+02  0.52932814374E+00  0.88860882009E+00  0.11623765088E+02  0.51100000000E-03 0.  1.
         12    1    3    3    0    0 -0.34602044179E+01  0.29818269743E+01  0.34706960049E+01  0.57367270701E+01  0.00000000000E+00 0. -1.
</event>
<event>
 7    1  0.2412036E-009  0.4778727E+02  0.7816164E-02  0.1312668E+00
        -11   -1    0    0    0    0  0.00000000000E+00  0.00000000000E+00  0.45593999997E+02  0.45594000000E+02  0.51100000000E-03 0.  1.
         11   -1    0    0    0    0 -0.00000000000E+00 -0.00000000000E+00 -0.45593999997E+02  0.45594000000E+02  0.51100000000E-03 0. -1.
    9900012    2    1    2    0    0  0.24198330947E+02  0.83892446364E+01  0.35038328239E+02  0.47787273140E+02  0.20000009553E+02 0.  0.
         12    1    1    2    0    0 -0.24198330947E+02 -0.83892446364E+01 -0.35038328239E+02  0.43400726860E+02  0.00000000000E+00 0. -1.
         11    1    3    3    0    0  0.70590231830E+01  0.76602634301E+01  0.30846698226E+01  0.10863914225E+02  0.51100000000E-03 0. -1.
        -11    1    3    3    0    0  0.20543275460E+01 -0.29455640011E+00  0.10339917264E+02  0.10546132676E+02  0.51100000000E-03 0.  1.
         12    1    3    3    0    0  0.15084980218E+02  0.10235376064E+01  0.21613741153E+02  0.26377226239E+02  0.00000000000E+00 0. -1.
</event>
<event>
 7    1  0.2412036E-009  0.4778727E+02  0.7816164E-02  0.1312668E+00
        -11   -1    0    0    0    0  0.00000000000E+00  0.00000000000E+00  0.45593999997E+02  0.45594000000E+02  0.51100000000E-03 0.  1.
         11   -1    0    0    0    0 -0.00000000000E+00 -0.00000000000E+00 -0.45593999997E+02  0.45594000000E+02  0.51100000000E-03 0. -1.
    9900012    2    1    2    0    0 -0.42347495584E+02 -0.46428131035E+01  0.82919865153E+01  0.47787272631E+02  0.20000007236E+02 0.  0.
         12    1    1    2    0    0  0.42347495584E+02  0.46428131035E+01 -0.82919865153E+01  0.43400727369E+02  0.00000000000E+00 0. -1.
         11    1    3    3    0    0 -0.23897104789E+02 -0.97733335288E+01  0.22103132636E+01  0.25912837563E+02  0.51100000000E-03 0. -1.
        -11    1    3    3    0    0 -0.15040182850E+02  0.65511317248E+01  0.73393663120E+01  0.17971942721E+02  0.51100000000E-03 0.  1.
        -12    1    3    3    0    0 -0.34102079443E+01 -0.14206112995E+01 -0.12576930603E+01  0.39024923474E+01  0.00000000000E+00 0.  1.
</event>
<event>
 7    1  0.2412036E-009  0.4778731E+02  0.7816164E-02  0.1312668E+00
        -11   -1    0    0    0    0  0.00000000000E+00  0.00000000000E+00  0.45593999997E+02  0.45594000000E+02  0.51100000000E-03 0. -1.
         11   -1    0    0    0    0 -0.00000000000E+00 -0.00000000000E+00 -0.45593999997E+02  0.45594000000E+02  0.51100000000E-03 0.  1.
    9900012    2    1    2    0    0  0.12175270605E+02 -0.23479301899E+02 -0.34410826394E+02  0.47787311007E+02  0.20000182204E+02 0.  0.
         12    1    1    2    0    0 -0.12175270605E+02  0.23479301899E+02  0.34410826394E+02  0.43400688993E+02  0.00000000000E+00 0. -1.
         11    1    3    3    0    0 -0.15864929553E+00 -0.50370426205E+00  0.32735182986E+00  0.62132685779E+00  0.51100000000E-03 0. -1.
        -11    1    3    3    0    0 -0.48005093684E+01 -0.68561878998E+01 -0.96322819236E+01  0.12760605708E+02  0.51100000000E-03 0.  1.
        -12    1    3    3    0    0  0.17134429269E+02 -0.16119409737E+02 -0.25105896300E+02  0.34405378441E+02  0.00000000000E+00 0.  1.
</event>
<event>
 7    1  0.2412036E-009  0.4778727E+02  0.7816164E-02  0.1312668E+00
        -11   -1    0    0    0    0  0.00000000000E+00  0.00000000000E+00  0.45593999997E+02  0.45594000000E+02  0.51100000000E-03 0. -1.
         11   -1    0    0    0    0 -0.00000000000E+00 -0.00000000000E+00 -0.45593999997E+02  0.45594000000E+02  0.51100000000E-03 0.  1.
    9900012    2    1    2    0    0 -0.28908093099E+02 -0.16123435639E+02 -0.28070980090E+02  0.47787274815E+02  0.20000017190E+02 0.  0.
         12    1    1    2    0    0  0.28908093099E+02  0.16123435639E+02  0.28070980090E+02  0.43400725185E+02  0.00000000000E+00 0. -1.
         11    1    3    3    0    0 -0.79264305405E+01 -0.49267755345E+01 -0.18561074598E+00  0.93346596023E+01  0.51100000000E-03 0. -1.
        -11    1    3    3    0    0 -0.20470091018E+02 -0.10065632497E+02 -0.28922187286E+02  0.36835234512E+02  0.51100000000E-03 0.  1.
        -12    1    3    3    0    0 -0.51157153999E+00 -0.11310276066E+01  0.10368179417E+01  0.16173807009E+01  0.00000000000E+00 0.  1.
</event>
<event>
 7    1  0.2412036E-009  0.4778727E+02  0.7816164E-02  0.1312668E+00
        -11   -1    0    0    0    0  0.00000000000E+00  0.00000000000E+00  0.45593999997E+02  0.45594000000E+02  0.51100000000E-03 0.  1.
         11   -1    0    0    0    0 -0.00000000000E+00 -0.00000000000E+00 -0.45593999997E+02  0.45594000000E+02  0.51100000000E-03 0. -1.
    9900012    2    1    2    0    0 -0.41647052795E+02 -0.83071118247E+01 -0.89520042311E+01  0.47787268518E+02  0.19999988483E+02 0.  0.
         12    1    1    2    0    0  0.41647052795E+02  0.83071118247E+01  0.89520042311E+01  0.43400731482E+02  0.00000000000E+00 0. -1.
         11    1    3    3    0    0 -0.74115593373E+01  0.29400760845E+01 -0.83788737797E+01  0.11566364393E+02  0.51100000000E-03 0. -1.
        -11    1    3    3    0    0 -0.14978078787E+02 -0.53485119180E+01  0.14946937702E+01  0.15974465049E+02  0.51100000000E-03 0.  1.
         12    1    3    3    0    0 -0.19257414671E+02 -0.58986759912E+01 -0.20678242216E+01  0.20246439076E+02  0.00000000000E+00 0. -1.
</event>
<event>
 7    1  0.2412036E-009  0.4778727E+02  0.7816164E-02  0.1312668E+00
        -11   -1    0    0    0    0  0.00000000000E+00  0.00000000000E+00  0.45593999997E+02  0.45594000000E+02  0.51100000000E-03 0.  1.
         11   -1    0    0    0    0 -0.00000000000E+00 -0.00000000000E+00 -0.45593999997E+02  0.45594000000E+02  0.51100000000E-03 0. -1.
    9900012    2    1    2    0    0 -0.32571973195E+02  0.24487605352E+02 -0.14934762781E+02  0.47787269672E+02  0.19999993744E+02 0.  0.
         12    1    1    2    0    0  0.32571973195E+02 -0.24487605352E+02  0.14934762781E+02  0.43400730328E+02  0.00000000000E+00 0. -1.
         11    1    3    3    0    0 -0.18022801762E+02  0.18258891200E+02 -0.13792927161E+02  0.29128222245E+02  0.51100000000E-03 0. -1.
        -11    1    3    3    0    0 -0.21660408158E+01  0.31551784745E+01  0.33966323561E+01  0.51170299633E+01  0.51100000000E-03 0.  1.
        -12    1    3    3    0    0 -0.12383130617E+02  0.30735356775E+01 -0.45384679758E+01  0.13542017464E+02  0.00000000000E+00 0.  1.
</event>
<event>
 7    1  0.2412036E-009  0.4778728E+02  0.7816164E-02  0.1312668E+00
        -11   -1    0    0    0    0  0.00000000000E+00  0.00000000000E+00  0.45593999997E+02  0.45594000000E+02  0.51100000000E-03 0.  1.
         11   -1    0    0    0    0 -0.00000000000E+00 -0.00000000000E+00 -0.45593999997E+02  0.45594000000E+02  0.51100000000E-03 0. -1.
    9900012    2    1    2    0    0 -0.10372567203E+02 -0.50130592440E+01  0.41843777657E+02  0.47787278325E+02  0.20000033193E+02 0.  0.
         12    1    1    2    0    0  0.10372567203E+02  0.50130592440E+01 -0.41843777657E+02  0.43400721675E+02  0.00000000000E+00 0. -1.
         11    1    3    3    0    0 -0.54211294063E+01 -0.38936553866E+01  0.59386938987E+01  0.89340518128E+01  0.51100000000E-03 0. -1.
        -11    1    3    3    0    0  0.18452017165E+01 -0.29752822530E+01  0.28184633634E+02  0.28401243761E+02  0.51100000000E-03 0.  1.
        -12    1    3    3    0    0 -0.67966395134E+01  0.18558783956E+01  0.77204501244E+01  0.10451982751E+02  0.00000000000E+00 0.  1.
</event>
<event>
 7    1  0.2412036E-009  0.4778727E+02  0.7816164E-02  0.1312668E+00
        -11   -1    0    0    0    0  0.00000000000E+00  0.00000000000E+00  0.45593999997E+02  0.45594000000E+02  0.51100000000E-03 0.  1.
         11   -1    0    0    0    0 -0.00000000000E+00 -0.00000000000E+00 -0.45593999997E+02  0.45594000000E+02  0.51100000000E-03 0. -1.
    9900012    2    1    2    0    0 -0.10601615584E+02 -0.19970638804E+02  0.37045954322E+02  0.47787269604E+02  0.19999993434E+02 0.  0.
         12    1    1    2    0    0  0.10601615584E+02  0.19970638804E+02 -0.37045954322E+02  0.43400730396E+02  0.00000000000E+00 0. -1.
         11    1    3    3    0    0 -0.17905646415E+01  0.79279670639E+00  0.16207688610E+02  0.16325557224E+02  0.51100000000E-03 0. -1.
        -11    1    3    3    0    0 -0.76525475607E+01 -0.15865939312E+02  0.19450115312E+02  0.26241122315E+02  0.51100000000E-03 0.  1.
         12    1    3    3    0    0 -0.11585033822E+01 -0.48974961976E+01  0.13881504004E+01  0.52205900650E+01  0.00000000000E+00 0. -1.
</event>
<event>
 7    1  0.2412036E-009  0.4778727E+02  0.7816164E-02  0.1312668E+00
        -11   -1    0    0    0    0  0.00000000000E+00  0.00000000000E+00  0.45593999997E+02  0.45594000000E+02  0.51100000000E-03 0.  1.
         11   -1    0    0    0    0 -0.00000000000E+00 -0.00000000000E+00 -0.45593999997E+02  0.45594000000E+02  0.51100000000E-03 0. -1.
    9900012    2    1    2    0    0 -0.24615094441E+02 -0.35496150391E+02  0.42123331089E+01  0.47787270546E+02  0.19999997727E+02 0.  0.
         12    1    1    2    0    0  0.24615094441E+02  0.35496150391E+02 -0.42123331089E+01  0.43400729454E+02  0.00000000000E+00 0. -1.
         11    1    3    3    0    0 -0.18459925896E+01 -0.26782832447E+00 -0.10200118535E+01  0.21259927316E+01  0.51100000000E-03 0. -1.
        -11    1    3    3    0    0 -0.12342119796E+01 -0.13977329141E+02  0.63145157010E+01  0.15387076328E+02  0.51100000000E-03 0.  1.
        -12    1    3    3    0    0 -0.21534889872E+02 -0.21250992925E+02 -0.10821707385E+01  0.30274201486E+02  0.00000000000E+00 0.  1.
</event>
<event>
 7    1  0.2412036E-009  0.4778726E+02  0.7816164E-02  0.1312668E+00
        -11   -1    0    0    0    0  0.00000000000E+00  0.00000000000E+00  0.45593999997E+02  0.45594000000E+02  0.51100000000E-03 0. -1.
         11   -1    0    0    0    0 -0.00000000000E+00 -0.00000000000E+00 -0.45593999997E+02  0.45594000000E+02  0.51100000000E-03 0.  1.
    9900012    2    1    2    0    0 -0.56642544537E+01  0.28621861403E+01 -0.42934228614E+02  0.47787264123E+02  0.19999968442E+02 0.  0.
         12    1    1    2    0    0  0.56642544537E+01 -0.28621861403E+01  0.42934228614E+02  0.43400735877E+02  0.00000000000E+00 0. -1.
         11    1    3    3    0    0 -0.41170163928E+01 -0.15398630920E+01 -0.30797518316E+01  0.53671103888E+01  0.51100000000E-03 0. -1.
        -11    1    3    3    0    0 -0.47490508496E+01  0.19787219366E+01 -0.37317288671E+02  0.37670264911E+02  0.51100000000E-03 0.  1.
        -12    1    3    3    0    0  0.32018127887E+01  0.24233272957E+01 -0.25371881110E+01  0.47498888226E+01  0.00000000000E+00 0.  1.
</event>
<event>
 7    1  0.2412036E-009  0.4778727E+02  0.7816164E-02  0.1312668E+00
        -11   -1    0    0    0    0  0.00000000000E+00  0.00000000000E+00  0.45593999997E+02  0.45594000000E+02  0.51100000000E-03 0. -1.
         11   -1    0    0    0    0 -0.00000000000E+00 -0.00000000000E+00 -0.45593999997E+02  0.45594000000E+02  0.51100000000E-03 0.  1.
    9900012    2    1    2    0    0 -0.19862700658E+02 -0.36953721151E+02 -0.11113907548E+02  0.47787270451E+02  0.19999997296E+02 0.  0.
         12    1    1    2    0    0  0.19862700658E+02  0.36953721151E+02  0.11113907548E+02  0.43400729549E+02  0.00000000000E+00 0. -1.
         11    1    3    3    0    0 -0.15725705260E+02 -0.17139512673E+02 -0.70883234742E+00  0.23271509279E+02  0.51100000000E-03 0. -1.
        -11    1    3    3    0    0 -0.60439610174E+01 -0.17637640693E+02 -0.10874677522E+02  0.21584124848E+02  0.51100000000E-03 0.  1.
         12    1    3    3    0    0  0.19069656188E+01 -0.21765677852E+01  0.46960232088E+00  0.29316363237E+01  0.00000000000E+00 0. -1.
</event>
<event>
 7    1  0.2412036E-009  0.4778727E+02  0.7816164E-02  0.1312668E+00
        -11   -1    0    0    0    0  0.00000000000E+00  0.00000000000E+00  0.45593999997E+02  0.45594000000E+02  0.51100000000E-03 0.  1.
         11   -1    0    0    0    0 -0.00000000000E+00 -0.00000000000E+00 -0.45593999997E+02  0.45594000000E+02  0.51100000000E-03 0. -1.
    9900012    2    1    2    0    0 -0.40535875820E+02  0.12370552343E+02 -0.93507079087E+01  0.47787268069E+02  0.19999986435E+02 0.  0.
         12    1    1    2    0    0  0.40535875820E+02 -0.12370552343E+02  0.93507079087E+01  0.43400731931E+02  0.00000000000E+00 0. -1.
         11    1    3    3    0    0 -0.14773112407E+02  0.85870859044E+01  0.88467622540E+00  0.17110392947E+02  0.51100000000E-03 0. -1.
        -11    1    3    3    0    0 -0.20114742549E+02  0.80821643235E+01 -0.63673783129E+01  0.22593533473E+02  0.51100000000E-03 0.  1.
         12    1    3    3    0    0 -0.56480208637E+01 -0.42986978848E+01 -0.38680058211E+01  0.80833416489E+01  0.00000000000E+00 0. -1.
</event>
<event>
 7    1  0.2412036E-009  0.4778728E+02  0.7816164E-02  0.1312668E+00
        -11   -1    0    0    0    0  0.00000000000E+00  0.00000000000E+00  0.45593999997E+02  0.45594000000E+02  0.51100000000E-03 0.  1.
         11   -1    0    0    0    0 -0.00000000000E+00 -0.00000000000E+00 -0.45593999997E+02  0.45594000000E+02  0.51100000000E-03 0. -1.
    9900012    2    1    2    0    0  0.25889296375E+02  0.20634902740E+02  0.28063642247E+02  0.47787275420E+02  0.20000019950E+02 0.  0.
         12    1    1    2    0    0 -0.25889296375E+02 -0.20634902740E+02 -0.28063642247E+02  0.43400724580E+02  0.00000000000E+00 0. -1.
         11    1    3    3    0    0  0.38727249460E+01 -0.49300636795E+00  0.10177462916E+02  0.10900541522E+02  0.51100000000E-03 0. -1.
        -11    1    3    3    0    0  0.95211686338E+01  0.16095243235E+02  0.90395197528E+01  0.20770710739E+02  0.51100000000E-03 0.  1.
         12    1    3    3    0    0  0.12495402795E+02  0.50326658730E+01  0.88466595778E+01  0.16116023160E+02  0.00000000000E+00 0. -1.
</event>
<event>
 7    1  0.2412036E-009  0.4778727E+02  0.7816164E-02  0.1312668E+00
        -11   -1    0    0    0    0  0.00000000000E+00  0.00000000000E+00  0.45593999997E+02  0.45594000000E+02  0.51100000000E-03 0.  1.
         11   -1    0    0    0    0 -0.00000000000E+00 -0.00000000000E+00 -0.45593999997E+02  0.45594000000E+02  0.51100000000E-03 0. -1.
    9900012    2    1    2    0    0  0.26171402946E+02 -0.23916388824E+02  0.25033722890E+02  0.47787271109E+02  0.20000000296E+02 0.  0.
         12    1    1    2    0    0 -0.26171402946E+02  0.23916388824E+02 -0.25033722890E+02  0.43400728891E+02  0.00000000000E+00 0. -1.
         11    1    3    3    0    0  0.26767912996E+00  0.17532834733E+01  0.38077210610E+01  0.42005231810E+01  0.51100000000E-03 0. -1.
        -11    1    3    3    0    0  0.97779505699E+01 -0.17347178760E+02  0.10624560131E+02  0.22570206169E+02  0.51100000000E-03 0.  1.
        -12    1    3    3    0    0  0.16125773246E+02 -0.83224935370E+01  0.10601441698E+02  0.21016541759E+02  0.00000000000E+00 0.  1.
</event>
<event>
 7    1  0.2412036E-009  0.4778727E+02  0.7816164E-02  0.1312668E+00
        -11   -1    0    0    0    0  0.00000000000E+00  0.00000000000E+00  0.45593999997E+02  0.45594000000E+02  0.51100000000E-03 0.  1.
         11   -1    0    0    0    0 -0.00000000000E+00 -0.00000000000E+00 -0.45593999997E+02  0.45594000000E+02  0.51100000000E-03 0. -1.
    9900012    2    1    2    0    0  0.43334235376E+02 -0.11310880057E+01 -0.21185804960E+01  0.47787266147E+02  0.19999977669E+02 0.  0.
         12    1    1    2    0    0 -0.43334235376E+02  0.11310880057E+01  0.21185804960E+01  0.43400733853E+02  0.00000000000E+00 0. -1.
         11    1    3    3    0    0  0.10631845071E+02  0.10317815729E+01 -0.75982544759E+01  0.13108553474E+02  0.51100000000E-03 0. -1.
        -11    1    3    3    0    0  0.93346430144E+01  0.15970249258E+01  0.56155632245E+01  0.11010022680E+02  0.51100000000E-03 0.  1.
        -12    1    3    3    0    0  0.23367747290E+02 -0.37598945045E+01 -0.13588924457E+00  0.23668689993E+02  0.00000000000E+00 0.  1.
</event>
<event>
 7    1  0.2412036E-009  0.4778727E+02  0.7816164E-02  0.1312668E+00
        -11   -1    0    0    0    0  0.00000000000E+00  0.00000000000E+00  0.45593999997E+02  0.45594000000E+02  0.51100000000E-03 0.  1.
         11   -1    0    0    0    0 -0.00000000000E+00 -0.00000000000E+00 -0.45593999997E+02  0.45594000000E+02  0.51100000000E-03 0. -1.
    9900012    2    1    2    0    0  0.35817515834E+02  0.15609619905E+00  0.24509269733E+02  0.47787272940E+02  0.20000008640E+02 0.  0.
         12    1    1    2    0    0 -0.35817515834E+02 -0.15609619905E+00 -0.24509269733E+02  0.43400727060E+02  0.00000000000E+00 0. -1.
         11    1    3    3    0    0  0.18426472894E+02  0.36694365058E+01  0.11154432381E+02  0.21849966352E+02  0.51100000000E-03 0. -1.
        -11    1    3    3    0    0  0.14113140562E+02 -0.38049127917E+00  0.15461461731E+02  0.20937581265E+02  0.51100000000E-03 0.  1.
         12    1    3    3    0    0  0.32779023775E+01 -0.31328490275E+01 -0.21066243780E+01  0.49997253220E+01  0.00000000000E+00 0. -1.
</event>
<event>
 7    1  0.2412036E-009  0.4778727E+02  0.7816164E-02  0.1312668E+00
        -11   -1    0    0    0    0  0.00000000000E+00  0.00000000000E+00  0.45593999997E+02  0.45594000000E+02  0.51100000000E-03 0.  1.
         11   -1    0    0    0    0 -0.00000000000E+00 -0.00000000000E+00 -0.45593999997E+02  0.45594000000E+02  0.51100000000E-03 0. -1.
    9900012    2    1    2    0    0 -0.62155473091E+01 -0.12680141361E+02  0.41039061847E+02  0.47787267165E+02  0.19999982312E+02 0.  0.
         12    1    1    2    0    0  0.62155473091E+01  0.12680141361E+02 -0.41039061847E+02  0.43400732835E+02  0.00000000000E+00 0. -1.
         11    1    3    3    0    0  0.14609778062E+01 -0.54259932070E+00  0.27325717968E+01  0.31457620791E+01  0.51100000000E-03 0. -1.
        -11    1    3    3    0    0 -0.43720435178E+01  0.18168289729E+01  0.23714571736E+02  0.24182566963E+02  0.51100000000E-03 0.  1.
        -12    1    3    3    0    0 -0.33044815975E+01 -0.13954371013E+02  0.14591918314E+02  0.20458938123E+02  0.00000000000E+00 0.  1.
</event>
<event>
 7    1  0.2412036E-009  0.4778727E+02  0.7816164E-02  0.1312668E+00
        -11   -1    0    0    0    0  0.00000000000E+00  0.00000000000E+00  0.45593999997E+02  0.45594000000E+02  0.51100000000E-03 0.  1.
         11   -1    0    0    0    0 -0.00000000000E+00 -0.00000000000E+00 -0.45593999997E+02  0.45594000000E+02  0.51100000000E-03 0. -1.
    9900012    2    1    2    0    0 -0.15948461970E+02 -0.29778084797E+02  0.27249505799E+02  0.47787270286E+02  0.19999996542E+02 0.  0.
         12    1    1    2    0    0  0.15948461970E+02  0.29778084797E+02 -0.27249505799E+02  0.43400729714E+02  0.00000000000E+00 0. -1.
         11    1    3    3    0    0 -0.82936225690E+01 -0.69569713924E+01  0.14355667972E+01  0.10919912022E+02  0.51100000000E-03 0. -1.
        -11    1    3    3    0    0  0.13878537433E+01 -0.12524290734E+02  0.11702257114E+02  0.17196709518E+02  0.51100000000E-03 0.  1.
         12    1    3    3    0    0 -0.90426931438E+01 -0.10296822671E+02  0.14111681888E+02  0.19670648747E+02  0.00000000000E+00 0. -1.
</event>
<event>
 7    1  0.2412036E-009  0.4778727E+02  0.7816164E-02  0.1312668E+00
        -11   -1    0    0    0    0  0.00000000000E+00  0.00000000000E+00  0.45593999997E+02  0.45594000000E+02  0.51100000000E-03 0. -1.
         11   -1    0    0    0    0 -0.00000000000E+00 -0.00000000000E+00 -0.45593999997E+02  0.45594000000E+02  0.51100000000E-03 0.  1.
    9900012    2    1    2    0    0 -0.17210875429E+02 -0.37337083842E+02 -0.13905082397E+02  0.47787269830E+02  0.19999994461E+02 0.  0.
         12    1    1    2    0    0  0.17210875429E+02  0.37337083842E+02  0.13905082397E+02  0.43400730170E+02  0.00000000000E+00 0. -1.
         11    1    3    3    0    0  0.30468050627E+01 -0.31013295418E+01 -0.42017478142E+01  0.60461517490E+01  0.51100000000E-03 0. -1.
        -11    1    3    3    0    0 -0.17206591343E+02 -0.29702399655E+02 -0.53207279520E+01  0.34736284734E+02  0.51100000000E-03 0.  1.
        -12    1    3    3    0    0 -0.30510891481E+01 -0.45333546451E+01 -0.43826066310E+01  0.70048333464E+01  0.00000000000E+00 0.  1.
</event>
<event>
 7    1  0.2412036E-009  0.4778727E+02  0.7816164E-02  0.1312668E+00
        -11   -1    0    0    0    0  0.00000000000E+00  0.00000000000E+00  0.45593999997E+02  0.45594000000E+02  0.51100000000E-03 0.  1.
         11   -1    0    0    0    0 -0.00000000000E+00 -0.00000000000E+00 -0.45593999997E+02  0.45594000000E+02  0.51100000000E-03 0. -1.
    9900012    2    1    2    0    0  0.19612056433E+02  0.16918027504E+02  0.34824860240E+02  0.47787270711E+02  0.19999998478E+02 0.  0.
         12    1    1    2    0    0 -0.19612056433E+02 -0.16918027504E+02 -0.34824860240E+02  0.43400729289E+02  0.00000000000E+00 0. -1.
         11    1    3    3    0    0 -0.61775986450E-01 -0.10566656432E+01 -0.54997925886E+00  0.11928268946E+01  0.51100000000E-03 0. -1.
        -11    1    3    3    0    0  0.21465187921E+02  0.18586279956E+02  0.32547163731E+02  0.43191688579E+02  0.51100000000E-03 0.  1.
        -12    1    3    3    0    0 -0.17913555016E+01 -0.61158680926E+00  0.28276757678E+01  0.34027552374E+01  0.00000000000E+00 0.  1.
</event>
<event>
 7    1  0.2412036E-009  0.4778727E+02  0.7816164E-02  0.1312668E+00
        -11   -1    0    0    0    0  0.00000000000E+00  0.00000000000E+00  0.45593999997E+02  0.45594000000E+02  0.51100000000E-03 0. -1.
         11   -1    0    0    0    0 -0.00000000000E+00 -0.00000000000E+00 -0.45593999997E+02  0.45594000000E+02  0.51100000000E-03 0.  1.
    9900012    2    1    2    0    0  0.18384164996E+02 -0.37694042843E+02 -0.11171621085E+02  0.47787268369E+02  0.19999987803E+02 0.  0.
         12    1    1    2    0    0 -0.18384164996E+02  0.37694042843E+02  0.11171621085E+02  0.43400731631E+02  0.00000000000E+00 0. -1.
         11    1    3    3    0    0  0.17581053225E+02 -0.24482522395E+02 -0.47126526499E+01  0.30507317656E+02  0.51100000000E-03 0. -1.
        -11    1    3    3    0    0  0.17111035041E+01 -0.13968713194E+02 -0.72760645778E+01  0.15842788249E+02  0.51100000000E-03 0.  1.
         12    1    3    3    0    0 -0.90799173293E+00  0.75719274620E+00  0.81709614297E+00  0.14371624643E+01  0.00000000000E+00 0. -1.
</event>
<event>
 7    1  0.2412036E-009  0.4778727E+02  0.7816164E-02  0.1312668E+00
        -11   -1    0    0    0    0  0.00000000000E+00  0.00000000000E+00  0.45593999997E+02  0.45594000000E+02  0.51100000000E-03 0.  1.
         11   -1    0    0    0    0 -0.00000000000E+00 -0.00000000000E+00 -0.45593999997E+02  0.45594000000E+02  0.51100000000E-03 0. -1.
    9900012    2    1    2    0    0 -0.17251378758E+02 -0.11360675670E+02  0.38169992140E+02  0.47787270505E+02  0.19999997540E+02 0.  0.
         12    1    1    2    0    0  0.17251378758E+02  0.11360675670E+02 -0.38169992140E+02  0.43400729495E+02  0.00000000000E+00 0. -1.
         11    1    3    3    0    0  0.18497632369E+01 -0.14048662346E+01  0.23342635150E+01  0.32930319750E+01  0.51100000000E-03 0. -1.
        -11    1    3    3    0    0 -0.10019706328E+02 -0.66328583982E+01  0.66187531146E+01  0.13718499134E+02  0.51100000000E-03 0.  1.
        -12    1    3    3    0    0 -0.90814356661E+01 -0.33229510369E+01  0.29216975511E+02  0.30775739396E+02  0.00000000000E+00 0.  1.
</event>
<event>
 7    1  0.2412036E-009  0.4778729E+02  0.7816164E-02  0.1312668E+00
        -11   -1    0    0    0    0  0.00000000000E+00  0.00000000000E+00  0.45593999997E+02  0.45594000000E+02  0.51100000000E-03 0.  1.
         11   -1    0    0    0    0 -0.00000000000E+00 -0.00000000000E+00 -0.45593999997E+02  0.45594000000E+02  0.51100000000E-03 0. -1.
    9900012    2    1    2    0    0  0.33461421867E+02 -0.25203721807E+02  0.11345820262E+02  0.47787285908E+02  0.20000067768E+02 0.  0.
         12    1    1    2    0    0 -0.33461421867E+02  0.25203721807E+02 -0.11345820262E+02  0.43400714092E+02  0.00000000000E+00 0. -1.
         11    1    3    3    0    0  0.13239785776E+02 -0.16390900404E+01  0.82733483672E+01  0.15697988311E+02  0.51100000000E-03 0. -1.
        -11    1    3    3    0    0  0.16215227504E+02 -0.14344176619E+02  0.26290716913E+00  0.21650822763E+02  0.51100000000E-03 0.  1.
         12    1    3    3    0    0  0.40064085876E+01 -0.92204551482E+01  0.28095647257E+01  0.10438474834E+02  0.00000000000E+00 0. -1.
</event>
<event>
 7    1  0.2412036E-009  0.4778727E+02  0.7816164E-02  0.1312668E+00
        -11   -1    0    0    0    0  0.00000000000E+00  0.00000000000E+00  0.45593999997E+02  0.45594000000E+02  0.51100000000E-03 0.  1.
         11   -1    0    0    0    0 -0.00000000000E+00 -0.00000000000E+00 -0.45593999997E+02  0.45594000000E+02  0.51100000000E-03 0. -1.
    9900012    2    1    2    0    0 -0.37754450679E+01  0.42902975949E+02  0.53576143243E+01  0.47787270029E+02  0.19999995371E+02 0.  0.
         12    1    1    2    0    0  0.37754450679E+01 -0.42902975949E+02 -0.53576143243E+01  0.43400729971E+02  0.00000000000E+00 0. -1.
         11    1    3    3    0    0  0.43638121519E+00  0.50245566672E+01  0.28423170440E+01  0.57892456077E+01  0.51100000000E-03 0. -1.
        -11    1    3    3    0    0  0.38650806680E+01  0.48942029520E+01  0.49356481292E+01  0.79531562176E+01  0.51100000000E-03 0.  1.
        -12    1    3    3    0    0 -0.80769069512E+01  0.32984216330E+02 -0.24203508488E+01  0.34044868204E+02  0.00000000000E+00 0.  1.
</event>
<event>
 7    1  0.2412036E-009  0.4778726E+02  0.7816164E-02  0.1312668E+00
        -11   -1    0    0    0    0  0.00000000000E+00  0.00000000000E+00  0.45593999997E+02  0.45594000000E+02  0.51100000000E-03 0.  1.
         11   -1    0    0    0    0 -0.00000000000E+00 -0.00000000000E+00 -0.45593999997E+02  0.45594000000E+02  0.51100000000E-03 0. -1.
    9900012    2    1    2    0    0 -0.17830332347E+02 -0.40072451219E+01  0.39365531514E+02  0.47787264563E+02  0.19999970449E+02 0.  0.
         12    1    1    2    0    0  0.17830332347E+02  0.40072451219E+01 -0.39365531514E+02  0.43400735437E+02  0.00000000000E+00 0. -1.
         11    1    3    3    0    0 -0.92362171987E+01  0.27413618863E+01  0.94392508418E+01  0.13487854902E+02  0.51100000000E-03 0.  1.
        -11    1    3    3    0    0  0.32992605525E+01 -0.23862556137E+01  0.80003440278E+01  0.89769059743E+01  0.51100000000E-03 0. -1.
        -12    1    3    3    0    0 -0.11893375701E+02 -0.43623513945E+01  0.21925936644E+02  0.25322503687E+02  0.00000000000E+00 0.  1.
</event>
<event>
 7    1  0.2412036E-009  0.4778728E+02  0.7816164E-02  0.1312668E+00
        -11   -1    0    0    0    0  0.00000000000E+00  0.00000000000E+00  0.45593999997E+02  0.45594000000E+02  0.51100000000E-03 0.  1.
         11   -1    0    0    0    0 -0.00000000000E+00 -0.00000000000E+00 -0.45593999997E+02  0.45594000000E+02  0.51100000000E-03 0. -1.
    9900012    2    1    2    0    0 -0.21563431608E+01  0.39722852553E+02  0.17351304185E+02  0.47787278950E+02  0.20000036043E+02 0.  0.
         12    1    1    2    0    0  0.21563431608E+01 -0.39722852553E+02 -0.17351304185E+02  0.43400721050E+02  0.00000000000E+00 0. -1.
         11    1    3    3    0    0  0.34008939377E+00  0.20042634918E+02  0.16601958238E+02  0.26027829200E+02  0.51100000000E-03 0.  1.
        -11    1    3    3    0    0  0.13873598075E+00  0.92293390384E+00  0.25665690159E+01  0.27309945876E+01  0.51100000000E-03 0. -1.
         12    1    3    3    0    0 -0.26351685353E+01  0.18757283731E+02 -0.18172230689E+01  0.19028455162E+02  0.00000000000E+00 0. -1.
</event>
<event>
 7    1  0.2412036E-009  0.4778727E+02  0.7816164E-02  0.1312668E+00
        -11   -1    0    0    0    0  0.00000000000E+00  0.00000000000E+00  0.45593999997E+02  0.45594000000E+02  0.51100000000E-03 0.  1.
         11   -1    0    0    0    0 -0.00000000000E+00 -0.00000000000E+00 -0.45593999997E+02  0.45594000000E+02  0.51100000000E-03 0. -1.
    9900012    2    1    2    0    0 -0.75070101276E+01 -0.16015978147E+02  0.39632768953E+02  0.47787272680E+02  0.20000007456E+02 0.  0.
         12    1    1    2    0    0  0.75070101276E+01  0.16015978147E+02 -0.39632768953E+02  0.43400727320E+02  0.00000000000E+00 0. -1.
         11    1    3    3    0    0  0.10576047797E+01 -0.59976830674E+01  0.35272116324E+01  0.70378940179E+01  0.51100000000E-03 0. -1.
        -11    1    3    3    0    0 -0.91557977991E+01 -0.32735760364E+00  0.16565532151E+02  0.18930204755E+02  0.51100000000E-03 0.  1.
        -12    1    3    3    0    0  0.59118289179E+00 -0.96909374760E+01  0.19540025169E+02  0.21819173907E+02  0.00000000000E+00 0.  1.
</event>
<event>
 7    1  0.2412036E-009  0.4778727E+02  0.7816164E-02  0.1312668E+00
        -11   -1    0    0    0    0  0.00000000000E+00  0.00000000000E+00  0.45593999997E+02  0.45594000000E+02  0.51100000000E-03 0. -1.
         11   -1    0    0    0    0 -0.00000000000E+00 -0.00000000000E+00 -0.45593999997E+02  0.45594000000E+02  0.51100000000E-03 0.  1.
    9900012    2    1    2    0    0 -0.37931575771E+02 -0.91281976657E+01  0.19013023912E+02  0.47787268309E+02  0.19999987527E+02 0.  0.
         12    1    1    2    0    0  0.37931575771E+02  0.91281976657E+01 -0.19013023912E+02  0.43400731691E+02  0.00000000000E+00 0. -1.
         11    1    3    3    0    0  0.16552558846E+01  0.28586693486E+00  0.95376070748E+00  0.19316448162E+01  0.51100000000E-03 0. -1.
        -11    1    3    3    0    0 -0.28908024150E+02 -0.16656752419E+01  0.12374622329E+02  0.31489357127E+02  0.51100000000E-03 0.  1.
        -12    1    3    3    0    0 -0.10678807506E+02 -0.77483893586E+01  0.56846408754E+01  0.14366266365E+02  0.00000000000E+00 0.  1.
</event>
<event>
 7    1  0.2412036E-009  0.4778726E+02  0.7816164E-02  0.1312668E+00
        -11   -1    0    0    0    0  0.00000000000E+00  0.00000000000E+00  0.45593999997E+02  0.45594000000E+02  0.51100000000E-03 0.  1.
         11   -1    0    0    0    0 -0.00000000000E+00 -0.00000000000E+00 -0.45593999997E+02  0.45594000000E+02  0.51100000000E-03 0. -1.
    9900012    2    1    2    0    0 -0.28811046941E+02 -0.53370215540E+01  0.32016615579E+02  0.47787263854E+02  0.19999967214E+02 0.  0.
         12    1    1    2    0    0  0.28811046941E+02  0.53370215540E+01 -0.32016615579E+02  0.43400736146E+02  0.00000000000E+00 0. -1.
         11    1    3    3    0    0 -0.71139780013E+01 -0.85189442761E+00  0.19454252784E+01  0.74242229825E+01  0.51100000000E-03 0. -1.
        -11    1    3    3    0    0 -0.48895397127E+01 -0.57024301458E+01  0.18372546770E+02  0.19848823220E+02  0.51100000000E-03 0.  1.
        -12    1    3    3    0    0 -0.16807529227E+02  0.12173030193E+01  0.11698643531E+02  0.20514217651E+02  0.00000000000E+00 0.  1.
</event>
<event>
 7    1  0.2412036E-009  0.4778727E+02  0.7816164E-02  0.1312668E+00
        -11   -1    0    0    0    0  0.00000000000E+00  0.00000000000E+00  0.45593999997E+02  0.45594000000E+02  0.51100000000E-03 0.  1.
         11   -1    0    0    0    0 -0.00000000000E+00 -0.00000000000E+00 -0.45593999997E+02  0.45594000000E+02  0.51100000000E-03 0. -1.
    9900012    2    1    2    0    0 -0.10533430207E+01 -0.41710530880E+02  0.11947613149E+02  0.47787269848E+02  0.19999994543E+02 0.  0.
         12    1    1    2    0    0  0.10533430207E+01  0.41710530880E+02 -0.11947613149E+02  0.43400730152E+02  0.00000000000E+00 0. -1.
         11    1    3    3    0    0  0.29254787501E+01 -0.24914751361E+02  0.12532333545E+02  0.28042158363E+02  0.51100000000E-03 0. -1.
        -11    1    3    3    0    0 -0.48319635711E+01 -0.17651589502E+02  0.20390257346E+00  0.18302132674E+02  0.51100000000E-03 0.  1.
         12    1    3    3    0    0  0.85314180031E+00  0.85580998326E+00 -0.78862296973E+00  0.14429788104E+01  0.00000000000E+00 0. -1.
</event>
<event>
 7    1  0.2412036E-009  0.4778727E+02  0.7816164E-02  0.1312668E+00
        -11   -1    0    0    0    0  0.00000000000E+00  0.00000000000E+00  0.45593999997E+02  0.45594000000E+02  0.51100000000E-03 0. -1.
         11   -1    0    0    0    0 -0.00000000000E+00 -0.00000000000E+00 -0.45593999997E+02  0.45594000000E+02  0.51100000000E-03 0.  1.
    9900012    2    1    2    0    0  0.10931769661E+02  0.87679372245E+01 -0.41076063258E+02  0.47787270929E+02  0.19999999475E+02 0.  0.
         12    1    1    2    0    0 -0.10931769661E+02 -0.87679372245E+01  0.41076063258E+02  0.43400729071E+02  0.00000000000E+00 0. -1.
         11    1    3    3    0    0 -0.40065655178E+01  0.34218996007E+01 -0.11036809600E+02  0.12230009425E+02  0.51100000000E-03 0. -1.
        -11    1    3    3    0    0  0.97408925270E+01  0.41999854854E+01 -0.91759672010E+01  0.14025806203E+02  0.51100000000E-03 0.  1.
         12    1    3    3    0    0  0.51974426521E+01  0.11460521384E+01 -0.20863286457E+02  0.21531455302E+02  0.00000000000E+00 0. -1.
</event>
<event>
 7    1  0.2412036E-009  0.4778726E+02  0.7816164E-02  0.1312668E+00
        -11   -1    0    0    0    0  0.00000000000E+00  0.00000000000E+00  0.45593999997E+02  0.45594000000E+02  0.51100000000E-03 0.  1.
         11   -1    0    0    0    0 -0.00000000000E+00 -0.00000000000E+00 -0.45593999997E+02  0.45594000000E+02  0.51100000000E-03 0. -1.
    9900012    2    1    2    0    0 -0.33675090752E+02  0.72555112864E+01  0.26400191972E+02  0.47787259023E+02  0.19999945190E+02 0.  0.
         12    1    1    2    0    0  0.33675090752E+02 -0.72555112864E+01 -0.26400191972E+02  0.43400740977E+02  0.00000000000E+00 0. -1.
         11    1    3    3    0    0 -0.10791383525E+01 -0.28596018581E+01  0.16971424354E+01  0.34960198909E+01  0.51100000000E-03 0. -1.
        -11    1    3    3    0    0  0.15097147082E+00 -0.60277355103E+00  0.40961885861E+01  0.41430531656E+01  0.51100000000E-03 0.  1.
        -12    1    3    3    0    0 -0.32746923870E+02  0.10717886696E+02  0.20606860950E+02  0.40148185967E+02  0.00000000000E+00 0.  1.
</event>
<event>
 7    1  0.2412036E-009  0.4778727E+02  0.7816164E-02  0.1312668E+00
        -11   -1    0    0    0    0  0.00000000000E+00  0.00000000000E+00  0.45593999997E+02  0.45594000000E+02  0.51100000000E-03 0.  1.
         11   -1    0    0    0    0 -0.00000000000E+00 -0.00000000000E+00 -0.45593999997E+02  0.45594000000E+02  0.51100000000E-03 0. -1.
    9900012    2    1    2    0    0 -0.29656047832E+02  0.14332447504E+02  0.28261690166E+02  0.47787270105E+02  0.19999995716E+02 0.  0.
         12    1    1    2    0    0  0.29656047832E+02 -0.14332447504E+02 -0.28261690166E+02  0.43400729895E+02  0.00000000000E+00 0. -1.
         11    1    3    3    0    0 -0.80530726310E+01  0.37251919326E+01 -0.18319300155E+01  0.90600773494E+01  0.51100000000E-03 0. -1.
        -11    1    3    3    0    0 -0.17830189866E+02  0.71435960523E+01  0.22755358412E+02  0.29778397739E+02  0.51100000000E-03 0.  1.
        -12    1    3    3    0    0 -0.37727853345E+01  0.34636595188E+01  0.73382617692E+01  0.89487950159E+01  0.00000000000E+00 0.  1.
</event>
<event>
 7    1  0.2412036E-009  0.4778727E+02  0.7816164E-02  0.1312668E+00
        -11   -1    0    0    0    0  0.00000000000E+00  0.00000000000E+00  0.45593999997E+02  0.45594000000E+02  0.51100000000E-03 0. -1.
         11   -1    0    0    0    0 -0.00000000000E+00 -0.00000000000E+00 -0.45593999997E+02  0.45594000000E+02  0.51100000000E-03 0.  1.
    9900012    2    1    2    0    0  0.29286332867E+02  0.30713913462E+02 -0.90878693120E+01  0.47787272569E+02  0.20000006949E+02 0.  0.
         12    1    1    2    0    0 -0.29286332867E+02 -0.30713913462E+02  0.90878693120E+01  0.43400727431E+02  0.00000000000E+00 0. -1.
         11    1    3    3    0    0  0.40033276500E+01  0.12723786137E+02 -0.62195428452E+01  0.14717475307E+02  0.51100000000E-03 0. -1.
        -11    1    3    3    0    0  0.26263262352E+02  0.18059633470E+02 -0.23527654800E+01  0.31960050315E+02  0.51100000000E-03 0.  1.
        -12    1    3    3    0    0 -0.98025713501E+00 -0.69506146008E-01 -0.51556098689E+00  0.11097469470E+01  0.00000000000E+00 0.  1.
</event>
<event>
 7    1  0.2412036E-009  0.4778727E+02  0.7816164E-02  0.1312668E+00
        -11   -1    0    0    0    0  0.00000000000E+00  0.00000000000E+00  0.45593999997E+02  0.45594000000E+02  0.51100000000E-03 0.  1.
         11   -1    0    0    0    0 -0.00000000000E+00 -0.00000000000E+00 -0.45593999997E+02  0.45594000000E+02  0.51100000000E-03 0. -1.
    9900012    2    1    2    0    0  0.99055171814E+00 -0.42826734497E+02 -0.69651152029E+01  0.47787271778E+02  0.20000003346E+02 0.  0.
         12    1    1    2    0    0 -0.99055171814E+00  0.42826734497E+02  0.69651152029E+01  0.43400728222E+02  0.00000000000E+00 0. -1.
         11    1    3    3    0    0  0.12480547332E+01 -0.12941012360E+01  0.21225621627E+01  0.27816558058E+01  0.51100000000E-03 0. -1.
        -11    1    3    3    0    0  0.19990735058E+01 -0.41709407383E+02 -0.91212446056E+01  0.42741877153E+02  0.51100000000E-03 0.  1.
        -12    1    3    3    0    0 -0.22565765209E+01  0.17677412204E+00  0.33567239966E-01  0.22637388198E+01  0.00000000000E+00 0.  1.
</event>
<event>
 7    1  0.2412036E-009  0.4778728E+02  0.7816164E-02  0.1312668E+00
        -11   -1    0    0    0    0  0.00000000000E+00  0.00000000000E+00  0.45593999997E+02  0.45594000000E+02  0.51100000000E-03 0.  1.
         11   -1    0    0    0    0 -0.00000000000E+00 -0.00000000000E+00 -0.45593999997E+02  0.45594000000E+02  0.51100000000E-03 0. -1.
    9900012    2    1    2    0    0 -0.32592300203E+02 -0.13395742611E+02 -0.25336118947E+02  0.47787275629E+02  0.20000020903E+02 0.  0.
         12    1    1    2    0    0  0.32592300203E+02  0.13395742611E+02  0.25336118947E+02  0.43400724371E+02  0.00000000000E+00 0. -1.
         11    1    3    3    0    0 -0.23111599244E+01 -0.34393352669E+01  0.12844367879E+01  0.43382329810E+01  0.51100000000E-03 0. -1.
        -11    1    3    3    0    0 -0.28274923035E+02 -0.62150775903E+01 -0.26429108361E+02  0.39199441719E+02  0.51100000000E-03 0.  1.
        -12    1    3    3    0    0 -0.20062172439E+01 -0.37413297537E+01 -0.19144737395E+00  0.42496009286E+01  0.00000000000E+00 0.  1.
</event>
<event>
 7    1  0.2412036E-009  0.4778727E+02  0.7816164E-02  0.1312668E+00
        -11   -1    0    0    0    0  0.00000000000E+00  0.00000000000E+00  0.45593999997E+02  0.45594000000E+02  0.51100000000E-03 0.  1.
         11   -1    0    0    0    0 -0.00000000000E+00 -0.00000000000E+00 -0.45593999997E+02  0.45594000000E+02  0.51100000000E-03 0. -1.
    9900012    2    1    2    0    0  0.19800063896E+02  0.57179980879E+01  0.38195357461E+02  0.47787270006E+02  0.19999995267E+02 0.  0.
         12    1    1    2    0    0 -0.19800063896E+02 -0.57179980879E+01 -0.38195357461E+02  0.43400729994E+02  0.00000000000E+00 0. -1.
         11    1    3    3    0    0  0.11672775575E+02 -0.58299519825E+01  0.14880397625E+02  0.19790610488E+02  0.51100000000E-03 0. -1.
        -11    1    3    3    0    0  0.59455002260E+01  0.90322783401E+01  0.11779765750E+02  0.15990431712E+02  0.51100000000E-03 0.  1.
        -12    1    3    3    0    0  0.21817880954E+01  0.25156717303E+01  0.11535194086E+02  0.12006227807E+02  0.00000000000E+00 0.  1.
</event>
<event>
 7    1  0.2412036E-009  0.4778727E+02  0.7816164E-02  0.1312668E+00
        -11   -1    0    0    0    0  0.00000000000E+00  0.00000000000E+00  0.45593999997E+02  0.45594000000E+02  0.51100000000E-03 0.  1.
         11   -1    0    0    0    0 -0.00000000000E+00 -0.00000000000E+00 -0.45593999997E+02  0.45594000000E+02  0.51100000000E-03 0. -1.
    9900012    2    1    2    0    0  0.34977144917E+02  0.43032715603E+00  0.25691191212E+02  0.47787272427E+02  0.20000006302E+02 0.  0.
         12    1    1    2    0    0 -0.34977144917E+02 -0.43032715603E+00 -0.25691191212E+02  0.43400727573E+02  0.00000000000E+00 0. -1.
         11    1    3    3    0    0  0.22131613128E+02  0.60167785358E+01  0.21241318611E+02  0.31260254960E+02  0.51100000000E-03 0. -1.
        -11    1    3    3    0    0  0.30846657590E+01  0.96443104372E+00  0.34528868407E+01  0.47294521753E+01  0.51100000000E-03 0.  1.
         12    1    3    3    0    0  0.97608660304E+01 -0.65508824235E+01  0.99698576010E+00  0.11797565291E+02  0.00000000000E+00 0. -1.
</event>
<event>
 7    1  0.2412036E-009  0.4778726E+02  0.7816164E-02  0.1312668E+00
        -11   -1    0    0    0    0  0.00000000000E+00  0.00000000000E+00  0.45593999997E+02  0.45594000000E+02  0.51100000000E-03 0.  1.
         11   -1    0    0    0    0 -0.00000000000E+00 -0.00000000000E+00 -0.45593999997E+02  0.45594000000E+02  0.51100000000E-03 0. -1.
    9900012    2    1    2    0    0 -0.20640588990E+02  0.14975128736E+02  0.35118875947E+02  0.47787264495E+02  0.19999970141E+02 0.  0.
         12    1    1    2    0    0  0.20640588990E+02 -0.14975128736E+02 -0.35118875947E+02  0.43400735505E+02  0.00000000000E+00 0. -1.
         11    1    3    3    0    0 -0.71852653441E+01 -0.84280944804E+00  0.76526710772E+01  0.10530989541E+02  0.51100000000E-03 0.  1.
        -11    1    3    3    0    0 -0.88557517699E+01  0.31507262025E+00  0.11644884667E+02  0.14633077234E+02  0.51100000000E-03 0. -1.
         12    1    3    3    0    0 -0.45995718764E+01  0.15502865564E+02  0.15821320203E+02  0.22623197721E+02  0.00000000000E+00 0. -1.
</event>
<event>
 7    1  0.2562605E-009  0.4778727E+02  0.7816164E-02  0.1312668E+00
        -11   -1    0    0    0    0  0.00000000000E+00  0.00000000000E+00  0.45593999997E+02  0.45594000000E+02  0.51100000000E-03 0.  1.
         11   -1    0    0    0    0 -0.00000000000E+00 -0.00000000000E+00 -0.45593999997E+02  0.45594000000E+02  0.51100000000E-03 0. -1.
    9900012    2    1    2    0    0 -0.22763692468E+02  0.21891320264E+02  0.29769236965E+02  0.47787273426E+02  0.20000010859E+02 0.  0.
         12    1    1    2    0    0  0.22763692468E+02 -0.21891320264E+02 -0.29769236965E+02  0.43400726574E+02  0.00000000000E+00 0. -1.
         11    1    3    3    0    0 -0.71827481526E+01  0.12053266888E+01  0.13719761256E+01  0.74112753424E+01  0.51100000000E-03 0. -1.
        -11    1    3    3    0    0 -0.55049240370E+01  0.16515235999E+02  0.20596733836E+02  0.26968178539E+02  0.51100000000E-03 0.  1.
        -12    1    3    3    0    0 -0.10076020279E+02  0.41707575763E+01  0.78005270031E+01  0.13407819545E+02  0.00000000000E+00 0.  1.
</event>
<event>
 7    1  0.2412036E-009  0.4778727E+02  0.7816164E-02  0.1312668E+00
        -11   -1    0    0    0    0  0.00000000000E+00  0.00000000000E+00  0.45593999997E+02  0.45594000000E+02  0.51100000000E-03 0. -1.
         11   -1    0    0    0    0 -0.00000000000E+00 -0.00000000000E+00 -0.45593999997E+02  0.45594000000E+02  0.51100000000E-03 0.  1.
    9900012    2    1    2    0    0 -0.25387774238E+02  0.34443547797E+02  0.72612652290E+01  0.47787273758E+02  0.20000012373E+02 0.  0.
         12    1    1    2    0    0  0.25387774238E+02 -0.34443547797E+02 -0.72612652290E+01  0.43400726242E+02  0.00000000000E+00 0. -1.
         11    1    3    3    0    0 -0.57262670611E+01  0.16078594815E+02  0.92745665580E+01  0.19424956391E+02  0.51100000000E-03 0. -1.
        -11    1    3    3    0    0 -0.73155214963E+01  0.20159387325E+01 -0.21066024849E+01  0.78751913010E+01  0.51100000000E-03 0.  1.
        -12    1    3    3    0    0 -0.12345985680E+02  0.16349014250E+02  0.93301155867E-01  0.20487126066E+02  0.00000000000E+00 0.  1.
</event>
<event>
 7    1  0.2412036E-009  0.4778727E+02  0.7816164E-02  0.1312668E+00
        -11   -1    0    0    0    0  0.00000000000E+00  0.00000000000E+00  0.45593999997E+02  0.45594000000E+02  0.51100000000E-03 0.  1.
         11   -1    0    0    0    0 -0.00000000000E+00 -0.00000000000E+00 -0.45593999997E+02  0.45594000000E+02  0.51100000000E-03 0. -1.
    9900012    2    1    2    0    0 -0.24444729799E+02 -0.17765283182E+02  0.31152423928E+02  0.47787267079E+02  0.19999981921E+02 0.  0.
         12    1    1    2    0    0  0.24444729799E+02  0.17765283182E+02 -0.31152423928E+02  0.43400732921E+02  0.00000000000E+00 0. -1.
         11    1    3    3    0    0 -0.73723302851E-02  0.15218299749E+01 -0.39848644331E+00  0.15731536893E+01  0.51100000000E-03 0. -1.
        -11    1    3    3    0    0 -0.24328772231E+01  0.88691659124E+00  0.73218673581E+01  0.77662896221E+01  0.51100000000E-03 0.  1.
        -12    1    3    3    0    0 -0.22004480246E+02 -0.20174029748E+02  0.24229043013E+02  0.38447823768E+02  0.00000000000E+00 0.  1.
</event>
<event>
 7    1  0.2412036E-009  0.4778727E+02  0.7816164E-02  0.1312668E+00
        -11   -1    0    0    0    0  0.00000000000E+00  0.00000000000E+00  0.45593999997E+02  0.45594000000E+02  0.51100000000E-03 0. -1.
         11   -1    0    0    0    0 -0.00000000000E+00 -0.00000000000E+00 -0.45593999997E+02  0.45594000000E+02  0.51100000000E-03 0.  1.
    9900012    2    1    2    0    0  0.10281378259E+02 -0.23791278064E+02 -0.34812235214E+02  0.47787269921E+02  0.19999994876E+02 0.  0.
         12    1    1    2    0    0 -0.10281378259E+02  0.23791278064E+02  0.34812235214E+02  0.43400730079E+02  0.00000000000E+00 0. -1.
         11    1    3    3    0    0 -0.78118177878E+00  0.22829337636E+01 -0.82588017709E+01  0.86040594194E+01  0.51100000000E-03 0. -1.
        -11    1    3    3    0    0  0.74118850871E+01 -0.15656589307E+02 -0.12750500826E+02  0.21509070199E+02  0.51100000000E-03 0.  1.
         12    1    3    3    0    0  0.36506749504E+01 -0.10417622521E+02 -0.13802932617E+02  0.17674140302E+02  0.00000000000E+00 0. -1.
</event>
<event>
 7    1  0.2412036E-009  0.4778727E+02  0.7816164E-02  0.1312668E+00
        -11   -1    0    0    0    0  0.00000000000E+00  0.00000000000E+00  0.45593999997E+02  0.45594000000E+02  0.51100000000E-03 0.  1.
         11   -1    0    0    0    0 -0.00000000000E+00 -0.00000000000E+00 -0.45593999997E+02  0.45594000000E+02  0.51100000000E-03 0. -1.
    9900012    2    1    2    0    0 -0.16008550541E+01 -0.18575813911E+02  0.39191829822E+02  0.47787272770E+02  0.20000007866E+02 0.  0.
         12    1    1    2    0    0  0.16008550541E+01  0.18575813911E+02 -0.39191829822E+02  0.43400727230E+02  0.00000000000E+00 0. -1.
         11    1    3    3    0    0  0.10898155224E+01  0.75377195010E+00  0.16320240871E+02  0.16373946756E+02  0.51100000000E-03 0. -1.
        -11    1    3    3    0    0  0.10952934755E+00 -0.99664040247E+01  0.52549764557E+01  0.11267474592E+02  0.51100000000E-03 0.  1.
         12    1    3    3    0    0 -0.28001999240E+01 -0.93631818366E+01  0.17616612495E+02  0.20145851422E+02  0.00000000000E+00 0. -1.
</event>
<event>
 7    1  0.2412036E-009  0.4778727E+02  0.7816164E-02  0.1312668E+00
        -11   -1    0    0    0    0  0.00000000000E+00  0.00000000000E+00  0.45593999997E+02  0.45594000000E+02  0.51100000000E-03 0.  1.
         11   -1    0    0    0    0 -0.00000000000E+00 -0.00000000000E+00 -0.45593999997E+02  0.45594000000E+02  0.51100000000E-03 0. -1.
    9900012    2    1    2    0    0 -0.15693291611E+02 -0.98749733921E+01  0.39240656688E+02  0.47787266845E+02  0.19999980852E+02 0.  0.
         12    1    1    2    0    0  0.15693291611E+02  0.98749733921E+01 -0.39240656688E+02  0.43400733155E+02  0.00000000000E+00 0. -1.
         11    1    3    3    0    0 -0.41933164617E+01 -0.12692361101E+02  0.15426152990E+02  0.20411911464E+02  0.51100000000E-03 0. -1.
        -11    1    3    3    0    0 -0.10467180898E+02  0.83328624966E+00  0.22372381288E+02  0.24713957326E+02  0.51100000000E-03 0.  1.
         12    1    3    3    0    0 -0.10327942515E+01  0.19841014588E+01  0.14421224097E+01  0.26613980554E+01  0.00000000000E+00 0. -1.
</event>
<event>
 7    1  0.2412036E-009  0.4778727E+02  0.7816164E-02  0.1312668E+00
        -11   -1    0    0    0    0  0.00000000000E+00  0.00000000000E+00  0.45593999997E+02  0.45594000000E+02  0.51100000000E-03 0.  1.
         11   -1    0    0    0    0 -0.00000000000E+00 -0.00000000000E+00 -0.45593999997E+02  0.45594000000E+02  0.51100000000E-03 0. -1.
    9900012    2    1    2    0    0 -0.12566077079E+02  0.14756386188E+02  0.38832538987E+02  0.47787270620E+02  0.19999998065E+02 0.  0.
         12    1    1    2    0    0  0.12566077079E+02 -0.14756386188E+02 -0.38832538987E+02  0.43400729380E+02  0.00000000000E+00 0. -1.
         11    1    3    3    0    0 -0.45172829393E+01 -0.38412718694E+00  0.24286491341E+02  0.24706012644E+02  0.51100000000E-03 0. -1.
        -11    1    3    3    0    0 -0.23193552905E+01  0.96311838050E+01  0.90468801214E+01  0.13415854451E+02  0.51100000000E-03 0.  1.
         12    1    3    3    0    0 -0.57294388497E+01  0.55093295701E+01  0.54991675252E+01  0.96654035257E+01  0.00000000000E+00 0. -1.
</event>
<event>
 7    1  0.2412036E-009  0.4778727E+02  0.7816164E-02  0.1312668E+00
        -11   -1    0    0    0    0  0.00000000000E+00  0.00000000000E+00  0.45593999997E+02  0.45594000000E+02  0.51100000000E-03 0.  1.
         11   -1    0    0    0    0 -0.00000000000E+00 -0.00000000000E+00 -0.45593999997E+02  0.45594000000E+02  0.51100000000E-03 0. -1.
    9900012    2    1    2    0    0 -0.42933341841E+02 -0.62285047180E+01  0.12478953776E+01  0.47787270104E+02  0.19999995711E+02 0.  0.
         12    1    1    2    0    0  0.42933341841E+02  0.62285047180E+01 -0.12478953776E+01  0.43400729896E+02  0.00000000000E+00 0. -1.
         11    1    3    3    0    0 -0.15147575482E+02  0.22574817546E+00 -0.66297470119E+01  0.16536431022E+02  0.51100000000E-03 0. -1.
        -11    1    3    3    0    0 -0.25957865826E+02 -0.60826282973E+01  0.40153103058E+01  0.26961674324E+02  0.51100000000E-03 0.  1.
         12    1    3    3    0    0 -0.18279005329E+01 -0.37162459614E+00  0.38623320838E+01  0.42891647583E+01  0.00000000000E+00 0. -1.
</event>
<event>
 7    1  0.2412036E-009  0.4778731E+02  0.7816164E-02  0.1312668E+00
        -11   -1    0    0    0    0  0.00000000000E+00  0.00000000000E+00  0.45593999997E+02  0.45594000000E+02  0.51100000000E-03 0. -1.
         11   -1    0    0    0    0 -0.00000000000E+00 -0.00000000000E+00 -0.45593999997E+02  0.45594000000E+02  0.51100000000E-03 0.  1.
    9900012    2    1    2    0    0  0.38435764691E+02 -0.98261425874E+01  0.17599974433E+02  0.47787306623E+02  0.20000162217E+02 0.  0.
         12    1    1    2    0    0 -0.38435764691E+02  0.98261425874E+01 -0.17599974433E+02  0.43400693377E+02  0.00000000000E+00 0. -1.
         11    1    3    3    0    0  0.18473208389E+02 -0.10399873593E+02  0.17424303541E+02  0.27441267338E+02  0.51100000000E-03 0. -1.
        -11    1    3    3    0    0  0.45114740617E+01  0.97845100479E+00 -0.13627099632E+01  0.48132881986E+01  0.51100000000E-03 0.  1.
         12    1    3    3    0    0  0.15451082240E+02 -0.40471999894E+00  0.15383808554E+01  0.15532751087E+02  0.00000000000E+00 0. -1.
</event>
<event>
 7    1  0.2412036E-009  0.4778727E+02  0.7816164E-02  0.1312668E+00
        -11   -1    0    0    0    0  0.00000000000E+00  0.00000000000E+00  0.45593999997E+02  0.45594000000E+02  0.51100000000E-03 0. -1.
         11   -1    0    0    0    0 -0.00000000000E+00 -0.00000000000E+00 -0.45593999997E+02  0.45594000000E+02  0.51100000000E-03 0.  1.
    9900012    2    1    2    0    0 -0.22004995846E+02 -0.23986552573E+02 -0.28706252593E+02  0.47787268619E+02  0.19999988941E+02 0.  0.
         12    1    1    2    0    0  0.22004995846E+02  0.23986552573E+02  0.28706252593E+02  0.43400731381E+02  0.00000000000E+00 0. -1.
         11    1    3    3    0    0 -0.79690144852E+01 -0.12641213197E+02 -0.15685165895E+02  0.21664022996E+02  0.51100000000E-03 0.  1.
        -11    1    3    3    0    0 -0.90012477805E+01 -0.67246765150E+01  0.20319263749E+00  0.11237660937E+02  0.51100000000E-03 0. -1.
        -12    1    3    3    0    0 -0.50347335804E+01 -0.46206628613E+01 -0.13224279335E+02  0.14885584685E+02  0.00000000000E+00 0.  1.
</event>
<event>
 7    1  0.2412036E-009  0.4778728E+02  0.7816164E-02  0.1312668E+00
        -11   -1    0    0    0    0  0.00000000000E+00  0.00000000000E+00  0.45593999997E+02  0.45594000000E+02  0.51100000000E-03 0.  1.
         11   -1    0    0    0    0 -0.00000000000E+00 -0.00000000000E+00 -0.45593999997E+02  0.45594000000E+02  0.51100000000E-03 0. -1.
    9900012    2    1    2    0    0  0.16349194366E+02  0.40191734896E+02  0.97526042699E+00  0.47787276005E+02  0.20000022617E+02 0.  0.
         12    1    1    2    0    0 -0.16349194366E+02 -0.40191734896E+02 -0.97526042699E+00  0.43400723995E+02  0.00000000000E+00 0. -1.
         11    1    3    3    0    0  0.77224129213E+01  0.12616997035E+02 -0.66163500494E+01  0.16204948742E+02  0.51100000000E-03 0. -1.
        -11    1    3    3    0    0  0.93001802038E+01  0.21440917479E+02  0.93407297040E+01  0.25168542386E+02  0.51100000000E-03 0.  1.
        -12    1    3    3    0    0 -0.67339875955E+00  0.61338203824E+01 -0.17491192276E+01  0.64137848767E+01  0.00000000000E+00 0.  1.
</event>
<event>
 7    1  0.2412036E-009  0.4778727E+02  0.7816164E-02  0.1312668E+00
        -11   -1    0    0    0    0  0.00000000000E+00  0.00000000000E+00  0.45593999997E+02  0.45594000000E+02  0.51100000000E-03 0. -1.
         11   -1    0    0    0    0 -0.00000000000E+00 -0.00000000000E+00 -0.45593999997E+02  0.45594000000E+02  0.51100000000E-03 0.  1.
    9900012    2    1    2    0    0  0.40049484924E+02 -0.97407740563E+01 -0.13593374008E+02  0.47787265688E+02  0.19999975580E+02 0.  0.
         12    1    1    2    0    0 -0.40049484924E+02  0.97407740563E+01  0.13593374008E+02  0.43400734312E+02  0.00000000000E+00 0. -1.
         11    1    3    3    0    0  0.99509222653E+00 -0.16168184157E+01 -0.80590244533E+00  0.20624716583E+01  0.51100000000E-03 0. -1.
        -11    1    3    3    0    0  0.63141617821E+01  0.55279428404E+01 -0.17267322487E+01  0.85678699557E+01  0.51100000000E-03 0.  1.
        -12    1    3    3    0    0  0.32740230915E+02 -0.13651898481E+02 -0.11060739315E+02  0.37156924074E+02  0.00000000000E+00 0.  1.
</event>
<event>
 7    1  0.2412036E-009  0.4778727E+02  0.7816164E-02  0.1312668E+00
        -11   -1    0    0    0    0  0.00000000000E+00  0.00000000000E+00  0.45593999997E+02  0.45594000000E+02  0.51100000000E-03 0. -1.
         11   -1    0    0    0    0 -0.00000000000E+00 -0.00000000000E+00 -0.45593999997E+02  0.45594000000E+02  0.51100000000E-03 0.  1.
    9900012    2    1    2    0    0 -0.39940176563E+02 -0.10730920841E+02 -0.13162557788E+02  0.47787270818E+02  0.19999998969E+02 0.  0.
         12    1    1    2    0    0  0.39940176563E+02  0.10730920841E+02  0.13162557788E+02  0.43400729182E+02  0.00000000000E+00 0. -1.
         11    1    3    3    0    0 -0.13559524607E+02 -0.72084210465E+01  0.55641813860E+00  0.15366575512E+02  0.51100000000E-03 0. -1.
        -11    1    3    3    0    0 -0.16681289998E+02 -0.30438114925E+01 -0.14982670901E+02  0.22627652375E+02  0.51100000000E-03 0.  1.
        -12    1    3    3    0    0 -0.96993619575E+01 -0.47868830173E+00  0.12636949739E+01  0.97930429316E+01  0.00000000000E+00 0.  1.
</event>
<event>
 7    1  0.2412036E-009  0.4778727E+02  0.7816164E-02  0.1312668E+00
        -11   -1    0    0    0    0  0.00000000000E+00  0.00000000000E+00  0.45593999997E+02  0.45594000000E+02  0.51100000000E-03 0. -1.
         11   -1    0    0    0    0 -0.00000000000E+00 -0.00000000000E+00 -0.45593999997E+02  0.45594000000E+02  0.51100000000E-03 0.  1.
    9900012    2    1    2    0    0  0.23981731211E+02  0.91685531549E+01 -0.34991966070E+02  0.47787268575E+02  0.19999988739E+02 0.  0.
         12    1    1    2    0    0 -0.23981731211E+02 -0.91685531549E+01  0.34991966070E+02  0.43400731425E+02  0.00000000000E+00 0. -1.
         11    1    3    3    0    0 -0.20215628282E+01 -0.18719143072E+01 -0.59298293131E+01  0.65386279436E+01  0.51100000000E-03 0. -1.
        -11    1    3    3    0    0  0.19781986908E+02  0.56686477701E+01 -0.17215252210E+02  0.26829563591E+02  0.51100000000E-03 0.  1.
         12    1    3    3    0    0  0.62213071309E+01  0.53718196920E+01 -0.11846884546E+02  0.14419077040E+02  0.00000000000E+00 0. -1.
</event>
<event>
 7    1  0.2412036E-009  0.4778726E+02  0.7816164E-02  0.1312668E+00
        -11   -1    0    0    0    0  0.00000000000E+00  0.00000000000E+00  0.45593999997E+02  0.45594000000E+02  0.51100000000E-03 0. -1.
         11   -1    0    0    0    0 -0.00000000000E+00 -0.00000000000E+00 -0.45593999997E+02  0.45594000000E+02  0.51100000000E-03 0.  1.
    9900012    2    1    2    0    0  0.26304394444E+02  0.21215983951E+01 -0.34455795055E+02  0.47787260839E+02  0.19999953471E+02 0.  0.
         12    1    1    2    0    0 -0.26304394444E+02 -0.21215983951E+01  0.34455795055E+02  0.43400739161E+02  0.00000000000E+00 0. -1.
         11    1    3    3    0    0  0.10230662763E+02  0.37269225307E+01 -0.30528994366E+01  0.11308253948E+02  0.51100000000E-03 0. -1.
        -11    1    3    3    0    0  0.11786419693E+02 -0.27642584456E+01 -0.29008855432E+02  0.31433652471E+02  0.51100000000E-03 0.  1.
        -12    1    3    3    0    0  0.42873119871E+01  0.11589343099E+01 -0.23940401863E+01  0.50453544199E+01  0.00000000000E+00 0.  1.
</event>
<event>
 7    1  0.2412036E-009  0.4778727E+02  0.7816164E-02  0.1312668E+00
        -11   -1    0    0    0    0  0.00000000000E+00  0.00000000000E+00  0.45593999997E+02  0.45594000000E+02  0.51100000000E-03 0. -1.
         11   -1    0    0    0    0 -0.00000000000E+00 -0.00000000000E+00 -0.45593999997E+02  0.45594000000E+02  0.51100000000E-03 0.  1.
    9900012    2    1    2    0    0  0.34860533503E+02 -0.23436763173E+02  0.10912596982E+02  0.47787269165E+02  0.19999991432E+02 0.  0.
         12    1    1    2    0    0 -0.34860533503E+02  0.23436763173E+02 -0.10912596982E+02  0.43400730835E+02  0.00000000000E+00 0. -1.
         11    1    3    3    0    0  0.88165256714E-01 -0.19457824526E+01  0.52055836488E+01  0.55580521634E+01  0.51100000000E-03 0. -1.
        -11    1    3    3    0    0  0.31724359102E+02 -0.21751422602E+02  0.66335860595E+01  0.39032855519E+02  0.51100000000E-03 0.  1.
        -12    1    3    3    0    0  0.30480091434E+01  0.26044188221E+00 -0.92657272664E+00  0.31963614830E+01  0.00000000000E+00 0.  1.
</event>
<event>
 7    1  0.2412036E-009  0.4778728E+02  0.7816164E-02  0.1312668E+00
        -11   -1    0    0    0    0  0.00000000000E+00  0.00000000000E+00  0.45593999997E+02  0.45594000000E+02  0.51100000000E-03 0. -1.
         11   -1    0    0    0    0 -0.00000000000E+00 -0.00000000000E+00 -0.45593999997E+02  0.45594000000E+02  0.51100000000E-03 0.  1.
    9900012    2    1    2    0    0 -0.14242059351E+02  0.32473843543E+02 -0.25024694360E+02  0.47787284604E+02  0.20000061825E+02 0.  0.
         12    1    1    2    0    0  0.14242059351E+02 -0.32473843543E+02  0.25024694360E+02  0.43400715396E+02  0.00000000000E+00 0. -1.
         11    1    3    3    0    0  0.37483678339E+01  0.11935567214E+02 -0.94176016831E+01  0.15658839289E+02  0.51100000000E-03 0. -1.
        -11    1    3    3    0    0 -0.14999350894E+02  0.19737764297E+02 -0.12585401526E+02  0.27802017886E+02  0.51100000000E-03 0.  1.
        -12    1    3    3    0    0 -0.29910762909E+01  0.80051203147E+00 -0.30216911513E+01  0.43264274297E+01  0.00000000000E+00 0.  1.
</event>
<event>
 7    1  0.2412036E-009  0.4778728E+02  0.7816164E-02  0.1312668E+00
        -11   -1    0    0    0    0  0.00000000000E+00  0.00000000000E+00  0.45593999997E+02  0.45594000000E+02  0.51100000000E-03 0.  1.
         11   -1    0    0    0    0 -0.00000000000E+00 -0.00000000000E+00 -0.45593999997E+02  0.45594000000E+02  0.51100000000E-03 0. -1.
    9900012    2    1    2    0    0  0.23898743401E+01 -0.33988466233E+02  0.26882990647E+02  0.47787279703E+02  0.20000039477E+02 0.  0.
         12    1    1    2    0    0 -0.23898743401E+01  0.33988466233E+02 -0.26882990647E+02  0.43400720297E+02  0.00000000000E+00 0. -1.
         11    1    3    3    0    0  0.72501424907E+01 -0.60922989898E+01  0.24734945358E+01  0.97876886238E+01  0.51100000000E-03 0. -1.
        -11    1    3    3    0    0 -0.65669209902E+01 -0.20814758238E+02  0.18781904610E+02  0.28794766067E+02  0.51100000000E-03 0.  1.
         12    1    3    3    0    0  0.17066528396E+01 -0.70814090048E+01  0.56275915010E+01  0.92048250124E+01  0.00000000000E+00 0. -1.
</event>
<event>
 7    1  0.2412036E-009  0.4778732E+02  0.7816164E-02  0.1312668E+00
        -11   -1    0    0    0    0  0.00000000000E+00  0.00000000000E+00  0.45593999997E+02  0.45594000000E+02  0.51100000000E-03 0.  1.
         11   -1    0    0    0    0 -0.00000000000E+00 -0.00000000000E+00 -0.45593999997E+02  0.45594000000E+02  0.51100000000E-03 0. -1.
    9900012    2    1    2    0    0  0.11864998103E+02  0.37585495387E+01  0.41577803727E+02  0.47787324460E+02  0.20000243541E+02 0.  0.
         12    1    1    2    0    0 -0.11864998103E+02 -0.37585495387E+01 -0.41577803727E+02  0.43400675540E+02  0.00000000000E+00 0. -1.
         11    1    3    3    0    0  0.98165959443E+01  0.80125884874E+01  0.11271814013E+02  0.16959390367E+02  0.51100000000E-03 0. -1.
        -11    1    3    3    0    0  0.10242150785E+01  0.21324472170E+00  0.47022968682E+01  0.48172695519E+01  0.51100000000E-03 0.  1.
         12    1    3    3    0    0  0.10241870798E+01 -0.44672836704E+01  0.25603692845E+02  0.26010664541E+02  0.00000000000E+00 0. -1.
</event>
<event>
 7    1  0.2412036E-009  0.4778727E+02  0.7816164E-02  0.1312668E+00
        -11   -1    0    0    0    0  0.00000000000E+00  0.00000000000E+00  0.45593999997E+02  0.45594000000E+02  0.51100000000E-03 0.  1.
         11   -1    0    0    0    0 -0.00000000000E+00 -0.00000000000E+00 -0.45593999997E+02  0.45594000000E+02  0.51100000000E-03 0. -1.
    9900012    2    1    2    0    0  0.30242659657E+02 -0.11599841803E+02  0.28886826001E+02  0.47787268331E+02  0.19999987630E+02 0.  0.
         12    1    1    2    0    0 -0.30242659657E+02  0.11599841803E+02 -0.28886826001E+02  0.43400731669E+02  0.00000000000E+00 0. -1.
         11    1    3    3    0    0  0.26564594523E+01 -0.38697495078E+01 -0.19940719987E+01  0.50998099446E+01  0.51100000000E-03 0. -1.
        -11    1    3    3    0    0  0.26831794190E+02 -0.73904757375E+01  0.27202232966E+02  0.38916908789E+02  0.51100000000E-03 0.  1.
        -12    1    3    3    0    0  0.75440601461E+00 -0.33961655812E+00  0.36786650337E+01  0.37705495981E+01  0.00000000000E+00 0.  1.
</event>
<event>
 7    1  0.2412036E-009  0.4778727E+02  0.7816164E-02  0.1312668E+00
        -11   -1    0    0    0    0  0.00000000000E+00  0.00000000000E+00  0.45593999997E+02  0.45594000000E+02  0.51100000000E-03 0. -1.
         11   -1    0    0    0    0 -0.00000000000E+00 -0.00000000000E+00 -0.45593999997E+02  0.45594000000E+02  0.51100000000E-03 0.  1.
    9900012    2    1    2    0    0 -0.12668682294E+02 -0.25495128224E+02 -0.32758606130E+02  0.47787270170E+02  0.19999996014E+02 0.  0.
         12    1    1    2    0    0  0.12668682294E+02  0.25495128224E+02  0.32758606130E+02  0.43400729830E+02  0.00000000000E+00 0. -1.
         11    1    3    3    0    0 -0.46747933162E+01 -0.66354913247E+01  0.98223300440E+00  0.81760760518E+01  0.51100000000E-03 0. -1.
        -11    1    3    3    0    0 -0.32042700953E+01 -0.11663233446E+02 -0.19038530960E+02  0.22555797983E+02  0.51100000000E-03 0.  1.
         12    1    3    3    0    0 -0.47896188822E+01 -0.71964034534E+01 -0.14702308174E+02  0.17055396136E+02  0.00000000000E+00 0. -1.
</event>
<event>
 7    1  0.2412036E-009  0.4778726E+02  0.7816164E-02  0.1312668E+00
        -11   -1    0    0    0    0  0.00000000000E+00  0.00000000000E+00  0.45593999997E+02  0.45594000000E+02  0.51100000000E-03 0. -1.
         11   -1    0    0    0    0 -0.00000000000E+00 -0.00000000000E+00 -0.45593999997E+02  0.45594000000E+02  0.51100000000E-03 0.  1.
    9900012    2    1    2    0    0 -0.35401433055E+02  0.21415810305E+01 -0.25015520038E+02  0.47787261822E+02  0.19999957949E+02 0.  0.
         12    1    1    2    0    0  0.35401433055E+02 -0.21415810305E+01  0.25015520038E+02  0.43400738178E+02  0.00000000000E+00 0. -1.
         11    1    3    3    0    0 -0.31883411145E+02  0.74891123389E+01 -0.18692499220E+02  0.37710054856E+02  0.51100000000E-03 0. -1.
        -11    1    3    3    0    0 -0.10321002846E+01 -0.28218934080E+01 -0.21099307347E+00  0.30121141648E+01  0.51100000000E-03 0.  1.
         12    1    3    3    0    0 -0.24859216248E+01 -0.25256379003E+01 -0.61120277452E+01  0.70650928010E+01  0.00000000000E+00 0. -1.
</event>
<event>
 7    1  0.2412036E-009  0.4778727E+02  0.7816164E-02  0.1312668E+00
        -11   -1    0    0    0    0  0.00000000000E+00  0.00000000000E+00  0.45593999997E+02  0.45594000000E+02  0.51100000000E-03 0.  1.
         11   -1    0    0    0    0 -0.00000000000E+00 -0.00000000000E+00 -0.45593999997E+02  0.45594000000E+02  0.51100000000E-03 0. -1.
    9900012    2    1    2    0    0  0.20136020201E+02  0.38023737827E+02  0.56885272827E+01  0.47787270853E+02  0.19999999125E+02 0.  0.
         12    1    1    2    0    0 -0.20136020201E+02 -0.38023737827E+02 -0.56885272827E+01  0.43400729147E+02  0.00000000000E+00 0. -1.
         11    1    3    3    0    0  0.13637114673E+02  0.18590272793E+02  0.97909735375E+01  0.25048598807E+02  0.51100000000E-03 0. -1.
        -11    1    3    3    0    0  0.26791800068E+01  0.15099369456E+02  0.51373331616E+00  0.15343822394E+02  0.51100000000E-03 0.  1.
         12    1    3    3    0    0  0.38197255204E+01  0.43340955780E+01 -0.46161795710E+01  0.73948496511E+01  0.00000000000E+00 0. -1.
</event>
<event>
 7    1  0.2412036E-009  0.4778727E+02  0.7816164E-02  0.1312668E+00
        -11   -1    0    0    0    0  0.00000000000E+00  0.00000000000E+00  0.45593999997E+02  0.45594000000E+02  0.51100000000E-03 0.  1.
         11   -1    0    0    0    0 -0.00000000000E+00 -0.00000000000E+00 -0.45593999997E+02  0.45594000000E+02  0.51100000000E-03 0. -1.
    9900012    2    1    2    0    0  0.20483341493E+02  0.13587966890E+02  0.35769024372E+02  0.47787271579E+02  0.20000002438E+02 0.  0.
         12    1    1    2    0    0 -0.20483341493E+02 -0.13587966890E+02 -0.35769024372E+02  0.43400728421E+02  0.00000000000E+00 0. -1.
         11    1    3    3    0    0  0.10905742262E+02  0.79593816734E+01  0.10553187734E+02  0.17136415684E+02  0.51100000000E-03 0. -1.
        -11    1    3    3    0    0  0.12410134718E+00  0.61346208101E+01  0.17147003811E+02  0.18211774037E+02  0.51100000000E-03 0.  1.
        -12    1    3    3    0    0  0.94534978840E+01 -0.50603559339E+00  0.80688328278E+01  0.12439081858E+02  0.00000000000E+00 0.  1.
</event>
<event>
 7    1  0.2412036E-009  0.4778727E+02  0.7816164E-02  0.1312668E+00
        -11   -1    0    0    0    0  0.00000000000E+00  0.00000000000E+00  0.45593999997E+02  0.45594000000E+02  0.51100000000E-03 0. -1.
         11   -1    0    0    0    0 -0.00000000000E+00 -0.00000000000E+00 -0.45593999997E+02  0.45594000000E+02  0.51100000000E-03 0.  1.
    9900012    2    1    2    0    0  0.15275735065E+02  0.40365330586E+02  0.45733332234E+01  0.47787269916E+02  0.19999994853E+02 0.  0.
         12    1    1    2    0    0 -0.15275735065E+02 -0.40365330586E+02 -0.45733332234E+01  0.43400730084E+02  0.00000000000E+00 0. -1.
         11    1    3    3    0    0 -0.32601320771E+01  0.45610623142E+01 -0.82581647451E+00  0.56668971850E+01  0.51100000000E-03 0. -1.
        -11    1    3    3    0    0  0.99420221488E+01  0.29288758941E+02  0.49732496465E+01  0.31327438724E+02  0.51100000000E-03 0.  1.
         12    1    3    3    0    0  0.85938449936E+01  0.65155093309E+01  0.42590005138E+00  0.10792934006E+02  0.00000000000E+00 0. -1.
</event>
<event>
 7    1  0.2412036E-009  0.4778728E+02  0.7816164E-02  0.1312668E+00
        -11   -1    0    0    0    0  0.00000000000E+00  0.00000000000E+00  0.45593999997E+02  0.45594000000E+02  0.51100000000E-03 0.  1.
         11   -1    0    0    0    0 -0.00000000000E+00 -0.00000000000E+00 -0.45593999997E+02  0.45594000000E+02  0.51100000000E-03 0. -1.
    9900012    2    1    2    0    0  0.56283371214E+01  0.35764020729E+02  0.23934888302E+02  0.47787283007E+02  0.20000054544E+02 0.  0.
         12    1    1    2    0    0 -0.56283371214E+01 -0.35764020729E+02 -0.23934888302E+02  0.43400716993E+02  0.00000000000E+00 0. -1.
         11    1    3    3    0    0  0.56935885774E+01  0.24636732183E+02  0.75957180157E+01  0.26402281264E+02  0.51100000000E-03 0. -1.
        -11    1    3    3    0    0 -0.32358291013E+01  0.13543130479E+01  0.45941738913E+01  0.57802411549E+01  0.51100000000E-03 0.  1.
         12    1    3    3    0    0  0.31705776453E+01  0.97729754986E+01  0.11744996395E+02  0.15604760588E+02  0.00000000000E+00 0. -1.
</event>
<event>
 7    1  0.2412036E-009  0.4778727E+02  0.7816164E-02  0.1312668E+00
        -11   -1    0    0    0    0  0.00000000000E+00  0.00000000000E+00  0.45593999997E+02  0.45594000000E+02  0.51100000000E-03 0.  1.
         11   -1    0    0    0    0 -0.00000000000E+00 -0.00000000000E+00 -0.45593999997E+02  0.45594000000E+02  0.51100000000E-03 0. -1.
    9900012    2    1    2    0    0 -0.22994953704E+01 -0.75056700075E+00  0.43333266436E+02  0.47787274087E+02  0.20000013871E+02 0.  0.
         12    1    1    2    0    0  0.22994953704E+01  0.75056700075E+00 -0.43333266436E+02  0.43400725913E+02  0.00000000000E+00 0. -1.
         11    1    3    3    0    0  0.32037913893E+01  0.22282912043E+01  0.18580976768E+01  0.43222781256E+01  0.51100000000E-03 0. -1.
        -11    1    3    3    0    0 -0.33941430876E+01 -0.73037762587E+01  0.22831241811E+02  0.24210141632E+02  0.51100000000E-03 0.  1.
         12    1    3    3    0    0 -0.21091436721E+01  0.43249180537E+01  0.18643926948E+02  0.19254854329E+02  0.00000000000E+00 0. -1.
</event>
<event>
 7    1  0.2412036E-009  0.4778727E+02  0.7816164E-02  0.1312668E+00
        -11   -1    0    0    0    0  0.00000000000E+00  0.00000000000E+00  0.45593999997E+02  0.45594000000E+02  0.51100000000E-03 0. -1.
         11   -1    0    0    0    0 -0.00000000000E+00 -0.00000000000E+00 -0.45593999997E+02  0.45594000000E+02  0.51100000000E-03 0.  1.
    9900012    2    1    2    0    0  0.34651557876E+02  0.15499045907E+02 -0.21039778279E+02  0.47787272387E+02  0.20000006123E+02 0.  0.
         12    1    1    2    0    0 -0.34651557876E+02 -0.15499045907E+02  0.21039778279E+02  0.43400727613E+02  0.00000000000E+00 0. -1.
         11    1    3    3    0    0  0.12355875634E+02  0.16117361244E+02 -0.11421153378E+02  0.23299779847E+02  0.51100000000E-03 0. -1.
        -11    1    3    3    0    0  0.11940429117E+02 -0.18638541616E+01 -0.54039606539E+01  0.13238224611E+02  0.51100000000E-03 0.  1.
         12    1    3    3    0    0  0.10355253125E+02  0.12455388243E+01 -0.42146642470E+01  0.11249267930E+02  0.00000000000E+00 0. -1.
</event>
<event>
 7    1  0.2412036E-009  0.4778727E+02  0.7816164E-02  0.1312668E+00
        -11   -1    0    0    0    0  0.00000000000E+00  0.00000000000E+00  0.45593999997E+02  0.45594000000E+02  0.51100000000E-03 0. -1.
         11   -1    0    0    0    0 -0.00000000000E+00 -0.00000000000E+00 -0.45593999997E+02  0.45594000000E+02  0.51100000000E-03 0.  1.
    9900012    2    1    2    0    0  0.28930802308E+02  0.24230657757E+02 -0.21436115485E+02  0.47787272534E+02  0.20000006790E+02 0.  0.
         12    1    1    2    0    0 -0.28930802308E+02 -0.24230657757E+02  0.21436115485E+02  0.43400727466E+02  0.00000000000E+00 0. -1.
         11    1    3    3    0    0  0.13552521290E+02  0.25938748455E+01 -0.10774318883E+02  0.17506712075E+02  0.51100000000E-03 0. -1.
        -11    1    3    3    0    0  0.10483861050E+02  0.76856922468E+01 -0.79838373449E+01  0.15255257023E+02  0.51100000000E-03 0.  1.
         12    1    3    3    0    0  0.48944199675E+01  0.13951090664E+02 -0.26779592580E+01  0.15025303435E+02  0.00000000000E+00 0. -1.
</event>
<event>
 7    1  0.2412036E-009  0.4778727E+02  0.7816164E-02  0.1312668E+00
        -11   -1    0    0    0    0  0.00000000000E+00  0.00000000000E+00  0.45593999997E+02  0.45594000000E+02  0.51100000000E-03 0. -1.
         11   -1    0    0    0    0 -0.00000000000E+00 -0.00000000000E+00 -0.45593999997E+02  0.45594000000E+02  0.51100000000E-03 0.  1.
    9900012    2    1    2    0    0 -0.35306336282E+02  0.14885939661E+02  0.20383689894E+02  0.47787269649E+02  0.19999993639E+02 0.  0.
         12    1    1    2    0    0  0.35306336282E+02 -0.14885939661E+02 -0.20383689894E+02  0.43400730351E+02  0.00000000000E+00 0. -1.
         11    1    3    3    0    0 -0.35603050890E+01  0.15720696583E+01  0.75338364547E+01  0.84797327390E+01  0.51100000000E-03 0. -1.
        -11    1    3    3    0    0 -0.28964711519E+02  0.15703961382E+02  0.13457486672E+02  0.35590347909E+02  0.51100000000E-03 0.  1.
        -12    1    3    3    0    0 -0.27813196736E+01 -0.23900913786E+01 -0.60763323285E+00  0.37171890012E+01  0.00000000000E+00 0.  1.
</event>
<event>
 7    1  0.2412036E-009  0.4778727E+02  0.7816164E-02  0.1312668E+00
        -11   -1    0    0    0    0  0.00000000000E+00  0.00000000000E+00  0.45593999997E+02  0.45594000000E+02  0.51100000000E-03 0. -1.
         11   -1    0    0    0    0 -0.00000000000E+00 -0.00000000000E+00 -0.45593999997E+02  0.45594000000E+02  0.51100000000E-03 0.  1.
    9900012    2    1    2    0    0  0.32254780581E+02 -0.15589086160E+02 -0.24499649268E+02  0.47787270837E+02  0.19999999055E+02 0.  0.
         12    1    1    2    0    0 -0.32254780581E+02  0.15589086160E+02  0.24499649268E+02  0.43400729163E+02  0.00000000000E+00 0. -1.
         11    1    3    3    0    0  0.17937570719E+02 -0.10909744326E+02 -0.24267032469E+02  0.32088437632E+02  0.51100000000E-03 0. -1.
        -11    1    3    3    0    0  0.99672512272E+01 -0.51539905549E+01  0.63087496050E+00  0.11238670702E+02  0.51100000000E-03 0.  1.
         12    1    3    3    0    0  0.43499586351E+01  0.47464872103E+00 -0.86349175875E+00  0.44601625030E+01  0.00000000000E+00 0. -1.
</event>
<event>
 7    1  0.2412036E-009  0.4778727E+02  0.7816164E-02  0.1312668E+00
        -11   -1    0    0    0    0  0.00000000000E+00  0.00000000000E+00  0.45593999997E+02  0.45594000000E+02  0.51100000000E-03 0. -1.
         11   -1    0    0    0    0 -0.00000000000E+00 -0.00000000000E+00 -0.45593999997E+02  0.45594000000E+02  0.51100000000E-03 0.  1.
    9900012    2    1    2    0    0  0.60420301347E+01  0.34454652200E+01 -0.42839768350E+02  0.47787272921E+02  0.20000008555E+02 0.  0.
         12    1    1    2    0    0 -0.60420301347E+01 -0.34454652200E+01  0.42839768350E+02  0.43400727079E+02  0.00000000000E+00 0. -1.
         11    1    3    3    0    0 -0.15577258095E+00 -0.16999523626E-01  0.18128047207E+01  0.18195645900E+01  0.51100000000E-03 0. -1.
        -11    1    3    3    0    0  0.82168719337E+01  0.34088537820E+01 -0.36648693358E+02  0.37712915475E+02  0.51100000000E-03 0.  1.
        -12    1    3    3    0    0 -0.20190692181E+01  0.53610961669E-01 -0.80038797122E+01  0.82547928556E+01  0.00000000000E+00 0.  1.
</event>
<event>
 7    1  0.2412036E-009  0.4778727E+02  0.7816164E-02  0.1312668E+00
        -11   -1    0    0    0    0  0.00000000000E+00  0.00000000000E+00  0.45593999997E+02  0.45594000000E+02  0.51100000000E-03 0. -1.
         11   -1    0    0    0    0 -0.00000000000E+00 -0.00000000000E+00 -0.45593999997E+02  0.45594000000E+02  0.51100000000E-03 0.  1.
    9900012    2    1    2    0    0  0.37400438551E+02 -0.21707182326E+02 -0.36917306218E+01  0.47787269092E+02  0.19999991098E+02 0.  0.
         12    1    1    2    0    0 -0.37400438551E+02  0.21707182326E+02  0.36917306218E+01  0.43400730908E+02  0.00000000000E+00 0. -1.
         11    1    3    3    0    0  0.14984563677E+01 -0.45930313509E+01 -0.55311249420E+01  0.73440215047E+01  0.51100000000E-03 0. -1.
        -11    1    3    3    0    0  0.19705575074E+02 -0.13155587571E+02  0.25290062521E+00  0.23694791248E+02  0.51100000000E-03 0.  1.
         12    1    3    3    0    0  0.16196407110E+02 -0.39585634042E+01  0.15864936949E+01  0.16748456339E+02  0.00000000000E+00 0. -1.
</event>
<event>
 7    1  0.2412036E-009  0.4778727E+02  0.7816164E-02  0.1312668E+00
        -11   -1    0    0    0    0  0.00000000000E+00  0.00000000000E+00  0.45593999997E+02  0.45594000000E+02  0.51100000000E-03 0.  1.
         11   -1    0    0    0    0 -0.00000000000E+00 -0.00000000000E+00 -0.45593999997E+02  0.45594000000E+02  0.51100000000E-03 0. -1.
    9900012    2    1    2    0    0  0.13072819517E+02  0.15516002768E+02  0.38366366955E+02  0.47787273447E+02  0.20000010955E+02 0.  0.
         12    1    1    2    0    0 -0.13072819517E+02 -0.15516002768E+02 -0.38366366955E+02  0.43400726553E+02  0.00000000000E+00 0. -1.
         11    1    3    3    0    0  0.46489102936E+01  0.40255163643E+01  0.21192579425E+02  0.22066775294E+02  0.51100000000E-03 0. -1.
        -11    1    3    3    0    0  0.77292832802E+01  0.14100499860E+02  0.12681993845E+02  0.20479230564E+02  0.51100000000E-03 0.  1.
        -12    1    3    3    0    0  0.69462594298E+00 -0.26100134563E+01  0.44917936841E+01  0.52412675894E+01  0.00000000000E+00 0.  1.
</event>
<event>
 7    1  0.2412036E-009  0.4778727E+02  0.7816164E-02  0.1312668E+00
        -11   -1    0    0    0    0  0.00000000000E+00  0.00000000000E+00  0.45593999997E+02  0.45594000000E+02  0.51100000000E-03 0.  1.
         11   -1    0    0    0    0 -0.00000000000E+00 -0.00000000000E+00 -0.45593999997E+02  0.45594000000E+02  0.51100000000E-03 0. -1.
    9900012    2    1    2    0    0 -0.26009570156E+02 -0.29866149608E+02  0.17752139395E+02  0.47787273218E+02  0.20000009910E+02 0.  0.
         12    1    1    2    0    0  0.26009570156E+02  0.29866149608E+02 -0.17752139395E+02  0.43400726782E+02  0.00000000000E+00 0. -1.
         11    1    3    3    0    0 -0.15485092980E+02 -0.22697995044E+02  0.83408568018E+01  0.28715100140E+02  0.51100000000E-03 0. -1.
        -11    1    3    3    0    0 -0.95085765876E+01 -0.97007052651E+01  0.64236955229E+01  0.15025996666E+02  0.51100000000E-03 0.  1.
         12    1    3    3    0    0 -0.10159005882E+01  0.25325507006E+01  0.29875870706E+01  0.40461764125E+01  0.00000000000E+00 0. -1.
</event>
<event>
 7    1  0.2412036E-009  0.4778727E+02  0.7816164E-02  0.1312668E+00
        -11   -1    0    0    0    0  0.00000000000E+00  0.00000000000E+00  0.45593999997E+02  0.45594000000E+02  0.51100000000E-03 0. -1.
         11   -1    0    0    0    0 -0.00000000000E+00 -0.00000000000E+00 -0.45593999997E+02  0.45594000000E+02  0.51100000000E-03 0.  1.
    9900012    2    1    2    0    0 -0.38413481870E+01 -0.52404399541E+01 -0.42911593373E+02  0.47787274054E+02  0.20000013724E+02 0.  0.
         12    1    1    2    0    0  0.38413481870E+01  0.52404399541E+01  0.42911593373E+02  0.43400725946E+02  0.00000000000E+00 0. -1.
         11    1    3    3    0    0 -0.98278095108E+00  0.71374705668E+00 -0.26024433423E+00  0.12421838162E+01  0.51100000000E-03 0.  1.
        -11    1    3    3    0    0 -0.10254883310E+02 -0.32991785048E+01 -0.24112826833E+02  0.26409763888E+02  0.51100000000E-03 0. -1.
        -12    1    3    3    0    0  0.73963160741E+01 -0.26550085060E+01 -0.18538522206E+02  0.20135326350E+02  0.00000000000E+00 0.  1.
</event>
<event>
 7    1  0.2412036E-009  0.4778727E+02  0.7816164E-02  0.1312668E+00
        -11   -1    0    0    0    0  0.00000000000E+00  0.00000000000E+00  0.45593999997E+02  0.45594000000E+02  0.51100000000E-03 0. -1.
         11   -1    0    0    0    0 -0.00000000000E+00 -0.00000000000E+00 -0.45593999997E+02  0.45594000000E+02  0.51100000000E-03 0.  1.
    9900012    2    1    2    0    0 -0.40192696324E+02  0.57171392560E+01  0.15345512475E+02  0.47787271064E+02  0.20000000089E+02 0.  0.
         12    1    1    2    0    0  0.40192696324E+02 -0.57171392560E+01 -0.15345512475E+02  0.43400728936E+02  0.00000000000E+00 0. -1.
         11    1    3    3    0    0 -0.21859798020E+02 -0.33950833629E+00  0.15369524334E+02  0.26724301934E+02  0.51100000000E-03 0. -1.
        -11    1    3    3    0    0 -0.12408924170E+02  0.40677121183E+01  0.39674848379E+01  0.13648026126E+02  0.51100000000E-03 0.  1.
         12    1    3    3    0    0 -0.59239741339E+01  0.19889354741E+01 -0.39914966968E+01  0.74149430031E+01  0.00000000000E+00 0. -1.
</event>
<event>
 7    1  0.2412036E-009  0.4778727E+02  0.7816164E-02  0.1312668E+00
        -11   -1    0    0    0    0  0.00000000000E+00  0.00000000000E+00  0.45593999997E+02  0.45594000000E+02  0.51100000000E-03 0. -1.
         11   -1    0    0    0    0 -0.00000000000E+00 -0.00000000000E+00 -0.45593999997E+02  0.45594000000E+02  0.51100000000E-03 0.  1.
    9900012    2    1    2    0    0  0.27004662997E+02  0.71596903963E+00 -0.33968495906E+02  0.47787272479E+02  0.20000006542E+02 0.  0.
         12    1    1    2    0    0 -0.27004662997E+02 -0.71596903963E+00  0.33968495906E+02  0.43400727521E+02  0.00000000000E+00 0. -1.
         11    1    3    3    0    0  0.73201319670E+01 -0.22029860842E+00  0.60581941679E+00  0.73484611258E+01  0.51100000000E-03 0. -1.
        -11    1    3    3    0    0  0.16929113391E+02  0.29757889364E+01 -0.25630733735E+02  0.30860730906E+02  0.51100000000E-03 0.  1.
         12    1    3    3    0    0  0.27554176390E+01 -0.20395212883E+01 -0.89435815875E+01  0.95780804478E+01  0.00000000000E+00 0. -1.
</event>
<event>
 7    1  0.2412036E-009  0.4778727E+02  0.7816164E-02  0.1312668E+00
        -11   -1    0    0    0    0  0.00000000000E+00  0.00000000000E+00  0.45593999997E+02  0.45594000000E+02  0.51100000000E-03 0. -1.
         11   -1    0    0    0    0 -0.00000000000E+00 -0.00000000000E+00 -0.45593999997E+02  0.45594000000E+02  0.51100000000E-03 0.  1.
    9900012    2    1    2    0    0 -0.25544497426E+02 -0.24649324190E+02 -0.24970234300E+02  0.47787272670E+02  0.20000007413E+02 0.  0.
         12    1    1    2    0    0  0.25544497426E+02  0.24649324190E+02  0.24970234300E+02  0.43400727330E+02  0.00000000000E+00 0. -1.
         11    1    3    3    0    0 -0.24782657113E+01 -0.13031934181E+01  0.21025684404E+01  0.35015579859E+01  0.51100000000E-03 0. -1.
        -11    1    3    3    0    0 -0.20852956277E+02 -0.23959283153E+02 -0.21771535903E+02  0.38508347284E+02  0.51100000000E-03 0.  1.
         12    1    3    3    0    0 -0.22132754381E+01  0.61315238130E+00 -0.53012668370E+01  0.57773674009E+01  0.00000000000E+00 0. -1.
</event>
<event>
 7    1  0.2412036E-009  0.4778727E+02  0.7816164E-02  0.1312668E+00
        -11   -1    0    0    0    0  0.00000000000E+00  0.00000000000E+00  0.45593999997E+02  0.45594000000E+02  0.51100000000E-03 0.  1.
         11   -1    0    0    0    0 -0.00000000000E+00 -0.00000000000E+00 -0.45593999997E+02  0.45594000000E+02  0.51100000000E-03 0. -1.
    9900012    2    1    2    0    0 -0.16649428073E+01 -0.17318480157E+02  0.39760803603E+02  0.47787270828E+02  0.19999999015E+02 0.  0.
         12    1    1    2    0    0  0.16649428073E+01  0.17318480157E+02 -0.39760803603E+02  0.43400729172E+02  0.00000000000E+00 0. -1.
         11    1    3    3    0    0  0.36919362862E+00 -0.31635073032E+01  0.14578799329E+02  0.14922649648E+02  0.51100000000E-03 0. -1.
        -11    1    3    3    0    0  0.26049452773E+01 -0.61134354308E+01  0.22108113478E+02  0.23085244519E+02  0.51100000000E-03 0.  1.
        -12    1    3    3    0    0 -0.46390817132E+01 -0.80415374229E+01  0.30738907959E+01  0.97793766617E+01  0.00000000000E+00 0.  1.
</event>
<event>
 7    1  0.2412036E-009  0.4778727E+02  0.7816164E-02  0.1312668E+00
        -11   -1    0    0    0    0  0.00000000000E+00  0.00000000000E+00  0.45593999997E+02  0.45594000000E+02  0.51100000000E-03 0. -1.
         11   -1    0    0    0    0 -0.00000000000E+00 -0.00000000000E+00 -0.45593999997E+02  0.45594000000E+02  0.51100000000E-03 0.  1.
    9900012    2    1    2    0    0 -0.81809648982E+01 -0.16665121779E+02 -0.39229692454E+02  0.47787271428E+02  0.20000001749E+02 0.  0.
         12    1    1    2    0    0  0.81809648982E+01  0.16665121779E+02  0.39229692454E+02  0.43400728572E+02  0.00000000000E+00 0. -1.
         11    1    3    3    0    0  0.27326965503E+01  0.31671370647E+01 -0.34932711427E+01  0.54498927659E+01  0.51100000000E-03 0. -1.
        -11    1    3    3    0    0 -0.73084908859E+01 -0.14591508459E+02 -0.26518155709E+02  0.31137417051E+02  0.51100000000E-03 0.  1.
         12    1    3    3    0    0 -0.36051705626E+01 -0.52407503850E+01 -0.92182656018E+01  0.11199961611E+02  0.00000000000E+00 0. -1.
</event>
<event>
 7    1  0.2412036E-009  0.4778727E+02  0.7816164E-02  0.1312668E+00
        -11   -1    0    0    0    0  0.00000000000E+00  0.00000000000E+00  0.45593999997E+02  0.45594000000E+02  0.51100000000E-03 0.  1.
         11   -1    0    0    0    0 -0.00000000000E+00 -0.00000000000E+00 -0.45593999997E+02  0.45594000000E+02  0.51100000000E-03 0. -1.
    9900012    2    1    2    0    0  0.15539922473E+02  0.35450692777E+02  0.19631157122E+02  0.47787272601E+02  0.20000007095E+02 0.  0.
         12    1    1    2    0    0 -0.15539922473E+02 -0.35450692777E+02 -0.19631157122E+02  0.43400727399E+02  0.00000000000E+00 0. -1.
         11    1    3    3    0    0  0.96133027590E+01  0.27982159768E+02  0.11264667590E+02  0.31659273387E+02  0.51100000000E-03 0.  1.
        -11    1    3    3    0    0  0.25748298003E+01 -0.19939449740E+01  0.40598903680E+01  0.52046397686E+01  0.51100000000E-03 0. -1.
         12    1    3    3    0    0  0.33517899135E+01  0.94624779829E+01  0.43065991644E+01  0.10923359445E+02  0.00000000000E+00 0. -1.
</event>
<event>
 7    1  0.2412036E-009  0.4778727E+02  0.7816164E-02  0.1312668E+00
        -11   -1    0    0    0    0  0.00000000000E+00  0.00000000000E+00  0.45593999997E+02  0.45594000000E+02  0.51100000000E-03 0.  1.
         11   -1    0    0    0    0 -0.00000000000E+00 -0.00000000000E+00 -0.45593999997E+02  0.45594000000E+02  0.51100000000E-03 0. -1.
    9900012    2    1    2    0    0 -0.31482403443E+02 -0.24854295906E+02  0.16575451143E+02  0.47787270373E+02  0.19999996940E+02 0.  0.
         12    1    1    2    0    0  0.31482403443E+02  0.24854295906E+02 -0.16575451143E+02  0.43400729627E+02  0.00000000000E+00 0. -1.
         11    1    3    3    0    0 -0.13421551397E+01  0.28664198854E+01  0.38530514732E-01  0.31653164518E+01  0.51100000000E-03 0. -1.
        -11    1    3    3    0    0 -0.29462420261E+02 -0.25250202894E+02  0.14810003889E+02  0.41532435147E+02  0.51100000000E-03 0.  1.
         12    1    3    3    0    0 -0.67782804275E+00 -0.24705128977E+01  0.17269167394E+01  0.30895187746E+01  0.00000000000E+00 0. -1.
</event>
<event>
 7    1  0.2412036E-009  0.4778727E+02  0.7816164E-02  0.1312668E+00
        -11   -1    0    0    0    0  0.00000000000E+00  0.00000000000E+00  0.45593999997E+02  0.45594000000E+02  0.51100000000E-03 0. -1.
         11   -1    0    0    0    0 -0.00000000000E+00 -0.00000000000E+00 -0.45593999997E+02  0.45594000000E+02  0.51100000000E-03 0.  1.
    9900012    2    1    2    0    0  0.15147379541E+02  0.39830866351E+02 -0.82269374142E+01  0.47787268204E+02  0.19999987047E+02 0.  0.
         12    1    1    2    0    0 -0.15147379541E+02 -0.39830866351E+02  0.82269374142E+01  0.43400731796E+02  0.00000000000E+00 0. -1.
         11    1    3    3    0    0  0.11699701213E+02  0.19518743400E+02  0.52826221379E+00  0.22762763751E+02  0.51100000000E-03 0. -1.
        -11    1    3    3    0    0 -0.40010731579E+01  0.87692773347E+01 -0.45413573955E+01  0.10655174266E+02  0.51100000000E-03 0.  1.
        -12    1    3    3    0    0  0.74487514856E+01  0.11542845617E+02 -0.42138422324E+01  0.14369330186E+02  0.00000000000E+00 0.  1.
</event>
<event>
 7    1  0.2412036E-009  0.4778727E+02  0.7816164E-02  0.1312668E+00
        -11   -1    0    0    0    0  0.00000000000E+00  0.00000000000E+00  0.45593999997E+02  0.45594000000E+02  0.51100000000E-03 0.  1.
         11   -1    0    0    0    0 -0.00000000000E+00 -0.00000000000E+00 -0.45593999997E+02  0.45594000000E+02  0.51100000000E-03 0. -1.
    9900012    2    1    2    0    0 -0.24895699921E+02  0.13216067738E+02  0.33002467606E+02  0.47787272021E+02  0.20000004453E+02 0.  0.
         12    1    1    2    0    0  0.24895699921E+02 -0.13216067738E+02 -0.33002467606E+02  0.43400727979E+02  0.00000000000E+00 0. -1.
         11    1    3    3    0    0 -0.46738082764E+00  0.62870467253E+01  0.31209983929E+01  0.70346309494E+01  0.51100000000E-03 0. -1.
        -11    1    3    3    0    0 -0.13336236651E+02 -0.17119460908E+01  0.17080722048E+02  0.21737916951E+02  0.51100000000E-03 0.  1.
        -12    1    3    3    0    0 -0.11092082443E+02  0.86409671039E+01  0.12800747164E+02  0.19014724120E+02  0.00000000000E+00 0.  1.
</event>
<event>
 7    1  0.2412036E-009  0.4778727E+02  0.7816164E-02  0.1312668E+00
        -11   -1    0    0    0    0  0.00000000000E+00  0.00000000000E+00  0.45593999997E+02  0.45594000000E+02  0.51100000000E-03 0.  1.
         11   -1    0    0    0    0 -0.00000000000E+00 -0.00000000000E+00 -0.45593999997E+02  0.45594000000E+02  0.51100000000E-03 0. -1.
    9900012    2    1    2    0    0  0.21719327505E+02  0.22001733426E+02  0.30460105640E+02  0.47787268478E+02  0.19999988300E+02 0.  0.
         12    1    1    2    0    0 -0.21719327505E+02 -0.22001733426E+02 -0.30460105640E+02  0.43400731522E+02  0.00000000000E+00 0. -1.
         11    1    3    3    0    0  0.62966571332E+01  0.35269095946E+01 -0.23098911965E+00  0.72208267239E+01  0.51100000000E-03 0. -1.
        -11    1    3    3    0    0  0.10063345415E+02  0.14383370028E+02  0.28508054544E+02  0.33479268636E+02  0.51100000000E-03 0.  1.
        -12    1    3    3    0    0  0.53593249570E+01  0.40914538035E+01  0.21830402160E+01  0.70871731180E+01  0.00000000000E+00 0.  1.
</event>
<event>
 7    1  0.2412036E-009  0.4778727E+02  0.7816164E-02  0.1312668E+00
        -11   -1    0    0    0    0  0.00000000000E+00  0.00000000000E+00  0.45593999997E+02  0.45594000000E+02  0.51100000000E-03 0.  1.
         11   -1    0    0    0    0 -0.00000000000E+00 -0.00000000000E+00 -0.45593999997E+02  0.45594000000E+02  0.51100000000E-03 0. -1.
    9900012    2    1    2    0    0  0.12309473807E+01 -0.30671947720E+02  0.30681256349E+02  0.47787273053E+02  0.20000009160E+02 0.  0.
         12    1    1    2    0    0 -0.12309473807E+01  0.30671947720E+02 -0.30681256349E+02  0.43400726947E+02  0.00000000000E+00 0. -1.
         11    1    3    3    0    0  0.20702405709E+01 -0.34064181295E+01  0.15386996043E+02  0.15894943473E+02  0.51100000000E-03 0. -1.
        -11    1    3    3    0    0 -0.33771038106E+01 -0.14469079566E+02  0.93594986085E+01  0.17560162531E+02  0.51100000000E-03 0.  1.
         12    1    3    3    0    0  0.25378106204E+01 -0.12796450024E+02  0.59347616966E+01  0.14332167050E+02  0.00000000000E+00 0. -1.
</event>
<event>
 7    1  0.2412036E-009  0.4778727E+02  0.7816164E-02  0.1312668E+00
        -11   -1    0    0    0    0  0.00000000000E+00  0.00000000000E+00  0.45593999997E+02  0.45594000000E+02  0.51100000000E-03 0. -1.
         11   -1    0    0    0    0 -0.00000000000E+00 -0.00000000000E+00 -0.45593999997E+02  0.45594000000E+02  0.51100000000E-03 0.  1.
    9900012    2    1    2    0    0  0.26437161863E+02 -0.19710622707E+02 -0.28216853705E+02  0.47787274109E+02  0.20000013973E+02 0.  0.
         12    1    1    2    0    0 -0.26437161863E+02  0.19710622707E+02  0.28216853705E+02  0.43400725891E+02  0.00000000000E+00 0. -1.
         11    1    3    3    0    0  0.95365448536E+01 -0.10863265985E+02 -0.70660393207E+01  0.16089908252E+02  0.51100000000E-03 0. -1.
        -11    1    3    3    0    0 -0.11287345680E+01 -0.18083785075E+01  0.93773464058E+00  0.23288669066E+01  0.51100000000E-03 0.  1.
        -12    1    3    3    0    0  0.18029351577E+02 -0.70389782136E+01 -0.22088549025E+02  0.29368498951E+02  0.00000000000E+00 0.  1.
</event>
<event>
 7    1  0.2412036E-009  0.4778727E+02  0.7816164E-02  0.1312668E+00
        -11   -1    0    0    0    0  0.00000000000E+00  0.00000000000E+00  0.45593999997E+02  0.45594000000E+02  0.51100000000E-03 0.  1.
         11   -1    0    0    0    0 -0.00000000000E+00 -0.00000000000E+00 -0.45593999997E+02  0.45594000000E+02  0.51100000000E-03 0. -1.
    9900012    2    1    2    0    0 -0.15866681855E+02  0.53186755248E+01  0.40044767880E+02  0.47787270317E+02  0.19999996682E+02 0.  0.
         12    1    1    2    0    0  0.15866681855E+02 -0.53186755248E+01 -0.40044767880E+02  0.43400729683E+02  0.00000000000E+00 0. -1.
         11    1    3    3    0    0  0.23717406452E+01 -0.32100368676E+01  0.48405815708E+01  0.62738122847E+01  0.51100000000E-03 0. -1.
        -11    1    3    3    0    0 -0.21667942339E+01  0.19612320553E+01  0.13015499117E+02  0.13339589422E+02  0.51100000000E-03 0.  1.
         12    1    3    3    0    0 -0.16071628267E+02  0.65674803370E+01  0.22188687193E+02  0.28173868610E+02  0.00000000000E+00 0. -1.
</event>
<event>
 7    1  0.2412036E-009  0.4778727E+02  0.7816164E-02  0.1312668E+00
        -11   -1    0    0    0    0  0.00000000000E+00  0.00000000000E+00  0.45593999997E+02  0.45594000000E+02  0.51100000000E-03 0.  1.
         11   -1    0    0    0    0 -0.00000000000E+00 -0.00000000000E+00 -0.45593999997E+02  0.45594000000E+02  0.51100000000E-03 0. -1.
    9900012    2    1    2    0    0 -0.13739568049E+02 -0.12679910729E+02  0.39167171455E+02  0.47787272057E+02  0.20000004615E+02 0.  0.
         12    1    1    2    0    0  0.13739568049E+02  0.12679910729E+02 -0.39167171455E+02  0.43400727943E+02  0.00000000000E+00 0. -1.
         11    1    3    3    0    0 -0.38037241131E+01 -0.18124285233E+01 -0.13578512122E+01  0.44268470107E+01  0.51100000000E-03 0. -1.
        -11    1    3    3    0    0 -0.20372332971E+01 -0.52343526389E+01  0.17355422220E+02  0.18241695309E+02  0.51100000000E-03 0.  1.
         12    1    3    3    0    0 -0.78986106388E+01 -0.56331295664E+01  0.23169600447E+02  0.25118729737E+02  0.00000000000E+00 0. -1.
</event>
<event>
 7    1  0.2412036E-009  0.4778727E+02  0.7816164E-02  0.1312668E+00
        -11   -1    0    0    0    0  0.00000000000E+00  0.00000000000E+00  0.45593999997E+02  0.45594000000E+02  0.51100000000E-03 0. -1.
         11   -1    0    0    0    0 -0.00000000000E+00 -0.00000000000E+00 -0.45593999997E+02  0.45594000000E+02  0.51100000000E-03 0.  1.
    9900012    2    1    2    0    0  0.30891428670E+02 -0.14826995854E+02 -0.26636499463E+02  0.47787271032E+02  0.19999999943E+02 0.  0.
         12    1    1    2    0    0 -0.30891428670E+02  0.14826995854E+02  0.26636499463E+02  0.43400728968E+02  0.00000000000E+00 0. -1.
         11    1    3    3    0    0  0.19703160350E+02  0.86386459829E+00 -0.13084012211E+02  0.23667533999E+02  0.51100000000E-03 0. -1.
        -11    1    3    3    0    0  0.10254818103E+02 -0.12692211935E+02 -0.13143886228E+02  0.20952691559E+02  0.51100000000E-03 0.  1.
         12    1    3    3    0    0  0.93345021739E+00 -0.29986485170E+01 -0.40860102496E+00  0.31670454740E+01  0.00000000000E+00 0. -1.
</event>
<event>
 7    1  0.2412036E-009  0.4778727E+02  0.7816164E-02  0.1312668E+00
        -11   -1    0    0    0    0  0.00000000000E+00  0.00000000000E+00  0.45593999997E+02  0.45594000000E+02  0.51100000000E-03 0. -1.
         11   -1    0    0    0    0 -0.00000000000E+00 -0.00000000000E+00 -0.45593999997E+02  0.45594000000E+02  0.51100000000E-03 0.  1.
    9900012    2    1    2    0    0  0.41831286466E+02 -0.80715870031E+01 -0.82834840735E+01  0.47787272442E+02  0.20000006371E+02 0.  0.
         12    1    1    2    0    0 -0.41831286466E+02  0.80715870031E+01  0.82834840735E+01  0.43400727558E+02  0.00000000000E+00 0. -1.
         11    1    3    3    0    0  0.93827529096E+01 -0.57983871301E+01  0.27440362247E+01  0.11366049469E+02  0.51100000000E-03 0. -1.
        -11    1    3    3    0    0  0.16810418890E+02  0.48408657098E+01 -0.47130333675E+01  0.18117307964E+02  0.51100000000E-03 0.  1.
        -12    1    3    3    0    0  0.15638114667E+02 -0.71140655828E+01 -0.63144869306E+01  0.18303915009E+02  0.00000000000E+00 0.  1.
</event>
<event>
 7    1  0.2412036E-009  0.4778727E+02  0.7816164E-02  0.1312668E+00
        -11   -1    0    0    0    0  0.00000000000E+00  0.00000000000E+00  0.45593999997E+02  0.45594000000E+02  0.51100000000E-03 0. -1.
         11   -1    0    0    0    0 -0.00000000000E+00 -0.00000000000E+00 -0.45593999997E+02  0.45594000000E+02  0.51100000000E-03 0.  1.
    9900012    2    1    2    0    0  0.11449775125E+02 -0.30863218868E+02 -0.28284058139E+02  0.47787267585E+02  0.19999984227E+02 0.  0.
         12    1    1    2    0    0 -0.11449775125E+02  0.30863218868E+02  0.28284058139E+02  0.43400732415E+02  0.00000000000E+00 0. -1.
         11    1    3    3    0    0 -0.49503933523E+00 -0.14608024145E+01 -0.93256425775E-01  0.15452199389E+01  0.51100000000E-03 0. -1.
        -11    1    3    3    0    0  0.12772359487E+02 -0.26799688648E+02 -0.30574938045E+02  0.42616702304E+02  0.51100000000E-03 0.  1.
        -12    1    3    3    0    0 -0.82754502655E+00 -0.26027278054E+01  0.23841363321E+01  0.36253453421E+01  0.00000000000E+00 0.  1.
</event>
<event>
 7    1  0.2412036E-009  0.4778727E+02  0.7816164E-02  0.1312668E+00
        -11   -1    0    0    0    0  0.00000000000E+00  0.00000000000E+00  0.45593999997E+02  0.45594000000E+02  0.51100000000E-03 0. -1.
         11   -1    0    0    0    0 -0.00000000000E+00 -0.00000000000E+00 -0.45593999997E+02  0.45594000000E+02  0.51100000000E-03 0.  1.
    9900012    2    1    2    0    0 -0.38415441881E+02  0.16870282058E+02 -0.11102733965E+02  0.47787270823E+02  0.19999998989E+02 0.  0.
         12    1    1    2    0    0  0.38415441881E+02 -0.16870282058E+02  0.11102733965E+02  0.43400729177E+02  0.00000000000E+00 0. -1.
         11    1    3    3    0    0 -0.85223352563E+01 -0.36072260467E+00 -0.71643633480E+01  0.11139498259E+02  0.51100000000E-03 0. -1.
        -11    1    3    3    0    0 -0.12120268197E+02  0.94760314508E+01  0.36714814904E+01  0.15816948183E+02  0.51100000000E-03 0.  1.
        -12    1    3    3    0    0 -0.17772838428E+02  0.77549732118E+01 -0.76098521076E+01  0.20830824381E+02  0.00000000000E+00 0.  1.
</event>
<event>
 7    1  0.2412036E-009  0.4778727E+02  0.7816164E-02  0.1312668E+00
        -11   -1    0    0    0    0  0.00000000000E+00  0.00000000000E+00  0.45593999997E+02  0.45594000000E+02  0.51100000000E-03 0.  1.
         11   -1    0    0    0    0 -0.00000000000E+00 -0.00000000000E+00 -0.45593999997E+02  0.45594000000E+02  0.51100000000E-03 0. -1.
    9900012    2    1    2    0    0  0.82759764334E+01  0.17675367278E+02  0.38764842040E+02  0.47787269906E+02  0.19999994809E+02 0.  0.
         12    1    1    2    0    0 -0.82759764334E+01 -0.17675367278E+02 -0.38764842040E+02  0.43400730094E+02  0.00000000000E+00 0. -1.
         11    1    3    3    0    0  0.39742022234E+01  0.38891184465E+01  0.85257257856E+00  0.56255138313E+01  0.51100000000E-03 0. -1.
        -11    1    3    3    0    0  0.41155263490E+01  0.15621818088E+02  0.30395499471E+02  0.34421870168E+02  0.51100000000E-03 0.  1.
        -12    1    3    3    0    0  0.18624786102E+00 -0.18355692567E+01  0.75167699901E+01  0.77398859065E+01  0.00000000000E+00 0.  1.
</event>
<event>
 7    1  0.2412036E-009  0.4778728E+02  0.7816164E-02  0.1312668E+00
        -11   -1    0    0    0    0  0.00000000000E+00  0.00000000000E+00  0.45593999997E+02  0.45594000000E+02  0.51100000000E-03 0.  1.
         11   -1    0    0    0    0 -0.00000000000E+00 -0.00000000000E+00 -0.45593999997E+02  0.45594000000E+02  0.51100000000E-03 0. -1.
    9900012    2    1    2    0    0 -0.26750761471E+02  0.56950298539E+01  0.33698461104E+02  0.47787275523E+02  0.20000020421E+02 0.  0.
         12    1    1    2    0    0  0.26750761471E+02 -0.56950298539E+01 -0.33698461104E+02  0.43400724477E+02  0.00000000000E+00 0. -1.
         11    1    3    3    0    0 -0.75364172477E+00  0.26191915210E+00  0.88336966401E+01  0.88696546766E+01  0.51100000000E-03 0. -1.
        -11    1    3    3    0    0 -0.16159877620E+02 -0.33926372605E+01  0.11502485251E+02  0.20123588136E+02  0.51100000000E-03 0.  1.
        -12    1    3    3    0    0 -0.98372421266E+01  0.88257479623E+01  0.13362279213E+02  0.18794032710E+02  0.00000000000E+00 0.  1.
</event>
<event>
 7    1  0.2412036E-009  0.4778727E+02  0.7816164E-02  0.1312668E+00
        -11   -1    0    0    0    0  0.00000000000E+00  0.00000000000E+00  0.45593999997E+02  0.45594000000E+02  0.51100000000E-03 0.  1.
         11   -1    0    0    0    0 -0.00000000000E+00 -0.00000000000E+00 -0.45593999997E+02  0.45594000000E+02  0.51100000000E-03 0. -1.
    9900012    2    1    2    0    0  0.26047797568E+02  0.32761463194E+02  0.11481381198E+02  0.47787270248E+02  0.19999996368E+02 0.  0.
         12    1    1    2    0    0 -0.26047797568E+02 -0.32761463194E+02 -0.11481381198E+02  0.43400729752E+02  0.00000000000E+00 0. -1.
         11    1    3    3    0    0  0.17930657279E+02  0.22643105622E+02  0.11215013452E+02  0.30983789789E+02  0.51100000000E-03 0. -1.
        -11    1    3    3    0    0  0.98541886004E+01  0.10872295649E+02 -0.67451214743E+00  0.14689003117E+02  0.51100000000E-03 0.  1.
         12    1    3    3    0    0 -0.17370483111E+01 -0.75393807712E+00  0.94087989343E+00  0.21144773428E+01  0.00000000000E+00 0. -1.
</event>
<event>
 7    1  0.2412036E-009  0.4778727E+02  0.7816164E-02  0.1312668E+00
        -11   -1    0    0    0    0  0.00000000000E+00  0.00000000000E+00  0.45593999997E+02  0.45594000000E+02  0.51100000000E-03 0.  1.
         11   -1    0    0    0    0 -0.00000000000E+00 -0.00000000000E+00 -0.45593999997E+02  0.45594000000E+02  0.51100000000E-03 0. -1.
    9900012    2    1    2    0    0  0.11957420215E+02 -0.41465004773E+02 -0.46148322686E+01  0.47787271943E+02  0.20000004095E+02 0.  0.
         12    1    1    2    0    0 -0.11957420215E+02  0.41465004773E+02  0.46148322686E+01  0.43400728057E+02  0.00000000000E+00 0. -1.
         11    1    3    3    0    0 -0.18640089729E+01 -0.13587725980E+02 -0.11688279705E+01  0.13764700717E+02  0.51100000000E-03 0. -1.
        -11    1    3    3    0    0  0.11748558197E+02 -0.24374486919E+02  0.21042516987E+01  0.27139861970E+02  0.51100000000E-03 0.  1.
        -12    1    3    3    0    0  0.20728709908E+01 -0.35027918742E+01 -0.55502559968E+01  0.68827092550E+01  0.00000000000E+00 0.  1.
</event>
<event>
 7    1  0.2412036E-009  0.4778727E+02  0.7816164E-02  0.1312668E+00
        -11   -1    0    0    0    0  0.00000000000E+00  0.00000000000E+00  0.45593999997E+02  0.45594000000E+02  0.51100000000E-03 0.  1.
         11   -1    0    0    0    0 -0.00000000000E+00 -0.00000000000E+00 -0.45593999997E+02  0.45594000000E+02  0.51100000000E-03 0. -1.
    9900012    2    1    2    0    0  0.42659804053E+02 -0.64685317374E+01  0.46821669000E+01  0.47787268767E+02  0.19999989615E+02 0.  0.
         12    1    1    2    0    0 -0.42659804053E+02  0.64685317374E+01 -0.46821669000E+01  0.43400731233E+02  0.00000000000E+00 0. -1.
         11    1    3    3    0    0  0.29137236571E+01  0.41001284046E+01  0.38649849190E+01  0.63434176253E+01  0.51100000000E-03 0. -1.
        -11    1    3    3    0    0  0.33152220802E+02 -0.10473921296E+02  0.15926735352E+01  0.34803870197E+02  0.51100000000E-03 0.  1.
         12    1    3    3    0    0  0.65938595941E+01 -0.94738846233E-01 -0.77549155418E+00  0.66399809447E+01  0.00000000000E+00 0. -1.
</event>
<event>
 7    1  0.2412036E-009  0.4778727E+02  0.7816164E-02  0.1312668E+00
        -11   -1    0    0    0    0  0.00000000000E+00  0.00000000000E+00  0.45593999997E+02  0.45594000000E+02  0.51100000000E-03 0.  1.
         11   -1    0    0    0    0 -0.00000000000E+00 -0.00000000000E+00 -0.45593999997E+02  0.45594000000E+02  0.51100000000E-03 0. -1.
    9900012    2    1    2    0    0  0.25271795943E+01  0.20995597165E+02  0.37900152872E+02  0.47787270458E+02  0.19999997328E+02 0.  0.
         12    1    1    2    0    0 -0.25271795943E+01 -0.20995597165E+02 -0.37900152872E+02  0.43400729542E+02  0.00000000000E+00 0. -1.
         11    1    3    3    0    0  0.13532958951E+01  0.23328278735E+02  0.35229676567E+02  0.42274934770E+02  0.51100000000E-03 0. -1.
        -11    1    3    3    0    0 -0.12568105781E+01 -0.44999445262E+00 -0.14582539507E+00  0.13428824012E+01  0.51100000000E-03 0.  1.
         12    1    3    3    0    0  0.24306942773E+01 -0.18826871171E+01  0.28163017000E+01  0.41694532874E+01  0.00000000000E+00 0. -1.
</event>
<event>
 7    1  0.2412036E-009  0.4778727E+02  0.7816164E-02  0.1312668E+00
        -11   -1    0    0    0    0  0.00000000000E+00  0.00000000000E+00  0.45593999997E+02  0.45594000000E+02  0.51100000000E-03 0.  1.
         11   -1    0    0    0    0 -0.00000000000E+00 -0.00000000000E+00 -0.45593999997E+02  0.45594000000E+02  0.51100000000E-03 0. -1.
    9900012    2    1    2    0    0  0.31552045633E+02 -0.71805964114E+01  0.28922838558E+02  0.47787272601E+02  0.20000007099E+02 0.  0.
         12    1    1    2    0    0 -0.31552045633E+02  0.71805964114E+01 -0.28922838558E+02  0.43400727399E+02  0.00000000000E+00 0. -1.
         11    1    3    3    0    0  0.25378243133E+02 -0.75701797333E+01  0.24550546052E+02  0.36112216180E+02  0.51100000000E-03 0.  1.
        -11    1    3    3    0    0  0.42084640762E+01  0.31438180152E+01  0.59539866401E+01  0.79400704509E+01  0.51100000000E-03 0. -1.
         12    1    3    3    0    0  0.19653384245E+01 -0.27542346933E+01 -0.15816941340E+01  0.37349859708E+01  0.00000000000E+00 0. -1.
</event>
<event>
 7    1  0.2412036E-009  0.4778729E+02  0.7816164E-02  0.1312668E+00
        -11   -1    0    0    0    0  0.00000000000E+00  0.00000000000E+00  0.45593999997E+02  0.45594000000E+02  0.51100000000E-03 0.  1.
         11   -1    0    0    0    0 -0.00000000000E+00 -0.00000000000E+00 -0.45593999997E+02  0.45594000000E+02  0.51100000000E-03 0. -1.
    9900012    2    1    2    0    0  0.30243990794E+02 -0.58681070544E+01  0.30569397070E+02  0.47787289214E+02  0.20000082841E+02 0.  0.
         12    1    1    2    0    0 -0.30243990794E+02  0.58681070544E+01 -0.30569397070E+02  0.43400710786E+02  0.00000000000E+00 0. -1.
         11    1    3    3    0    0  0.20643340747E+01 -0.32774843993E+01  0.12398680964E+02  0.12989636987E+02  0.51100000000E-03 0. -1.
        -11    1    3    3    0    0  0.27153944228E+02 -0.51110134133E+00  0.17740004741E+02  0.32439261400E+02  0.51100000000E-03 0.  1.
         12    1    3    3    0    0  0.10257124912E+01 -0.20795213138E+01  0.43071136459E+00  0.23583908261E+01  0.00000000000E+00 0. -1.
</event>
<event>
 7    1  0.2412036E-009  0.4778727E+02  0.7816164E-02  0.1312668E+00
        -11   -1    0    0    0    0  0.00000000000E+00  0.00000000000E+00  0.45593999997E+02  0.45594000000E+02  0.51100000000E-03 0.  1.
         11   -1    0    0    0    0 -0.00000000000E+00 -0.00000000000E+00 -0.45593999997E+02  0.45594000000E+02  0.51100000000E-03 0. -1.
    9900012    2    1    2    0    0 -0.32455560499E+01 -0.43014867806E+02  0.47760521915E+01  0.47787272345E+02  0.20000005929E+02 0.  0.
         12    1    1    2    0    0  0.32455560499E+01  0.43014867806E+02 -0.47760521915E+01  0.43400727655E+02  0.00000000000E+00 0. -1.
         11    1    3    3    0    0 -0.80434511759E+01 -0.71810804755E+01  0.27450617728E+01  0.11126562273E+02  0.51100000000E-03 0. -1.
        -11    1    3    3    0    0  0.28765636514E+01 -0.17582021664E+02 -0.18197092221E+01  0.17908474143E+02  0.51100000000E-03 0.  1.
         12    1    3    3    0    0  0.19213314746E+01 -0.18251765667E+02  0.38506996409E+01  0.18752235929E+02  0.00000000000E+00 0. -1.
</event>
<event>
 7    1  0.2412036E-009  0.4778727E+02  0.7816164E-02  0.1312668E+00
        -11   -1    0    0    0    0  0.00000000000E+00  0.00000000000E+00  0.45593999997E+02  0.45594000000E+02  0.51100000000E-03 0. -1.
         11   -1    0    0    0    0 -0.00000000000E+00 -0.00000000000E+00 -0.45593999997E+02  0.45594000000E+02  0.51100000000E-03 0.  1.
    9900012    2    1    2    0    0  0.16366494474E+02  0.31290020949E+02  0.25232828818E+02  0.47787271866E+02  0.20000003746E+02 0.  0.
         12    1    1    2    0    0 -0.16366494474E+02 -0.31290020949E+02 -0.25232828818E+02  0.43400728134E+02  0.00000000000E+00 0. -1.
         11    1    3    3    0    0 -0.36410552463E+01  0.26962120722E+01 -0.11882898041E+00  0.45322139659E+01  0.51100000000E-03 0. -1.
        -11    1    3    3    0    0  0.90701680982E+01  0.12666106876E+02  0.93616826775E+01  0.18175239078E+02  0.51100000000E-03 0.  1.
         12    1    3    3    0    0  0.10937381622E+02  0.15927702001E+02  0.15989975121E+02  0.25079818822E+02  0.00000000000E+00 0. -1.
</event>
<event>
 7    1  0.2412036E-009  0.4778727E+02  0.7816164E-02  0.1312668E+00
        -11   -1    0    0    0    0  0.00000000000E+00  0.00000000000E+00  0.45593999997E+02  0.45594000000E+02  0.51100000000E-03 0.  1.
         11   -1    0    0    0    0 -0.00000000000E+00 -0.00000000000E+00 -0.45593999997E+02  0.45594000000E+02  0.51100000000E-03 0. -1.
    9900012    2    1    2    0    0  0.22996127189E+02 -0.68243997040E+01  0.36169444399E+02  0.47787274141E+02  0.20000014117E+02 0.  0.
         12    1    1    2    0    0 -0.22996127189E+02  0.68243997040E+01 -0.36169444399E+02  0.43400725859E+02  0.00000000000E+00 0. -1.
         11    1    3    3    0    0  0.16422165363E+02 -0.10558046400E+01  0.12265629924E+02  0.20524324990E+02  0.51100000000E-03 0. -1.
        -11    1    3    3    0    0 -0.18878880041E+01 -0.36675608899E+01  0.10409827338E+02  0.11197304562E+02  0.51100000000E-03 0.  1.
         12    1    3    3    0    0  0.84618498307E+01 -0.21010341741E+01  0.13493987137E+02  0.16065644588E+02  0.00000000000E+00 0. -1.
</event>
<event>
 7    1  0.2412036E-009  0.4778726E+02  0.7816164E-02  0.1312668E+00
        -11   -1    0    0    0    0  0.00000000000E+00  0.00000000000E+00  0.45593999997E+02  0.45594000000E+02  0.51100000000E-03 0.  1.
         11   -1    0    0    0    0 -0.00000000000E+00 -0.00000000000E+00 -0.45593999997E+02  0.45594000000E+02  0.51100000000E-03 0. -1.
    9900012    2    1    2    0    0 -0.51529478059E+01  0.33185484076E+02  0.27491720501E+02  0.47787263595E+02  0.19999966033E+02 0.  0.
         12    1    1    2    0    0  0.51529478059E+01 -0.33185484076E+02 -0.27491720501E+02  0.43400736405E+02  0.00000000000E+00 0. -1.
         11    1    3    3    0    0 -0.76665170330E+01  0.11337158913E+02  0.14377239853E+02  0.19849727497E+02  0.51100000000E-03 0. -1.
        -11    1    3    3    0    0 -0.40002672877E+01  0.53662823823E+01  0.18726753169E+01  0.69502545337E+01  0.51100000000E-03 0.  1.
         12    1    3    3    0    0  0.65138365148E+01  0.16482042780E+02  0.11241805331E+02  0.20987281564E+02  0.00000000000E+00 0. -1.
</event>
<event>
 7    1  0.2412036E-009  0.4778727E+02  0.7816164E-02  0.1312668E+00
        -11   -1    0    0    0    0  0.00000000000E+00  0.00000000000E+00  0.45593999997E+02  0.45594000000E+02  0.51100000000E-03 0.  1.
         11   -1    0    0    0    0 -0.00000000000E+00 -0.00000000000E+00 -0.45593999997E+02  0.45594000000E+02  0.51100000000E-03 0. -1.
    9900012    2    1    2    0    0 -0.28641226259E+02  0.29372865044E+01  0.32475777455E+02  0.47787267115E+02  0.19999982085E+02 0.  0.
         12    1    1    2    0    0  0.28641226259E+02 -0.29372865044E+01 -0.32475777455E+02  0.43400732885E+02  0.00000000000E+00 0. -1.
         11    1    3    3    0    0 -0.62870914921E+01  0.60315437561E+01  0.85793550512E+01  0.12227525214E+02  0.51100000000E-03 0. -1.
        -11    1    3    3    0    0 -0.17918382493E+02 -0.76131114028E+01  0.14703956515E+02  0.24397422689E+02  0.51100000000E-03 0.  1.
        -12    1    3    3    0    0 -0.44357522738E+01  0.45188541511E+01  0.91924658885E+01  0.11162319212E+02  0.00000000000E+00 0.  1.
</event>
<event>
 7    1  0.2412036E-009  0.4778728E+02  0.7816164E-02  0.1312668E+00
        -11   -1    0    0    0    0  0.00000000000E+00  0.00000000000E+00  0.45593999997E+02  0.45594000000E+02  0.51100000000E-03 0. -1.
         11   -1    0    0    0    0 -0.00000000000E+00 -0.00000000000E+00 -0.45593999997E+02  0.45594000000E+02  0.51100000000E-03 0.  1.
    9900012    2    1    2    0    0 -0.38389654099E+02  0.55234147330E+01  0.19476875834E+02  0.47787281753E+02  0.20000048823E+02 0.  0.
         12    1    1    2    0    0  0.38389654099E+02 -0.55234147330E+01 -0.19476875834E+02  0.43400718247E+02  0.00000000000E+00 0. -1.
         11    1    3    3    0    0 -0.11781197246E+02  0.91574410605E+01  0.79340580194E+01  0.16899840598E+02  0.51100000000E-03 0. -1.
        -11    1    3    3    0    0 -0.26779364850E+02 -0.18359342964E+01  0.10747682534E+02  0.28913970959E+02  0.51100000000E-03 0.  1.
        -12    1    3    3    0    0  0.17090799769E+00 -0.17980920311E+01  0.79513528112E+00  0.19734701952E+01  0.00000000000E+00 0.  1.
</event>
<event>
 7    1  0.2412036E-009  0.4778728E+02  0.7816164E-02  0.1312668E+00
        -11   -1    0    0    0    0  0.00000000000E+00  0.00000000000E+00  0.45593999997E+02  0.45594000000E+02  0.51100000000E-03 0. -1.
         11   -1    0    0    0    0 -0.00000000000E+00 -0.00000000000E+00 -0.45593999997E+02  0.45594000000E+02  0.51100000000E-03 0.  1.
    9900012    2    1    2    0    0  0.17694504324E+02  0.39182361182E+02 -0.59388211384E+01  0.47787279872E+02  0.20000040250E+02 0.  0.
         12    1    1    2    0    0 -0.17694504324E+02 -0.39182361182E+02  0.59388211384E+01  0.43400720128E+02  0.00000000000E+00 0. -1.
         11    1    3    3    0    0  0.11765846895E+01  0.34858039763E+01  0.17772395962E+01  0.40858000117E+01  0.51100000000E-03 0. -1.
        -11    1    3    3    0    0  0.46686366156E+01  0.20256058679E+02  0.37344184801E+01  0.21119894951E+02  0.51100000000E-03 0.  1.
        -12    1    3    3    0    0  0.11849283019E+02  0.15440498526E+02 -0.11450479215E+02  0.22581584910E+02  0.00000000000E+00 0.  1.
</event>
<event>
 7    1  0.2412036E-009  0.4778728E+02  0.7816164E-02  0.1312668E+00
        -11   -1    0    0    0    0  0.00000000000E+00  0.00000000000E+00  0.45593999997E+02  0.45594000000E+02  0.51100000000E-03 0. -1.
         11   -1    0    0    0    0 -0.00000000000E+00 -0.00000000000E+00 -0.45593999997E+02  0.45594000000E+02  0.51100000000E-03 0.  1.
    9900012    2    1    2    0    0 -0.32927172611E+02 -0.28270030285E+02 -0.47918469024E+00  0.47787275047E+02  0.20000018249E+02 0.  0.
         12    1    1    2    0    0  0.32927172611E+02  0.28270030285E+02  0.47918469024E+00  0.43400724953E+02  0.00000000000E+00 0. -1.
         11    1    3    3    0    0 -0.11243892498E+01  0.80150944482E+00 -0.21503390819E+01  0.25555091476E+01  0.51100000000E-03 0. -1.
        -11    1    3    3    0    0 -0.27904872178E+02 -0.26871370420E+02  0.57647605747E+01  0.39166119341E+02  0.51100000000E-03 0.  1.
        -12    1    3    3    0    0 -0.38979111834E+01 -0.22001693096E+01 -0.40936061831E+01  0.60656465580E+01  0.00000000000E+00 0.  1.
</event>
<event>
 7    1  0.2412036E-009  0.4778728E+02  0.7816164E-02  0.1312668E+00
        -11   -1    0    0    0    0  0.00000000000E+00  0.00000000000E+00  0.45593999997E+02  0.45594000000E+02  0.51100000000E-03 0.  1.
         11   -1    0    0    0    0 -0.00000000000E+00 -0.00000000000E+00 -0.45593999997E+02  0.45594000000E+02  0.51100000000E-03 0. -1.
    9900012    2    1    2    0    0 -0.41608818875E+02  0.18482494472E+01  0.12202994519E+02  0.47787275243E+02  0.20000019144E+02 0.  0.
         12    1    1    2    0    0  0.41608818875E+02 -0.18482494472E+01 -0.12202994519E+02  0.43400724757E+02  0.00000000000E+00 0. -1.
         11    1    3    3    0    0 -0.26089253757E+02  0.74530505691E+01  0.83729478281E+01  0.28395481682E+02  0.51100000000E-03 0. -1.
        -11    1    3    3    0    0 -0.62456083578E+01  0.17997202353E+01  0.37907987706E+01  0.75244117554E+01  0.51100000000E-03 0.  1.
         12    1    3    3    0    0 -0.92739567601E+01 -0.74045213572E+01  0.39247920404E-01  0.11867381805E+02  0.00000000000E+00 0. -1.
</event>
<event>
 7    1  0.2412036E-009  0.4778727E+02  0.7816164E-02  0.1312668E+00
        -11   -1    0    0    0    0  0.00000000000E+00  0.00000000000E+00  0.45593999997E+02  0.45594000000E+02  0.51100000000E-03 0. -1.
         11   -1    0    0    0    0 -0.00000000000E+00 -0.00000000000E+00 -0.45593999997E+02  0.45594000000E+02  0.51100000000E-03 0.  1.
    9900012    2    1    2    0    0 -0.25347698983E+02 -0.29437642680E+02  0.19353102752E+02  0.47787271475E+02  0.20000001965E+02 0.  0.
         12    1    1    2    0    0  0.25347698983E+02  0.29437642680E+02 -0.19353102752E+02  0.43400728525E+02  0.00000000000E+00 0. -1.
         11    1    3    3    0    0 -0.13212330063E+02 -0.16658925309E+02  0.21599493547E+01  0.21371729916E+02  0.51100000000E-03 0.  1.
        -11    1    3    3    0    0 -0.12591738881E+02 -0.73021192956E+01  0.12279392752E+02  0.19043537510E+02  0.51100000000E-03 0. -1.
        -12    1    3    3    0    0  0.45636996090E+00 -0.54765980760E+01  0.49137606452E+01  0.73720040495E+01  0.00000000000E+00 0.  1.
</event>
<event>
 7    1  0.2412036E-009  0.4778727E+02  0.7816164E-02  0.1312668E+00
        -11   -1    0    0    0    0  0.00000000000E+00  0.00000000000E+00  0.45593999997E+02  0.45594000000E+02  0.51100000000E-03 0. -1.
         11   -1    0    0    0    0 -0.00000000000E+00 -0.00000000000E+00 -0.45593999997E+02  0.45594000000E+02  0.51100000000E-03 0.  1.
    9900012    2    1    2    0    0 -0.39579380317E+02  0.13324027696E+02 -0.11813806852E+02  0.47787273132E+02  0.20000009517E+02 0.  0.
         12    1    1    2    0    0  0.39579380317E+02 -0.13324027696E+02  0.11813806852E+02  0.43400726868E+02  0.00000000000E+00 0. -1.
         11    1    3    3    0    0 -0.11150979634E+02  0.99641123378E+01 -0.60389879855E+01  0.16127531046E+02  0.51100000000E-03 0. -1.
        -11    1    3    3    0    0 -0.25440041662E+02  0.51048525409E+01 -0.12686807120E+01  0.25978159870E+02  0.51100000000E-03 0.  1.
         12    1    3    3    0    0 -0.29883590215E+01 -0.17449371823E+01 -0.45061381544E+01  0.56815822161E+01  0.00000000000E+00 0. -1.
</event>
<event>
 7    1  0.2412036E-009  0.4778727E+02  0.7816164E-02  0.1312668E+00
        -11   -1    0    0    0    0  0.00000000000E+00  0.00000000000E+00  0.45593999997E+02  0.45594000000E+02  0.51100000000E-03 0. -1.
         11   -1    0    0    0    0 -0.00000000000E+00 -0.00000000000E+00 -0.45593999997E+02  0.45594000000E+02  0.51100000000E-03 0.  1.
    9900012    2    1    2    0    0  0.23893731855E+02  0.33405481071E+02  0.14028065462E+02  0.47787271801E+02  0.20000003450E+02 0.  0.
         12    1    1    2    0    0 -0.23893731855E+02 -0.33405481071E+02 -0.14028065462E+02  0.43400728199E+02  0.00000000000E+00 0. -1.
         11    1    3    3    0    0  0.22689465095E+01  0.97676403477E+00  0.56717148152E+01  0.61863184083E+01  0.51100000000E-03 0. -1.
        -11    1    3    3    0    0  0.17559002147E+02  0.27667322943E+02  0.11326391678E+02  0.34671118585E+02  0.51100000000E-03 0.  1.
         12    1    3    3    0    0  0.40657831988E+01  0.47613940937E+01 -0.29700410315E+01  0.69298348078E+01  0.00000000000E+00 0. -1.
</event>
<event>
 7    1  0.2412036E-009  0.4778728E+02  0.7816164E-02  0.1312668E+00
        -11   -1    0    0    0    0  0.00000000000E+00  0.00000000000E+00  0.45593999997E+02  0.45594000000E+02  0.51100000000E-03 0. -1.
         11   -1    0    0    0    0 -0.00000000000E+00 -0.00000000000E+00 -0.45593999997E+02  0.45594000000E+02  0.51100000000E-03 0.  1.
    9900012    2    1    2    0    0 -0.39016928084E+02  0.35871312160E+01  0.18666402867E+02  0.47787276694E+02  0.20000025761E+02 0.  0.
         12    1    1    2    0    0  0.39016928084E+02 -0.35871312160E+01 -0.18666402867E+02  0.43400723306E+02  0.00000000000E+00 0. -1.
         11    1    3    3    0    0 -0.27785208322E+02 -0.18772927571E+01  0.72228403583E+01  0.28769974847E+02  0.51100000000E-03 0. -1.
        -11    1    3    3    0    0 -0.31803666879E+00  0.28624709320E+01  0.57608240473E+01  0.64406506756E+01  0.51100000000E-03 0.  1.
        -12    1    3    3    0    0 -0.10913683093E+02  0.26019530410E+01  0.56827384616E+01  0.12576651172E+02  0.00000000000E+00 0.  1.
</event>
<event>
 7    1  0.2412036E-009  0.4778727E+02  0.7816164E-02  0.1312668E+00
        -11   -1    0    0    0    0  0.00000000000E+00  0.00000000000E+00  0.45593999997E+02  0.45594000000E+02  0.51100000000E-03 0. -1.
         11   -1    0    0    0    0 -0.00000000000E+00 -0.00000000000E+00 -0.45593999997E+02  0.45594000000E+02  0.51100000000E-03 0.  1.
    9900012    2    1    2    0    0  0.34679185218E+02 -0.18082264115E+02 -0.18815141562E+02  0.47787265963E+02  0.19999976832E+02 0.  0.
         12    1    1    2    0    0 -0.34679185218E+02  0.18082264115E+02  0.18815141562E+02  0.43400734037E+02  0.00000000000E+00 0. -1.
         11    1    3    3    0    0  0.25107463741E+02 -0.17085260788E+02 -0.77183385398E+01  0.31334703154E+02  0.51100000000E-03 0. -1.
        -11    1    3    3    0    0  0.76893785227E+01 -0.38139384404E+01 -0.66270901484E+01  0.10843938057E+02  0.51100000000E-03 0.  1.
         12    1    3    3    0    0  0.18823429548E+01  0.28169351128E+01 -0.44697128740E+01  0.56086247517E+01  0.00000000000E+00 0. -1.
</event>
<event>
 7    1  0.2412036E-009  0.4778721E+02  0.7816164E-02  0.1312668E+00
        -11   -1    0    0    0    0  0.00000000000E+00  0.00000000000E+00  0.45593999997E+02  0.45594000000E+02  0.51100000000E-03 0. -1.
         11   -1    0    0    0    0 -0.00000000000E+00 -0.00000000000E+00 -0.45593999997E+02  0.45594000000E+02  0.51100000000E-03 0.  1.
    9900012    2    1    2    0    0  0.74662344838E+00  0.10664688967E+02 -0.42063472925E+02  0.47787207474E+02  0.19999710155E+02 0.  0.
         12    1    1    2    0    0 -0.74662344838E+00 -0.10664688967E+02  0.42063472925E+02  0.43400792526E+02  0.00000000000E+00 0. -1.
         11    1    3    3    0    0 -0.39590013775E+01  0.42208389353E+01 -0.20036176939E+02  0.20855156672E+02  0.51100000000E-03 0. -1.
        -11    1    3    3    0    0  0.24689978501E+01  0.54051504990E+01 -0.13313125125E+01  0.60896630094E+01  0.51100000000E-03 0.  1.
        -12    1    3    3    0    0  0.22366269757E+01  0.10386995325E+01 -0.20695983474E+02  0.20842387792E+02  0.00000000000E+00 0.  1.
</event>
<event>
 7    1  0.2412036E-009  0.4778727E+02  0.7816164E-02  0.1312668E+00
        -11   -1    0    0    0    0  0.00000000000E+00  0.00000000000E+00  0.45593999997E+02  0.45594000000E+02  0.51100000000E-03 0. -1.
         11   -1    0    0    0    0 -0.00000000000E+00 -0.00000000000E+00 -0.45593999997E+02  0.45594000000E+02  0.51100000000E-03 0.  1.
    9900012    2    1    2    0    0  0.13327779436E+02 -0.45264663434E+01 -0.41054902287E+02  0.47787267241E+02  0.19999982657E+02 0.  0.
         12    1    1    2    0    0 -0.13327779436E+02  0.45264663434E+01  0.41054902287E+02  0.43400732759E+02  0.00000000000E+00 0. -1.
         11    1    3    3    0    0  0.13375825189E+02 -0.46901393193E+01 -0.29193343874E+02  0.32452448800E+02  0.51100000000E-03 0. -1.
        -11    1    3    3    0    0 -0.23396507491E+01 -0.12257872038E+01 -0.12333923887E+02  0.12613572001E+02  0.51100000000E-03 0.  1.
         12    1    3    3    0    0  0.22916049954E+01  0.13894601798E+01  0.47236547394E+00  0.27212464400E+01  0.00000000000E+00 0. -1.
</event>
<event>
 7    1  0.2412036E-009  0.4778726E+02  0.7816164E-02  0.1312668E+00
        -11   -1    0    0    0    0  0.00000000000E+00  0.00000000000E+00  0.45593999997E+02  0.45594000000E+02  0.51100000000E-03 0.  1.
         11   -1    0    0    0    0 -0.00000000000E+00 -0.00000000000E+00 -0.45593999997E+02  0.45594000000E+02  0.51100000000E-03 0. -1.
    9900012    2    1    2    0    0 -0.31313069942E+02 -0.29553070014E+02  0.54526871704E+01  0.47787261598E+02  0.19999956931E+02 0.  0.
         12    1    1    2    0    0  0.31313069942E+02  0.29553070014E+02 -0.54526871704E+01  0.43400738402E+02  0.00000000000E+00 0. -1.
         11    1    3    3    0    0 -0.47677996523E+01 -0.63720897887E+01 -0.15244176589E+01  0.81030420991E+01  0.51100000000E-03 0. -1.
        -11    1    3    3    0    0 -0.33416563363E+01 -0.12241580378E+02 -0.12334097667E+01  0.12749284573E+02  0.51100000000E-03 0.  1.
        -12    1    3    3    0    0 -0.23203613954E+02 -0.10939399847E+02  0.82105145960E+01  0.26934934926E+02  0.00000000000E+00 0.  1.
</event>
<event>
 7    1  0.2412036E-009  0.4778727E+02  0.7816164E-02  0.1312668E+00
        -11   -1    0    0    0    0  0.00000000000E+00  0.00000000000E+00  0.45593999997E+02  0.45594000000E+02  0.51100000000E-03 0.  1.
         11   -1    0    0    0    0 -0.00000000000E+00 -0.00000000000E+00 -0.45593999997E+02  0.45594000000E+02  0.51100000000E-03 0. -1.
    9900012    2    1    2    0    0 -0.24735021299E+02 -0.21403054676E+02  0.28525628913E+02  0.47787268059E+02  0.19999986389E+02 0.  0.
         12    1    1    2    0    0  0.24735021299E+02  0.21403054676E+02 -0.28525628913E+02  0.43400731941E+02  0.00000000000E+00 0. -1.
         11    1    3    3    0    0 -0.41561172772E+01 -0.32360583741E+01 -0.20812065906E+01  0.56636389147E+01  0.51100000000E-03 0. -1.
        -11    1    3    3    0    0 -0.15616890579E+02 -0.18178447086E+02  0.25844614081E+02  0.35246096054E+02  0.51100000000E-03 0.  1.
        -12    1    3    3    0    0 -0.49620134429E+01  0.11450784027E-01  0.47622214233E+01  0.68775330906E+01  0.00000000000E+00 0.  1.
</event>
<event>
 7    1  0.2412036E-009  0.4778727E+02  0.7816164E-02  0.1312668E+00
        -11   -1    0    0    0    0  0.00000000000E+00  0.00000000000E+00  0.45593999997E+02  0.45594000000E+02  0.51100000000E-03 0.  1.
         11   -1    0    0    0    0 -0.00000000000E+00 -0.00000000000E+00 -0.45593999997E+02  0.45594000000E+02  0.51100000000E-03 0. -1.
    9900012    2    1    2    0    0  0.12412731676E+02  0.43474445304E+01  0.41359967485E+02  0.47787273140E+02  0.20000009554E+02 0.  0.
         12    1    1    2    0    0 -0.12412731676E+02 -0.43474445304E+01 -0.41359967485E+02  0.43400726860E+02  0.00000000000E+00 0. -1.
         11    1    3    3    0    0  0.45872149699E+01  0.85513544755E+01  0.17370765191E+02  0.19897529699E+02  0.51100000000E-03 0. -1.
        -11    1    3    3    0    0  0.33833868109E+01 -0.77573610945E+01  0.15711005367E+02  0.17845437719E+02  0.51100000000E-03 0.  1.
         12    1    3    3    0    0  0.44421298951E+01  0.35534511495E+01  0.82781969266E+01  0.10044305722E+02  0.00000000000E+00 0. -1.
</event>
<event>
 7    1  0.2412036E-009  0.4778725E+02  0.7816164E-02  0.1312668E+00
        -11   -1    0    0    0    0  0.00000000000E+00  0.00000000000E+00  0.45593999997E+02  0.45594000000E+02  0.51100000000E-03 0.  1.
         11   -1    0    0    0    0 -0.00000000000E+00 -0.00000000000E+00 -0.45593999997E+02  0.45594000000E+02  0.51100000000E-03 0. -1.
    9900012    2    1    2    0    0  0.53274067368E+01  0.12499686996E+02  0.41218942733E+02  0.47787254873E+02  0.19999926268E+02 0.  0.
         12    1    1    2    0    0 -0.53274067368E+01 -0.12499686996E+02 -0.41218942733E+02  0.43400745127E+02  0.00000000000E+00 0. -1.
         11    1    3    3    0    0 -0.46128888367E+01 -0.49946106050E+00  0.16235430750E+01  0.49156990498E+01  0.51100000000E-03 0. -1.
        -11    1    3    3    0    0  0.13962960827E+01  0.28054928476E+01  0.78451943325E+01  0.84479291690E+01  0.51100000000E-03 0.  1.
         12    1    3    3    0    0  0.85439994908E+01  0.10193655209E+02  0.31750205326E+02  0.34423626654E+02  0.00000000000E+00 0. -1.
</event>
<event>
 7    1  0.2412036E-009  0.4778728E+02  0.7816164E-02  0.1312668E+00
        -11   -1    0    0    0    0  0.00000000000E+00  0.00000000000E+00  0.45593999997E+02  0.45594000000E+02  0.51100000000E-03 0. -1.
         11   -1    0    0    0    0 -0.00000000000E+00 -0.00000000000E+00 -0.45593999997E+02  0.45594000000E+02  0.51100000000E-03 0.  1.
    9900012    2    1    2    0    0 -0.12782019891E+02 -0.40136142219E+02 -0.10456232506E+02  0.47787277161E+02  0.20000027890E+02 0.  0.
         12    1    1    2    0    0  0.12782019891E+02  0.40136142219E+02  0.10456232506E+02  0.43400722839E+02  0.00000000000E+00 0. -1.
         11    1    3    3    0    0  0.18818548001E+01 -0.56343704904E+01 -0.63918746679E+01  0.87260283258E+01  0.51100000000E-03 0. -1.
        -11    1    3    3    0    0 -0.10588012466E+02 -0.17391525664E+02  0.19932460143E+01  0.20458352887E+02  0.51100000000E-03 0.  1.
         12    1    3    3    0    0 -0.40758622248E+01 -0.17110246064E+02 -0.60576038527E+01  0.18602895949E+02  0.00000000000E+00 0. -1.
</event>
<event>
 7    1  0.2412036E-009  0.4778727E+02  0.7816164E-02  0.1312668E+00
        -11   -1    0    0    0    0  0.00000000000E+00  0.00000000000E+00  0.45593999997E+02  0.45594000000E+02  0.51100000000E-03 0. -1.
         11   -1    0    0    0    0 -0.00000000000E+00 -0.00000000000E+00 -0.45593999997E+02  0.45594000000E+02  0.51100000000E-03 0.  1.
    9900012    2    1    2    0    0 -0.53464553357E+01  0.42571345419E+02 -0.65360001568E+01  0.47787270358E+02  0.19999996871E+02 0.  0.
         12    1    1    2    0    0  0.53464553357E+01 -0.42571345419E+02  0.65360001568E+01  0.43400729642E+02  0.00000000000E+00 0. -1.
         11    1    3    3    0    0 -0.91072027317E+01  0.77078999583E+01 -0.11677975559E+01  0.11988186467E+02  0.51100000000E-03 0. -1.
        -11    1    3    3    0    0  0.71477322762E+00  0.23002516408E+02 -0.20103532750E+01  0.23101259325E+02  0.51100000000E-03 0.  1.
         12    1    3    3    0    0  0.30459741684E+01  0.11860929052E+02 -0.33578493259E+01  0.12697824566E+02  0.00000000000E+00 0. -1.
</event>
<event>
 7    1  0.2768038E-009  0.4778727E+02  0.7816164E-02  0.1312668E+00
        -11   -1    0    0    0    0  0.00000000000E+00  0.00000000000E+00  0.45593999997E+02  0.45594000000E+02  0.51100000000E-03 0. -1.
         11   -1    0    0    0    0 -0.00000000000E+00 -0.00000000000E+00 -0.45593999997E+02  0.45594000000E+02  0.51100000000E-03 0.  1.
    9900012    2    1    2    0    0 -0.33999555215E+02  0.26649628130E+02 -0.41773958635E+01  0.47787273388E+02  0.20000010685E+02 0.  0.
         12    1    1    2    0    0  0.33999555215E+02 -0.26649628130E+02  0.41773958635E+01  0.43400726612E+02  0.00000000000E+00 0. -1.
         11    1    3    3    0    0 -0.39513324044E+01 -0.59755338502E+00 -0.40601697182E+01  0.56969356868E+01  0.51100000000E-03 0. -1.
        -11    1    3    3    0    0 -0.17158400357E+02  0.13054003204E+02  0.52319448217E+01  0.22185376926E+02  0.51100000000E-03 0.  1.
        -12    1    3    3    0    0 -0.12889822453E+02  0.14193178310E+02 -0.53491709670E+01  0.19904960775E+02  0.00000000000E+00 0.  1.
</event>
<event>
 7    1  0.2412036E-009  0.4778726E+02  0.7816164E-02  0.1312668E+00
        -11   -1    0    0    0    0  0.00000000000E+00  0.00000000000E+00  0.45593999997E+02  0.45594000000E+02  0.51100000000E-03 0.  1.
         11   -1    0    0    0    0 -0.00000000000E+00 -0.00000000000E+00 -0.45593999997E+02  0.45594000000E+02  0.51100000000E-03 0. -1.
    9900012    2    1    2    0    0  0.14473851490E+02 -0.36779165273E+02  0.17928334929E+02  0.47787256130E+02  0.19999931998E+02 0.  0.
         12    1    1    2    0    0 -0.14473851490E+02  0.36779165273E+02 -0.17928334929E+02  0.43400743870E+02  0.00000000000E+00 0. -1.
         11    1    3    3    0    0  0.70938465311E+01 -0.27855481622E+01  0.29252566231E+01  0.81632753074E+01  0.51100000000E-03 0. -1.
        -11    1    3    3    0    0 -0.10744416349E+01 -0.16018821727E+02  0.10716658438E+02  0.19302949067E+02  0.51100000000E-03 0.  1.
        -12    1    3    3    0    0  0.84544465942E+01 -0.17974795384E+02  0.42864198673E+01  0.20321031755E+02  0.00000000000E+00 0.  1.
</event>
<event>
 7    1  0.2412036E-009  0.4778728E+02  0.7816164E-02  0.1312668E+00
        -11   -1    0    0    0    0  0.00000000000E+00  0.00000000000E+00  0.45593999997E+02  0.45594000000E+02  0.51100000000E-03 0.  1.
         11   -1    0    0    0    0 -0.00000000000E+00 -0.00000000000E+00 -0.45593999997E+02  0.45594000000E+02  0.51100000000E-03 0. -1.
    9900012    2    1    2    0    0  0.25146129775E+02 -0.10033597861E+02  0.33920818748E+02  0.47787275660E+02  0.20000021045E+02 0.  0.
         12    1    1    2    0    0 -0.25146129775E+02  0.10033597861E+02 -0.33920818748E+02  0.43400724340E+02  0.00000000000E+00 0. -1.
         11    1    3    3    0    0  0.22799121757E+02 -0.68418631709E+01  0.31059255599E+02  0.39131680301E+02  0.51100000000E-03 0. -1.
        -11    1    3    3    0    0  0.44832272466E+01 -0.18718097377E+01  0.35902129163E+01  0.60409127857E+01  0.51100000000E-03 0.  1.
         12    1    3    3    0    0 -0.21362192295E+01 -0.13199249522E+01 -0.72864976735E+00  0.26146825734E+01  0.00000000000E+00 0. -1.
</event>
<event>
 7    1  0.2412036E-009  0.4778727E+02  0.7816164E-02  0.1312668E+00
        -11   -1    0    0    0    0  0.00000000000E+00  0.00000000000E+00  0.45593999997E+02  0.45594000000E+02  0.51100000000E-03 0. -1.
         11   -1    0    0    0    0 -0.00000000000E+00 -0.00000000000E+00 -0.45593999997E+02  0.45594000000E+02  0.51100000000E-03 0.  1.
    9900012    2    1    2    0    0 -0.21605715975E+02 -0.34420025491E+02 -0.15234113637E+02  0.47787270330E+02  0.19999996743E+02 0.  0.
         12    1    1    2    0    0  0.21605715975E+02  0.34420025491E+02  0.15234113637E+02  0.43400729670E+02  0.00000000000E+00 0. -1.
         11    1    3    3    0    0  0.16448327388E+01 -0.11190824922E+02 -0.18100795322E+00  0.11312506412E+02  0.51100000000E-03 0. -1.
        -11    1    3    3    0    0 -0.10290027050E+02 -0.74075998549E+01 -0.44494926941E+01  0.13437082191E+02  0.51100000000E-03 0.  1.
         12    1    3    3    0    0 -0.12960521663E+02 -0.15821600714E+02 -0.10603612990E+02  0.23037681727E+02  0.00000000000E+00 0. -1.
</event>
<event>
 7    1  0.2412036E-009  0.4778727E+02  0.7816164E-02  0.1312668E+00
        -11   -1    0    0    0    0  0.00000000000E+00  0.00000000000E+00  0.45593999997E+02  0.45594000000E+02  0.51100000000E-03 0. -1.
         11   -1    0    0    0    0 -0.00000000000E+00 -0.00000000000E+00 -0.45593999997E+02  0.45594000000E+02  0.51100000000E-03 0.  1.
    9900012    2    1    2    0    0  0.34306638990E+02  0.22217157178E+02  0.14597102571E+02  0.47787274714E+02  0.20000016731E+02 0.  0.
         12    1    1    2    0    0 -0.34306638990E+02 -0.22217157178E+02 -0.14597102571E+02  0.43400725286E+02  0.00000000000E+00 0. -1.
         11    1    3    3    0    0  0.19891378074E+02  0.49082729877E+01  0.24451369166E+01  0.20633389450E+02  0.51100000000E-03 0. -1.
        -11    1    3    3    0    0  0.30251395008E+01  0.59831693294E+01 -0.47659892563E+00  0.67213786547E+01  0.51100000000E-03 0.  1.
         12    1    3    3    0    0  0.11390121415E+02  0.11325714861E+02  0.12628564580E+02  0.20432506609E+02  0.00000000000E+00 0. -1.
</event>
<event>
 7    1  0.2412036E-009  0.4778727E+02  0.7816164E-02  0.1312668E+00
        -11   -1    0    0    0    0  0.00000000000E+00  0.00000000000E+00  0.45593999997E+02  0.45594000000E+02  0.51100000000E-03 0. -1.
         11   -1    0    0    0    0 -0.00000000000E+00 -0.00000000000E+00 -0.45593999997E+02  0.45594000000E+02  0.51100000000E-03 0.  1.
    9900012    2    1    2    0    0 -0.10944904445E+02 -0.30067874007E+02 -0.29321579040E+02  0.47787274453E+02  0.20000015539E+02 0.  0.
         12    1    1    2    0    0  0.10944904445E+02  0.30067874007E+02  0.29321579040E+02  0.43400725547E+02  0.00000000000E+00 0. -1.
         11    1    3    3    0    0 -0.93649055881E+01 -0.13014592986E+02 -0.51776650973E+01  0.16849014908E+02  0.51100000000E-03 0. -1.
        -11    1    3    3    0    0 -0.34610048585E+01 -0.17022885869E+02 -0.22599346359E+02  0.28504169065E+02  0.51100000000E-03 0.  1.
         12    1    3    3    0    0  0.18810060012E+01 -0.30395152516E-01 -0.15445675838E+01  0.24340904796E+01  0.00000000000E+00 0. -1.
</event>
<event>
 7    1  0.2412036E-009  0.4778727E+02  0.7816164E-02  0.1312668E+00
        -11   -1    0    0    0    0  0.00000000000E+00  0.00000000000E+00  0.45593999997E+02  0.45594000000E+02  0.51100000000E-03 0.  1.
         11   -1    0    0    0    0 -0.00000000000E+00 -0.00000000000E+00 -0.45593999997E+02  0.45594000000E+02  0.51100000000E-03 0. -1.
    9900012    2    1    2    0    0  0.14274983191E+02  0.17509001029E+01  0.40948533553E+02  0.47787271937E+02  0.20000004069E+02 0.  0.
         12    1    1    2    0    0 -0.14274983191E+02 -0.17509001029E+01 -0.40948533553E+02  0.43400728063E+02  0.00000000000E+00 0. -1.
         11    1    3    3    0    0  0.80776002698E+01  0.14398951417E+01  0.49244164201E+01  0.95692633718E+01  0.51100000000E-03 0. -1.
        -11    1    3    3    0    0  0.53146006537E+01  0.51485217782E+00  0.36700805511E+02  0.37087183477E+02  0.51100000000E-03 0.  1.
        -12    1    3    3    0    0  0.88278226717E+00 -0.20384721658E+00 -0.67668837779E+00  0.11308250880E+01  0.00000000000E+00 0.  1.
</event>
<event>
 7    1  0.2412036E-009  0.4778727E+02  0.7816164E-02  0.1312668E+00
        -11   -1    0    0    0    0  0.00000000000E+00  0.00000000000E+00  0.45593999997E+02  0.45594000000E+02  0.51100000000E-03 0.  1.
         11   -1    0    0    0    0 -0.00000000000E+00 -0.00000000000E+00 -0.45593999997E+02  0.45594000000E+02  0.51100000000E-03 0. -1.
    9900012    2    1    2    0    0 -0.64483032953E+01  0.33633088034E+02  0.26661923614E+02  0.47787269627E+02  0.19999993537E+02 0.  0.
         12    1    1    2    0    0  0.64483032953E+01 -0.33633088034E+02 -0.26661923614E+02  0.43400730373E+02  0.00000000000E+00 0. -1.
         11    1    3    3    0    0  0.89092162008E+00 -0.95986073103E+00  0.11177271415E+01  0.17217398700E+01  0.51100000000E-03 0. -1.
        -11    1    3    3    0    0 -0.87257838657E+01  0.89096328717E+01  0.65095930080E+01  0.14067539350E+02  0.51100000000E-03 0.  1.
        -12    1    3    3    0    0  0.13865589502E+01  0.25683315894E+02  0.19034603465E+02  0.31997990407E+02  0.00000000000E+00 0.  1.
</event>
<event>
 7    1  0.2412036E-009  0.4778727E+02  0.7816164E-02  0.1312668E+00
        -11   -1    0    0    0    0  0.00000000000E+00  0.00000000000E+00  0.45593999997E+02  0.45594000000E+02  0.51100000000E-03 0.  1.
         11   -1    0    0    0    0 -0.00000000000E+00 -0.00000000000E+00 -0.45593999997E+02  0.45594000000E+02  0.51100000000E-03 0. -1.
    9900012    2    1    2    0    0  0.40829761982E+02 -0.14210034386E+02  0.38247820906E+01  0.47787268453E+02  0.19999988186E+02 0.  0.
         12    1    1    2    0    0 -0.40829761982E+02  0.14210034386E+02 -0.38247820906E+01  0.43400731547E+02  0.00000000000E+00 0. -1.
         11    1    3    3    0    0  0.20438716345E+02  0.27792043062E+01  0.71539376748E+00  0.20639207613E+02  0.51100000000E-03 0. -1.
        -11    1    3    3    0    0  0.53412493923E+01 -0.59771922461E+01  0.28197184422E+01  0.84974457675E+01  0.51100000000E-03 0.  1.
         12    1    3    3    0    0  0.15049796245E+02 -0.11012046446E+02  0.28966988094E+00  0.18650615072E+02  0.00000000000E+00 0. -1.
</event>
<event>
 7    1  0.2412036E-009  0.4778727E+02  0.7816164E-02  0.1312668E+00
        -11   -1    0    0    0    0  0.00000000000E+00  0.00000000000E+00  0.45593999997E+02  0.45594000000E+02  0.51100000000E-03 0.  1.
         11   -1    0    0    0    0 -0.00000000000E+00 -0.00000000000E+00 -0.45593999997E+02  0.45594000000E+02  0.51100000000E-03 0. -1.
    9900012    2    1    2    0    0 -0.31654179391E+02 -0.19625046507E+02  0.22282137922E+02  0.47787271968E+02  0.20000004212E+02 0.  0.
         12    1    1    2    0    0  0.31654179391E+02  0.19625046507E+02 -0.22282137922E+02  0.43400728032E+02  0.00000000000E+00 0. -1.
         11    1    3    3    0    0 -0.11610751336E+02 -0.70547421696E+01  0.16549350372E+02  0.21411677461E+02  0.51100000000E-03 0. -1.
        -11    1    3    3    0    0 -0.17504127827E+02 -0.13847187160E+02  0.68118494479E+01  0.23335388927E+02  0.51100000000E-03 0.  1.
         12    1    3    3    0    0 -0.25393002278E+01  0.12768828227E+01 -0.10790618986E+01  0.30402055803E+01  0.00000000000E+00 0. -1.
</event>
<event>
 7    1  0.2412036E-009  0.4778727E+02  0.7816164E-02  0.1312668E+00
        -11   -1    0    0    0    0  0.00000000000E+00  0.00000000000E+00  0.45593999997E+02  0.45594000000E+02  0.51100000000E-03 0.  1.
         11   -1    0    0    0    0 -0.00000000000E+00 -0.00000000000E+00 -0.45593999997E+02  0.45594000000E+02  0.51100000000E-03 0. -1.
    9900012    2    1    2    0    0 -0.73932739029E+01  0.42213151049E+02 -0.68566084396E+01  0.47787266137E+02  0.19999977627E+02 0.  0.
         12    1    1    2    0    0  0.73932739029E+01 -0.42213151049E+02  0.68566084396E+01  0.43400733863E+02  0.00000000000E+00 0. -1.
         11    1    3    3    0    0 -0.99693547629E+01  0.10749185443E+02 -0.21110653019E+01  0.14811806745E+02  0.51100000000E-03 0. -1.
        -11    1    3    3    0    0  0.41981753973E+01  0.28176389951E+02 -0.59779224338E+01  0.29107888694E+02  0.51100000000E-03 0.  1.
        -12    1    3    3    0    0 -0.16220945374E+01  0.32875756559E+01  0.12323792961E+01  0.38675706989E+01  0.00000000000E+00 0.  1.
</event>
<event>
 7    1  0.2412036E-009  0.4778727E+02  0.7816164E-02  0.1312668E+00
        -11   -1    0    0    0    0  0.00000000000E+00  0.00000000000E+00  0.45593999997E+02  0.45594000000E+02  0.51100000000E-03 0.  1.
         11   -1    0    0    0    0 -0.00000000000E+00 -0.00000000000E+00 -0.45593999997E+02  0.45594000000E+02  0.51100000000E-03 0. -1.
    9900012    2    1    2    0    0  0.87152442327E+01  0.11016104881E+02  0.41064744351E+02  0.47787271004E+02  0.19999999816E+02 0.  0.
         12    1    1    2    0    0 -0.87152442327E+01 -0.11016104881E+02 -0.41064744351E+02  0.43400728996E+02  0.00000000000E+00 0. -1.
         11    1    3    3    0    0 -0.36081019843E+01  0.22332940150E+01  0.17723922011E+02  0.18224802160E+02  0.51100000000E-03 0. -1.
        -11    1    3    3    0    0  0.23374595378E+01 -0.42144877357E+00  0.10863544761E+02  0.11120159225E+02  0.51100000000E-03 0.  1.
         12    1    3    3    0    0  0.99858866792E+01  0.92042596397E+01  0.12477277579E+02  0.18442309619E+02  0.00000000000E+00 0. -1.
</event>
<event>
 7    1  0.2412036E-009  0.4778727E+02  0.7816164E-02  0.1312668E+00
        -11   -1    0    0    0    0  0.00000000000E+00  0.00000000000E+00  0.45593999997E+02  0.45594000000E+02  0.51100000000E-03 0.  1.
         11   -1    0    0    0    0 -0.00000000000E+00 -0.00000000000E+00 -0.45593999997E+02  0.45594000000E+02  0.51100000000E-03 0. -1.
    9900012    2    1    2    0    0 -0.12022620816E+02  0.40801823986E+02 -0.86192308605E+01  0.47787269678E+02  0.19999993768E+02 0.  0.
         12    1    1    2    0    0  0.12022620816E+02 -0.40801823986E+02  0.86192308605E+01  0.43400730322E+02  0.00000000000E+00 0. -1.
         11    1    3    3    0    0 -0.65017582281E+01  0.13398753276E+02 -0.70432782899E+00  0.14909578376E+02  0.51100000000E-03 0. -1.
        -11    1    3    3    0    0 -0.34928595344E+01  0.16387773354E+02  0.32442491048E+01  0.17067054103E+02  0.51100000000E-03 0.  1.
        -12    1    3    3    0    0 -0.20280030535E+01  0.11015297356E+02 -0.11159152136E+02  0.15810637199E+02  0.00000000000E+00 0.  1.
</event>
<event>
 7    1  0.2412036E-009  0.4778727E+02  0.7816164E-02  0.1312668E+00
        -11   -1    0    0    0    0  0.00000000000E+00  0.00000000000E+00  0.45593999997E+02  0.45594000000E+02  0.51100000000E-03 0. -1.
         11   -1    0    0    0    0 -0.00000000000E+00 -0.00000000000E+00 -0.45593999997E+02  0.45594000000E+02  0.51100000000E-03 0.  1.
    9900012    2    1    2    0    0 -0.43111162260E+02 -0.34061948044E+01 -0.36672412654E+01  0.47787272668E+02  0.20000007403E+02 0.  0.
         12    1    1    2    0    0  0.43111162260E+02  0.34061948044E+01  0.36672412654E+01  0.43400727332E+02  0.00000000000E+00 0. -1.
         11    1    3    3    0    0  0.12011539769E+00  0.37302904914E+01 -0.95224397613E+00  0.38517870801E+01  0.51100000000E-03 0. -1.
        -11    1    3    3    0    0 -0.22231315760E+02 -0.27999008432E+01 -0.12037648741E+01  0.22439248991E+02  0.51100000000E-03 0.  1.
         12    1    3    3    0    0 -0.20999961898E+02 -0.43365844526E+01 -0.15112324152E+01  0.21496236597E+02  0.00000000000E+00 0. -1.
</event>
<event>
 7    1  0.2412036E-009  0.4778727E+02  0.7816164E-02  0.1312668E+00
        -11   -1    0    0    0    0  0.00000000000E+00  0.00000000000E+00  0.45593999997E+02  0.45594000000E+02  0.51100000000E-03 0.  1.
         11   -1    0    0    0    0 -0.00000000000E+00 -0.00000000000E+00 -0.45593999997E+02  0.45594000000E+02  0.51100000000E-03 0. -1.
    9900012    2    1    2    0    0  0.37245352796E+02  0.14759429338E+02  0.16690308937E+02  0.47787268765E+02  0.19999989608E+02 0.  0.
         12    1    1    2    0    0 -0.37245352796E+02 -0.14759429338E+02 -0.16690308937E+02  0.43400731235E+02  0.00000000000E+00 0. -1.
         11    1    3    3    0    0 -0.12104985419E+01  0.46242339408E+01  0.33093228473E+01  0.58138166662E+01  0.51100000000E-03 0. -1.
        -11    1    3    3    0    0  0.25555091045E+02  0.66169203907E+01  0.83607602836E+01  0.27690226192E+02  0.51100000000E-03 0.  1.
         12    1    3    3    0    0  0.12900760293E+02  0.35182750067E+01  0.50202258061E+01  0.14283225907E+02  0.00000000000E+00 0. -1.
</event>
<event>
 7    1  0.2412036E-009  0.4778727E+02  0.7816164E-02  0.1312668E+00
        -11   -1    0    0    0    0  0.00000000000E+00  0.00000000000E+00  0.45593999997E+02  0.45594000000E+02  0.51100000000E-03 0. -1.
         11   -1    0    0    0    0 -0.00000000000E+00 -0.00000000000E+00 -0.45593999997E+02  0.45594000000E+02  0.51100000000E-03 0.  1.
    9900012    2    1    2    0    0  0.42159518897E+02  0.11676321245E+01 -0.10238886876E+02  0.47787271863E+02  0.20000003731E+02 0.  0.
         12    1    1    2    0    0 -0.42159518897E+02 -0.11676321245E+01  0.10238886876E+02  0.43400728137E+02  0.00000000000E+00 0. -1.
         11    1    3    3    0    0  0.22540148082E+02  0.20588573646E+01  0.17893215423E+01  0.22704599557E+02  0.51100000000E-03 0. -1.
        -11    1    3    3    0    0  0.12266686384E+02  0.88810852609E-01 -0.12672259830E+02  0.17637053373E+02  0.51100000000E-03 0.  1.
        -12    1    3    3    0    0  0.73526844307E+01 -0.98003609271E+00  0.64405141100E+00  0.74456189333E+01  0.00000000000E+00 0.  1.
</event>
<event>
 7    1  0.2412036E-009  0.4778727E+02  0.7816164E-02  0.1312668E+00
        -11   -1    0    0    0    0  0.00000000000E+00  0.00000000000E+00  0.45593999997E+02  0.45594000000E+02  0.51100000000E-03 0.  1.
         11   -1    0    0    0    0 -0.00000000000E+00 -0.00000000000E+00 -0.45593999997E+02  0.45594000000E+02  0.51100000000E-03 0. -1.
    9900012    2    1    2    0    0 -0.33410272903E+02  0.89134317614E+01 -0.26228372076E+02  0.47787273013E+02  0.20000008976E+02 0.  0.
         12    1    1    2    0    0  0.33410272903E+02 -0.89134317614E+01  0.26228372076E+02  0.43400726987E+02  0.00000000000E+00 0. -1.
         11    1    3    3    0    0 -0.10333932035E+02 -0.12098552818E+01  0.52703053533E+00  0.10417853068E+02  0.51100000000E-03 0. -1.
        -11    1    3    3    0    0 -0.12980410066E+02  0.20326190943E+01 -0.14055194411E+02  0.19239830458E+02  0.51100000000E-03 0.  1.
         12    1    3    3    0    0 -0.10095930802E+02  0.80906679489E+01 -0.12700208200E+02  0.18129589486E+02  0.00000000000E+00 0. -1.
</event>
<event>
 7    1  0.2412036E-009  0.4778728E+02  0.7816164E-02  0.1312668E+00
        -11   -1    0    0    0    0  0.00000000000E+00  0.00000000000E+00  0.45593999997E+02  0.45594000000E+02  0.51100000000E-03 0.  1.
         11   -1    0    0    0    0 -0.00000000000E+00 -0.00000000000E+00 -0.45593999997E+02  0.45594000000E+02  0.51100000000E-03 0. -1.
    9900012    2    1    2    0    0  0.15074115710E+02  0.35479695499E+02  0.19939526822E+02  0.47787280109E+02  0.20000041331E+02 0.  0.
         12    1    1    2    0    0 -0.15074115710E+02 -0.35479695499E+02 -0.19939526822E+02  0.43400719891E+02  0.00000000000E+00 0. -1.
         11    1    3    3    0    0  0.29473821001E+01  0.22595960638E+02  0.80070017898E+01  0.24153189776E+02  0.51100000000E-03 0. -1.
        -11    1    3    3    0    0  0.13015044350E+01  0.73369826120E+01  0.78010608438E+01  0.10788038663E+02  0.51100000000E-03 0.  1.
         12    1    3    3    0    0  0.10825229175E+02  0.55467522488E+01  0.41314641881E+01  0.12846051671E+02  0.00000000000E+00 0. -1.
</event>
<event>
 7    1  0.2412036E-009  0.4778729E+02  0.7816164E-02  0.1312668E+00
        -11   -1    0    0    0    0  0.00000000000E+00  0.00000000000E+00  0.45593999997E+02  0.45594000000E+02  0.51100000000E-03 0.  1.
         11   -1    0    0    0    0 -0.00000000000E+00 -0.00000000000E+00 -0.45593999997E+02  0.45594000000E+02  0.51100000000E-03 0. -1.
    9900012    2    1    2    0    0 -0.10754607081E+02  0.41865001334E+02  0.39092359719E+01  0.47787285305E+02  0.20000065021E+02 0.  0.
         12    1    1    2    0    0  0.10754607081E+02 -0.41865001334E+02 -0.39092359719E+01  0.43400714695E+02  0.00000000000E+00 0. -1.
         11    1    3    3    0    0 -0.11196031475E+02  0.20092067027E+02 -0.59701695788E+01  0.23763105926E+02  0.51100000000E-03 0. -1.
        -11    1    3    3    0    0  0.12417469584E+01  0.90764037074E+01  0.45921057758E+01  0.10247461905E+02  0.51100000000E-03 0.  1.
         12    1    3    3    0    0 -0.80032256512E+00  0.12696530599E+02  0.52872997749E+01  0.13776717474E+02  0.00000000000E+00 0. -1.
</event>
<event>
 7    1  0.2412036E-009  0.4778727E+02  0.7816164E-02  0.1312668E+00
        -11   -1    0    0    0    0  0.00000000000E+00  0.00000000000E+00  0.45593999997E+02  0.45594000000E+02  0.51100000000E-03 0. -1.
         11   -1    0    0    0    0 -0.00000000000E+00 -0.00000000000E+00 -0.45593999997E+02  0.45594000000E+02  0.51100000000E-03 0.  1.
    9900012    2    1    2    0    0  0.30839286475E+02  0.29330059566E+02  0.85034897744E+01  0.47787270482E+02  0.19999997434E+02 0.  0.
         12    1    1    2    0    0 -0.30839286475E+02 -0.29330059566E+02 -0.85034897744E+01  0.43400729518E+02  0.00000000000E+00 0. -1.
         11    1    3    3    0    0  0.52759446098E+01  0.80400617000E+01  0.50118215450E+01  0.10844193798E+02  0.51100000000E-03 0. -1.
        -11    1    3    3    0    0  0.18360058175E+02  0.56307836619E+01  0.43298708604E+01  0.19686168819E+02  0.51100000000E-03 0.  1.
        -12    1    3    3    0    0  0.72032836892E+01  0.15659214204E+02 -0.83820263111E+00  0.17256907864E+02  0.00000000000E+00 0.  1.
</event>
<event>
 7    1  0.2412036E-009  0.4778727E+02  0.7816164E-02  0.1312668E+00
        -11   -1    0    0    0    0  0.00000000000E+00  0.00000000000E+00  0.45593999997E+02  0.45594000000E+02  0.51100000000E-03 0.  1.
         11   -1    0    0    0    0 -0.00000000000E+00 -0.00000000000E+00 -0.45593999997E+02  0.45594000000E+02  0.51100000000E-03 0. -1.
    9900012    2    1    2    0    0 -0.14567107625E+02 -0.32405693497E+00  0.40881754598E+02  0.47787268480E+02  0.19999988308E+02 0.  0.
         12    1    1    2    0    0  0.14567107625E+02  0.32405693497E+00 -0.40881754598E+02  0.43400731520E+02  0.00000000000E+00 0. -1.
         11    1    3    3    0    0 -0.10257498249E+02 -0.33018213392E+01  0.71116432903E+01  0.12910993960E+02  0.51100000000E-03 0. -1.
        -11    1    3    3    0    0 -0.37165241754E+01  0.50995177824E+01  0.21377099260E+02  0.22288966028E+02  0.51100000000E-03 0.  1.
         12    1    3    3    0    0 -0.59308520000E+00 -0.21217533781E+01  0.12393012048E+02  0.12587308492E+02  0.00000000000E+00 0. -1.
</event>
<event>
 7    1  0.2412036E-009  0.4778727E+02  0.7816164E-02  0.1312668E+00
        -11   -1    0    0    0    0  0.00000000000E+00  0.00000000000E+00  0.45593999997E+02  0.45594000000E+02  0.51100000000E-03 0.  1.
         11   -1    0    0    0    0 -0.00000000000E+00 -0.00000000000E+00 -0.45593999997E+02  0.45594000000E+02  0.51100000000E-03 0. -1.
    9900012    2    1    2    0    0  0.15848468583E+02 -0.40309313841E+02 -0.27583687253E+01  0.47787270320E+02  0.19999996697E+02 0.  0.
         12    1    1    2    0    0 -0.15848468583E+02  0.40309313841E+02  0.27583687253E+01  0.43400729680E+02  0.00000000000E+00 0. -1.
         11    1    3    3    0    0  0.62070731477E+01 -0.54852249100E+01  0.48162860008E+01  0.95818610132E+01  0.51100000000E-03 0.  1.
        -11    1    3    3    0    0 -0.25589311257E+00 -0.16959612072E-01  0.98674187441E+00  0.10195237620E+01  0.51100000000E-03 0. -1.
         12    1    3    3    0    0  0.98972885475E+01 -0.34807129319E+02 -0.85613966005E+01  0.37185885545E+02  0.00000000000E+00 0. -1.
</event>
<event>
 7    1  0.2412036E-009  0.4778727E+02  0.7816164E-02  0.1312668E+00
        -11   -1    0    0    0    0  0.00000000000E+00  0.00000000000E+00  0.45593999997E+02  0.45594000000E+02  0.51100000000E-03 0. -1.
         11   -1    0    0    0    0 -0.00000000000E+00 -0.00000000000E+00 -0.45593999997E+02  0.45594000000E+02  0.51100000000E-03 0.  1.
    9900012    2    1    2    0    0 -0.89697680137E+01  0.40368318585E+02 -0.13174423745E+02  0.47787270460E+02  0.19999997337E+02 0.  0.
         12    1    1    2    0    0  0.89697680137E+01 -0.40368318585E+02  0.13174423745E+02  0.43400729540E+02  0.00000000000E+00 0. -1.
         11    1    3    3    0    0  0.16150430116E+01  0.76805229468E+01 -0.94618180483E+00  0.79053182690E+01  0.51100000000E-03 0. -1.
        -11    1    3    3    0    0 -0.30651966700E+01  0.31072964438E+00  0.20558617973E+01  0.37038563050E+01  0.51100000000E-03 0.  1.
        -12    1    3    3    0    0 -0.75196143553E+01  0.32377065993E+02 -0.14284103737E+02  0.36178095886E+02  0.00000000000E+00 0.  1.
</event>
<event>
 7    1  0.2412036E-009  0.4778727E+02  0.7816164E-02  0.1312668E+00
        -11   -1    0    0    0    0  0.00000000000E+00  0.00000000000E+00  0.45593999997E+02  0.45594000000E+02  0.51100000000E-03 0. -1.
         11   -1    0    0    0    0 -0.00000000000E+00 -0.00000000000E+00 -0.45593999997E+02  0.45594000000E+02  0.51100000000E-03 0.  1.
    9900012    2    1    2    0    0 -0.87978202296E+00 -0.34203748836E+02 -0.26701175967E+02  0.47787271333E+02  0.20000001314E+02 0.  0.
         12    1    1    2    0    0  0.87978202296E+00  0.34203748836E+02  0.26701175967E+02  0.43400728667E+02  0.00000000000E+00 0. -1.
         11    1    3    3    0    0  0.53809297374E+01 -0.18920704079E+02 -0.15109045251E+02  0.24803844387E+02  0.51100000000E-03 0. -1.
        -11    1    3    3    0    0 -0.17555474163E+01 -0.14677284378E+02 -0.10942837497E+02  0.18391582754E+02  0.51100000000E-03 0.  1.
         12    1    3    3    0    0 -0.45051643441E+01 -0.60576037921E+00 -0.64929321826E+00  0.45918441924E+01  0.00000000000E+00 0. -1.
</event>
<event>
 7    1  0.2412036E-009  0.4778727E+02  0.7816164E-02  0.1312668E+00
        -11   -1    0    0    0    0  0.00000000000E+00  0.00000000000E+00  0.45593999997E+02  0.45594000000E+02  0.51100000000E-03 0.  1.
         11   -1    0    0    0    0 -0.00000000000E+00 -0.00000000000E+00 -0.45593999997E+02  0.45594000000E+02  0.51100000000E-03 0. -1.
    9900012    2    1    2    0    0  0.15211173126E+02  0.20580160371E+02  0.35052824952E+02  0.47787270445E+02  0.19999997266E+02 0.  0.
         12    1    1    2    0    0 -0.15211173126E+02 -0.20580160371E+02 -0.35052824952E+02  0.43400729555E+02  0.00000000000E+00 0. -1.
         11    1    3    3    0    0  0.19751186515E+01  0.61435702098E+01 -0.46358043929E+00  0.64698883835E+01  0.51100000000E-03 0. -1.
        -11    1    3    3    0    0  0.13954225653E+02  0.11500626239E+02  0.30059467856E+02  0.35079287699E+02  0.51100000000E-03 0.  1.
        -12    1    3    3    0    0 -0.71817117887E+00  0.29359639223E+01  0.54569375362E+01  0.62380943620E+01  0.00000000000E+00 0.  1.
</event>
<event>
 7    1  0.2412036E-009  0.4778727E+02  0.7816164E-02  0.1312668E+00
        -11   -1    0    0    0    0  0.00000000000E+00  0.00000000000E+00  0.45593999997E+02  0.45594000000E+02  0.51100000000E-03 0.  1.
         11   -1    0    0    0    0 -0.00000000000E+00 -0.00000000000E+00 -0.45593999997E+02  0.45594000000E+02  0.51100000000E-03 0. -1.
    9900012    2    1    2    0    0 -0.36207475904E+02  0.20182473175E+02  0.12857279454E+02  0.47787272244E+02  0.20000005470E+02 0.  0.
         12    1    1    2    0    0  0.36207475904E+02 -0.20182473175E+02 -0.12857279454E+02  0.43400727756E+02  0.00000000000E+00 0. -1.
         11    1    3    3    0    0 -0.15515633067E+02 -0.12733348730E+01  0.12632231531E+01  0.15618962327E+02  0.51100000000E-03 0. -1.
        -11    1    3    3    0    0 -0.15567696689E+02  0.17772298724E+02  0.10025971197E+02  0.25665694630E+02  0.51100000000E-03 0.  1.
         12    1    3    3    0    0 -0.51241461472E+01  0.36835093238E+01  0.15680851039E+01  0.65026152869E+01  0.00000000000E+00 0. -1.
</event>
<event>
 7    1  0.2412036E-009  0.4778727E+02  0.7816164E-02  0.1312668E+00
        -11   -1    0    0    0    0  0.00000000000E+00  0.00000000000E+00  0.45593999997E+02  0.45594000000E+02  0.51100000000E-03 0.  1.
         11   -1    0    0    0    0 -0.00000000000E+00 -0.00000000000E+00 -0.45593999997E+02  0.45594000000E+02  0.51100000000E-03 0. -1.
    9900012    2    1    2    0    0  0.29208538371E+02 -0.14080208521E+02  0.28848437523E+02  0.47787270360E+02  0.19999996879E+02 0.  0.
         12    1    1    2    0    0 -0.29208538371E+02  0.14080208521E+02 -0.28848437523E+02  0.43400729640E+02  0.00000000000E+00 0. -1.
         11    1    3    3    0    0  0.20572713331E+02 -0.20170149779E+01  0.18103107414E+02  0.27477761582E+02  0.51100000000E-03 0.  1.
        -11    1    3    3    0    0 -0.93288983969E+00 -0.30555615270E+01 -0.20835796186E+00  0.32015860131E+01  0.51100000000E-03 0. -1.
         12    1    3    3    0    0  0.95687148798E+01 -0.90076320164E+01  0.10953688070E+02  0.17107922765E+02  0.00000000000E+00 0. -1.
</event>
<event>
 7    1  0.2412036E-009  0.4778729E+02  0.7816164E-02  0.1312668E+00
        -11   -1    0    0    0    0  0.00000000000E+00  0.00000000000E+00  0.45593999997E+02  0.45594000000E+02  0.51100000000E-03 0. -1.
         11   -1    0    0    0    0 -0.00000000000E+00 -0.00000000000E+00 -0.45593999997E+02  0.45594000000E+02  0.51100000000E-03 0.  1.
    9900012    2    1    2    0    0 -0.19103048817E+02 -0.26367598654E+02 -0.28695727923E+02  0.47787291090E+02  0.20000091395E+02 0.  0.
         12    1    1    2    0    0  0.19103048817E+02  0.26367598654E+02  0.28695727923E+02  0.43400708910E+02  0.00000000000E+00 0. -1.
         11    1    3    3    0    0 -0.10575458330E+02 -0.11043598528E+02 -0.21006229125E+02  0.25981975476E+02  0.51100000000E-03 0. -1.
        -11    1    3    3    0    0 -0.84339894299E+01 -0.12348696562E+02 -0.16154044188E+01  0.15041011143E+02  0.51100000000E-03 0.  1.
        -12    1    3    3    0    0 -0.93601057719E-01 -0.29753035635E+01 -0.60740943790E+01  0.67643044711E+01  0.00000000000E+00 0.  1.
</event>
<event>
 7    1  0.2412036E-009  0.4778727E+02  0.7816164E-02  0.1312668E+00
        -11   -1    0    0    0    0  0.00000000000E+00  0.00000000000E+00  0.45593999997E+02  0.45594000000E+02  0.51100000000E-03 0.  1.
         11   -1    0    0    0    0 -0.00000000000E+00 -0.00000000000E+00 -0.45593999997E+02  0.45594000000E+02  0.51100000000E-03 0. -1.
    9900012    2    1    2    0    0 -0.15940941933E+01  0.41054876111E+01  0.43176701197E+02  0.47787266238E+02  0.19999978085E+02 0.  0.
         12    1    1    2    0    0  0.15940941933E+01 -0.41054876111E+01 -0.43176701197E+02  0.43400733762E+02  0.00000000000E+00 0. -1.
         11    1    3    3    0    0 -0.55759089144E+01  0.40793203822E+01  0.60983542167E+01  0.92152883523E+01  0.51100000000E-03 0. -1.
        -11    1    3    3    0    0 -0.12295179497E+01  0.26440316908E+01  0.38176011733E+01  0.48038210781E+01  0.51100000000E-03 0.  1.
         12    1    3    3    0    0  0.52113326708E+01 -0.26178644618E+01  0.33260745807E+02  0.33768156808E+02  0.00000000000E+00 0. -1.
</event>
<event>
 7    1  0.2412036E-009  0.4778727E+02  0.7816164E-02  0.1312668E+00
        -11   -1    0    0    0    0  0.00000000000E+00  0.00000000000E+00  0.45593999997E+02  0.45594000000E+02  0.51100000000E-03 0.  1.
         11   -1    0    0    0    0 -0.00000000000E+00 -0.00000000000E+00 -0.45593999997E+02  0.45594000000E+02  0.51100000000E-03 0. -1.
    9900012    2    1    2    0    0 -0.39523338712E+01  0.16648827006E+02  0.39885072681E+02  0.47787269517E+02  0.19999993037E+02 0.  0.
         12    1    1    2    0    0  0.39523338712E+01 -0.16648827006E+02 -0.39885072681E+02  0.43400730483E+02  0.00000000000E+00 0. -1.
         11    1    3    3    0    0  0.54878153759E+01 -0.12254670398E+01  0.11581648782E+02  0.12874489343E+02  0.51100000000E-03 0. -1.
        -11    1    3    3    0    0 -0.46483494101E+01  0.67061374204E+01  0.94897360076E+01  0.12515371393E+02  0.51100000000E-03 0.  1.
         12    1    3    3    0    0 -0.47917998371E+01  0.11168156625E+02  0.18813687891E+02  0.22397408782E+02  0.00000000000E+00 0. -1.
</event>
<event>
 7    1  0.2412036E-009  0.4778727E+02  0.7816164E-02  0.1312668E+00
        -11   -1    0    0    0    0  0.00000000000E+00  0.00000000000E+00  0.45593999997E+02  0.45594000000E+02  0.51100000000E-03 0.  1.
         11   -1    0    0    0    0 -0.00000000000E+00 -0.00000000000E+00 -0.45593999997E+02  0.45594000000E+02  0.51100000000E-03 0. -1.
    9900012    2    1    2    0    0 -0.81302521167E+00  0.29847950205E+02  0.31497015660E+02  0.47787272622E+02  0.20000007193E+02 0.  0.
         12    1    1    2    0    0  0.81302521167E+00 -0.29847950205E+02 -0.31497015660E+02  0.43400727378E+02  0.00000000000E+00 0. -1.
         11    1    3    3    0    0  0.21922160082E+00  0.59075068374E+01  0.10771073197E+02  0.12286688456E+02  0.51100000000E-03 0. -1.
        -11    1    3    3    0    0 -0.24219751645E+01 -0.99404082958E+00  0.59081345310E+01  0.64622081958E+01  0.51100000000E-03 0.  1.
        -12    1    3    3    0    0  0.13897283520E+01  0.24934484197E+02  0.14817807932E+02  0.29038375970E+02  0.00000000000E+00 0.  1.
</event>
<event>
 7    1  0.2412036E-009  0.4778727E+02  0.7816164E-02  0.1312668E+00
        -11   -1    0    0    0    0  0.00000000000E+00  0.00000000000E+00  0.45593999997E+02  0.45594000000E+02  0.51100000000E-03 0.  1.
         11   -1    0    0    0    0 -0.00000000000E+00 -0.00000000000E+00 -0.45593999997E+02  0.45594000000E+02  0.51100000000E-03 0. -1.
    9900012    2    1    2    0    0  0.23822394943E+02 -0.36126960560E+02  0.33104884717E+01  0.47787272886E+02  0.20000008396E+02 0.  0.
         12    1    1    2    0    0 -0.23822394943E+02  0.36126960560E+02 -0.33104884717E+01  0.43400727114E+02  0.00000000000E+00 0. -1.
         11    1    3    3    0    0  0.40811152349E+01  0.48964260551E+00  0.15056547606E+01  0.43774704980E+01  0.51100000000E-03 0. -1.
        -11    1    3    3    0    0  0.53788449059E+01 -0.20730035521E+02 -0.25099196115E+01  0.21563071254E+02  0.51100000000E-03 0.  1.
        -12    1    3    3    0    0  0.14362434802E+02 -0.15886567645E+02  0.43147533227E+01  0.21846731133E+02  0.00000000000E+00 0.  1.
</event>
<event>
 7    1  0.2412036E-009  0.4778725E+02  0.7816164E-02  0.1312668E+00
        -11   -1    0    0    0    0  0.00000000000E+00  0.00000000000E+00  0.45593999997E+02  0.45594000000E+02  0.51100000000E-03 0.  1.
         11   -1    0    0    0    0 -0.00000000000E+00 -0.00000000000E+00 -0.45593999997E+02  0.45594000000E+02  0.51100000000E-03 0. -1.
    9900012    2    1    2    0    0 -0.12840414718E+02 -0.37328133117E+02  0.18037708706E+02  0.47787254528E+02  0.19999924694E+02 0.  0.
         12    1    1    2    0    0  0.12840414718E+02  0.37328133117E+02 -0.18037708706E+02  0.43400745472E+02  0.00000000000E+00 0. -1.
         11    1    3    3    0    0  0.42454186984E+01 -0.13933781988E+02  0.27383753527E+01  0.14821354872E+02  0.51100000000E-03 0. -1.
        -11    1    3    3    0    0 -0.94609161248E+01 -0.12356119688E+02  0.10234227591E+02  0.18625843399E+02  0.51100000000E-03 0.  1.
         12    1    3    3    0    0 -0.76249172919E+01 -0.11038231442E+02  0.50651057623E+01  0.14340056257E+02  0.00000000000E+00 0. -1.
</event>
<event>
 7    1  0.2412036E-009  0.4778726E+02  0.7816164E-02  0.1312668E+00
        -11   -1    0    0    0    0  0.00000000000E+00  0.00000000000E+00  0.45593999997E+02  0.45594000000E+02  0.51100000000E-03 0.  1.
         11   -1    0    0    0    0 -0.00000000000E+00 -0.00000000000E+00 -0.45593999997E+02  0.45594000000E+02  0.51100000000E-03 0. -1.
    9900012    2    1    2    0    0 -0.15386556588E+02  0.19199389536E+02  0.35752778008E+02  0.47787264781E+02  0.19999971445E+02 0.  0.
         12    1    1    2    0    0  0.15386556588E+02 -0.19199389536E+02 -0.35752778008E+02  0.43400735219E+02  0.00000000000E+00 0. -1.
         11    1    3    3    0    0 -0.10546386523E+02  0.93540147398E+01  0.11429074661E+02  0.18147936751E+02  0.51100000000E-03 0. -1.
        -11    1    3    3    0    0 -0.57369619201E+01  0.80427048241E+01  0.25472543604E+02  0.27321206249E+02  0.51100000000E-03 0.  1.
        -12    1    3    3    0    0  0.89679185497E+00  0.18026699721E+01 -0.11488402568E+01  0.23181217818E+01  0.00000000000E+00 0.  1.
</event>
<event>
 7    1  0.2412036E-009  0.4778727E+02  0.7816164E-02  0.1312668E+00
        -11   -1    0    0    0    0  0.00000000000E+00  0.00000000000E+00  0.45593999997E+02  0.45594000000E+02  0.51100000000E-03 0.  1.
         11   -1    0    0    0    0 -0.00000000000E+00 -0.00000000000E+00 -0.45593999997E+02  0.45594000000E+02  0.51100000000E-03 0. -1.
    9900012    2    1    2    0    0 -0.10900755628E+02  0.26904770616E+02  0.32263453203E+02  0.47787267659E+02  0.19999984566E+02 0.  0.
         12    1    1    2    0    0  0.10900755628E+02 -0.26904770616E+02 -0.32263453203E+02  0.43400732341E+02  0.00000000000E+00 0. -1.
         11    1    3    3    0    0 -0.64209667897E+01  0.18547427672E+02  0.17853129105E+02  0.26532434997E+02  0.51100000000E-03 0. -1.
        -11    1    3    3    0    0  0.32172800535E+01  0.10264145018E+00  0.36939551606E+00  0.32400431352E+01  0.51100000000E-03 0.  1.
        -12    1    3    3    0    0 -0.76970688917E+01  0.82547014931E+01  0.14040928582E+02  0.18014789527E+02  0.00000000000E+00 0.  1.
</event>
<event>
 7    1  0.2412036E-009  0.4778727E+02  0.7816164E-02  0.1312668E+00
        -11   -1    0    0    0    0  0.00000000000E+00  0.00000000000E+00  0.45593999997E+02  0.45594000000E+02  0.51100000000E-03 0.  1.
         11   -1    0    0    0    0 -0.00000000000E+00 -0.00000000000E+00 -0.45593999997E+02  0.45594000000E+02  0.51100000000E-03 0. -1.
    9900012    2    1    2    0    0  0.11193928680E+02  0.11651926639E+02  0.40280909033E+02  0.47787273437E+02  0.20000010909E+02 0.  0.
         12    1    1    2    0    0 -0.11193928680E+02 -0.11651926639E+02 -0.40280909033E+02  0.43400726563E+02  0.00000000000E+00 0. -1.
         11    1    3    3    0    0 -0.25632043811E+01 -0.20259441034E+01  0.48657654576E+01  0.58608992449E+01  0.51100000000E-03 0. -1.
        -11    1    3    3    0    0  0.12922903199E+02  0.14618448901E+02  0.35656800486E+02  0.40646130154E+02  0.51100000000E-03 0.  1.
        -12    1    3    3    0    0  0.83422986224E+00 -0.94057815864E+00 -0.24165691053E+00  0.12802440384E+01  0.00000000000E+00 0.  1.
</event>
<event>
 7    1  0.2412036E-009  0.4778727E+02  0.7816164E-02  0.1312668E+00
        -11   -1    0    0    0    0  0.00000000000E+00  0.00000000000E+00  0.45593999997E+02  0.45594000000E+02  0.51100000000E-03 0. -1.
         11   -1    0    0    0    0 -0.00000000000E+00 -0.00000000000E+00 -0.45593999997E+02  0.45594000000E+02  0.51100000000E-03 0.  1.
    9900012    2    1    2    0    0  0.19639391737E+02  0.28153471304E+02 -0.26557479735E+02  0.47787269774E+02  0.19999994207E+02 0.  0.
         12    1    1    2    0    0 -0.19639391737E+02 -0.28153471304E+02  0.26557479735E+02  0.43400730226E+02  0.00000000000E+00 0. -1.
         11    1    3    3    0    0  0.11434603405E+02  0.13209111734E+02 -0.73003600544E+01  0.18934783997E+02  0.51100000000E-03 0. -1.
        -11    1    3    3    0    0  0.88718455575E+01  0.14931454827E+02 -0.10978773913E+02  0.20547298210E+02  0.51100000000E-03 0.  1.
         12    1    3    3    0    0 -0.66705722527E+00  0.12904743443E-01 -0.82783457674E+01  0.83051875668E+01  0.00000000000E+00 0. -1.
</event>
<event>
 7    1  0.2412036E-009  0.4778727E+02  0.7816164E-02  0.1312668E+00
        -11   -1    0    0    0    0  0.00000000000E+00  0.00000000000E+00  0.45593999997E+02  0.45594000000E+02  0.51100000000E-03 0. -1.
         11   -1    0    0    0    0 -0.00000000000E+00 -0.00000000000E+00 -0.45593999997E+02  0.45594000000E+02  0.51100000000E-03 0.  1.
    9900012    2    1    2    0    0 -0.71303717159E+01 -0.54823604610E+01 -0.42458505401E+02  0.47787272380E+02  0.20000006089E+02 0.  0.
         12    1    1    2    0    0  0.71303717159E+01  0.54823604610E+01  0.42458505401E+02  0.43400727620E+02  0.00000000000E+00 0. -1.
         11    1    3    3    0    0 -0.96920065064E+01  0.14816952558E+01 -0.18091093167E+02  0.20577124755E+02  0.51100000000E-03 0. -1.
        -11    1    3    3    0    0 -0.15661375615E+01 -0.65824010877E+01 -0.20318661020E+02  0.21415619927E+02  0.51100000000E-03 0.  1.
         12    1    3    3    0    0  0.41277723520E+01 -0.38165462909E+00 -0.40487512142E+01  0.57945276978E+01  0.00000000000E+00 0. -1.
</event>
<event>
 7    1  0.2412036E-009  0.4778728E+02  0.7816164E-02  0.1312668E+00
        -11   -1    0    0    0    0  0.00000000000E+00  0.00000000000E+00  0.45593999997E+02  0.45594000000E+02  0.51100000000E-03 0.  1.
         11   -1    0    0    0    0 -0.00000000000E+00 -0.00000000000E+00 -0.45593999997E+02  0.45594000000E+02  0.51100000000E-03 0. -1.
    9900012    2    1    2    0    0  0.31358176894E+02  0.14247591464E+02 -0.26406320576E+02  0.47787275502E+02  0.20000020323E+02 0.  0.
         12    1    1    2    0    0 -0.31358176894E+02 -0.14247591464E+02  0.26406320576E+02  0.43400724498E+02  0.00000000000E+00 0. -1.
         11    1    3    3    0    0  0.13856242707E+02  0.40964318241E+01 -0.22208105737E+02  0.26494833012E+02  0.51100000000E-03 0. -1.
        -11    1    3    3    0    0  0.17514170365E+02  0.10171367485E+02 -0.46987325130E+01  0.20791367622E+02  0.51100000000E-03 0.  1.
        -12    1    3    3    0    0 -0.12236177732E-01 -0.20207845629E-01  0.50051767451E+00  0.50107486822E+00  0.00000000000E+00 0.  1.
</event>
<event>
 7    1  0.2412036E-009  0.4778727E+02  0.7816164E-02  0.1312668E+00
        -11   -1    0    0    0    0  0.00000000000E+00  0.00000000000E+00  0.45593999997E+02  0.45594000000E+02  0.51100000000E-03 0.  1.
         11   -1    0    0    0    0 -0.00000000000E+00 -0.00000000000E+00 -0.45593999997E+02  0.45594000000E+02  0.51100000000E-03 0. -1.
    9900012    2    1    2    0    0 -0.32563498123E+01  0.42151635483E+02  0.98111658102E+01  0.47787272327E+02  0.20000005848E+02 0.  0.
         12    1    1    2    0    0  0.32563498123E+01 -0.42151635483E+02 -0.98111658102E+01  0.43400727673E+02  0.00000000000E+00 0. -1.
         11    1    3    3    0    0  0.10040487777E+01  0.26944689170E+01 -0.41642740246E+01  0.50605785347E+01  0.51100000000E-03 0. -1.
        -11    1    3    3    0    0 -0.44850644150E+01  0.10566164156E+02  0.43043548429E+01  0.12259163864E+02  0.51100000000E-03 0.  1.
         12    1    3    3    0    0  0.22466582498E+00  0.28891002411E+02  0.96710849918E+01  0.30467529928E+02  0.00000000000E+00 0. -1.
</event>
<event>
 7    1  0.2412036E-009  0.4778727E+02  0.7816164E-02  0.1312668E+00
        -11   -1    0    0    0    0  0.00000000000E+00  0.00000000000E+00  0.45593999997E+02  0.45594000000E+02  0.51100000000E-03 0.  1.
         11   -1    0    0    0    0 -0.00000000000E+00 -0.00000000000E+00 -0.45593999997E+02  0.45594000000E+02  0.51100000000E-03 0. -1.
    9900012    2    1    2    0    0  0.13811889821E+02  0.20313882964E+02  0.35779897265E+02  0.47787272013E+02  0.20000004416E+02 0.  0.
         12    1    1    2    0    0 -0.13811889821E+02 -0.20313882964E+02 -0.35779897265E+02  0.43400727987E+02  0.00000000000E+00 0. -1.
         11    1    3    3    0    0  0.18637214935E+01  0.50753190183E+01  0.25269073301E+01  0.59680467374E+01  0.51100000000E-03 0. -1.
        -11    1    3    3    0    0 -0.98087344612E+00  0.85528753740E+01  0.47932455695E+01  0.98533747128E+01  0.51100000000E-03 0.  1.
        -12    1    3    3    0    0  0.12929041774E+02  0.66856885712E+01  0.28459744365E+02  0.31965850563E+02  0.00000000000E+00 0.  1.
</event>
<event>
 7    1  0.2412036E-009  0.4778727E+02  0.7816164E-02  0.1312668E+00
        -11   -1    0    0    0    0  0.00000000000E+00  0.00000000000E+00  0.45593999997E+02  0.45594000000E+02  0.51100000000E-03 0. -1.
         11   -1    0    0    0    0 -0.00000000000E+00 -0.00000000000E+00 -0.45593999997E+02  0.45594000000E+02  0.51100000000E-03 0.  1.
    9900012    2    1    2    0    0  0.33703883079E+02  0.15643575102E+02 -0.22426545749E+02  0.47787272693E+02  0.20000007516E+02 0.  0.
         12    1    1    2    0    0 -0.33703883079E+02 -0.15643575102E+02  0.22426545749E+02  0.43400727307E+02  0.00000000000E+00 0. -1.
         11    1    3    3    0    0  0.15617442446E+02  0.78507291939E+01 -0.20106903835E+02  0.26642560679E+02  0.51100000000E-03 0. -1.
        -11    1    3    3    0    0  0.18192237709E+02  0.86559227998E+01 -0.21819085085E+01  0.20264334122E+02  0.51100000000E-03 0.  1.
         12    1    3    3    0    0 -0.10579707677E+00 -0.86307689188E+00 -0.13773340598E+00  0.88037789265E+00  0.00000000000E+00 0. -1.
</event>
<event>
 7    1  0.2412036E-009  0.4778728E+02  0.7816164E-02  0.1312668E+00
        -11   -1    0    0    0    0  0.00000000000E+00  0.00000000000E+00  0.45593999997E+02  0.45594000000E+02  0.51100000000E-03 0.  1.
         11   -1    0    0    0    0 -0.00000000000E+00 -0.00000000000E+00 -0.45593999997E+02  0.45594000000E+02  0.51100000000E-03 0. -1.
    9900012    2    1    2    0    0  0.33690021984E+02  0.22338689736E+00  0.27359734255E+02  0.47787279482E+02  0.20000038469E+02 0.  0.
         12    1    1    2    0    0 -0.33690021984E+02 -0.22338689736E+00 -0.27359734255E+02  0.43400720518E+02  0.00000000000E+00 0. -1.
         11    1    3    3    0    0  0.60766581507E+01  0.51806187423E+01  0.11238783307E+02  0.13786763047E+02  0.51100000000E-03 0. -1.
        -11    1    3    3    0    0  0.14275064883E+02 -0.40619189536E+01  0.27525547490E+01  0.15094807746E+02  0.51100000000E-03 0.  1.
        -12    1    3    3    0    0  0.13338298951E+02 -0.89531289134E+00  0.13368396199E+02  0.18905708688E+02  0.00000000000E+00 0.  1.
</event>
<event>
 7    1  0.2412036E-009  0.4778727E+02  0.7816164E-02  0.1312668E+00
        -11   -1    0    0    0    0  0.00000000000E+00  0.00000000000E+00  0.45593999997E+02  0.45594000000E+02  0.51100000000E-03 0.  1.
         11   -1    0    0    0    0 -0.00000000000E+00 -0.00000000000E+00 -0.45593999997E+02  0.45594000000E+02  0.51100000000E-03 0. -1.
    9900012    2    1    2    0    0  0.14966518938E+02  0.13795287906E+02  0.38331665173E+02  0.47787271752E+02  0.20000003225E+02 0.  0.
         12    1    1    2    0    0 -0.14966518938E+02 -0.13795287906E+02 -0.38331665173E+02  0.43400728248E+02  0.00000000000E+00 0. -1.
         11    1    3    3    0    0 -0.89008096133E+00  0.72015587450E+00  0.16394386455E+01  0.19996569543E+01  0.51100000000E-03 0. -1.
        -11    1    3    3    0    0 -0.41237223659E+00 -0.99011451688E+00 -0.15665918210E+01  0.18985752060E+01  0.51100000000E-03 0.  1.
        -12    1    3    3    0    0  0.16268972136E+02  0.14065246548E+02  0.38258818349E+02  0.43889039591E+02  0.00000000000E+00 0.  1.
</event>
<event>
 7    1  0.2412036E-009  0.4778728E+02  0.7816164E-02  0.1312668E+00
        -11   -1    0    0    0    0  0.00000000000E+00  0.00000000000E+00  0.45593999997E+02  0.45594000000E+02  0.51100000000E-03 0. -1.
         11   -1    0    0    0    0 -0.00000000000E+00 -0.00000000000E+00 -0.45593999997E+02  0.45594000000E+02  0.51100000000E-03 0.  1.
    9900012    2    1    2    0    0 -0.25878193910E+02  0.15576681591E+02 -0.31165822125E+02  0.47787281134E+02  0.20000046000E+02 0.  0.
         12    1    1    2    0    0  0.25878193910E+02 -0.15576681591E+02  0.31165822125E+02  0.43400718866E+02  0.00000000000E+00 0. -1.
         11    1    3    3    0    0 -0.96504139822E+01  0.10603011957E+02 -0.66460394350E+01  0.15802664112E+02  0.51100000000E-03 0. -1.
        -11    1    3    3    0    0 -0.13631898535E+02 -0.10383284058E+01 -0.19074594919E+02  0.23467998533E+02  0.51100000000E-03 0.  1.
        -12    1    3    3    0    0 -0.25958813928E+01  0.60119980399E+01 -0.54451877705E+01  0.85166184894E+01  0.00000000000E+00 0.  1.
</event>
<event>
 7    1  0.2412036E-009  0.4778727E+02  0.7816164E-02  0.1312668E+00
        -11   -1    0    0    0    0  0.00000000000E+00  0.00000000000E+00  0.45593999997E+02  0.45594000000E+02  0.51100000000E-03 0. -1.
         11   -1    0    0    0    0 -0.00000000000E+00 -0.00000000000E+00 -0.45593999997E+02  0.45594000000E+02  0.51100000000E-03 0.  1.
    9900012    2    1    2    0    0 -0.34296085047E+02  0.23367513906E+02 -0.12702796567E+02  0.47787271938E+02  0.20000004074E+02 0.  0.
         12    1    1    2    0    0  0.34296085047E+02 -0.23367513906E+02  0.12702796567E+02  0.43400728062E+02  0.00000000000E+00 0. -1.
         11    1    3    3    0    0 -0.10252862896E+02  0.86213004419E+01 -0.13435618865E+02  0.18972713918E+02  0.51100000000E-03 0. -1.
        -11    1    3    3    0    0 -0.22812311729E+02  0.14743341368E+02  0.17493627468E+01  0.27218154813E+02  0.51100000000E-03 0.  1.
        -12    1    3    3    0    0 -0.12309104220E+01  0.28720962845E-02 -0.10165404487E+01  0.15964032071E+01  0.00000000000E+00 0.  1.
</event>
<event>
 7    1  0.2412036E-009  0.4778726E+02  0.7816164E-02  0.1312668E+00
        -11   -1    0    0    0    0  0.00000000000E+00  0.00000000000E+00  0.45593999997E+02  0.45594000000E+02  0.51100000000E-03 0. -1.
         11   -1    0    0    0    0 -0.00000000000E+00 -0.00000000000E+00 -0.45593999997E+02  0.45594000000E+02  0.51100000000E-03 0.  1.
    9900012    2    1    2    0    0 -0.14595251183E+02  0.31257417097E+02 -0.26335842773E+02  0.47787261582E+02  0.19999956857E+02 0.  0.
         12    1    1    2    0    0  0.14595251183E+02 -0.31257417097E+02  0.26335842773E+02  0.43400738418E+02  0.00000000000E+00 0. -1.
         11    1    3    3    0    0 -0.11696272569E+02  0.16790251285E+02 -0.43383483454E+01  0.20917375477E+02  0.51100000000E-03 0. -1.
        -11    1    3    3    0    0 -0.27209997920E+01  0.73092232236E+01 -0.14731966614E+02  0.16669115890E+02  0.51100000000E-03 0.  1.
         12    1    3    3    0    0 -0.17797882172E+00  0.71579425886E+01 -0.72655278140E+01  0.10200770215E+02  0.00000000000E+00 0. -1.
</event>
<event>
 7    1  0.2412036E-009  0.4778727E+02  0.7816164E-02  0.1312668E+00
        -11   -1    0    0    0    0  0.00000000000E+00  0.00000000000E+00  0.45593999997E+02  0.45594000000E+02  0.51100000000E-03 0. -1.
         11   -1    0    0    0    0 -0.00000000000E+00 -0.00000000000E+00 -0.45593999997E+02  0.45594000000E+02  0.51100000000E-03 0.  1.
    9900012    2    1    2    0    0  0.32658436498E+02  0.83602994071E+00 -0.28571849585E+02  0.47787274093E+02  0.20000013900E+02 0.  0.
         12    1    1    2    0    0 -0.32658436498E+02 -0.83602994071E+00  0.28571849585E+02  0.43400725907E+02  0.00000000000E+00 0. -1.
         11    1    3    3    0    0  0.19259312713E+02  0.25392081403E+01 -0.13779859545E+02  0.23817078610E+02  0.51100000000E-03 0. -1.
        -11    1    3    3    0    0  0.15395087544E+02  0.80847704613E+00 -0.13567506370E+02  0.20536299203E+02  0.51100000000E-03 0.  1.
         12    1    3    3    0    0 -0.19959637592E+01 -0.25116552458E+01 -0.12244836695E+01  0.34338962795E+01  0.00000000000E+00 0. -1.
</event>
<event>
 7    1  0.2412036E-009  0.4778727E+02  0.7816164E-02  0.1312668E+00
        -11   -1    0    0    0    0  0.00000000000E+00  0.00000000000E+00  0.45593999997E+02  0.45594000000E+02  0.51100000000E-03 0.  1.
         11   -1    0    0    0    0 -0.00000000000E+00 -0.00000000000E+00 -0.45593999997E+02  0.45594000000E+02  0.51100000000E-03 0. -1.
    9900012    2    1    2    0    0  0.22245996023E+02 -0.25152016071E+02  0.27497542683E+02  0.47787272989E+02  0.20000008865E+02 0.  0.
         12    1    1    2    0    0 -0.22245996023E+02  0.25152016071E+02 -0.27497542683E+02  0.43400727011E+02  0.00000000000E+00 0. -1.
         11    1    3    3    0    0  0.24814086760E+01  0.18346163768E+00  0.11124589246E+02  0.11399453203E+02  0.51100000000E-03 0. -1.
        -11    1    3    3    0    0  0.11728512293E+02 -0.14020181762E+02  0.66882446388E+01  0.19464226516E+02  0.51100000000E-03 0.  1.
         12    1    3    3    0    0  0.80360750536E+01 -0.11315295947E+02  0.96847087987E+01  0.16923593270E+02  0.00000000000E+00 0. -1.
</event>
<event>
 7    1  0.2412036E-009  0.4778726E+02  0.7816164E-02  0.1312668E+00
        -11   -1    0    0    0    0  0.00000000000E+00  0.00000000000E+00  0.45593999997E+02  0.45594000000E+02  0.51100000000E-03 0.  1.
         11   -1    0    0    0    0 -0.00000000000E+00 -0.00000000000E+00 -0.45593999997E+02  0.45594000000E+02  0.51100000000E-03 0. -1.
    9900012    2    1    2    0    0  0.19586256036E+02 -0.38726989362E+02  0.47199676524E+00  0.47787263698E+02  0.19999966506E+02 0.  0.
         12    1    1    2    0    0 -0.19586256036E+02  0.38726989362E+02 -0.47199676524E+00  0.43400736302E+02  0.00000000000E+00 0. -1.
         11    1    3    3    0    0  0.77805180662E+01 -0.25309635988E+02 -0.49168286170E+01  0.26931196393E+02  0.51100000000E-03 0. -1.
        -11    1    3    3    0    0  0.98621253063E+01 -0.41866580272E+01  0.27750322185E+01  0.11067539251E+02  0.51100000000E-03 0.  1.
        -12    1    3    3    0    0  0.19436126639E+01 -0.92306953467E+01  0.26137931638E+01  0.97885280545E+01  0.00000000000E+00 0.  1.
</event>
<event>
 7    1  0.2412036E-009  0.4778727E+02  0.7816164E-02  0.1312668E+00
        -11   -1    0    0    0    0  0.00000000000E+00  0.00000000000E+00  0.45593999997E+02  0.45594000000E+02  0.51100000000E-03 0. -1.
         11   -1    0    0    0    0 -0.00000000000E+00 -0.00000000000E+00 -0.45593999997E+02  0.45594000000E+02  0.51100000000E-03 0.  1.
    9900012    2    1    2    0    0  0.11926647049E+01 -0.30449568854E+02 -0.30903471384E+02  0.47787271480E+02  0.20000001986E+02 0.  0.
         12    1    1    2    0    0 -0.11926647049E+01  0.30449568854E+02  0.30903471384E+02  0.43400728520E+02  0.00000000000E+00 0. -1.
         11    1    3    3    0    0 -0.25826201696E+01 -0.26673828966E+02 -0.16504664388E+02  0.31473274782E+02  0.51100000000E-03 0.  1.
        -11    1    3    3    0    0  0.26925442585E+00  0.12351369290E+01 -0.45371821267E+01  0.47099982050E+01  0.51100000000E-03 0. -1.
        -12    1    3    3    0    0  0.35060304487E+01 -0.50108768168E+01 -0.98616248687E+01  0.11603998493E+02  0.00000000000E+00 0.  1.
</event>
<event>
 7    1  0.2412036E-009  0.4778727E+02  0.7816164E-02  0.1312668E+00
        -11   -1    0    0    0    0  0.00000000000E+00  0.00000000000E+00  0.45593999997E+02  0.45594000000E+02  0.51100000000E-03 0. -1.
         11   -1    0    0    0    0 -0.00000000000E+00 -0.00000000000E+00 -0.45593999997E+02  0.45594000000E+02  0.51100000000E-03 0.  1.
    9900012    2    1    2    0    0 -0.29500611301E+02 -0.53989258488E+01 -0.31371781913E+02  0.47787272266E+02  0.20000005570E+02 0.  0.
         12    1    1    2    0    0  0.29500611301E+02  0.53989258488E+01  0.31371781913E+02  0.43400727734E+02  0.00000000000E+00 0. -1.
         11    1    3    3    0    0  0.21135109340E+01  0.94564756502E+00 -0.57279554237E+00  0.23852196502E+01  0.51100000000E-03 0. -1.
        -11    1    3    3    0    0 -0.20936476724E+02 -0.79710136827E+01 -0.22778908728E+02  0.31949206561E+02  0.51100000000E-03 0.  1.
        -12    1    3    3    0    0 -0.10677645510E+02  0.16264402689E+01 -0.80200776422E+01  0.13452846055E+02  0.00000000000E+00 0.  1.
</event>
<event>
 7    1  0.2412036E-009  0.4778726E+02  0.7816164E-02  0.1312668E+00
        -11   -1    0    0    0    0  0.00000000000E+00  0.00000000000E+00  0.45593999997E+02  0.45594000000E+02  0.51100000000E-03 0.  1.
         11   -1    0    0    0    0 -0.00000000000E+00 -0.00000000000E+00 -0.45593999997E+02  0.45594000000E+02  0.51100000000E-03 0. -1.
    9900012    2    1    2    0    0 -0.25233330432E+02 -0.33001765059E+02  0.12561308435E+02  0.47787263470E+02  0.19999965466E+02 0.  0.
         12    1    1    2    0    0  0.25233330432E+02  0.33001765059E+02 -0.12561308435E+02  0.43400736530E+02  0.00000000000E+00 0. -1.
         11    1    3    3    0    0 -0.19187993614E+02 -0.14209271197E+02  0.18282658129E+01  0.23946294975E+02  0.51100000000E-03 0. -1.
        -11    1    3    3    0    0 -0.79579373081E+01 -0.14757510408E+02  0.91681817302E+01  0.19109380842E+02  0.51100000000E-03 0.  1.
         12    1    3    3    0    0  0.19126004904E+01 -0.40349834537E+01  0.15648608921E+01  0.47315876532E+01  0.00000000000E+00 0. -1.
</event>
<event>
 7    1  0.2412036E-009  0.4778727E+02  0.7816164E-02  0.1312668E+00
        -11   -1    0    0    0    0  0.00000000000E+00  0.00000000000E+00  0.45593999997E+02  0.45594000000E+02  0.51100000000E-03 0. -1.
         11   -1    0    0    0    0 -0.00000000000E+00 -0.00000000000E+00 -0.45593999997E+02  0.45594000000E+02  0.51100000000E-03 0.  1.
    9900012    2    1    2    0    0 -0.33229120408E+02  0.23875755313E+01 -0.27816332141E+02  0.47787270815E+02  0.19999998954E+02 0.  0.
         12    1    1    2    0    0  0.33229120408E+02 -0.23875755313E+01  0.27816332141E+02  0.43400729185E+02  0.00000000000E+00 0. -1.
         11    1    3    3    0    0 -0.24643574531E+02  0.92445518510E+01 -0.16215022981E+02  0.30914308583E+02  0.51100000000E-03 0. -1.
        -11    1    3    3    0    0 -0.39325502508E+01 -0.48521026286E+01 -0.30909901433E+01  0.69686492034E+01  0.51100000000E-03 0.  1.
        -12    1    3    3    0    0 -0.46529956261E+01 -0.20048736910E+01 -0.85103190167E+01  0.99043130291E+01  0.00000000000E+00 0.  1.
</event>
<event>
 7    1  0.2412036E-009  0.4778727E+02  0.7816164E-02  0.1312668E+00
        -11   -1    0    0    0    0  0.00000000000E+00  0.00000000000E+00  0.45593999997E+02  0.45594000000E+02  0.51100000000E-03 0.  1.
         11   -1    0    0    0    0 -0.00000000000E+00 -0.00000000000E+00 -0.45593999997E+02  0.45594000000E+02  0.51100000000E-03 0. -1.
    9900012    2    1    2    0    0  0.29304738446E+02 -0.10795013799E+02  0.30138396704E+02  0.47787274497E+02  0.20000015743E+02 0.  0.
         12    1    1    2    0    0 -0.29304738446E+02  0.10795013799E+02 -0.30138396704E+02  0.43400725503E+02  0.00000000000E+00 0. -1.
         11    1    3    3    0    0 -0.16739114470E+00  0.64894948627E+00 -0.15315707594E+01  0.16717848197E+01  0.51100000000E-03 0. -1.
        -11    1    3    3    0    0  0.16466991588E+02 -0.14923832411E+01  0.20289475252E+02  0.26173494722E+02  0.51100000000E-03 0.  1.
         12    1    3    3    0    0  0.13005138002E+02 -0.99515800444E+01  0.11380492211E+02  0.19941994956E+02  0.00000000000E+00 0. -1.
</event>
<event>
 7    1  0.2412036E-009  0.4778726E+02  0.7816164E-02  0.1312668E+00
        -11   -1    0    0    0    0  0.00000000000E+00  0.00000000000E+00  0.45593999997E+02  0.45594000000E+02  0.51100000000E-03 0.  1.
         11   -1    0    0    0    0 -0.00000000000E+00 -0.00000000000E+00 -0.45593999997E+02  0.45594000000E+02  0.51100000000E-03 0. -1.
    9900012    2    1    2    0    0  0.22862355824E+02 -0.29997283140E+02 -0.21473232402E+02  0.47787262455E+02  0.19999960838E+02 0.  0.
         12    1    1    2    0    0 -0.22862355824E+02  0.29997283140E+02  0.21473232402E+02  0.43400737545E+02  0.00000000000E+00 0. -1.
         11    1    3    3    0    0 -0.16565688474E+01 -0.89612142210E+01 -0.36527150311E+01  0.98178362189E+01  0.51100000000E-03 0. -1.
        -11    1    3    3    0    0  0.20722065902E-01  0.18189448907E+00  0.64382538790E+00  0.66934774251E+00  0.51100000000E-03 0.  1.
         12    1    3    3    0    0  0.24498202606E+02 -0.21217963409E+02 -0.18464342759E+02  0.37300078494E+02  0.00000000000E+00 0. -1.
</event>
<event>
 7    1  0.2412036E-009  0.4778727E+02  0.7816164E-02  0.1312668E+00
        -11   -1    0    0    0    0  0.00000000000E+00  0.00000000000E+00  0.45593999997E+02  0.45594000000E+02  0.51100000000E-03 0.  1.
         11   -1    0    0    0    0 -0.00000000000E+00 -0.00000000000E+00 -0.45593999997E+02  0.45594000000E+02  0.51100000000E-03 0. -1.
    9900012    2    1    2    0    0 -0.30405066325E+02  0.23345176363E+02  0.20350869463E+02  0.47787271832E+02  0.20000003589E+02 0.  0.
         12    1    1    2    0    0  0.30405066325E+02 -0.23345176363E+02 -0.20350869463E+02  0.43400728168E+02  0.00000000000E+00 0. -1.
         11    1    3    3    0    0 -0.12222055930E+01  0.14320000846E+00  0.59783819316E+01  0.61037155516E+01  0.51100000000E-03 0. -1.
        -11    1    3    3    0    0 -0.18800919625E+02  0.21368923905E+02  0.11932010075E+02  0.30862248011E+02  0.51100000000E-03 0.  1.
        -12    1    3    3    0    0 -0.10381941107E+02  0.18330524492E+01  0.24404774558E+01  0.10821308269E+02  0.00000000000E+00 0.  1.
</event>
<event>
 7    1  0.2412036E-009  0.4778725E+02  0.7816164E-02  0.1312668E+00
        -11   -1    0    0    0    0  0.00000000000E+00  0.00000000000E+00  0.45593999997E+02  0.45594000000E+02  0.51100000000E-03 0. -1.
         11   -1    0    0    0    0 -0.00000000000E+00 -0.00000000000E+00 -0.45593999997E+02  0.45594000000E+02  0.51100000000E-03 0.  1.
    9900012    2    1    2    0    0 -0.25076070609E+02  0.78538131070E+01 -0.34541765725E+02  0.47787247968E+02  0.19999894786E+02 0.  0.
         12    1    1    2    0    0  0.25076070609E+02 -0.78538131070E+01  0.34541765725E+02  0.43400752032E+02  0.00000000000E+00 0. -1.
         11    1    3    3    0    0 -0.57646770984E+00  0.69300742316E+01 -0.47459336831E+01  0.84191526094E+01  0.51100000000E-03 0. -1.
        -11    1    3    3    0    0 -0.18039658655E+02  0.36275542599E+01 -0.24216724594E+02  0.30414440397E+02  0.51100000000E-03 0.  1.
         12    1    3    3    0    0 -0.64599442435E+01 -0.27038153845E+01 -0.55791074484E+01  0.89536549623E+01  0.00000000000E+00 0. -1.
</event>
<event>
 7    1  0.2412036E-009  0.4778727E+02  0.7816164E-02  0.1312668E+00
        -11   -1    0    0    0    0  0.00000000000E+00  0.00000000000E+00  0.45593999997E+02  0.45594000000E+02  0.51100000000E-03 0.  1.
         11   -1    0    0    0    0 -0.00000000000E+00 -0.00000000000E+00 -0.45593999997E+02  0.45594000000E+02  0.51100000000E-03 0. -1.
    9900012    2    1    2    0    0  0.11057065634E+02 -0.41773993210E+02  0.40370832645E+01  0.47787271314E+02  0.20000001230E+02 0.  0.
         12    1    1    2    0    0 -0.11057065634E+02  0.41773993210E+02 -0.40370832645E+01  0.43400728686E+02  0.00000000000E+00 0. -1.
         11    1    3    3    0    0  0.79165176413E+01 -0.11188039985E+02 -0.37357499563E+01  0.14205608691E+02  0.51100000000E-03 0. -1.
        -11    1    3    3    0    0  0.24999409037E+01 -0.11352535063E+02  0.83764613978E+01  0.14328114415E+02  0.51100000000E-03 0.  1.
        -12    1    3    3    0    0  0.64060708911E+00 -0.19233418162E+02 -0.60362817697E+00  0.19253548209E+02  0.00000000000E+00 0.  1.
</event>
<event>
 7    1  0.2412036E-009  0.4778727E+02  0.7816164E-02  0.1312668E+00
        -11   -1    0    0    0    0  0.00000000000E+00  0.00000000000E+00  0.45593999997E+02  0.45594000000E+02  0.51100000000E-03 0.  1.
         11   -1    0    0    0    0 -0.00000000000E+00 -0.00000000000E+00 -0.45593999997E+02  0.45594000000E+02  0.51100000000E-03 0. -1.
    9900012    2    1    2    0    0  0.18207628249E+02 -0.23859392830E+02  0.31350197978E+02  0.47787271136E+02  0.20000000418E+02 0.  0.
         12    1    1    2    0    0 -0.18207628249E+02  0.23859392830E+02 -0.31350197978E+02  0.43400728864E+02  0.00000000000E+00 0. -1.
         11    1    3    3    0    0  0.59454176518E+01 -0.16060920375E+02  0.74758110137E+01  0.18686596932E+02  0.51100000000E-03 0. -1.
        -11    1    3    3    0    0  0.10347366198E+02 -0.94028340328E+01  0.18641485569E+02  0.23302065565E+02  0.51100000000E-03 0.  1.
         12    1    3    3    0    0  0.19148443997E+01  0.16043615777E+01  0.52329013947E+01  0.57986086395E+01  0.00000000000E+00 0. -1.
</event>
<event>
 7    1  0.2412036E-009  0.4778727E+02  0.7816164E-02  0.1312668E+00
        -11   -1    0    0    0    0  0.00000000000E+00  0.00000000000E+00  0.45593999997E+02  0.45594000000E+02  0.51100000000E-03 0.  1.
         11   -1    0    0    0    0 -0.00000000000E+00 -0.00000000000E+00 -0.45593999997E+02  0.45594000000E+02  0.51100000000E-03 0. -1.
    9900012    2    1    2    0    0 -0.40068520776E+02  0.12792266112E+02  0.10700217713E+02  0.47787273179E+02  0.20000009733E+02 0.  0.
         12    1    1    2    0    0  0.40068520776E+02 -0.12792266112E+02 -0.10700217713E+02  0.43400726821E+02  0.00000000000E+00 0. -1.
         11    1    3    3    0    0 -0.78035990325E+01 -0.37448759295E+01  0.44291832600E+00  0.86669735486E+01  0.51100000000E-03 0. -1.
        -11    1    3    3    0    0 -0.29032890047E+02  0.10720314431E+02  0.70903738277E+01  0.31750704673E+02  0.51100000000E-03 0.  1.
         12    1    3    3    0    0 -0.32320316973E+01  0.58168276103E+01  0.31669255595E+01  0.73695949576E+01  0.00000000000E+00 0. -1.
</event>
<event>
 7    1  0.2412036E-009  0.4778727E+02  0.7816164E-02  0.1312668E+00
        -11   -1    0    0    0    0  0.00000000000E+00  0.00000000000E+00  0.45593999997E+02  0.45594000000E+02  0.51100000000E-03 0.  1.
         11   -1    0    0    0    0 -0.00000000000E+00 -0.00000000000E+00 -0.45593999997E+02  0.45594000000E+02  0.51100000000E-03 0. -1.
    9900012    2    1    2    0    0  0.74874766940E+01  0.42591256834E+01  0.42537288846E+02  0.47787269578E+02  0.19999993312E+02 0.  0.
         12    1    1    2    0    0 -0.74874766940E+01 -0.42591256834E+01 -0.42537288846E+02  0.43400730422E+02  0.00000000000E+00 0. -1.
         11    1    3    3    0    0  0.39395666022E+01 -0.14910094206E+00  0.96342322326E+01  0.10409651631E+02  0.51100000000E-03 0. -1.
        -11    1    3    3    0    0  0.46998023103E+01 -0.11108356743E+00  0.59956274569E+00  0.47391937143E+01  0.51100000000E-03 0.  1.
        -12    1    3    3    0    0 -0.11518922185E+01  0.45193101929E+01  0.32303493868E+02  0.32638424232E+02  0.00000000000E+00 0.  1.
</event>
<event>
 7    1  0.2412036E-009  0.4778727E+02  0.7816164E-02  0.1312668E+00
        -11   -1    0    0    0    0  0.00000000000E+00  0.00000000000E+00  0.45593999997E+02  0.45594000000E+02  0.51100000000E-03 0. -1.
         11   -1    0    0    0    0 -0.00000000000E+00 -0.00000000000E+00 -0.45593999997E+02  0.45594000000E+02  0.51100000000E-03 0.  1.
    9900012    2    1    2    0    0 -0.17813318342E+02 -0.11944947115E+02 -0.37730980947E+02  0.47787274255E+02  0.20000014639E+02 0.  0.
         12    1    1    2    0    0  0.17813318342E+02  0.11944947115E+02  0.37730980947E+02  0.43400725745E+02  0.00000000000E+00 0. -1.
         11    1    3    3    0    0 -0.96167826192E+01 -0.10290338603E+01 -0.84707401872E+01  0.12856704796E+02  0.51100000000E-03 0. -1.
        -11    1    3    3    0    0 -0.21317408364E+01 -0.24576807193E+01 -0.22003296115E+02  0.22242516803E+02  0.51100000000E-03 0.  1.
        -12    1    3    3    0    0 -0.60647948863E+01 -0.84582325355E+01 -0.72569446447E+01  0.12688052656E+02  0.00000000000E+00 0.  1.
</event>
<event>
 7    1  0.2412036E-009  0.4778727E+02  0.7816164E-02  0.1312668E+00
        -11   -1    0    0    0    0  0.00000000000E+00  0.00000000000E+00  0.45593999997E+02  0.45594000000E+02  0.51100000000E-03 0.  1.
         11   -1    0    0    0    0 -0.00000000000E+00 -0.00000000000E+00 -0.45593999997E+02  0.45594000000E+02  0.51100000000E-03 0. -1.
    9900012    2    1    2    0    0 -0.26451572451E+02  0.15280788498E+02  0.30829122836E+02  0.47787274233E+02  0.20000014540E+02 0.  0.
         12    1    1    2    0    0  0.26451572451E+02 -0.15280788498E+02 -0.30829122836E+02  0.43400725767E+02  0.00000000000E+00 0. -1.
         11    1    3    3    0    0 -0.18063141278E+01 -0.26349325764E+01  0.95271263680E+00  0.33336619564E+01  0.51100000000E-03 0. -1.
        -11    1    3    3    0    0 -0.12785669261E+02  0.16190843417E+02  0.15927145966E+02  0.26063206401E+02  0.51100000000E-03 0.  1.
         12    1    3    3    0    0 -0.11859589063E+02  0.17248776578E+01  0.13949264232E+02  0.18390405876E+02  0.00000000000E+00 0. -1.
</event>
<event>
 7    1  0.2412036E-009  0.4778727E+02  0.7816164E-02  0.1312668E+00
        -11   -1    0    0    0    0  0.00000000000E+00  0.00000000000E+00  0.45593999997E+02  0.45594000000E+02  0.51100000000E-03 0.  1.
         11   -1    0    0    0    0 -0.00000000000E+00 -0.00000000000E+00 -0.45593999997E+02  0.45594000000E+02  0.51100000000E-03 0. -1.
    9900012    2    1    2    0    0 -0.35154573002E+02 -0.25441446280E+02  0.71578822906E+00  0.47787267926E+02  0.19999985782E+02 0.  0.
         12    1    1    2    0    0  0.35154573002E+02  0.25441446280E+02 -0.71578822906E+00  0.43400732074E+02  0.00000000000E+00 0. -1.
         11    1    3    3    0    0 -0.15645617372E+02 -0.17477728948E+02  0.77872086504E+01  0.24716330046E+02  0.51100000000E-03 0. -1.
        -11    1    3    3    0    0 -0.14564258004E+02 -0.76125635236E+01 -0.31101866968E+01  0.16725489414E+02  0.51100000000E-03 0.  1.
         12    1    3    3    0    0 -0.49446976255E+01 -0.35115380901E+00 -0.39612337245E+01  0.63454484653E+01  0.00000000000E+00 0. -1.
</event>
<event>
 7    1  0.2412036E-009  0.4778727E+02  0.7816164E-02  0.1312668E+00
        -11   -1    0    0    0    0  0.00000000000E+00  0.00000000000E+00  0.45593999997E+02  0.45594000000E+02  0.51100000000E-03 0.  1.
         11   -1    0    0    0    0 -0.00000000000E+00 -0.00000000000E+00 -0.45593999997E+02  0.45594000000E+02  0.51100000000E-03 0. -1.
    9900012    2    1    2    0    0 -0.38636017817E+02  0.17506502210E+01  0.19693059863E+02  0.47787271253E+02  0.20000000952E+02 0.  0.
         12    1    1    2    0    0  0.38636017817E+02 -0.17506502210E+01 -0.19693059863E+02  0.43400728747E+02  0.00000000000E+00 0. -1.
         11    1    3    3    0    0 -0.13485511276E+00 -0.88206096475E+00  0.79096021710E+00  0.11924075533E+01  0.51100000000E-03 0.  1.
        -11    1    3    3    0    0 -0.16324894071E+02  0.32113392744E+01  0.17827359951E+02  0.24385028797E+02  0.51100000000E-03 0. -1.
        -12    1    3    3    0    0 -0.22176268634E+02 -0.57862808872E+00  0.10747396948E+01  0.22209834903E+02  0.00000000000E+00 0.  1.
</event>
<event>
 7    1  0.2412036E-009  0.4778727E+02  0.7816164E-02  0.1312668E+00
        -11   -1    0    0    0    0  0.00000000000E+00  0.00000000000E+00  0.45593999997E+02  0.45594000000E+02  0.51100000000E-03 0.  1.
         11   -1    0    0    0    0 -0.00000000000E+00 -0.00000000000E+00 -0.45593999997E+02  0.45594000000E+02  0.51100000000E-03 0. -1.
    9900012    2    1    2    0    0  0.20624385989E+02 -0.34504540356E+02  0.16361379599E+02  0.47787270225E+02  0.19999996263E+02 0.  0.
         12    1    1    2    0    0 -0.20624385989E+02  0.34504540356E+02 -0.16361379599E+02  0.43400729775E+02  0.00000000000E+00 0. -1.
         11    1    3    3    0    0  0.10484358708E+02 -0.13323758145E+02  0.16343766908E+02  0.23549161888E+02  0.51100000000E-03 0.  1.
        -11    1    3    3    0    0  0.58685512491E+01 -0.17629565001E+02  0.95267591546E+00  0.18605081229E+02  0.51100000000E-03 0. -1.
         12    1    3    3    0    0  0.42714760316E+01 -0.35512172108E+01 -0.93506322401E+00  0.56330271080E+01  0.00000000000E+00 0. -1.
</event>
<event>
 7    1  0.2412036E-009  0.4778727E+02  0.7816164E-02  0.1312668E+00
        -11   -1    0    0    0    0  0.00000000000E+00  0.00000000000E+00  0.45593999997E+02  0.45594000000E+02  0.51100000000E-03 0.  1.
         11   -1    0    0    0    0 -0.00000000000E+00 -0.00000000000E+00 -0.45593999997E+02  0.45594000000E+02  0.51100000000E-03 0. -1.
    9900012    2    1    2    0    0 -0.21989900194E+02  0.14443289306E+02  0.34517522112E+02  0.47787266720E+02  0.19999980282E+02 0.  0.
         12    1    1    2    0    0  0.21989900194E+02 -0.14443289306E+02 -0.34517522112E+02  0.43400733280E+02  0.00000000000E+00 0. -1.
         11    1    3    3    0    0 -0.49767246667E+01 -0.23913752736E+00  0.20072456984E+01  0.53715929407E+01  0.51100000000E-03 0. -1.
        -11    1    3    3    0    0 -0.77581956017E+01  0.14921949832E+01  0.21484943615E+02  0.22891462323E+02  0.51100000000E-03 0.  1.
        -12    1    3    3    0    0 -0.92549799260E+01  0.13190231850E+02  0.11025332798E+02  0.19524211456E+02  0.00000000000E+00 0.  1.
</event>
<event>
 7    1  0.2412036E-009  0.4778727E+02  0.7816164E-02  0.1312668E+00
        -11   -1    0    0    0    0  0.00000000000E+00  0.00000000000E+00  0.45593999997E+02  0.45594000000E+02  0.51100000000E-03 0.  1.
         11   -1    0    0    0    0 -0.00000000000E+00 -0.00000000000E+00 -0.45593999997E+02  0.45594000000E+02  0.51100000000E-03 0. -1.
    9900012    2    1    2    0    0  0.17254000535E+02  0.36859539986E+02  0.15076377537E+02  0.47787269798E+02  0.19999994315E+02 0.  0.
         12    1    1    2    0    0 -0.17254000535E+02 -0.36859539986E+02 -0.15076377537E+02  0.43400730202E+02  0.00000000000E+00 0. -1.
         11    1    3    3    0    0  0.15669311916E+02  0.21644177681E+02  0.62431345421E+01  0.27440380693E+02  0.51100000000E-03 0. -1.
        -11    1    3    3    0    0 -0.22247342354E+01  0.10617414674E+02  0.93933168572E+01  0.14349680785E+02  0.51100000000E-03 0.  1.
        -12    1    3    3    0    0  0.38094228547E+01  0.45979476309E+01 -0.56007386204E+00  0.59972083200E+01  0.00000000000E+00 0.  1.
</event>
<event>
 7    1  0.2412036E-009  0.4778727E+02  0.7816164E-02  0.1312668E+00
        -11   -1    0    0    0    0  0.00000000000E+00  0.00000000000E+00  0.45593999997E+02  0.45594000000E+02  0.51100000000E-03 0.  1.
         11   -1    0    0    0    0 -0.00000000000E+00 -0.00000000000E+00 -0.45593999997E+02  0.45594000000E+02  0.51100000000E-03 0. -1.
    9900012    2    1    2    0    0 -0.32916223899E+02  0.65969976855E+01  0.27506816711E+02  0.47787272589E+02  0.20000007041E+02 0.  0.
         12    1    1    2    0    0  0.32916223899E+02 -0.65969976855E+01 -0.27506816711E+02  0.43400727411E+02  0.00000000000E+00 0. -1.
         11    1    3    3    0    0 -0.29248995130E+01  0.57271952387E+01  0.88007781175E+01  0.10899976982E+02  0.51100000000E-03 0. -1.
        -11    1    3    3    0    0 -0.24440090150E+02  0.18346510817E+01  0.98997322761E+01  0.26432719317E+02  0.51100000000E-03 0.  1.
         12    1    3    3    0    0 -0.55512342366E+01 -0.96484863493E+00  0.88063063177E+01  0.10454576290E+02  0.00000000000E+00 0. -1.
</event>
<event>
 7    1  0.2412036E-009  0.4778727E+02  0.7816164E-02  0.1312668E+00
        -11   -1    0    0    0    0  0.00000000000E+00  0.00000000000E+00  0.45593999997E+02  0.45594000000E+02  0.51100000000E-03 0.  1.
         11   -1    0    0    0    0 -0.00000000000E+00 -0.00000000000E+00 -0.45593999997E+02  0.45594000000E+02  0.51100000000E-03 0. -1.
    9900012    2    1    2    0    0 -0.12471593724E+02  0.69908657287E+01  0.40978169880E+02  0.47787271200E+02  0.20000000711E+02 0.  0.
         12    1    1    2    0    0  0.12471593724E+02 -0.69908657287E+01 -0.40978169880E+02  0.43400728800E+02  0.00000000000E+00 0. -1.
         11    1    3    3    0    0 -0.37552435486E+01 -0.38743353527E+01  0.99980487314E+01  0.11361043404E+02  0.51100000000E-03 0. -1.
        -11    1    3    3    0    0 -0.75812328688E+01  0.13674791748E+02  0.28512872146E+02  0.32518593134E+02  0.51100000000E-03 0.  1.
        -12    1    3    3    0    0 -0.11351173061E+01 -0.28095906664E+01  0.24672490026E+01  0.39076346621E+01  0.00000000000E+00 0.  1.
</event>
<event>
 7    1  0.2412036E-009  0.4778727E+02  0.7816164E-02  0.1312668E+00
        -11   -1    0    0    0    0  0.00000000000E+00  0.00000000000E+00  0.45593999997E+02  0.45594000000E+02  0.51100000000E-03 0. -1.
         11   -1    0    0    0    0 -0.00000000000E+00 -0.00000000000E+00 -0.45593999997E+02  0.45594000000E+02  0.51100000000E-03 0.  1.
    9900012    2    1    2    0    0 -0.30111315762E+02 -0.89703337137E+01 -0.29941025992E+02  0.47787271189E+02  0.20000000660E+02 0.  0.
         12    1    1    2    0    0  0.30111315762E+02  0.89703337137E+01  0.29941025992E+02  0.43400728811E+02  0.00000000000E+00 0. -1.
         11    1    3    3    0    0  0.15035128550E+01 -0.16675834123E+01  0.73456457224E+00  0.23624078213E+01  0.51100000000E-03 0. -1.
        -11    1    3    3    0    0 -0.17732186763E+02 -0.78636130483E+01 -0.20352394029E+02  0.28115597105E+02  0.51100000000E-03 0.  1.
        -12    1    3    3    0    0 -0.13882641855E+02  0.56086274686E+00 -0.10323196534E+02  0.17309266263E+02  0.00000000000E+00 0.  1.
</event>
<event>
 7    1  0.2412036E-009  0.4778727E+02  0.7816164E-02  0.1312668E+00
        -11   -1    0    0    0    0  0.00000000000E+00  0.00000000000E+00  0.45593999997E+02  0.45594000000E+02  0.51100000000E-03 0.  1.
         11   -1    0    0    0    0 -0.00000000000E+00 -0.00000000000E+00 -0.45593999997E+02  0.45594000000E+02  0.51100000000E-03 0. -1.
    9900012    2    1    2    0    0 -0.46382283926E+01 -0.41964393191E+02  0.10054838755E+02  0.47787271424E+02  0.20000001730E+02 0.  0.
         12    1    1    2    0    0  0.46382283926E+01  0.41964393191E+02 -0.10054838755E+02  0.43400728576E+02  0.00000000000E+00 0. -1.
         11    1    3    3    0    0  0.35928833663E+01 -0.52757793918E+01 -0.19329214235E+01  0.66692461767E+01  0.51100000000E-03 0. -1.
        -11    1    3    3    0    0 -0.95249371808E+01 -0.29086568949E+02  0.56216787182E+01  0.31118422090E+02  0.51100000000E-03 0.  1.
        -12    1    3    3    0    0  0.12938254220E+01 -0.76020448510E+01  0.63660814607E+01  0.99996031573E+01  0.00000000000E+00 0.  1.
</event>
<event>
 7    1  0.2412036E-009  0.4778726E+02  0.7816164E-02  0.1312668E+00
        -11   -1    0    0    0    0  0.00000000000E+00  0.00000000000E+00  0.45593999997E+02  0.45594000000E+02  0.51100000000E-03 0.  1.
         11   -1    0    0    0    0 -0.00000000000E+00 -0.00000000000E+00 -0.45593999997E+02  0.45594000000E+02  0.51100000000E-03 0. -1.
    9900012    2    1    2    0    0 -0.19954956685E+02  0.30071794572E+02  0.24106248053E+02  0.47787258989E+02  0.19999945033E+02 0.  0.
         12    1    1    2    0    0  0.19954956685E+02 -0.30071794572E+02 -0.24106248053E+02  0.43400741011E+02  0.00000000000E+00 0. -1.
         11    1    3    3    0    0 -0.86829696424E+01  0.17457512778E+02  0.47198762067E+01  0.20060806211E+02  0.51100000000E-03 0. -1.
        -11    1    3    3    0    0 -0.62081932785E+01  0.21674613562E+01  0.12771130955E+02  0.14364586267E+02  0.51100000000E-03 0.  1.
        -12    1    3    3    0    0 -0.50637937645E+01  0.10446820439E+02  0.66152408921E+01  0.13361866510E+02  0.00000000000E+00 0.  1.
</event>
<event>
 7    1  0.2412036E-009  0.4778727E+02  0.7816164E-02  0.1312668E+00
        -11   -1    0    0    0    0  0.00000000000E+00  0.00000000000E+00  0.45593999997E+02  0.45594000000E+02  0.51100000000E-03 0.  1.
         11   -1    0    0    0    0 -0.00000000000E+00 -0.00000000000E+00 -0.45593999997E+02  0.45594000000E+02  0.51100000000E-03 0. -1.
    9900012    2    1    2    0    0  0.32683911992E+02  0.40101045573E+01  0.28271969956E+02  0.47787270434E+02  0.19999997216E+02 0.  0.
         12    1    1    2    0    0 -0.32683911992E+02 -0.40101045573E+01 -0.28271969956E+02  0.43400729566E+02  0.00000000000E+00 0. -1.
         11    1    3    3    0    0  0.22599476970E+01  0.20544018503E+01  0.70246273139E-01  0.30549738715E+01  0.51100000000E-03 0. -1.
        -11    1    3    3    0    0  0.10573641295E+02  0.83277289133E+01  0.14505112179E+02  0.19787653693E+02  0.51100000000E-03 0.  1.
        -12    1    3    3    0    0  0.19850323000E+02 -0.63720262062E+01  0.13696611504E+02  0.24944642870E+02  0.00000000000E+00 0.  1.
</event>
<event>
 7    1  0.2412036E-009  0.4778727E+02  0.7816164E-02  0.1312668E+00
        -11   -1    0    0    0    0  0.00000000000E+00  0.00000000000E+00  0.45593999997E+02  0.45594000000E+02  0.51100000000E-03 0.  1.
         11   -1    0    0    0    0 -0.00000000000E+00 -0.00000000000E+00 -0.45593999997E+02  0.45594000000E+02  0.51100000000E-03 0. -1.
    9900012    2    1    2    0    0 -0.44302142987E+01 -0.20336348487E+02  0.38084505038E+02  0.47787269678E+02  0.19999993769E+02 0.  0.
         12    1    1    2    0    0  0.44302142987E+01  0.20336348487E+02 -0.38084505038E+02  0.43400730322E+02  0.00000000000E+00 0. -1.
         11    1    3    3    0    0  0.55980339565E+01 -0.29472748668E+00  0.50525527065E+01  0.75467302578E+01  0.51100000000E-03 0. -1.
        -11    1    3    3    0    0 -0.69424264715E+01 -0.16576937104E+02  0.28874475838E+02  0.34010696615E+02  0.51100000000E-03 0.  1.
        -12    1    3    3    0    0 -0.30858217838E+01 -0.34646838957E+01  0.41574764932E+01  0.62298428046E+01  0.00000000000E+00 0.  1.
</event>
<event>
 7    1  0.2412036E-009  0.4778727E+02  0.7816164E-02  0.1312668E+00
        -11   -1    0    0    0    0  0.00000000000E+00  0.00000000000E+00  0.45593999997E+02  0.45594000000E+02  0.51100000000E-03 0.  1.
         11   -1    0    0    0    0 -0.00000000000E+00 -0.00000000000E+00 -0.45593999997E+02  0.45594000000E+02  0.51100000000E-03 0. -1.
    9900012    2    1    2    0    0  0.20708817041E+02  0.55486161272E+01  0.37735673126E+02  0.47787271084E+02  0.20000000179E+02 0.  0.
         12    1    1    2    0    0 -0.20708817041E+02 -0.55486161272E+01 -0.37735673126E+02  0.43400728916E+02  0.00000000000E+00 0. -1.
         11    1    3    3    0    0  0.86167079927E+01 -0.61627925904E+01  0.21923190768E+02  0.24348592626E+02  0.51100000000E-03 0. -1.
        -11    1    3    3    0    0  0.74412414668E+01  0.61493064656E+01  0.11453230030E+02  0.14978735693E+02  0.51100000000E-03 0.  1.
         12    1    3    3    0    0  0.46508675815E+01  0.55621022520E+01  0.43592523281E+01  0.84599427647E+01  0.00000000000E+00 0. -1.
</event>
<event>
 7    1  0.2412036E-009  0.4778724E+02  0.7816164E-02  0.1312668E+00
        -11   -1    0    0    0    0  0.00000000000E+00  0.00000000000E+00  0.45593999997E+02  0.45594000000E+02  0.51100000000E-03 0.  1.
         11   -1    0    0    0    0 -0.00000000000E+00 -0.00000000000E+00 -0.45593999997E+02  0.45594000000E+02  0.51100000000E-03 0. -1.
    9900012    2    1    2    0    0 -0.28209360652E+02 -0.19903295137E+02 -0.26300502876E+02  0.47787243818E+02  0.19999875861E+02 0.  0.
         12    1    1    2    0    0  0.28209360652E+02  0.19903295137E+02  0.26300502876E+02  0.43400756182E+02  0.00000000000E+00 0. -1.
         11    1    3    3    0    0 -0.27873912345E+02 -0.11474556476E+02 -0.18051641322E+02  0.35135198739E+02  0.51100000000E-03 0. -1.
        -11    1    3    3    0    0 -0.11122940076E+01 -0.70230816748E+01 -0.41110959159E+01  0.82135244603E+01  0.51100000000E-03 0.  1.
         12    1    3    3    0    0  0.77684570102E+00 -0.14056569858E+01 -0.41377656375E+01  0.44385206179E+01  0.00000000000E+00 0. -1.
</event>
<event>
 7    1  0.2412036E-009  0.4778727E+02  0.7816164E-02  0.1312668E+00
        -11   -1    0    0    0    0  0.00000000000E+00  0.00000000000E+00  0.45593999997E+02  0.45594000000E+02  0.51100000000E-03 0. -1.
         11   -1    0    0    0    0 -0.00000000000E+00 -0.00000000000E+00 -0.45593999997E+02  0.45594000000E+02  0.51100000000E-03 0.  1.
    9900012    2    1    2    0    0 -0.41763241473E+02 -0.31375150778E+01 -0.11384680522E+02  0.47787270861E+02  0.19999999166E+02 0.  0.
         12    1    1    2    0    0  0.41763241473E+02  0.31375150778E+01  0.11384680522E+02  0.43400729139E+02  0.00000000000E+00 0. -1.
         11    1    3    3    0    0  0.68246034495E+00 -0.27527363871E+01 -0.13735027676E+01  0.31511616672E+01  0.51100000000E-03 0. -1.
        -11    1    3    3    0    0 -0.28955696431E+02  0.41631580628E+01 -0.71708502838E+01  0.30119517508E+02  0.51100000000E-03 0.  1.
         12    1    3    3    0    0 -0.13490005387E+02 -0.45479367535E+01 -0.28403274703E+01  0.14516591686E+02  0.00000000000E+00 0. -1.
</event>
<event>
 7    1  0.2412036E-009  0.4778727E+02  0.7816164E-02  0.1312668E+00
        -11   -1    0    0    0    0  0.00000000000E+00  0.00000000000E+00  0.45593999997E+02  0.45594000000E+02  0.51100000000E-03 0.  1.
         11   -1    0    0    0    0 -0.00000000000E+00 -0.00000000000E+00 -0.45593999997E+02  0.45594000000E+02  0.51100000000E-03 0. -1.
    9900012    2    1    2    0    0 -0.13919480384E+02 -0.37021882543E+02  0.17867615485E+02  0.47787269542E+02  0.19999993151E+02 0.  0.
         12    1    1    2    0    0  0.13919480384E+02  0.37021882543E+02 -0.17867615485E+02  0.43400730458E+02  0.00000000000E+00 0. -1.
         11    1    3    3    0    0  0.23258359644E+01 -0.70073199432E+01 -0.26417244479E+01  0.78416040476E+01  0.51100000000E-03 0. -1.
        -11    1    3    3    0    0 -0.10858067777E+02 -0.22919134808E+02  0.15569615422E+02  0.29758986892E+02  0.51100000000E-03 0.  1.
         12    1    3    3    0    0 -0.53872485708E+01 -0.70954277913E+01  0.49397245109E+01  0.10186678602E+02  0.00000000000E+00 0. -1.
</event>
<event>
 7    1  0.2412036E-009  0.4778726E+02  0.7816164E-02  0.1312668E+00
        -11   -1    0    0    0    0  0.00000000000E+00  0.00000000000E+00  0.45593999997E+02  0.45594000000E+02  0.51100000000E-03 0. -1.
         11   -1    0    0    0    0 -0.00000000000E+00 -0.00000000000E+00 -0.45593999997E+02  0.45594000000E+02  0.51100000000E-03 0.  1.
    9900012    2    1    2    0    0  0.10833780590E+02 -0.40150128931E+02 -0.12418555215E+02  0.47787260735E+02  0.19999952997E+02 0.  0.
         12    1    1    2    0    0 -0.10833780590E+02  0.40150128931E+02  0.12418555215E+02  0.43400739265E+02  0.00000000000E+00 0. -1.
         11    1    3    3    0    0  0.22189098930E+01 -0.70773228302E+01  0.53735548438E+01  0.91589929292E+01  0.51100000000E-03 0. -1.
        -11    1    3    3    0    0  0.32818448917E+01 -0.12895607899E+02 -0.84480312757E+01  0.15761866694E+02  0.51100000000E-03 0.  1.
         12    1    3    3    0    0  0.53330258052E+01 -0.20177198202E+02 -0.93440787833E+01  0.22866401112E+02  0.00000000000E+00 0. -1.
</event>
<event>
 7    1  0.2412036E-009  0.4778727E+02  0.7816164E-02  0.1312668E+00
        -11   -1    0    0    0    0  0.00000000000E+00  0.00000000000E+00  0.45593999997E+02  0.45594000000E+02  0.51100000000E-03 0.  1.
         11   -1    0    0    0    0 -0.00000000000E+00 -0.00000000000E+00 -0.45593999997E+02  0.45594000000E+02  0.51100000000E-03 0. -1.
    9900012    2    1    2    0    0 -0.14406363984E+02 -0.11260771671E+02  0.39360832316E+02  0.47787269332E+02  0.19999992192E+02 0.  0.
         12    1    1    2    0    0  0.14406363984E+02  0.11260771671E+02 -0.39360832316E+02  0.43400730668E+02  0.00000000000E+00 0. -1.
         11    1    3    3    0    0 -0.90319082967E-01 -0.10416219594E+02  0.95160522189E+01  0.14108899257E+02  0.51100000000E-03 0. -1.
        -11    1    3    3    0    0 -0.10429991852E+02 -0.29838667935E+01  0.24024845436E+02  0.26360602982E+02  0.51100000000E-03 0.  1.
        -12    1    3    3    0    0 -0.38860530492E+01  0.21393147166E+01  0.58199346617E+01  0.73177670928E+01  0.00000000000E+00 0.  1.
</event>
<event>
 7    1  0.2412036E-009  0.4778727E+02  0.7816164E-02  0.1312668E+00
        -11   -1    0    0    0    0  0.00000000000E+00  0.00000000000E+00  0.45593999997E+02  0.45594000000E+02  0.51100000000E-03 0.  1.
         11   -1    0    0    0    0 -0.00000000000E+00 -0.00000000000E+00 -0.45593999997E+02  0.45594000000E+02  0.51100000000E-03 0. -1.
    9900012    2    1    2    0    0  0.24621928016E+02  0.31739369804E+02  0.16431573373E+02  0.47787267998E+02  0.19999986109E+02 0.  0.
         12    1    1    2    0    0 -0.24621928016E+02 -0.31739369804E+02 -0.16431573373E+02  0.43400732002E+02  0.00000000000E+00 0. -1.
         11    1    3    3    0    0  0.18413896754E+02  0.14320506867E+02  0.96709955279E+01  0.25252260599E+02  0.51100000000E-03 0. -1.
        -11    1    3    3    0    0  0.86306914426E+01  0.80683764232E+01  0.42378571635E+01  0.12551771448E+02  0.51100000000E-03 0.  1.
         12    1    3    3    0    0 -0.24226601805E+01  0.93504865146E+01  0.25227206816E+01  0.99832359507E+01  0.00000000000E+00 0. -1.
</event>
<event>
 7    1  0.2412036E-009  0.4778729E+02  0.7816164E-02  0.1312668E+00
        -11   -1    0    0    0    0  0.00000000000E+00  0.00000000000E+00  0.45593999997E+02  0.45594000000E+02  0.51100000000E-03 0. -1.
         11   -1    0    0    0    0 -0.00000000000E+00 -0.00000000000E+00 -0.45593999997E+02  0.45594000000E+02  0.51100000000E-03 0.  1.
    9900012    2    1    2    0    0  0.36064223513E+02 -0.10774720559E+02 -0.21607835430E+02  0.47787292947E+02  0.20000099863E+02 0.  0.
         12    1    1    2    0    0 -0.36064223513E+02  0.10774720559E+02  0.21607835430E+02  0.43400707053E+02  0.00000000000E+00 0. -1.
         11    1    3    3    0    0  0.26438097608E+02 -0.35543068012E+01 -0.17019976283E+02  0.31643098693E+02  0.51100000000E-03 0. -1.
        -11    1    3    3    0    0  0.71082460794E+01 -0.44473632677E+00 -0.53043667885E+01  0.88803862536E+01  0.51100000000E-03 0.  1.
         12    1    3    3    0    0  0.25178798253E+01 -0.67756774312E+01  0.71650764133E+00  0.72638080004E+01  0.00000000000E+00 0. -1.
</event>
<event>
 7    1  0.2412036E-009  0.4778724E+02  0.7816164E-02  0.1312668E+00
        -11   -1    0    0    0    0  0.00000000000E+00  0.00000000000E+00  0.45593999997E+02  0.45594000000E+02  0.51100000000E-03 0.  1.
         11   -1    0    0    0    0 -0.00000000000E+00 -0.00000000000E+00 -0.45593999997E+02  0.45594000000E+02  0.51100000000E-03 0. -1.
    9900012    2    1    2    0    0  0.35807057277E+01 -0.41646659088E+01  0.43051829328E+02  0.47787240743E+02  0.19999861841E+02 0.  0.
         12    1    1    2    0    0 -0.35807057277E+01  0.41646659088E+01 -0.43051829328E+02  0.43400759257E+02  0.00000000000E+00 0. -1.
         11    1    3    3    0    0  0.43575736475E+01 -0.80478182064E+01  0.11869161453E+02  0.14987755664E+02  0.51100000000E-03 0. -1.
        -11    1    3    3    0    0  0.28280629183E+01 -0.10660146813E+01  0.18153176228E+02  0.18403046884E+02  0.51100000000E-03 0.  1.
         12    1    3    3    0    0 -0.36049308381E+01  0.49491669789E+01  0.13029491647E+02  0.14396438195E+02  0.00000000000E+00 0. -1.
</event>
<event>
 7    1  0.2412036E-009  0.4778728E+02  0.7816164E-02  0.1312668E+00
        -11   -1    0    0    0    0  0.00000000000E+00  0.00000000000E+00  0.45593999997E+02  0.45594000000E+02  0.51100000000E-03 0.  1.
         11   -1    0    0    0    0 -0.00000000000E+00 -0.00000000000E+00 -0.45593999997E+02  0.45594000000E+02  0.51100000000E-03 0. -1.
    9900012    2    1    2    0    0  0.29801044504E+02  0.29693253488E+02  0.10669170039E+02  0.47787277131E+02  0.20000027751E+02 0.  0.
         12    1    1    2    0    0 -0.29801044504E+02 -0.29693253488E+02 -0.10669170039E+02  0.43400722869E+02  0.00000000000E+00 0. -1.
         11    1    3    3    0    0  0.10586329795E+02  0.22788691604E+02  0.10337655840E+02  0.27170976649E+02  0.51100000000E-03 0. -1.
        -11    1    3    3    0    0  0.17727021509E+02  0.70605152594E+01 -0.12705773780E-01  0.19081360774E+02  0.51100000000E-03 0.  1.
         12    1    3    3    0    0  0.14876932008E+01 -0.15595337600E+00  0.34421997233E+00  0.15349397072E+01  0.00000000000E+00 0. -1.
</event>
<event>
 7    1  0.2412036E-009  0.4778727E+02  0.7816164E-02  0.1312668E+00
        -11   -1    0    0    0    0  0.00000000000E+00  0.00000000000E+00  0.45593999997E+02  0.45594000000E+02  0.51100000000E-03 0.  1.
         11   -1    0    0    0    0 -0.00000000000E+00 -0.00000000000E+00 -0.45593999997E+02  0.45594000000E+02  0.51100000000E-03 0. -1.
    9900012    2    1    2    0    0  0.34662966468E+02  0.25667335209E+02 -0.48259692620E+01  0.47787270508E+02  0.19999997555E+02 0.  0.
         12    1    1    2    0    0 -0.34662966468E+02 -0.25667335209E+02  0.48259692620E+01  0.43400729492E+02  0.00000000000E+00 0. -1.
         11    1    3    3    0    0 -0.26003133155E+00  0.71744082572E+00  0.69374767027E+00  0.10313213480E+01  0.51100000000E-03 0. -1.
        -11    1    3    3    0    0  0.59225359193E+01  0.13864065368E+02  0.69849356094E+00  0.15092270663E+02  0.51100000000E-03 0.  1.
        -12    1    3    3    0    0  0.29000461880E+02  0.11085829015E+02 -0.62182104932E+01  0.31663678497E+02  0.00000000000E+00 0.  1.
</event>
<event>
 7    1  0.2412036E-009  0.4778727E+02  0.7816164E-02  0.1312668E+00
        -11   -1    0    0    0    0  0.00000000000E+00  0.00000000000E+00  0.45593999997E+02  0.45594000000E+02  0.51100000000E-03 0. -1.
         11   -1    0    0    0    0 -0.00000000000E+00 -0.00000000000E+00 -0.45593999997E+02  0.45594000000E+02  0.51100000000E-03 0.  1.
    9900012    2    1    2    0    0 -0.41039799889E+02 -0.10317429890E+02 -0.96389198849E+01  0.47787270616E+02  0.19999998049E+02 0.  0.
         12    1    1    2    0    0  0.41039799889E+02  0.10317429890E+02  0.96389198849E+01  0.43400729384E+02  0.00000000000E+00 0. -1.
         11    1    3    3    0    0 -0.30317258518E+00 -0.13638626520E+01  0.31513494039E+01  0.34471783065E+01  0.51100000000E-03 0. -1.
        -11    1    3    3    0    0 -0.18085078776E+02 -0.19338109043E-01 -0.47721268037E+01  0.18704107645E+02  0.51100000000E-03 0.  1.
         12    1    3    3    0    0 -0.22651548528E+02 -0.89342291287E+01 -0.80181424851E+01  0.25635984665E+02  0.00000000000E+00 0. -1.
</event>
<event>
 7    1  0.2412036E-009  0.4778727E+02  0.7816164E-02  0.1312668E+00
        -11   -1    0    0    0    0  0.00000000000E+00  0.00000000000E+00  0.45593999997E+02  0.45594000000E+02  0.51100000000E-03 0.  1.
         11   -1    0    0    0    0 -0.00000000000E+00 -0.00000000000E+00 -0.45593999997E+02  0.45594000000E+02  0.51100000000E-03 0. -1.
    9900012    2    1    2    0    0 -0.34331118810E+02  0.26514018546E+02  0.14157827987E+01  0.47787270293E+02  0.19999996573E+02 0.  0.
         12    1    1    2    0    0  0.34331118810E+02 -0.26514018546E+02 -0.14157827987E+01  0.43400729707E+02  0.00000000000E+00 0. -1.
         11    1    3    3    0    0  0.11003647097E+01 -0.91253100157E-01  0.30971092186E+01  0.32880412704E+01  0.51100000000E-03 0. -1.
        -11    1    3    3    0    0 -0.27477652257E+02  0.22336045332E+02 -0.19919649434E+01  0.35466719883E+02  0.51100000000E-03 0.  1.
         12    1    3    3    0    0 -0.79538312623E+01  0.42692263140E+01  0.31063852340E+00  0.90325091398E+01  0.00000000000E+00 0. -1.
</event>
<event>
 7    1  0.2412036E-009  0.4778727E+02  0.7816164E-02  0.1312668E+00
        -11   -1    0    0    0    0  0.00000000000E+00  0.00000000000E+00  0.45593999997E+02  0.45594000000E+02  0.51100000000E-03 0.  1.
         11   -1    0    0    0    0 -0.00000000000E+00 -0.00000000000E+00 -0.45593999997E+02  0.45594000000E+02  0.51100000000E-03 0. -1.
    9900012    2    1    2    0    0  0.65102575312E+01  0.42862680393E+02  0.20076412598E+01  0.47787269050E+02  0.19999990906E+02 0.  0.
         12    1    1    2    0    0 -0.65102575312E+01 -0.42862680393E+02 -0.20076412598E+01  0.43400730950E+02  0.00000000000E+00 0. -1.
         11    1    3    3    0    0 -0.21544919144E+01  0.49751633260E+01 -0.17985151412E+01  0.57121574299E+01  0.51100000000E-03 0. -1.
        -11    1    3    3    0    0 -0.38028295226E+01  0.96086138329E+01 -0.22651322296E+01  0.10579120779E+02  0.51100000000E-03 0.  1.
        -12    1    3    3    0    0  0.12467578968E+02  0.28278903234E+02  0.60712886307E+01  0.31495990841E+02  0.00000000000E+00 0.  1.
</event>
<event>
 7    1  0.2412036E-009  0.4778724E+02  0.7816164E-02  0.1312668E+00
        -11   -1    0    0    0    0  0.00000000000E+00  0.00000000000E+00  0.45593999997E+02  0.45594000000E+02  0.51100000000E-03 0.  1.
         11   -1    0    0    0    0 -0.00000000000E+00 -0.00000000000E+00 -0.45593999997E+02  0.45594000000E+02  0.51100000000E-03 0. -1.
    9900012    2    1    2    0    0  0.10655531128E+02  0.36381343862E+02  0.21130152583E+02  0.47787241101E+02  0.19999863475E+02 0.  0.
         12    1    1    2    0    0 -0.10655531128E+02 -0.36381343862E+02 -0.21130152583E+02  0.43400758899E+02  0.00000000000E+00 0. -1.
         11    1    3    3    0    0  0.12023683769E+02  0.21719891181E+02  0.72424276514E+01  0.25860692235E+02  0.51100000000E-03 0. -1.
        -11    1    3    3    0    0 -0.49908843688E+00  0.12124690938E+02  0.14758859660E+02  0.19107097067E+02  0.51100000000E-03 0.  1.
         12    1    3    3    0    0 -0.86906420431E+00  0.25367617429E+01 -0.87113472874E+00  0.28194517990E+01  0.00000000000E+00 0. -1.
</event>
<event>
 7    1  0.2412036E-009  0.4778727E+02  0.7816164E-02  0.1312668E+00
        -11   -1    0    0    0    0  0.00000000000E+00  0.00000000000E+00  0.45593999997E+02  0.45594000000E+02  0.51100000000E-03 0. -1.
         11   -1    0    0    0    0 -0.00000000000E+00 -0.00000000000E+00 -0.45593999997E+02  0.45594000000E+02  0.51100000000E-03 0.  1.
    9900012    2    1    2    0    0 -0.37812659439E+02  0.21180934439E+02 -0.22790081447E+01  0.47787273328E+02  0.20000010411E+02 0.  0.
         12    1    1    2    0    0  0.37812659439E+02 -0.21180934439E+02  0.22790081447E+01  0.43400726672E+02  0.00000000000E+00 0. -1.
         11    1    3    3    0    0 -0.18490493749E+01 -0.28931596599E+01 -0.20436068521E+01  0.39957084022E+01  0.51100000000E-03 0. -1.
        -11    1    3    3    0    0 -0.25533447697E+02  0.15941290385E+02  0.27696386194E+01  0.30228340821E+02  0.51100000000E-03 0.  1.
         12    1    3    3    0    0 -0.10430162367E+02  0.81328037143E+01 -0.30050399120E+01  0.13563224105E+02  0.00000000000E+00 0. -1.
</event>
<event>
 7    1  0.2412036E-009  0.4778727E+02  0.7816164E-02  0.1312668E+00
        -11   -1    0    0    0    0  0.00000000000E+00  0.00000000000E+00  0.45593999997E+02  0.45594000000E+02  0.51100000000E-03 0.  1.
         11   -1    0    0    0    0 -0.00000000000E+00 -0.00000000000E+00 -0.45593999997E+02  0.45594000000E+02  0.51100000000E-03 0. -1.
    9900012    2    1    2    0    0  0.81402852902E+01 -0.20093843971E+02  0.37597825932E+02  0.47787270456E+02  0.19999997317E+02 0.  0.
         12    1    1    2    0    0 -0.81402852902E+01  0.20093843971E+02 -0.37597825932E+02  0.43400729544E+02  0.00000000000E+00 0. -1.
         11    1    3    3    0    0 -0.52507416606E+01 -0.62732197112E+01  0.14756859220E+02  0.16872713707E+02  0.51100000000E-03 0.  1.
        -11    1    3    3    0    0  0.11334201391E+02 -0.12624627149E+02  0.22941158339E+02  0.28533175042E+02  0.51100000000E-03 0. -1.
        -12    1    3    3    0    0  0.20568255598E+01 -0.11959971108E+01 -0.10019162644E+00  0.23813817070E+01  0.00000000000E+00 0.  1.
</event>
<event>
 7    1  0.2412036E-009  0.4778726E+02  0.7816164E-02  0.1312668E+00
        -11   -1    0    0    0    0  0.00000000000E+00  0.00000000000E+00  0.45593999997E+02  0.45594000000E+02  0.51100000000E-03 0. -1.
         11   -1    0    0    0    0 -0.00000000000E+00 -0.00000000000E+00 -0.45593999997E+02  0.45594000000E+02  0.51100000000E-03 0.  1.
    9900012    2    1    2    0    0 -0.21937253972E+02  0.37248734356E+02  0.38616969834E+01  0.47787262374E+02  0.19999960466E+02 0.  0.
         12    1    1    2    0    0  0.21937253972E+02 -0.37248734356E+02 -0.38616969834E+01  0.43400737626E+02  0.00000000000E+00 0. -1.
         11    1    3    3    0    0 -0.56343518160E+01  0.11869994783E+01  0.38321874151E+01  0.69166862582E+01  0.51100000000E-03 0. -1.
        -11    1    3    3    0    0 -0.17240877156E+02  0.32019902456E+02  0.16796083491E+01  0.36405261747E+02  0.51100000000E-03 0.  1.
        -12    1    3    3    0    0  0.93797500020E+00  0.40418324216E+01 -0.16500987808E+01  0.44653143688E+01  0.00000000000E+00 0.  1.
</event>
<event>
 7    1  0.2412036E-009  0.4778727E+02  0.7816164E-02  0.1312668E+00
        -11   -1    0    0    0    0  0.00000000000E+00  0.00000000000E+00  0.45593999997E+02  0.45594000000E+02  0.51100000000E-03 0. -1.
         11   -1    0    0    0    0 -0.00000000000E+00 -0.00000000000E+00 -0.45593999997E+02  0.45594000000E+02  0.51100000000E-03 0.  1.
    9900012    2    1    2    0    0  0.12551040089E+02 -0.32883010969E+02 -0.25392957502E+02  0.47787270646E+02  0.19999998185E+02 0.  0.
         12    1    1    2    0    0 -0.12551040089E+02  0.32883010969E+02  0.25392957502E+02  0.43400729354E+02  0.00000000000E+00 0. -1.
         11    1    3    3    0    0  0.42695044728E+01 -0.29656470803E+01 -0.39814581120E+00  0.52136600768E+01  0.51100000000E-03 0. -1.
        -11    1    3    3    0    0  0.26004609004E+01 -0.26511729525E+02 -0.24038010991E+02  0.35881195242E+02  0.51100000000E-03 0.  1.
        -12    1    3    3    0    0  0.56810747153E+01 -0.34056343638E+01 -0.95680070035E+00  0.66924153279E+01  0.00000000000E+00 0.  1.
</event>
<event>
 7    1  0.2412036E-009  0.4778727E+02  0.7816164E-02  0.1312668E+00
        -11   -1    0    0    0    0  0.00000000000E+00  0.00000000000E+00  0.45593999997E+02  0.45594000000E+02  0.51100000000E-03 0. -1.
         11   -1    0    0    0    0 -0.00000000000E+00 -0.00000000000E+00 -0.45593999997E+02  0.45594000000E+02  0.51100000000E-03 0.  1.
    9900012    2    1    2    0    0  0.37637609994E+02  0.17531314808E+02 -0.12636719979E+02  0.47787269859E+02  0.19999994595E+02 0.  0.
         12    1    1    2    0    0 -0.37637609994E+02 -0.17531314808E+02  0.12636719979E+02  0.43400730141E+02  0.00000000000E+00 0. -1.
         11    1    3    3    0    0  0.73556033681E+01  0.54731504676E+01 -0.95930604186E+00  0.92184893173E+01  0.51100000000E-03 0. -1.
        -11    1    3    3    0    0  0.26603368313E+02  0.16014380886E+02 -0.81040465835E+01  0.32091668265E+02  0.51100000000E-03 0.  1.
        -12    1    3    3    0    0  0.36786383130E+01 -0.39562165458E+01 -0.35733673538E+01  0.64771122764E+01  0.00000000000E+00 0.  1.
</event>
<event>
 7    1  0.2412036E-009  0.4778728E+02  0.7816164E-02  0.1312668E+00
        -11   -1    0    0    0    0  0.00000000000E+00  0.00000000000E+00  0.45593999997E+02  0.45594000000E+02  0.51100000000E-03 0.  1.
         11   -1    0    0    0    0 -0.00000000000E+00 -0.00000000000E+00 -0.45593999997E+02  0.45594000000E+02  0.51100000000E-03 0. -1.
    9900012    2    1    2    0    0  0.18072844124E+02 -0.37726912740E+02  0.11561796921E+02  0.47787276646E+02  0.20000025538E+02 0.  0.
         12    1    1    2    0    0 -0.18072844124E+02  0.37726912740E+02 -0.11561796921E+02  0.43400723354E+02  0.00000000000E+00 0. -1.
         11    1    3    3    0    0  0.45394776033E+01 -0.17314168101E+02 -0.25236906885E+01  0.18076401436E+02  0.51100000000E-03 0. -1.
        -11    1    3    3    0    0  0.53729332878E+01 -0.13694676373E+02  0.11890151696E+02  0.18915292244E+02  0.51100000000E-03 0.  1.
         12    1    3    3    0    0  0.81604332331E+01 -0.67180682660E+01  0.21953359137E+01  0.10795582965E+02  0.00000000000E+00 0. -1.
</event>
<event>
 7    1  0.2412036E-009  0.4778727E+02  0.7816164E-02  0.1312668E+00
        -11   -1    0    0    0    0  0.00000000000E+00  0.00000000000E+00  0.45593999997E+02  0.45594000000E+02  0.51100000000E-03 0.  1.
         11   -1    0    0    0    0 -0.00000000000E+00 -0.00000000000E+00 -0.45593999997E+02  0.45594000000E+02  0.51100000000E-03 0. -1.
    9900012    2    1    2    0    0 -0.34557804255E+02  0.12436364893E+02  0.23123977098E+02  0.47787270472E+02  0.19999997392E+02 0.  0.
         12    1    1    2    0    0  0.34557804255E+02 -0.12436364893E+02 -0.23123977098E+02  0.43400729528E+02  0.00000000000E+00 0. -1.
         11    1    3    3    0    0 -0.15974283308E+02 -0.33910491984E+01  0.13412963459E+02  0.21132546721E+02  0.51100000000E-03 0. -1.
        -11    1    3    3    0    0 -0.70729758758E+01  0.63067006752E+01  0.14554672192E+01  0.95874838322E+01  0.51100000000E-03 0.  1.
         12    1    3    3    0    0 -0.11510545071E+02  0.95207134161E+01  0.82555464191E+01  0.17067239920E+02  0.00000000000E+00 0. -1.
</event>
<event>
 7    1  0.2412036E-009  0.4778726E+02  0.7816164E-02  0.1312668E+00
        -11   -1    0    0    0    0  0.00000000000E+00  0.00000000000E+00  0.45593999997E+02  0.45594000000E+02  0.51100000000E-03 0. -1.
         11   -1    0    0    0    0 -0.00000000000E+00 -0.00000000000E+00 -0.45593999997E+02  0.45594000000E+02  0.51100000000E-03 0.  1.
    9900012    2    1    2    0    0 -0.36959021317E+02  0.76674809845E+01 -0.21421136836E+02  0.47787255482E+02  0.19999929046E+02 0.  0.
         12    1    1    2    0    0  0.36959021317E+02 -0.76674809845E+01  0.21421136836E+02  0.43400744518E+02  0.00000000000E+00 0. -1.
         11    1    3    3    0    0 -0.23189033827E+02 -0.17055990606E+01 -0.63628864250E+01  0.24106569269E+02  0.51100000000E-03 0. -1.
        -11    1    3    3    0    0 -0.10686558466E+02  0.82694275616E+01 -0.75252886078E+01  0.15466607027E+02  0.51100000000E-03 0.  1.
         12    1    3    3    0    0 -0.30834290230E+01  0.11036524835E+01 -0.75329618032E+01  0.82140791859E+01  0.00000000000E+00 0. -1.
</event>
<event>
 7    1  0.2412036E-009  0.4778727E+02  0.7816164E-02  0.1312668E+00
        -11   -1    0    0    0    0  0.00000000000E+00  0.00000000000E+00  0.45593999997E+02  0.45594000000E+02  0.51100000000E-03 0.  1.
         11   -1    0    0    0    0 -0.00000000000E+00 -0.00000000000E+00 -0.45593999997E+02  0.45594000000E+02  0.51100000000E-03 0. -1.
    9900012    2    1    2    0    0  0.29246090938E+02 -0.15812714530E+02  0.27897089883E+02  0.47787269592E+02  0.19999993379E+02 0.  0.
         12    1    1    2    0    0 -0.29246090938E+02  0.15812714530E+02 -0.27897089883E+02  0.43400730408E+02  0.00000000000E+00 0. -1.
         11    1    3    3    0    0 -0.56354340220E+00 -0.52368922872E+01  0.24070452008E+01  0.57910697504E+01  0.51100000000E-03 0. -1.
        -11    1    3    3    0    0  0.25168176961E+02 -0.11511899852E+02  0.24892719136E+02  0.37223761712E+02  0.51100000000E-03 0.  1.
         12    1    3    3    0    0  0.46414573794E+01  0.93607760892E+00  0.59732554595E+00  0.47724381298E+01  0.00000000000E+00 0. -1.
</event>
<event>
 7    1  0.2412036E-009  0.4778727E+02  0.7816164E-02  0.1312668E+00
        -11   -1    0    0    0    0  0.00000000000E+00  0.00000000000E+00  0.45593999997E+02  0.45594000000E+02  0.51100000000E-03 0.  1.
         11   -1    0    0    0    0 -0.00000000000E+00 -0.00000000000E+00 -0.45593999997E+02  0.45594000000E+02  0.51100000000E-03 0. -1.
    9900012    2    1    2    0    0 -0.31542595638E+02 -0.10690002338E+02  0.27828252410E+02  0.47787272797E+02  0.20000007991E+02 0.  0.
         12    1    1    2    0    0  0.31542595638E+02  0.10690002338E+02 -0.27828252410E+02  0.43400727203E+02  0.00000000000E+00 0. -1.
         11    1    3    3    0    0 -0.55143671539E+01 -0.16219105784E+01  0.13933575742E+02  0.15072603367E+02  0.51100000000E-03 0. -1.
        -11    1    3    3    0    0 -0.25553346180E+02 -0.64755254160E+01  0.14389821749E+02  0.30032863677E+02  0.51100000000E-03 0.  1.
        -12    1    3    3    0    0 -0.47488230429E+00 -0.25925663437E+01 -0.49514508121E+00  0.26818057537E+01  0.00000000000E+00 0.  1.
</event>
<event>
 7    1  0.2412036E-009  0.4778726E+02  0.7816164E-02  0.1312668E+00
        -11   -1    0    0    0    0  0.00000000000E+00  0.00000000000E+00  0.45593999997E+02  0.45594000000E+02  0.51100000000E-03 0.  1.
         11   -1    0    0    0    0 -0.00000000000E+00 -0.00000000000E+00 -0.45593999997E+02  0.45594000000E+02  0.51100000000E-03 0. -1.
    9900012    2    1    2    0    0  0.24306442312E+02 -0.35964540462E+01  0.35775500403E+02  0.47787262119E+02  0.19999959304E+02 0.  0.
         12    1    1    2    0    0 -0.24306442312E+02  0.35964540462E+01 -0.35775500403E+02  0.43400737881E+02  0.00000000000E+00 0. -1.
         11    1    3    3    0    0  0.23311872415E+02  0.42123092777E+00  0.27538406977E+02  0.36083024958E+02  0.51100000000E-03 0. -1.
        -11    1    3    3    0    0  0.41149708022E+01 -0.27363977433E+01  0.49153512024E+01  0.69700455534E+01  0.51100000000E-03 0.  1.
         12    1    3    3    0    0 -0.31204009055E+01 -0.12812872307E+01  0.33217422231E+01  0.47341916074E+01  0.00000000000E+00 0. -1.
</event>
<event>
 7    1  0.2412036E-009  0.4778726E+02  0.7816164E-02  0.1312668E+00
        -11   -1    0    0    0    0  0.00000000000E+00  0.00000000000E+00  0.45593999997E+02  0.45594000000E+02  0.51100000000E-03 0. -1.
         11   -1    0    0    0    0 -0.00000000000E+00 -0.00000000000E+00 -0.45593999997E+02  0.45594000000E+02  0.51100000000E-03 0.  1.
    9900012    2    1    2    0    0  0.42817553844E+02 -0.58636094559E+01 -0.39873532512E+01  0.47787264764E+02  0.19999971365E+02 0.  0.
         12    1    1    2    0    0 -0.42817553844E+02  0.58636094559E+01  0.39873532512E+01  0.43400735236E+02  0.00000000000E+00 0. -1.
         11    1    3    3    0    0  0.92548595978E+00  0.18032438141E+01 -0.45564476893E+01  0.49869257385E+01  0.51100000000E-03 0. -1.
        -11    1    3    3    0    0  0.36114094341E+02 -0.58842399165E+01 -0.80616654736E+00  0.36599207563E+02  0.51100000000E-03 0.  1.
         12    1    3    3    0    0  0.57779735435E+01 -0.17826133535E+01  0.13752609855E+01  0.62011314625E+01  0.00000000000E+00 0. -1.
</event>
<event>
 7    1  0.2412036E-009  0.4778727E+02  0.7816164E-02  0.1312668E+00
        -11   -1    0    0    0    0  0.00000000000E+00  0.00000000000E+00  0.45593999997E+02  0.45594000000E+02  0.51100000000E-03 0.  1.
         11   -1    0    0    0    0 -0.00000000000E+00 -0.00000000000E+00 -0.45593999997E+02  0.45594000000E+02  0.51100000000E-03 0. -1.
    9900012    2    1    2    0    0  0.28614372907E+02 -0.28721234341E+02  0.15489724873E+02  0.47787271715E+02  0.20000003059E+02 0.  0.
         12    1    1    2    0    0 -0.28614372907E+02  0.28721234341E+02 -0.15489724873E+02  0.43400728285E+02  0.00000000000E+00 0. -1.
         11    1    3    3    0    0  0.64371982324E+01 -0.11706958954E+01  0.14081178789E+01  0.66925963710E+01  0.51100000000E-03 0. -1.
        -11    1    3    3    0    0  0.21814584722E+02 -0.17683623642E+02  0.13619702799E+02  0.31210302086E+02  0.51100000000E-03 0.  1.
        -12    1    3    3    0    0  0.36258995304E+00 -0.98669148040E+01  0.46190419505E+00  0.98843732583E+01  0.00000000000E+00 0.  1.
</event>
<event>
 7    1  0.2412036E-009  0.4778727E+02  0.7816164E-02  0.1312668E+00
        -11   -1    0    0    0    0  0.00000000000E+00  0.00000000000E+00  0.45593999997E+02  0.45594000000E+02  0.51100000000E-03 0.  1.
         11   -1    0    0    0    0 -0.00000000000E+00 -0.00000000000E+00 -0.45593999997E+02  0.45594000000E+02  0.51100000000E-03 0. -1.
    9900012    2    1    2    0    0  0.25219515892E+02 -0.15627082491E+02  0.31676386836E+02  0.47787272218E+02  0.20000005349E+02 0.  0.
         12    1    1    2    0    0 -0.25219515892E+02  0.15627082491E+02 -0.31676386836E+02  0.43400727782E+02  0.00000000000E+00 0. -1.
         11    1    3    3    0    0  0.10200434044E+02 -0.14203558023E+02  0.17626849147E+02  0.24829331975E+02  0.51100000000E-03 0. -1.
        -11    1    3    3    0    0  0.48990089627E+01  0.18479649268E+01  0.10521512763E+02  0.11752339949E+02  0.51100000000E-03 0.  1.
         12    1    3    3    0    0  0.10120072886E+02 -0.32714893944E+01  0.35280249262E+01  0.11205600294E+02  0.00000000000E+00 0. -1.
</event>
<event>
 7    1  0.2412036E-009  0.4778727E+02  0.7816164E-02  0.1312668E+00
        -11   -1    0    0    0    0  0.00000000000E+00  0.00000000000E+00  0.45593999997E+02  0.45594000000E+02  0.51100000000E-03 0.  1.
         11   -1    0    0    0    0 -0.00000000000E+00 -0.00000000000E+00 -0.45593999997E+02  0.45594000000E+02  0.51100000000E-03 0. -1.
    9900012    2    1    2    0    0  0.12539517356E+02 -0.32737644318E+02  0.25585748484E+02  0.47787269862E+02  0.19999994611E+02 0.  0.
         12    1    1    2    0    0 -0.12539517356E+02  0.32737644318E+02 -0.25585748484E+02  0.43400730138E+02  0.00000000000E+00 0. -1.
         11    1    3    3    0    0 -0.35088003580E+00 -0.86283179695E+00 -0.27654499257E+01  0.29181002488E+01  0.51100000000E-03 0. -1.
        -11    1    3    3    0    0  0.88705297775E+01 -0.27151975211E+02  0.23719051051E+02  0.37128283551E+02  0.51100000000E-03 0.  1.
         12    1    3    3    0    0  0.40198676143E+01 -0.47228373098E+01  0.46321473583E+01  0.77408860630E+01  0.00000000000E+00 0. -1.
</event>
<event>
 7    1  0.2412036E-009  0.4778727E+02  0.7816164E-02  0.1312668E+00
        -11   -1    0    0    0    0  0.00000000000E+00  0.00000000000E+00  0.45593999997E+02  0.45594000000E+02  0.51100000000E-03 0.  1.
         11   -1    0    0    0    0 -0.00000000000E+00 -0.00000000000E+00 -0.45593999997E+02  0.45594000000E+02  0.51100000000E-03 0. -1.
    9900012    2    1    2    0    0  0.31721620763E+02 -0.87683548929E+01  0.28292720565E+02  0.47787270647E+02  0.19999998190E+02 0.  0.
         12    1    1    2    0    0 -0.31721620763E+02  0.87683548929E+01 -0.28292720565E+02  0.43400729353E+02  0.00000000000E+00 0. -1.
         11    1    3    3    0    0  0.21493705806E+02  0.61638465948E+00  0.14611477987E+02  0.25997203860E+02  0.51100000000E-03 0.  1.
        -11    1    3    3    0    0  0.81235829559E+01 -0.10545743531E+02  0.77810084797E+01  0.15419124485E+02  0.51100000000E-03 0. -1.
        -12    1    3    3    0    0  0.21043320014E+01  0.11610039781E+01  0.59002340984E+01  0.63709423028E+01  0.00000000000E+00 0.  1.
</event>
<event>
 7    1  0.2412036E-009  0.4778727E+02  0.7816164E-02  0.1312668E+00
        -11   -1    0    0    0    0  0.00000000000E+00  0.00000000000E+00  0.45593999997E+02  0.45594000000E+02  0.51100000000E-03 0.  1.
         11   -1    0    0    0    0 -0.00000000000E+00 -0.00000000000E+00 -0.45593999997E+02  0.45594000000E+02  0.51100000000E-03 0. -1.
    9900012    2    1    2    0    0 -0.26009175206E+02  0.33065935051E+02  0.10667245861E+02  0.47787269707E+02  0.19999993902E+02 0.  0.
         12    1    1    2    0    0  0.26009175206E+02 -0.33065935051E+02 -0.10667245861E+02  0.43400730293E+02  0.00000000000E+00 0. -1.
         11    1    3    3    0    0 -0.14511527272E+02  0.24161261544E+02 -0.87950958763E+00  0.28197952417E+02  0.51100000000E-03 0. -1.
        -11    1    3    3    0    0 -0.46355679767E+01  0.29947106633E+00  0.48004507744E+01  0.66800075812E+01  0.51100000000E-03 0.  1.
        -12    1    3    3    0    0 -0.68620799578E+01  0.86052024411E+01  0.67463046738E+01  0.12909309709E+02  0.00000000000E+00 0.  1.
</event>
<event>
 7    1  0.2412036E-009  0.4778727E+02  0.7816164E-02  0.1312668E+00
        -11   -1    0    0    0    0  0.00000000000E+00  0.00000000000E+00  0.45593999997E+02  0.45594000000E+02  0.51100000000E-03 0.  1.
         11   -1    0    0    0    0 -0.00000000000E+00 -0.00000000000E+00 -0.45593999997E+02  0.45594000000E+02  0.51100000000E-03 0. -1.
    9900012    2    1    2    0    0  0.19660324670E+00 -0.24507933841E+02  0.35818232305E+02  0.47787271441E+02  0.20000001809E+02 0.  0.
         12    1    1    2    0    0 -0.19660324670E+00  0.24507933841E+02 -0.35818232305E+02  0.43400728559E+02  0.00000000000E+00 0. -1.
         11    1    3    3    0    0 -0.73837781341E+01 -0.87251477821E+01  0.16042738118E+02  0.19698168187E+02  0.51100000000E-03 0. -1.
        -11    1    3    3    0    0  0.33970098033E+01 -0.62484818379E+01  0.15068960214E+02  0.16663035830E+02  0.51100000000E-03 0.  1.
         12    1    3    3    0    0  0.41833715775E+01 -0.95343042208E+01  0.47065339730E+01  0.11426067424E+02  0.00000000000E+00 0. -1.
</event>
<event>
 7    1  0.2412036E-009  0.4778727E+02  0.7816164E-02  0.1312668E+00
        -11   -1    0    0    0    0  0.00000000000E+00  0.00000000000E+00  0.45593999997E+02  0.45594000000E+02  0.51100000000E-03 0.  1.
         11   -1    0    0    0    0 -0.00000000000E+00 -0.00000000000E+00 -0.45593999997E+02  0.45594000000E+02  0.51100000000E-03 0. -1.
    9900012    2    1    2    0    0  0.67658008255E+01  0.27376891496E+02  0.32990191234E+02  0.47787274586E+02  0.20000016149E+02 0.  0.
         12    1    1    2    0    0 -0.67658008255E+01 -0.27376891496E+02 -0.32990191234E+02  0.43400725414E+02  0.00000000000E+00 0. -1.
         11    1    3    3    0    0  0.44429314754E+01  0.17471264272E+02  0.66061251201E+01  0.19199625120E+02  0.51100000000E-03 0. -1.
        -11    1    3    3    0    0  0.33188545601E+01  0.73419467209E+01  0.17070371064E+02  0.18876348846E+02  0.51100000000E-03 0.  1.
         12    1    3    3    0    0 -0.99598520995E+00  0.25636805028E+01  0.93136950500E+01  0.97113006206E+01  0.00000000000E+00 0. -1.
</event>
<event>
 7    1  0.2412036E-009  0.4778727E+02  0.7816164E-02  0.1312668E+00
        -11   -1    0    0    0    0  0.00000000000E+00  0.00000000000E+00  0.45593999997E+02  0.45594000000E+02  0.51100000000E-03 0.  1.
         11   -1    0    0    0    0 -0.00000000000E+00 -0.00000000000E+00 -0.45593999997E+02  0.45594000000E+02  0.51100000000E-03 0. -1.
    9900012    2    1    2    0    0  0.30938188548E+01  0.35867166359E+02  0.24240417637E+02  0.47787272069E+02  0.20000004670E+02 0.  0.
         12    1    1    2    0    0 -0.30938188548E+01 -0.35867166359E+02 -0.24240417637E+02  0.43400727931E+02  0.00000000000E+00 0. -1.
         11    1    3    3    0    0 -0.22375334656E+01  0.47034190671E+01  0.68957322029E+00  0.52539716803E+01  0.51100000000E-03 0. -1.
        -11    1    3    3    0    0  0.20502688360E+00  0.29413752997E+02  0.22457079464E+02  0.37007179300E+02  0.51100000000E-03 0.  1.
        -12    1    3    3    0    0  0.51263254367E+01  0.17499942946E+01  0.10937649536E+01  0.55261210888E+01  0.00000000000E+00 0.  1.
</event>
<event>
 7    1  0.2412036E-009  0.4778727E+02  0.7816164E-02  0.1312668E+00
        -11   -1    0    0    0    0  0.00000000000E+00  0.00000000000E+00  0.45593999997E+02  0.45594000000E+02  0.51100000000E-03 0.  1.
         11   -1    0    0    0    0 -0.00000000000E+00 -0.00000000000E+00 -0.45593999997E+02  0.45594000000E+02  0.51100000000E-03 0. -1.
    9900012    2    1    2    0    0 -0.37863010032E+02  0.16767728109E+02  0.12994574861E+02  0.47787271776E+02  0.20000003333E+02 0.  0.
         12    1    1    2    0    0  0.37863010032E+02 -0.16767728109E+02 -0.12994574861E+02  0.43400728224E+02  0.00000000000E+00 0. -1.
         11    1    3    3    0    0 -0.20367224713E+02  0.16231385322E+02  0.37381667424E+01  0.26310750708E+02  0.51100000000E-03 0. -1.
        -11    1    3    3    0    0 -0.46850031227E+01 -0.32537757459E+01  0.10565102691E+01  0.58010796473E+01  0.51100000000E-03 0.  1.
         12    1    3    3    0    0 -0.12810782196E+02  0.37901185331E+01  0.81998978498E+01  0.15675441420E+02  0.00000000000E+00 0. -1.
</event>
<event>
 7    1  0.2412036E-009  0.4778728E+02  0.7816164E-02  0.1312668E+00
        -11   -1    0    0    0    0  0.00000000000E+00  0.00000000000E+00  0.45593999997E+02  0.45594000000E+02  0.51100000000E-03 0.  1.
         11   -1    0    0    0    0 -0.00000000000E+00 -0.00000000000E+00 -0.45593999997E+02  0.45594000000E+02  0.51100000000E-03 0. -1.
    9900012    2    1    2    0    0 -0.35650341870E+02 -0.24598959179E+02  0.27508448970E+01  0.47787276322E+02  0.20000024063E+02 0.  0.
         12    1    1    2    0    0  0.35650341870E+02  0.24598959179E+02 -0.27508448970E+01  0.43400723678E+02  0.00000000000E+00 0. -1.
         11    1    3    3    0    0 -0.14046464660E+02 -0.13214216171E+02  0.41757332597E+01  0.19732091297E+02  0.51100000000E-03 0. -1.
        -11    1    3    3    0    0 -0.16856010849E+02 -0.13104420370E+02  0.27186759611E+01  0.21523060522E+02  0.51100000000E-03 0.  1.
         12    1    3    3    0    0 -0.47478663608E+01  0.17196773626E+01 -0.41435643237E+01  0.65321245025E+01  0.00000000000E+00 0. -1.
</event>
<event>
 7    1  0.2412036E-009  0.4778727E+02  0.7816164E-02  0.1312668E+00
        -11   -1    0    0    0    0  0.00000000000E+00  0.00000000000E+00  0.45593999997E+02  0.45594000000E+02  0.51100000000E-03 0.  1.
         11   -1    0    0    0    0 -0.00000000000E+00 -0.00000000000E+00 -0.45593999997E+02  0.45594000000E+02  0.51100000000E-03 0. -1.
    9900012    2    1    2    0    0  0.44392832652E+01  0.41749540276E+02  0.10995088085E+02  0.47787270615E+02  0.19999998041E+02 0.  0.
         12    1    1    2    0    0 -0.44392832652E+01 -0.41749540276E+02 -0.10995088085E+02  0.43400729385E+02  0.00000000000E+00 0. -1.
         11    1    3    3    0    0  0.47660180390E+01  0.14502419454E+00  0.17853074341E+01  0.50914912217E+01  0.51100000000E-03 0. -1.
        -11    1    3    3    0    0  0.56098205652E+00  0.25846947217E+02  0.67799847808E+01  0.26727281478E+02  0.51100000000E-03 0.  1.
         12    1    3    3    0    0 -0.88771683040E+00  0.15757568865E+02  0.24297958701E+01  0.15968497915E+02  0.00000000000E+00 0. -1.
</event>
<event>
 7    1  0.2412036E-009  0.4778727E+02  0.7816164E-02  0.1312668E+00
        -11   -1    0    0    0    0  0.00000000000E+00  0.00000000000E+00  0.45593999997E+02  0.45594000000E+02  0.51100000000E-03 0.  1.
         11   -1    0    0    0    0 -0.00000000000E+00 -0.00000000000E+00 -0.45593999997E+02  0.45594000000E+02  0.51100000000E-03 0. -1.
    9900012    2    1    2    0    0 -0.79402252480E+00  0.18554130136E+02  0.39226744818E+02  0.47787265837E+02  0.19999976256E+02 0.  0.
         12    1    1    2    0    0  0.79402252480E+00 -0.18554130136E+02 -0.39226744818E+02  0.43400734163E+02  0.00000000000E+00 0. -1.
         11    1    3    3    0    0 -0.62043838275E+01  0.14182492594E+02  0.25214045093E+02  0.29586915099E+02  0.51100000000E-03 0. -1.
        -11    1    3    3    0    0  0.33750295921E+01 -0.15311662817E+01  0.10275714027E+02  0.10923625495E+02  0.51100000000E-03 0.  1.
         12    1    3    3    0    0  0.20353317105E+01  0.59028038234E+01  0.37369856984E+01  0.72767252428E+01  0.00000000000E+00 0. -1.
</event>
<event>
 7    1  0.2412036E-009  0.4778727E+02  0.7816164E-02  0.1312668E+00
        -11   -1    0    0    0    0  0.00000000000E+00  0.00000000000E+00  0.45593999997E+02  0.45594000000E+02  0.51100000000E-03 0.  1.
         11   -1    0    0    0    0 -0.00000000000E+00 -0.00000000000E+00 -0.45593999997E+02  0.45594000000E+02  0.51100000000E-03 0. -1.
    9900012    2    1    2    0    0 -0.20523598164E+01 -0.42704097012E+02 -0.74680135040E+01  0.47787270650E+02  0.19999998200E+02 0.  0.
         12    1    1    2    0    0  0.20523598164E+01  0.42704097012E+02  0.74680135040E+01  0.43400729350E+02  0.00000000000E+00 0. -1.
         11    1    3    3    0    0 -0.73249631852E+01 -0.14686672526E+02  0.10005931517E+01  0.16442464002E+02  0.51100000000E-03 0. -1.
        -11    1    3    3    0    0  0.35809232835E+01 -0.26039733559E+02 -0.46030424155E+01  0.26684803449E+02  0.51100000000E-03 0.  1.
         12    1    3    3    0    0  0.16916800852E+01 -0.19776909276E+01 -0.38655642402E+01  0.46600031986E+01  0.00000000000E+00 0. -1.
</event>
<event>
 7    1  0.2412036E-009  0.4778727E+02  0.7816164E-02  0.1312668E+00
        -11   -1    0    0    0    0  0.00000000000E+00  0.00000000000E+00  0.45593999997E+02  0.45594000000E+02  0.51100000000E-03 0. -1.
         11   -1    0    0    0    0 -0.00000000000E+00 -0.00000000000E+00 -0.45593999997E+02  0.45594000000E+02  0.51100000000E-03 0.  1.
    9900012    2    1    2    0    0 -0.38437426545E+02  0.15293357643E+02 -0.13126333888E+02  0.47787272025E+02  0.20000004473E+02 0.  0.
         12    1    1    2    0    0  0.38437426545E+02 -0.15293357643E+02  0.13126333888E+02  0.43400727975E+02  0.00000000000E+00 0. -1.
         11    1    3    3    0    0 -0.48942025442E+01  0.65943560832E+01 -0.44095984707E+01  0.93211216938E+01  0.51100000000E-03 0. -1.
        -11    1    3    3    0    0 -0.10715537407E+02  0.89112232743E+01 -0.69382642405E+01  0.15568306044E+02  0.51100000000E-03 0.  1.
         12    1    3    3    0    0 -0.22827686594E+02 -0.21222171419E+00 -0.17784711769E+01  0.22897844287E+02  0.00000000000E+00 0. -1.
</event>
<event>
 7    1  0.2412036E-009  0.4778727E+02  0.7816164E-02  0.1312668E+00
        -11   -1    0    0    0    0  0.00000000000E+00  0.00000000000E+00  0.45593999997E+02  0.45594000000E+02  0.51100000000E-03 0.  1.
         11   -1    0    0    0    0 -0.00000000000E+00 -0.00000000000E+00 -0.45593999997E+02  0.45594000000E+02  0.51100000000E-03 0. -1.
    9900012    2    1    2    0    0 -0.27487812211E+02 -0.13216371875E+02  0.30876714042E+02  0.47787265263E+02  0.19999973642E+02 0.  0.
         12    1    1    2    0    0  0.27487812211E+02  0.13216371875E+02 -0.30876714042E+02  0.43400734737E+02  0.00000000000E+00 0. -1.
         11    1    3    3    0    0 -0.28217146687E+02 -0.15604175229E+02  0.26351229447E+02  0.41642345580E+02  0.51100000000E-03 0. -1.
        -11    1    3    3    0    0  0.20592517566E+01  0.16243670167E+01  0.29083999743E+01  0.39163601307E+01  0.51100000000E-03 0.  1.
         12    1    3    3    0    0 -0.13299172798E+01  0.76343633731E+00  0.16170846203E+01  0.22285595530E+01  0.00000000000E+00 0. -1.
</event>
<event>
 7    1  0.2412036E-009  0.4778728E+02  0.7816164E-02  0.1312668E+00
        -11   -1    0    0    0    0  0.00000000000E+00  0.00000000000E+00  0.45593999997E+02  0.45594000000E+02  0.51100000000E-03 0.  1.
         11   -1    0    0    0    0 -0.00000000000E+00 -0.00000000000E+00 -0.45593999997E+02  0.45594000000E+02  0.51100000000E-03 0. -1.
    9900012    2    1    2    0    0  0.13885991873E+02 -0.63191386720E+01  0.40630906312E+02  0.47787276140E+02  0.20000023233E+02 0.  0.
         12    1    1    2    0    0 -0.13885991873E+02  0.63191386720E+01 -0.40630906312E+02  0.43400723860E+02  0.00000000000E+00 0. -1.
         11    1    3    3    0    0  0.78906000579E+00 -0.48097033066E+01  0.19706255237E+01  0.52573022365E+01  0.51100000000E-03 0. -1.
        -11    1    3    3    0    0  0.13454367295E+02 -0.38683653503E+01  0.24910802684E+02  0.28575030016E+02  0.51100000000E-03 0.  1.
        -12    1    3    3    0    0 -0.35743542842E+00  0.23589299849E+01  0.13749478105E+02  0.13954943888E+02  0.00000000000E+00 0.  1.
</event>
<event>
 7    1  0.2412036E-009  0.4778727E+02  0.7816164E-02  0.1312668E+00
        -11   -1    0    0    0    0  0.00000000000E+00  0.00000000000E+00  0.45593999997E+02  0.45594000000E+02  0.51100000000E-03 0.  1.
         11   -1    0    0    0    0 -0.00000000000E+00 -0.00000000000E+00 -0.45593999997E+02  0.45594000000E+02  0.51100000000E-03 0. -1.
    9900012    2    1    2    0    0 -0.20224296886E+02 -0.75772125788E+01  0.37645540947E+02  0.47787273183E+02  0.20000009753E+02 0.  0.
         12    1    1    2    0    0  0.20224296886E+02  0.75772125788E+01 -0.37645540947E+02  0.43400726817E+02  0.00000000000E+00 0. -1.
         11    1    3    3    0    0 -0.14175553215E+02 -0.37595324404E+01  0.89672011703E+01  0.17189854281E+02  0.51100000000E-03 0. -1.
        -11    1    3    3    0    0 -0.55763144060E+01  0.10266147422E+01  0.17764426964E+02  0.18647361363E+02  0.51100000000E-03 0.  1.
         12    1    3    3    0    0 -0.47242926505E+00 -0.48442948806E+01  0.10913912813E+02  0.11950057539E+02  0.00000000000E+00 0. -1.
</event>
<event>
 7    1  0.2412036E-009  0.4778729E+02  0.7816164E-02  0.1312668E+00
        -11   -1    0    0    0    0  0.00000000000E+00  0.00000000000E+00  0.45593999997E+02  0.45594000000E+02  0.51100000000E-03 0.  1.
         11   -1    0    0    0    0 -0.00000000000E+00 -0.00000000000E+00 -0.45593999997E+02  0.45594000000E+02  0.51100000000E-03 0. -1.
    9900012    2    1    2    0    0 -0.34113903992E+02 -0.26006466802E+02  0.65975218793E+01  0.47787285075E+02  0.20000063970E+02 0.  0.
         12    1    1    2    0    0  0.34113903992E+02  0.26006466802E+02 -0.65975218793E+01  0.43400714925E+02  0.00000000000E+00 0. -1.
         11    1    3    3    0    0 -0.11592847727E+02 -0.15382451724E+02  0.10009231954E+02  0.21707110910E+02  0.51100000000E-03 0. -1.
        -11    1    3    3    0    0 -0.65588264516E+01 -0.62952380614E+01  0.42928257559E+00  0.91012367546E+01  0.51100000000E-03 0.  1.
         12    1    3    3    0    0 -0.15962229813E+02 -0.43287770164E+01 -0.38409926505E+01  0.16978937411E+02  0.00000000000E+00 0. -1.
</event>
<event>
 7    1  0.2412036E-009  0.4778727E+02  0.7816164E-02  0.1312668E+00
        -11   -1    0    0    0    0  0.00000000000E+00  0.00000000000E+00  0.45593999997E+02  0.45594000000E+02  0.51100000000E-03 0.  1.
         11   -1    0    0    0    0 -0.00000000000E+00 -0.00000000000E+00 -0.45593999997E+02  0.45594000000E+02  0.51100000000E-03 0. -1.
    9900012    2    1    2    0    0 -0.41129822515E+02 -0.42312899184E+01  0.13193078500E+02  0.47787269191E+02  0.19999991549E+02 0.  0.
         12    1    1    2    0    0  0.41129822515E+02  0.42312899184E+01 -0.13193078500E+02  0.43400730809E+02  0.00000000000E+00 0. -1.
         11    1    3    3    0    0 -0.11169556525E+02 -0.26724107981E+01 -0.21927645267E+01  0.11692261927E+02  0.51100000000E-03 0. -1.
        -11    1    3    3    0    0 -0.20354644261E+02  0.49100446743E+01  0.11443593193E+02  0.23861599006E+02  0.51100000000E-03 0.  1.
        -12    1    3    3    0    0 -0.96056217287E+01 -0.64689237946E+01  0.39422498344E+01  0.12233408258E+02  0.00000000000E+00 0.  1.
</event>
<event>
 7    1  0.2412036E-009  0.4778727E+02  0.7816164E-02  0.1312668E+00
        -11   -1    0    0    0    0  0.00000000000E+00  0.00000000000E+00  0.45593999997E+02  0.45594000000E+02  0.51100000000E-03 0.  1.
         11   -1    0    0    0    0 -0.00000000000E+00 -0.00000000000E+00 -0.45593999997E+02  0.45594000000E+02  0.51100000000E-03 0. -1.
    9900012    2    1    2    0    0  0.33767956494E+02 -0.26861398729E+02  0.46705434996E+01  0.47787267241E+02  0.19999982659E+02 0.  0.
         12    1    1    2    0    0 -0.33767956494E+02  0.26861398729E+02 -0.46705434996E+01  0.43400732759E+02  0.00000000000E+00 0. -1.
         11    1    3    3    0    0  0.25670115197E+01 -0.73180657921E+01 -0.14440563978E+01  0.78885318166E+01  0.51100000000E-03 0. -1.
        -11    1    3    3    0    0  0.23903595701E+02 -0.90421379015E+01 -0.37315770118E+00  0.25559369949E+02  0.51100000000E-03 0.  1.
        -12    1    3    3    0    0  0.72973492732E+01 -0.10501195035E+02  0.64877575986E+01  0.14339365475E+02  0.00000000000E+00 0.  1.
</event>
<event>
 7    1  0.2412036E-009  0.4778727E+02  0.7816164E-02  0.1312668E+00
        -11   -1    0    0    0    0  0.00000000000E+00  0.00000000000E+00  0.45593999997E+02  0.45594000000E+02  0.51100000000E-03 0.  1.
         11   -1    0    0    0    0 -0.00000000000E+00 -0.00000000000E+00 -0.45593999997E+02  0.45594000000E+02  0.51100000000E-03 0. -1.
    9900012    2    1    2    0    0 -0.31421311611E+02 -0.67890552254E+01 -0.29158756377E+02  0.47787272268E+02  0.20000005579E+02 0.  0.
         12    1    1    2    0    0  0.31421311611E+02  0.67890552254E+01  0.29158756377E+02  0.43400727732E+02  0.00000000000E+00 0. -1.
         11    1    3    3    0    0  0.20822596302E+01  0.94970071350E+00 -0.42372643675E+00  0.23275053098E+01  0.51100000000E-03 0. -1.
        -11    1    3    3    0    0 -0.19196839215E+02 -0.59538993666E+01 -0.12157969990E+02  0.23490078503E+02  0.51100000000E-03 0.  1.
        -12    1    3    3    0    0 -0.14306732027E+02 -0.17848565724E+01 -0.16577059950E+02  0.21969688456E+02  0.00000000000E+00 0.  1.
</event>
<event>
 7    1  0.2412036E-009  0.4778727E+02  0.7816164E-02  0.1312668E+00
        -11   -1    0    0    0    0  0.00000000000E+00  0.00000000000E+00  0.45593999997E+02  0.45594000000E+02  0.51100000000E-03 0.  1.
         11   -1    0    0    0    0 -0.00000000000E+00 -0.00000000000E+00 -0.45593999997E+02  0.45594000000E+02  0.51100000000E-03 0. -1.
    9900012    2    1    2    0    0  0.41648587584E+02 -0.12089318900E+02 -0.16931465056E+01  0.47787271616E+02  0.20000002606E+02 0.  0.
         12    1    1    2    0    0 -0.41648587584E+02  0.12089318900E+02  0.16931465056E+01  0.43400728384E+02  0.00000000000E+00 0. -1.
         11    1    3    3    0    0  0.17510468299E+01  0.25004443681E+01 -0.18652042311E+01  0.35773417678E+01  0.51100000000E-03 0. -1.
        -11    1    3    3    0    0  0.34707809170E+02 -0.15815916294E+02  0.28401016728E+01  0.38247109739E+02  0.51100000000E-03 0.  1.
        -12    1    3    3    0    0  0.51897315838E+01  0.12261530258E+01 -0.26680439473E+01  0.59628201096E+01  0.00000000000E+00 0.  1.
</event>
<event>
 7    1  0.2412036E-009  0.4778727E+02  0.7816164E-02  0.1312668E+00
        -11   -1    0    0    0    0  0.00000000000E+00  0.00000000000E+00  0.45593999997E+02  0.45594000000E+02  0.51100000000E-03 0.  1.
         11   -1    0    0    0    0 -0.00000000000E+00 -0.00000000000E+00 -0.45593999997E+02  0.45594000000E+02  0.51100000000E-03 0. -1.
    9900012    2    1    2    0    0 -0.48191400340E+01  0.33172046912E+02  0.27568361907E+02  0.47787269761E+02  0.19999994150E+02 0.  0.
         12    1    1    2    0    0  0.48191400340E+01 -0.33172046912E+02 -0.27568361907E+02  0.43400730239E+02  0.00000000000E+00 0. -1.
         11    1    3    3    0    0 -0.60908905561E+01  0.25299966320E+02  0.17973689410E+02  0.31626583041E+02  0.51100000000E-03 0. -1.
        -11    1    3    3    0    0  0.41201191479E+01  0.79945410495E+01  0.98010775507E+01  0.13302224994E+02  0.51100000000E-03 0.  1.
         12    1    3    3    0    0 -0.28483686259E+01 -0.12246045728E+00 -0.20640505440E+00  0.28584617260E+01  0.00000000000E+00 0. -1.
</event>
<event>
 7    1  0.2412036E-009  0.4778727E+02  0.7816164E-02  0.1312668E+00
        -11   -1    0    0    0    0  0.00000000000E+00  0.00000000000E+00  0.45593999997E+02  0.45594000000E+02  0.51100000000E-03 0.  1.
         11   -1    0    0    0    0 -0.00000000000E+00 -0.00000000000E+00 -0.45593999997E+02  0.45594000000E+02  0.51100000000E-03 0. -1.
    9900012    2    1    2    0    0 -0.42924786567E+02  0.60134542600E+01 -0.22190515813E+01  0.47787272772E+02  0.20000007878E+02 0.  0.
         12    1    1    2    0    0  0.42924786567E+02 -0.60134542600E+01  0.22190515813E+01  0.43400727228E+02  0.00000000000E+00 0. -1.
         11    1    3    3    0    0 -0.75535643458E+01 -0.28432608052E+01 -0.88650151470E+00  0.81195043894E+01  0.51100000000E-03 0. -1.
        -11    1    3    3    0    0 -0.30411340130E+02  0.46456707827E+01 -0.63975731232E+01  0.31422297937E+02  0.51100000000E-03 0.  1.
        -12    1    3    3    0    0 -0.49598820916E+01  0.42110442825E+01  0.50650230565E+01  0.82454704459E+01  0.00000000000E+00 0.  1.
</event>
<event>
 7    1  0.2412036E-009  0.4778728E+02  0.7816164E-02  0.1312668E+00
        -11   -1    0    0    0    0  0.00000000000E+00  0.00000000000E+00  0.45593999997E+02  0.45594000000E+02  0.51100000000E-03 0.  1.
         11   -1    0    0    0    0 -0.00000000000E+00 -0.00000000000E+00 -0.45593999997E+02  0.45594000000E+02  0.51100000000E-03 0. -1.
    9900012    2    1    2    0    0 -0.18532031784E+02  0.81100784883E+01  0.38398086837E+02  0.47787278256E+02  0.20000032882E+02 0.  0.
         12    1    1    2    0    0  0.18532031784E+02 -0.81100784883E+01 -0.38398086837E+02  0.43400721744E+02  0.00000000000E+00 0. -1.
         11    1    3    3    0    0 -0.74491895643E+01  0.79139007990E+00  0.55794318365E+00  0.75118589098E+01  0.51100000000E-03 0. -1.
        -11    1    3    3    0    0 -0.10155893089E+02  0.64362374218E+01  0.29802591896E+02  0.32136611529E+02  0.51100000000E-03 0.  1.
         12    1    3    3    0    0 -0.92694913012E+00  0.88245098661E+00  0.80375517574E+01  0.81388078173E+01  0.00000000000E+00 0. -1.
</event>
<event>
 7    1  0.2412036E-009  0.4778726E+02  0.7816164E-02  0.1312668E+00
        -11   -1    0    0    0    0  0.00000000000E+00  0.00000000000E+00  0.45593999997E+02  0.45594000000E+02  0.51100000000E-03 0.  1.
         11   -1    0    0    0    0 -0.00000000000E+00 -0.00000000000E+00 -0.45593999997E+02  0.45594000000E+02  0.51100000000E-03 0. -1.
    9900012    2    1    2    0    0 -0.28769823445E+02 -0.32453052200E+02  0.16495810549E+01  0.47787257428E+02  0.19999937918E+02 0.  0.
         12    1    1    2    0    0  0.28769823445E+02  0.32453052200E+02 -0.16495810549E+01  0.43400742572E+02  0.00000000000E+00 0. -1.
         11    1    3    3    0    0 -0.12843995213E+01 -0.17659706454E-01  0.28088118373E+01  0.30885948575E+01  0.51100000000E-03 0. -1.
        -11    1    3    3    0    0 -0.17532055338E+02 -0.12364401837E+02 -0.48457799235E+01  0.21993930538E+02  0.51100000000E-03 0.  1.
        -12    1    3    3    0    0 -0.99533685851E+01 -0.20070990656E+02  0.36865491411E+01  0.22704732033E+02  0.00000000000E+00 0.  1.
</event>
<event>
 7    1  0.2412036E-009  0.4778722E+02  0.7816164E-02  0.1312668E+00
        -11   -1    0    0    0    0  0.00000000000E+00  0.00000000000E+00  0.45593999997E+02  0.45594000000E+02  0.51100000000E-03 0.  1.
         11   -1    0    0    0    0 -0.00000000000E+00 -0.00000000000E+00 -0.45593999997E+02  0.45594000000E+02  0.51100000000E-03 0. -1.
    9900012    2    1    2    0    0  0.26727078733E+02  0.24017627712E+02  0.24340189004E+02  0.47787216836E+02  0.19999752842E+02 0.  0.
         12    1    1    2    0    0 -0.26727078733E+02 -0.24017627712E+02 -0.24340189004E+02  0.43400783164E+02  0.00000000000E+00 0. -1.
         11    1    3    3    0    0 -0.64979443276E+00  0.92551448036E+00 -0.23197812573E+01  0.25807353993E+01  0.51100000000E-03 0. -1.
        -11    1    3    3    0    0  0.12265224983E+02  0.12092394434E+02  0.16859084157E+02  0.24101669359E+02  0.51100000000E-03 0.  1.
         12    1    3    3    0    0  0.15111648183E+02  0.10999718798E+02  0.98008861043E+01  0.21104812078E+02  0.00000000000E+00 0. -1.
</event>
<event>
 7    1  0.2412036E-009  0.4778727E+02  0.7816164E-02  0.1312668E+00
        -11   -1    0    0    0    0  0.00000000000E+00  0.00000000000E+00  0.45593999997E+02  0.45594000000E+02  0.51100000000E-03 0.  1.
         11   -1    0    0    0    0 -0.00000000000E+00 -0.00000000000E+00 -0.45593999997E+02  0.45594000000E+02  0.51100000000E-03 0. -1.
    9900012    2    1    2    0    0 -0.15290351003E+02  0.37068425512E+02 -0.16606039311E+02  0.47787267917E+02  0.19999985739E+02 0.  0.
         12    1    1    2    0    0  0.15290351003E+02 -0.37068425512E+02  0.16606039311E+02  0.43400732083E+02  0.00000000000E+00 0. -1.
         11    1    3    3    0    0 -0.13867276823E+02  0.28695963379E+02 -0.17811570698E+02  0.36510433190E+02  0.51100000000E-03 0. -1.
        -11    1    3    3    0    0 -0.11182430176E+01  0.96927067109E+01  0.55231025370E+00  0.97726187743E+01  0.51100000000E-03 0.  1.
         12    1    3    3    0    0 -0.30483116236E+00 -0.13202445775E+01  0.65322113336E+00  0.15042159522E+01  0.00000000000E+00 0. -1.
</event>
<event>
 7    1  0.2412036E-009  0.4778727E+02  0.7816164E-02  0.1312668E+00
        -11   -1    0    0    0    0  0.00000000000E+00  0.00000000000E+00  0.45593999997E+02  0.45594000000E+02  0.51100000000E-03 0. -1.
         11   -1    0    0    0    0 -0.00000000000E+00 -0.00000000000E+00 -0.45593999997E+02  0.45594000000E+02  0.51100000000E-03 0.  1.
    9900012    2    1    2    0    0  0.21226877171E+02 -0.24440101431E+02 -0.28908899469E+02  0.47787270272E+02  0.19999996478E+02 0.  0.
         12    1    1    2    0    0 -0.21226877171E+02  0.24440101431E+02  0.28908899469E+02  0.43400729728E+02  0.00000000000E+00 0. -1.
         11    1    3    3    0    0  0.16888305185E+01 -0.11886990190E+00 -0.16036717227E+01  0.23319609408E+01  0.51100000000E-03 0. -1.
        -11    1    3    3    0    0  0.21691831961E+02 -0.20848767052E+02 -0.17436544912E+02  0.34774124865E+02  0.51100000000E-03 0.  1.
        -12    1    3    3    0    0 -0.21537853089E+01 -0.34724644778E+01 -0.98686828347E+01  0.10681184466E+02  0.00000000000E+00 0.  1.
</event>
<event>
 7    1  0.2412036E-009  0.4778730E+02  0.7816164E-02  0.1312668E+00
        -11   -1    0    0    0    0  0.00000000000E+00  0.00000000000E+00  0.45593999997E+02  0.45594000000E+02  0.51100000000E-03 0.  1.
         11   -1    0    0    0    0 -0.00000000000E+00 -0.00000000000E+00 -0.45593999997E+02  0.45594000000E+02  0.51100000000E-03 0. -1.
    9900012    2    1    2    0    0  0.19777762223E+02 -0.45058879658E+01  0.38368704452E+02  0.47787304312E+02  0.20000151680E+02 0.  0.
         12    1    1    2    0    0 -0.19777762223E+02  0.45058879658E+01 -0.38368704452E+02  0.43400695688E+02  0.00000000000E+00 0. -1.
         11    1    3    3    0    0  0.13394215202E+01  0.20780057126E+01 -0.19112672789E+00  0.24796547013E+01  0.51100000000E-03 0. -1.
        -11    1    3    3    0    0  0.12047082197E+02 -0.10755059393E+02  0.26720694736E+02  0.31221771561E+02  0.51100000000E-03 0.  1.
        -12    1    3    3    0    0  0.63912585051E+01  0.41711657141E+01  0.11839136444E+02  0.14085878050E+02  0.00000000000E+00 0.  1.
</event>
<event>
 7    1  0.2412036E-009  0.4778727E+02  0.7816164E-02  0.1312668E+00
        -11   -1    0    0    0    0  0.00000000000E+00  0.00000000000E+00  0.45593999997E+02  0.45594000000E+02  0.51100000000E-03 0. -1.
         11   -1    0    0    0    0 -0.00000000000E+00 -0.00000000000E+00 -0.45593999997E+02  0.45594000000E+02  0.51100000000E-03 0.  1.
    9900012    2    1    2    0    0  0.31392627869E+02  0.29267138135E+02 -0.64467758947E+01  0.47787269839E+02  0.19999994504E+02 0.  0.
         12    1    1    2    0    0 -0.31392627869E+02 -0.29267138135E+02  0.64467758947E+01  0.43400730161E+02  0.00000000000E+00 0. -1.
         11    1    3    3    0    0  0.45401463907E+01  0.15446046499E+02  0.20992099552E+01  0.16235761897E+02  0.51100000000E-03 0. -1.
        -11    1    3    3    0    0  0.16316554582E+02  0.88143046707E+01 -0.68201820187E+01  0.19759473761E+02  0.51100000000E-03 0.  1.
        -12    1    3    3    0    0  0.10535926895E+02  0.50067869650E+01 -0.17258038311E+01  0.11792034181E+02  0.00000000000E+00 0.  1.
</event>
<event>
 7    1  0.2412036E-009  0.4778727E+02  0.7816164E-02  0.1312668E+00
        -11   -1    0    0    0    0  0.00000000000E+00  0.00000000000E+00  0.45593999997E+02  0.45594000000E+02  0.51100000000E-03 0.  1.
         11   -1    0    0    0    0 -0.00000000000E+00 -0.00000000000E+00 -0.45593999997E+02  0.45594000000E+02  0.51100000000E-03 0. -1.
    9900012    2    1    2    0    0 -0.36201530932E+02 -0.14585521440E+02  0.18982493838E+02  0.47787270170E+02  0.19999996013E+02 0.  0.
         12    1    1    2    0    0  0.36201530932E+02  0.14585521440E+02 -0.18982493838E+02  0.43400729830E+02  0.00000000000E+00 0. -1.
         11    1    3    3    0    0 -0.17268295515E+02 -0.14557607644E+02  0.50308211309E+01  0.23139298430E+02  0.51100000000E-03 0. -1.
        -11    1    3    3    0    0 -0.17624333601E+02  0.12465611424E+01  0.10018230060E+02  0.20310981841E+02  0.51100000000E-03 0.  1.
         12    1    3    3    0    0 -0.13089018159E+01 -0.12744749386E+01  0.39334426462E+01  0.43369898990E+01  0.00000000000E+00 0. -1.
</event>
<event>
 7    1  0.2412036E-009  0.4778727E+02  0.7816164E-02  0.1312668E+00
        -11   -1    0    0    0    0  0.00000000000E+00  0.00000000000E+00  0.45593999997E+02  0.45594000000E+02  0.51100000000E-03 0.  1.
         11   -1    0    0    0    0 -0.00000000000E+00 -0.00000000000E+00 -0.45593999997E+02  0.45594000000E+02  0.51100000000E-03 0. -1.
    9900012    2    1    2    0    0 -0.10112941862E+02 -0.30043628714E+02  0.29643414211E+02  0.47787271602E+02  0.20000002540E+02 0.  0.
         12    1    1    2    0    0  0.10112941862E+02  0.30043628714E+02 -0.29643414211E+02  0.43400728398E+02  0.00000000000E+00 0. -1.
         11    1    3    3    0    0 -0.93654846544E+01 -0.18058395158E+02  0.27256100139E+02  0.34010482701E+02  0.51100000000E-03 0.  1.
        -11    1    3    3    0    0  0.70459752075E+00 -0.11038446036E+01 -0.16265052106E+01  0.20881690632E+01  0.51100000000E-03 0. -1.
        -12    1    3    3    0    0 -0.14520547279E+01 -0.10881388953E+02  0.40138192828E+01  0.11688619838E+02  0.00000000000E+00 0.  1.
</event>
<event>
 7    1  0.2412036E-009  0.4778727E+02  0.7816164E-02  0.1312668E+00
        -11   -1    0    0    0    0  0.00000000000E+00  0.00000000000E+00  0.45593999997E+02  0.45594000000E+02  0.51100000000E-03 0. -1.
         11   -1    0    0    0    0 -0.00000000000E+00 -0.00000000000E+00 -0.45593999997E+02  0.45594000000E+02  0.51100000000E-03 0.  1.
    9900012    2    1    2    0    0 -0.23317264834E+02 -0.29605948026E+02 -0.21527099160E+02  0.47787274244E+02  0.20000014590E+02 0.  0.
         12    1    1    2    0    0  0.23317264834E+02  0.29605948026E+02  0.21527099160E+02  0.43400725756E+02  0.00000000000E+00 0. -1.
         11    1    3    3    0    0  0.33749464984E+01 -0.49505834933E+01 -0.40584898351E+01  0.72367037243E+01  0.51100000000E-03 0. -1.
        -11    1    3    3    0    0 -0.15640780772E+02 -0.15845001093E+02 -0.12714076454E+02  0.25638756271E+02  0.51100000000E-03 0.  1.
         12    1    3    3    0    0 -0.11051430560E+02 -0.88103634401E+01 -0.47545328713E+01  0.14911814249E+02  0.00000000000E+00 0. -1.
</event>
<event>
 7    1  0.2565448E-009  0.4778728E+02  0.7816164E-02  0.1312668E+00
        -11   -1    0    0    0    0  0.00000000000E+00  0.00000000000E+00  0.45593999997E+02  0.45594000000E+02  0.51100000000E-03 0.  1.
         11   -1    0    0    0    0 -0.00000000000E+00 -0.00000000000E+00 -0.45593999997E+02  0.45594000000E+02  0.51100000000E-03 0. -1.
    9900012    2    1    2    0    0  0.27916520843E+02  0.22049093647E+02  0.24862182617E+02  0.47787276606E+02  0.20000025359E+02 0.  0.
         12    1    1    2    0    0 -0.27916520843E+02 -0.22049093647E+02 -0.24862182617E+02  0.43400723394E+02  0.00000000000E+00 0. -1.
         11    1    3    3    0    0  0.42150292566E+01  0.16446027964E+01 -0.48570489017E+00  0.45505054107E+01  0.51100000000E-03 0. -1.
        -11    1    3    3    0    0  0.20846315490E+02  0.80876170389E+01  0.16948170296E+02  0.28057421398E+02  0.51100000000E-03 0.  1.
        -12    1    3    3    0    0  0.28551760955E+01  0.12316873812E+02  0.83997172114E+01  0.15179349797E+02  0.00000000000E+00 0.  1.
</event>
<event>
 7    1  0.2412036E-009  0.4778727E+02  0.7816164E-02  0.1312668E+00
        -11   -1    0    0    0    0  0.00000000000E+00  0.00000000000E+00  0.45593999997E+02  0.45594000000E+02  0.51100000000E-03 0. -1.
         11   -1    0    0    0    0 -0.00000000000E+00 -0.00000000000E+00 -0.45593999997E+02  0.45594000000E+02  0.51100000000E-03 0.  1.
    9900012    2    1    2    0    0  0.11230135843E+02 -0.13783621135E+02 -0.39591903179E+02  0.47787274661E+02  0.20000016489E+02 0.  0.
         12    1    1    2    0    0 -0.11230135843E+02  0.13783621135E+02  0.39591903179E+02  0.43400725339E+02  0.00000000000E+00 0. -1.
         11    1    3    3    0    0  0.73204528257E+01 -0.58812738833E+01 -0.61586508491E+01  0.11229754788E+02  0.51100000000E-03 0. -1.
        -11    1    3    3    0    0  0.79450812486E+01 -0.36149855807E+01 -0.17171982518E+02  0.19263162270E+02  0.51100000000E-03 0.  1.
         12    1    3    3    0    0 -0.40353982314E+01 -0.42873616710E+01 -0.16261269812E+02  0.17294357602E+02  0.00000000000E+00 0. -1.
</event>
<event>
 7    1  0.2412036E-009  0.4778727E+02  0.7816164E-02  0.1312668E+00
        -11   -1    0    0    0    0  0.00000000000E+00  0.00000000000E+00  0.45593999997E+02  0.45594000000E+02  0.51100000000E-03 0.  1.
         11   -1    0    0    0    0 -0.00000000000E+00 -0.00000000000E+00 -0.45593999997E+02  0.45594000000E+02  0.51100000000E-03 0. -1.
    9900012    2    1    2    0    0  0.62268586487E+01 -0.11028491273E+02  0.41511707458E+02  0.47787271383E+02  0.20000001544E+02 0.  0.
         12    1    1    2    0    0 -0.62268586487E+01  0.11028491273E+02 -0.41511707458E+02  0.43400728617E+02  0.00000000000E+00 0. -1.
         11    1    3    3    0    0 -0.47125138200E+01  0.91192136062E-02  0.15109384639E+02  0.15827235201E+02  0.51100000000E-03 0. -1.
        -11    1    3    3    0    0 -0.94020376945E+00 -0.41604671127E+01  0.68818610709E+01  0.80965104696E+01  0.51100000000E-03 0.  1.
         12    1    3    3    0    0  0.11879576238E+02 -0.68771433736E+01  0.19520461748E+02  0.23863525713E+02  0.00000000000E+00 0. -1.
</event>
<event>
 7    1  0.2412036E-009  0.4778727E+02  0.7816164E-02  0.1312668E+00
        -11   -1    0    0    0    0  0.00000000000E+00  0.00000000000E+00  0.45593999997E+02  0.45594000000E+02  0.51100000000E-03 0.  1.
         11   -1    0    0    0    0 -0.00000000000E+00 -0.00000000000E+00 -0.45593999997E+02  0.45594000000E+02  0.51100000000E-03 0. -1.
    9900012    2    1    2    0    0 -0.37104199376E+02 -0.21555987020E+01  0.22411047181E+02  0.47787271287E+02  0.20000001107E+02 0.  0.
         12    1    1    2    0    0  0.37104199376E+02  0.21555987020E+01 -0.22411047181E+02  0.43400728713E+02  0.00000000000E+00 0. -1.
         11    1    3    3    0    0 -0.75077383084E+01  0.28331521542E+01  0.41879495315E+01  0.90516190362E+01  0.51100000000E-03 0. -1.
        -11    1    3    3    0    0 -0.30488427172E+02 -0.19953636553E+01  0.14337814106E+02  0.33750534531E+02  0.51100000000E-03 0.  1.
        -12    1    3    3    0    0  0.89196610484E+00 -0.29933872010E+01  0.38852835437E+01  0.49851177199E+01  0.00000000000E+00 0.  1.
</event>
<event>
 7    1  0.2412036E-009  0.4778727E+02  0.7816164E-02  0.1312668E+00
        -11   -1    0    0    0    0  0.00000000000E+00  0.00000000000E+00  0.45593999997E+02  0.45594000000E+02  0.51100000000E-03 0.  1.
         11   -1    0    0    0    0 -0.00000000000E+00 -0.00000000000E+00 -0.45593999997E+02  0.45594000000E+02  0.51100000000E-03 0. -1.
    9900012    2    1    2    0    0 -0.33754067230E+02  0.26029569961E+02  0.81699132860E+01  0.47787273623E+02  0.20000011759E+02 0.  0.
         12    1    1    2    0    0  0.33754067230E+02 -0.26029569961E+02 -0.81699132860E+01  0.43400726377E+02  0.00000000000E+00 0. -1.
         11    1    3    3    0    0 -0.76011163305E+01  0.81926018116E+00  0.10386171218E+01  0.77153666472E+01  0.51100000000E-03 0. -1.
        -11    1    3    3    0    0 -0.19966210689E+02  0.11428844511E+02 -0.78040860176E+00  0.23019059364E+02  0.51100000000E-03 0.  1.
        -12    1    3    3    0    0 -0.61867402098E+01  0.13781465269E+02  0.79117047660E+01  0.17052847613E+02  0.00000000000E+00 0.  1.
</event>
<event>
 7    1  0.2412036E-009  0.4778727E+02  0.7816164E-02  0.1312668E+00
        -11   -1    0    0    0    0  0.00000000000E+00  0.00000000000E+00  0.45593999997E+02  0.45594000000E+02  0.51100000000E-03 0.  1.
         11   -1    0    0    0    0 -0.00000000000E+00 -0.00000000000E+00 -0.45593999997E+02  0.45594000000E+02  0.51100000000E-03 0. -1.
    9900012    2    1    2    0    0 -0.29477679614E+02 -0.20436225741E+02  0.24434614194E+02  0.47787270872E+02  0.19999999214E+02 0.  0.
         12    1    1    2    0    0  0.29477679614E+02  0.20436225741E+02 -0.24434614194E+02  0.43400729128E+02  0.00000000000E+00 0. -1.
         11    1    3    3    0    0  0.71518086313E+00 -0.24103744424E+01 -0.16451340386E+01  0.30046388944E+01  0.51100000000E-03 0. -1.
        -11    1    3    3    0    0 -0.28254530317E+02 -0.14685097786E+02  0.20074263770E+02  0.37642351767E+02  0.51100000000E-03 0.  1.
        -12    1    3    3    0    0 -0.19383301610E+01 -0.33407535127E+01  0.60054844633E+01  0.71402802105E+01  0.00000000000E+00 0.  1.
</event>
<event>
 7    1  0.2412036E-009  0.4778727E+02  0.7816164E-02  0.1312668E+00
        -11   -1    0    0    0    0  0.00000000000E+00  0.00000000000E+00  0.45593999997E+02  0.45594000000E+02  0.51100000000E-03 0.  1.
         11   -1    0    0    0    0 -0.00000000000E+00 -0.00000000000E+00 -0.45593999997E+02  0.45594000000E+02  0.51100000000E-03 0. -1.
    9900012    2    1    2    0    0  0.33887186511E+02 -0.18303848659E+02  0.20006271547E+02  0.47787272050E+02  0.20000004584E+02 0.  0.
         12    1    1    2    0    0 -0.33887186511E+02  0.18303848659E+02 -0.20006271547E+02  0.43400727950E+02  0.00000000000E+00 0. -1.
         11    1    3    3    0    0  0.98687561236E+01 -0.13401920471E+02  0.63262168023E+01  0.17805191351E+02  0.51100000000E-03 0. -1.
        -11    1    3    3    0    0  0.18755269985E+02 -0.23284526710E+01  0.14815807047E+02  0.24014370339E+02  0.51100000000E-03 0.  1.
        -12    1    3    3    0    0  0.52631604025E+01 -0.25734755168E+01 -0.11357523018E+01  0.59677103607E+01  0.00000000000E+00 0.  1.
</event>
<event>
 7    1  0.2412036E-009  0.4778727E+02  0.7816164E-02  0.1312668E+00
        -11   -1    0    0    0    0  0.00000000000E+00  0.00000000000E+00  0.45593999997E+02  0.45594000000E+02  0.51100000000E-03 0. -1.
         11   -1    0    0    0    0 -0.00000000000E+00 -0.00000000000E+00 -0.45593999997E+02  0.45594000000E+02  0.51100000000E-03 0.  1.
    9900012    2    1    2    0    0 -0.39248120252E+02  0.55365894986E+01  0.17679213238E+02  0.47787270198E+02  0.19999996142E+02 0.  0.
         12    1    1    2    0    0  0.39248120252E+02 -0.55365894986E+01 -0.17679213238E+02  0.43400729802E+02  0.00000000000E+00 0. -1.
         11    1    3    3    0    0 -0.22515511846E+02 -0.78163379893E+00  0.13700028813E+02  0.26367594028E+02  0.51100000000E-03 0. -1.
        -11    1    3    3    0    0 -0.39041805436E+00 -0.10568470933E+01 -0.21866325502E+01  0.24598199541E+01  0.51100000000E-03 0.  1.
        -12    1    3    3    0    0 -0.16342190352E+02  0.73750703909E+01  0.61658169750E+01  0.18959856216E+02  0.00000000000E+00 0.  1.
</event>
<event>
 7    1  0.2412036E-009  0.4778727E+02  0.7816164E-02  0.1312668E+00
        -11   -1    0    0    0    0  0.00000000000E+00  0.00000000000E+00  0.45593999997E+02  0.45594000000E+02  0.51100000000E-03 0. -1.
         11   -1    0    0    0    0 -0.00000000000E+00 -0.00000000000E+00 -0.45593999997E+02  0.45594000000E+02  0.51100000000E-03 0.  1.
    9900012    2    1    2    0    0  0.26139393027E+02 -0.22034756184E+02 -0.26736209648E+02  0.47787271270E+02  0.20000001030E+02 0.  0.
         12    1    1    2    0    0 -0.26139393027E+02  0.22034756184E+02  0.26736209648E+02  0.43400728730E+02  0.00000000000E+00 0. -1.
         11    1    3    3    0    0  0.81112037303E+01 -0.10751179517E+02 -0.17021016218E+01  0.13574853117E+02  0.51100000000E-03 0. -1.
        -11    1    3    3    0    0  0.17668820096E+02 -0.90018302904E+01 -0.17900613872E+02  0.26714268274E+02  0.51100000000E-03 0.  1.
         12    1    3    3    0    0  0.35936919989E+00 -0.22817463770E+01 -0.71334941543E+01  0.74981498785E+01  0.00000000000E+00 0. -1.
</event>
<event>
 7    1  0.2412036E-009  0.4778727E+02  0.7816164E-02  0.1312668E+00
        -11   -1    0    0    0    0  0.00000000000E+00  0.00000000000E+00  0.45593999997E+02  0.45594000000E+02  0.51100000000E-03 0.  1.
         11   -1    0    0    0    0 -0.00000000000E+00 -0.00000000000E+00 -0.45593999997E+02  0.45594000000E+02  0.51100000000E-03 0. -1.
    9900012    2    1    2    0    0 -0.76054366766E+01 -0.24935539268E+02  0.34698701152E+02  0.47787266743E+02  0.19999980386E+02 0.  0.
         12    1    1    2    0    0  0.76054366766E+01  0.24935539268E+02 -0.34698701152E+02  0.43400733257E+02  0.00000000000E+00 0. -1.
         11    1    3    3    0    0  0.41598124284E+01 -0.33197523074E+01  0.49243927518E+01  0.72508233365E+01  0.51100000000E-03 0. -1.
        -11    1    3    3    0    0 -0.97459525686E+01 -0.62736182626E+01  0.16405553195E+02  0.20086912492E+02  0.51100000000E-03 0.  1.
        -12    1    3    3    0    0 -0.20192965364E+01 -0.15342168698E+02  0.13368755206E+02  0.20449530914E+02  0.00000000000E+00 0.  1.
</event>
<event>
 7    1  0.2412036E-009  0.4778727E+02  0.7816164E-02  0.1312668E+00
        -11   -1    0    0    0    0  0.00000000000E+00  0.00000000000E+00  0.45593999997E+02  0.45594000000E+02  0.51100000000E-03 0.  1.
         11   -1    0    0    0    0 -0.00000000000E+00 -0.00000000000E+00 -0.45593999997E+02  0.45594000000E+02  0.51100000000E-03 0. -1.
    9900012    2    1    2    0    0  0.24203791906E+02  0.98157376685E+01  0.34661950458E+02  0.47787273530E+02  0.20000011332E+02 0.  0.
         12    1    1    2    0    0 -0.24203791906E+02 -0.98157376685E+01 -0.34661950458E+02  0.43400726470E+02  0.00000000000E+00 0. -1.
         11    1    3    3    0    0  0.14688421336E+02  0.78548513524E+01  0.20955332562E+02  0.26768906854E+02  0.51100000000E-03 0.  1.
        -11    1    3    3    0    0 -0.14278810988E+01 -0.33729581153E+01  0.22333694469E+01  0.42899452476E+01  0.51100000000E-03 0. -1.
         12    1    3    3    0    0  0.10943251669E+02  0.53338444315E+01  0.11473248449E+02  0.16728421428E+02  0.00000000000E+00 0. -1.
</event>
<event>
 7    1  0.2412036E-009  0.4778727E+02  0.7816164E-02  0.1312668E+00
        -11   -1    0    0    0    0  0.00000000000E+00  0.00000000000E+00  0.45593999997E+02  0.45594000000E+02  0.51100000000E-03 0.  1.
         11   -1    0    0    0    0 -0.00000000000E+00 -0.00000000000E+00 -0.45593999997E+02  0.45594000000E+02  0.51100000000E-03 0. -1.
    9900012    2    1    2    0    0  0.24423678675E+02 -0.26209594503E+02  0.24498254494E+02  0.47787269623E+02  0.19999993517E+02 0.  0.
         12    1    1    2    0    0 -0.24423678675E+02  0.26209594503E+02 -0.24498254494E+02  0.43400730377E+02  0.00000000000E+00 0. -1.
         11    1    3    3    0    0  0.28764274527E+01 -0.28995792781E+01  0.89239413682E+01  0.98141797764E+01  0.51100000000E-03 0. -1.
        -11    1    3    3    0    0  0.68447696939E+01 -0.15902217964E+02  0.37787335567E+01  0.17720333966E+02  0.51100000000E-03 0.  1.
        -12    1    3    3    0    0  0.14702481528E+02 -0.74077972615E+01  0.11795579569E+02  0.20252755880E+02  0.00000000000E+00 0.  1.
</event>
<event>
 7    1  0.2412036E-009  0.4778727E+02  0.7816164E-02  0.1312668E+00
        -11   -1    0    0    0    0  0.00000000000E+00  0.00000000000E+00  0.45593999997E+02  0.45594000000E+02  0.51100000000E-03 0.  1.
         11   -1    0    0    0    0 -0.00000000000E+00 -0.00000000000E+00 -0.45593999997E+02  0.45594000000E+02  0.51100000000E-03 0. -1.
    9900012    2    1    2    0    0  0.37477928791E+02  0.18310550708E+02  0.11989660936E+02  0.47787269787E+02  0.19999994266E+02 0.  0.
         12    1    1    2    0    0 -0.37477928791E+02 -0.18310550708E+02 -0.11989660936E+02  0.43400730213E+02  0.00000000000E+00 0. -1.
         11    1    3    3    0    0  0.14840928032E+02  0.91950161784E+01  0.13085363763E+02  0.21818070777E+02  0.51100000000E-03 0. -1.
        -11    1    3    3    0    0  0.11869759565E+02  0.88221192875E+01  0.15719787771E+01  0.14872528312E+02  0.51100000000E-03 0.  1.
         12    1    3    3    0    0  0.10767241194E+02  0.29341524177E+00 -0.26676816039E+01  0.11096670698E+02  0.00000000000E+00 0. -1.
</event>
<event>
 7    1  0.2412036E-009  0.4778727E+02  0.7816164E-02  0.1312668E+00
        -11   -1    0    0    0    0  0.00000000000E+00  0.00000000000E+00  0.45593999997E+02  0.45594000000E+02  0.51100000000E-03 0.  1.
         11   -1    0    0    0    0 -0.00000000000E+00 -0.00000000000E+00 -0.45593999997E+02  0.45594000000E+02  0.51100000000E-03 0. -1.
    9900012    2    1    2    0    0 -0.33717935728E+02 -0.14552754601E+02  0.23128804873E+02  0.47787268772E+02  0.19999989639E+02 0.  0.
         12    1    1    2    0    0  0.33717935728E+02  0.14552754601E+02 -0.23128804873E+02  0.43400731228E+02  0.00000000000E+00 0. -1.
         11    1    3    3    0    0 -0.11085556563E+02  0.45081835750E+01  0.76481545783E+01  0.14202378398E+02  0.51100000000E-03 0. -1.
        -11    1    3    3    0    0 -0.16226531038E+02 -0.12231564970E+02  0.91712505843E+01  0.22294020020E+02  0.51100000000E-03 0.  1.
         12    1    3    3    0    0 -0.64058481276E+01 -0.68293732066E+01  0.63093997107E+01  0.11290870353E+02  0.00000000000E+00 0. -1.
</event>
<event>
 7    1  0.2412036E-009  0.4778726E+02  0.7816164E-02  0.1312668E+00
        -11   -1    0    0    0    0  0.00000000000E+00  0.00000000000E+00  0.45593999997E+02  0.45594000000E+02  0.51100000000E-03 0. -1.
         11   -1    0    0    0    0 -0.00000000000E+00 -0.00000000000E+00 -0.45593999997E+02  0.45594000000E+02  0.51100000000E-03 0.  1.
    9900012    2    1    2    0    0  0.30027990291E+02 -0.30290209645E+02 -0.80278808435E+01  0.47787264153E+02  0.19999968579E+02 0.  0.
         12    1    1    2    0    0 -0.30027990291E+02  0.30290209645E+02  0.80278808435E+01  0.43400735847E+02  0.00000000000E+00 0. -1.
         11    1    3    3    0    0  0.66328754455E+01 -0.40011728512E+01  0.16485461695E+01  0.79197301466E+01  0.51100000000E-03 0. -1.
        -11    1    3    3    0    0  0.51527933250E+00 -0.18953213781E+01  0.34251135294E+01  0.39483108879E+01  0.51100000000E-03 0.  1.
        -12    1    3    3    0    0  0.22879835513E+02 -0.24393715415E+02 -0.13101540542E+02  0.35919223119E+02  0.00000000000E+00 0.  1.
</event>
<event>
 7    1  0.2412036E-009  0.4778727E+02  0.7816164E-02  0.1312668E+00
        -11   -1    0    0    0    0  0.00000000000E+00  0.00000000000E+00  0.45593999997E+02  0.45594000000E+02  0.51100000000E-03 0. -1.
         11   -1    0    0    0    0 -0.00000000000E+00 -0.00000000000E+00 -0.45593999997E+02  0.45594000000E+02  0.51100000000E-03 0.  1.
    9900012    2    1    2    0    0 -0.32964645387E+02  0.39799550465E+01 -0.27948444538E+02  0.47787269133E+02  0.19999991286E+02 0.  0.
         12    1    1    2    0    0  0.32964645387E+02 -0.39799550465E+01  0.27948444538E+02  0.43400730867E+02  0.00000000000E+00 0. -1.
         11    1    3    3    0    0 -0.51911039129E+01  0.50411228494E+01  0.12140565088E+01  0.73371938018E+01  0.51100000000E-03 0. -1.
        -11    1    3    3    0    0 -0.17681400101E+02  0.10111872140E+01 -0.17726253864E+02  0.25057423759E+02  0.51100000000E-03 0.  1.
         12    1    3    3    0    0 -0.10092141373E+02 -0.20723550169E+01 -0.11436247183E+02  0.15392651573E+02  0.00000000000E+00 0. -1.
</event>
<event>
 7    1  0.2412036E-009  0.4778727E+02  0.7816164E-02  0.1312668E+00
        -11   -1    0    0    0    0  0.00000000000E+00  0.00000000000E+00  0.45593999997E+02  0.45594000000E+02  0.51100000000E-03 0.  1.
         11   -1    0    0    0    0 -0.00000000000E+00 -0.00000000000E+00 -0.45593999997E+02  0.45594000000E+02  0.51100000000E-03 0. -1.
    9900012    2    1    2    0    0 -0.27696666410E+02  0.21024914005E+02  0.25970577076E+02  0.47787271748E+02  0.20000003206E+02 0.  0.
         12    1    1    2    0    0  0.27696666410E+02 -0.21024914005E+02 -0.25970577076E+02  0.43400728252E+02  0.00000000000E+00 0. -1.
         11    1    3    3    0    0  0.12996614728E+01  0.59428909325E+00  0.56650049207E+01  0.58424806789E+01  0.51100000000E-03 0. -1.
        -11    1    3    3    0    0 -0.18289775437E+02  0.17653353742E+02  0.16218803445E+02  0.30153049089E+02  0.51100000000E-03 0.  1.
         12    1    3    3    0    0 -0.10706552446E+02  0.27772711697E+01  0.40867687103E+01  0.11791741980E+02  0.00000000000E+00 0. -1.
</event>
<event>
 7    1  0.2412036E-009  0.4778727E+02  0.7816164E-02  0.1312668E+00
        -11   -1    0    0    0    0  0.00000000000E+00  0.00000000000E+00  0.45593999997E+02  0.45594000000E+02  0.51100000000E-03 0.  1.
         11   -1    0    0    0    0 -0.00000000000E+00 -0.00000000000E+00 -0.45593999997E+02  0.45594000000E+02  0.51100000000E-03 0. -1.
    9900012    2    1    2    0    0  0.76170817066E+00 -0.39452034042E+02  0.18071524170E+02  0.47787272181E+02  0.20000005184E+02 0.  0.
         12    1    1    2    0    0 -0.76170817066E+00  0.39452034042E+02 -0.18071524170E+02  0.43400727819E+02  0.00000000000E+00 0. -1.
         11    1    3    3    0    0 -0.40600382372E+01 -0.20563960941E+02  0.14207704138E+02  0.25322307502E+02  0.51100000000E-03 0. -1.
        -11    1    3    3    0    0  0.66864179448E+01 -0.18367836832E+02  0.50574468040E+01  0.20190675651E+02  0.51100000000E-03 0.  1.
         12    1    3    3    0    0 -0.18646715370E+01 -0.52023626858E+00 -0.11936267717E+01  0.22742890287E+01  0.00000000000E+00 0. -1.
</event>
<event>
 7    1  0.2412036E-009  0.4778726E+02  0.7816164E-02  0.1312668E+00
        -11   -1    0    0    0    0  0.00000000000E+00  0.00000000000E+00  0.45593999997E+02  0.45594000000E+02  0.51100000000E-03 0. -1.
         11   -1    0    0    0    0 -0.00000000000E+00 -0.00000000000E+00 -0.45593999997E+02  0.45594000000E+02  0.51100000000E-03 0.  1.
    9900012    2    1    2    0    0  0.28732349938E+02 -0.17232485006E+02 -0.27588358859E+02  0.47787262484E+02  0.19999960968E+02 0.  0.
         12    1    1    2    0    0 -0.28732349938E+02  0.17232485006E+02  0.27588358859E+02  0.43400737516E+02  0.00000000000E+00 0. -1.
         11    1    3    3    0    0  0.10725069281E+01 -0.22478102691E+01 -0.80541371954E+01  0.84304239715E+01  0.51100000000E-03 0. -1.
        -11    1    3    3    0    0  0.21893965351E+02 -0.47255528667E+01 -0.12721783197E+02  0.25758888498E+02  0.51100000000E-03 0.  1.
        -12    1    3    3    0    0  0.57658776593E+01 -0.10259121870E+02 -0.68124384661E+01  0.13597950014E+02  0.00000000000E+00 0.  1.
</event>
<event>
 7    1  0.2412036E-009  0.4778727E+02  0.7816164E-02  0.1312668E+00
        -11   -1    0    0    0    0  0.00000000000E+00  0.00000000000E+00  0.45593999997E+02  0.45594000000E+02  0.51100000000E-03 0.  1.
         11   -1    0    0    0    0 -0.00000000000E+00 -0.00000000000E+00 -0.45593999997E+02  0.45594000000E+02  0.51100000000E-03 0. -1.
    9900012    2    1    2    0    0  0.10990575322E+02  0.20545245538E+02  0.36615894233E+02  0.47787267626E+02  0.19999984413E+02 0.  0.
         12    1    1    2    0    0 -0.10990575322E+02 -0.20545245538E+02 -0.36615894233E+02  0.43400732374E+02  0.00000000000E+00 0. -1.
         11    1    3    3    0    0  0.25867315259E+01 -0.43212275024E+00  0.48430243748E+01  0.55075217126E+01  0.51100000000E-03 0. -1.
        -11    1    3    3    0    0  0.11407221143E+02  0.88579396364E+01  0.11462945588E+02  0.18438733975E+02  0.51100000000E-03 0.  1.
        -12    1    3    3    0    0 -0.30033773467E+01  0.12119428652E+02  0.20309924271E+02  0.23841011938E+02  0.00000000000E+00 0.  1.
</event>
<event>
 7    1  0.2412036E-009  0.4778727E+02  0.7816164E-02  0.1312668E+00
        -11   -1    0    0    0    0  0.00000000000E+00  0.00000000000E+00  0.45593999997E+02  0.45594000000E+02  0.51100000000E-03 0.  1.
         11   -1    0    0    0    0 -0.00000000000E+00 -0.00000000000E+00 -0.45593999997E+02  0.45594000000E+02  0.51100000000E-03 0. -1.
    9900012    2    1    2    0    0 -0.35970438258E+02 -0.34391669152E+01  0.24040031418E+02  0.47787269498E+02  0.19999992950E+02 0.  0.
         12    1    1    2    0    0  0.35970438258E+02  0.34391669152E+01 -0.24040031418E+02  0.43400730502E+02  0.00000000000E+00 0. -1.
         11    1    3    3    0    0 -0.71313781456E-01  0.71787388958E+00 -0.19741912847E+01  0.21018706112E+01  0.51100000000E-03 0. -1.
        -11    1    3    3    0    0 -0.33475886577E+02 -0.39507436078E+01  0.26869907049E+02  0.43107253012E+02  0.51100000000E-03 0.  1.
        -12    1    3    3    0    0 -0.24232378996E+01 -0.20629719700E+00 -0.85568434652E+00  0.25781458749E+01  0.00000000000E+00 0.  1.
</event>
<event>
 7    1  0.2412036E-009  0.4778728E+02  0.7816164E-02  0.1312668E+00
        -11   -1    0    0    0    0  0.00000000000E+00  0.00000000000E+00  0.45593999997E+02  0.45594000000E+02  0.51100000000E-03 0. -1.
         11   -1    0    0    0    0 -0.00000000000E+00 -0.00000000000E+00 -0.45593999997E+02  0.45594000000E+02  0.51100000000E-03 0.  1.
    9900012    2    1    2    0    0  0.21785814016E+02  0.89282418748E+01 -0.36459391757E+02  0.47787280620E+02  0.20000043661E+02 0.  0.
         12    1    1    2    0    0 -0.21785814016E+02 -0.89282418748E+01  0.36459391757E+02  0.43400719380E+02  0.00000000000E+00 0. -1.
         11    1    3    3    0    0 -0.31262919701E+01  0.42950040853E+01 -0.52384976022E+01  0.74607385000E+01  0.51100000000E-03 0. -1.
        -11    1    3    3    0    0  0.13466551582E+02  0.40553041758E+01 -0.17128579774E+02  0.22162620531E+02  0.51100000000E-03 0.  1.
         12    1    3    3    0    0  0.11445554405E+02  0.57793361364E+00 -0.14092314382E+02  0.18163921590E+02  0.00000000000E+00 0. -1.
</event>
<event>
 7    1  0.2412036E-009  0.4778727E+02  0.7816164E-02  0.1312668E+00
        -11   -1    0    0    0    0  0.00000000000E+00  0.00000000000E+00  0.45593999997E+02  0.45594000000E+02  0.51100000000E-03 0.  1.
         11   -1    0    0    0    0 -0.00000000000E+00 -0.00000000000E+00 -0.45593999997E+02  0.45594000000E+02  0.51100000000E-03 0. -1.
    9900012    2    1    2    0    0 -0.78601447951E+01 -0.18392389175E+02  0.38517026865E+02  0.47787271731E+02  0.20000003130E+02 0.  0.
         12    1    1    2    0    0  0.78601447951E+01  0.18392389175E+02 -0.38517026865E+02  0.43400728269E+02  0.00000000000E+00 0. -1.
         11    1    3    3    0    0  0.22836753889E+00  0.65185749469E+00  0.51253545635E+01  0.51716853722E+01  0.51100000000E-03 0. -1.
        -11    1    3    3    0    0 -0.12312330451E+01 -0.56564670275E+01  0.24430094948E+02  0.25106594622E+02  0.51100000000E-03 0.  1.
        -12    1    3    3    0    0 -0.68572792890E+01 -0.13387779642E+02  0.89615773533E+01  0.17508991737E+02  0.00000000000E+00 0.  1.
</event>
<event>
 7    1  0.2412036E-009  0.4778727E+02  0.7816164E-02  0.1312668E+00
        -11   -1    0    0    0    0  0.00000000000E+00  0.00000000000E+00  0.45593999997E+02  0.45594000000E+02  0.51100000000E-03 0. -1.
         11   -1    0    0    0    0 -0.00000000000E+00 -0.00000000000E+00 -0.45593999997E+02  0.45594000000E+02  0.51100000000E-03 0.  1.
    9900012    2    1    2    0    0 -0.17901578623E+02 -0.52661547301E+01 -0.39184491420E+02  0.47787271081E+02  0.20000000168E+02 0.  0.
         12    1    1    2    0    0  0.17901578623E+02  0.52661547301E+01  0.39184491420E+02  0.43400728919E+02  0.00000000000E+00 0. -1.
         11    1    3    3    0    0  0.17029208933E+01  0.13085422405E+01 -0.82135317234E+01  0.84896599459E+01  0.51100000000E-03 0. -1.
        -11    1    3    3    0    0 -0.81742428797E+01 -0.88121886785E+01 -0.11659326103E+02  0.16745530789E+02  0.51100000000E-03 0.  1.
        -12    1    3    3    0    0 -0.11430256636E+02  0.22374917079E+01 -0.19311633593E+02  0.22552080346E+02  0.00000000000E+00 0.  1.
</event>
<event>
 7    1  0.2412036E-009  0.4778727E+02  0.7816164E-02  0.1312668E+00
        -11   -1    0    0    0    0  0.00000000000E+00  0.00000000000E+00  0.45593999997E+02  0.45594000000E+02  0.51100000000E-03 0.  1.
         11   -1    0    0    0    0 -0.00000000000E+00 -0.00000000000E+00 -0.45593999997E+02  0.45594000000E+02  0.51100000000E-03 0. -1.
    9900012    2    1    2    0    0  0.30276723824E+02 -0.22178594807E+02  0.21795716276E+02  0.47787270500E+02  0.19999997518E+02 0.  0.
         12    1    1    2    0    0 -0.30276723824E+02  0.22178594807E+02 -0.21795716276E+02  0.43400729500E+02  0.00000000000E+00 0. -1.
         11    1    3    3    0    0  0.22743188401E+01 -0.32092071605E+01  0.10580470565E+02  0.11287953509E+02  0.51100000000E-03 0. -1.
        -11    1    3    3    0    0  0.15301902864E+02 -0.56048729142E+01  0.53781480262E+01  0.17160632509E+02  0.51100000000E-03 0.  1.
         12    1    3    3    0    0  0.12700502120E+02 -0.13364514732E+02  0.58370976853E+01  0.19338684483E+02  0.00000000000E+00 0. -1.
</event>
<event>
 7    1  0.2412036E-009  0.4778727E+02  0.7816164E-02  0.1312668E+00
        -11   -1    0    0    0    0  0.00000000000E+00  0.00000000000E+00  0.45593999997E+02  0.45594000000E+02  0.51100000000E-03 0.  1.
         11   -1    0    0    0    0 -0.00000000000E+00 -0.00000000000E+00 -0.45593999997E+02  0.45594000000E+02  0.51100000000E-03 0. -1.
    9900012    2    1    2    0    0 -0.20094452353E+02  0.40982962047E+01  0.38249708845E+02  0.47787271045E+02  0.20000000001E+02 0.  0.
         12    1    1    2    0    0  0.20094452353E+02 -0.40982962047E+01 -0.38249708845E+02  0.43400728955E+02  0.00000000000E+00 0. -1.
         11    1    3    3    0    0 -0.17851128379E+02  0.59591738324E+01  0.18183775060E+02  0.26169146200E+02  0.51100000000E-03 0. -1.
        -11    1    3    3    0    0  0.24403541508E+01 -0.89834273947E+00  0.34038194058E+01  0.42834956365E+01  0.51100000000E-03 0.  1.
         12    1    3    3    0    0 -0.46836781253E+01 -0.96253488828E+00  0.16662114379E+02  0.17334629208E+02  0.00000000000E+00 0. -1.
</event>
<event>
 7    1  0.2412036E-009  0.4778721E+02  0.7816164E-02  0.1312668E+00
        -11   -1    0    0    0    0  0.00000000000E+00  0.00000000000E+00  0.45593999997E+02  0.45594000000E+02  0.51100000000E-03 0.  1.
         11   -1    0    0    0    0 -0.00000000000E+00 -0.00000000000E+00 -0.45593999997E+02  0.45594000000E+02  0.51100000000E-03 0. -1.
    9900012    2    1    2    0    0  0.47561816963E+01 -0.25754813780E+02  0.34607762816E+02  0.47787205718E+02  0.19999702150E+02 0.  0.
         12    1    1    2    0    0 -0.47561816963E+01  0.25754813780E+02 -0.34607762816E+02  0.43400794282E+02  0.00000000000E+00 0. -1.
         11    1    3    3    0    0  0.71318527085E-01 -0.12729801837E+01 -0.22993489776E+01  0.26291768412E+01  0.51100000000E-03 0. -1.
        -11    1    3    3    0    0  0.52035438326E+01 -0.12734643894E+02  0.24261022685E+02  0.27889877116E+02  0.51100000000E-03 0.  1.
        -12    1    3    3    0    0 -0.51868066339E+00 -0.11747189702E+02  0.12646089108E+02  0.17268151761E+02  0.00000000000E+00 0.  1.
</event>
<event>
 7    1  0.2412036E-009  0.4778727E+02  0.7816164E-02  0.1312668E+00
        -11   -1    0    0    0    0  0.00000000000E+00  0.00000000000E+00  0.45593999997E+02  0.45594000000E+02  0.51100000000E-03 0.  1.
         11   -1    0    0    0    0 -0.00000000000E+00 -0.00000000000E+00 -0.45593999997E+02  0.45594000000E+02  0.51100000000E-03 0. -1.
    9900012    2    1    2    0    0  0.41032309743E+02  0.15096639326E+01  0.14060357162E+02  0.47787272223E+02  0.20000005375E+02 0.  0.
         12    1    1    2    0    0 -0.41032309743E+02 -0.15096639326E+01 -0.14060357162E+02  0.43400727777E+02  0.00000000000E+00 0. -1.
         11    1    3    3    0    0  0.82211743960E+00  0.72098037948E+00 -0.29818050277E+01  0.31759803647E+01  0.51100000000E-03 0. -1.
        -11    1    3    3    0    0  0.33379582307E+02  0.36653139129E+01  0.12057268387E+02  0.35679248343E+02  0.51100000000E-03 0.  1.
        -12    1    3    3    0    0  0.68306099958E+01 -0.28766303599E+01  0.49848938030E+01  0.89320435159E+01  0.00000000000E+00 0.  1.
</event>
<event>
 7    1  0.2412036E-009  0.4778728E+02  0.7816164E-02  0.1312668E+00
        -11   -1    0    0    0    0  0.00000000000E+00  0.00000000000E+00  0.45593999997E+02  0.45594000000E+02  0.51100000000E-03 0.  1.
         11   -1    0    0    0    0 -0.00000000000E+00 -0.00000000000E+00 -0.45593999997E+02  0.45594000000E+02  0.51100000000E-03 0. -1.
    9900012    2    1    2    0    0 -0.35060229163E+02  0.22953764449E+02  0.11292818043E+02  0.47787277533E+02  0.20000029583E+02 0.  0.
         12    1    1    2    0    0  0.35060229163E+02 -0.22953764449E+02 -0.11292818043E+02  0.43400722467E+02  0.00000000000E+00 0. -1.
         11    1    3    3    0    0 -0.22304171073E+02  0.19307520186E+02  0.14574275526E+02  0.32903888681E+02  0.51100000000E-03 0. -1.
        -11    1    3    3    0    0 -0.78833957567E+00  0.23467661981E+01 -0.43840749136E+00  0.25141583611E+01  0.51100000000E-03 0.  1.
         12    1    3    3    0    0 -0.11967718514E+02  0.12994780652E+01 -0.28430499913E+01  0.12369230491E+02  0.00000000000E+00 0. -1.
</event>
<event>
 7    1  0.2412036E-009  0.4778727E+02  0.7816164E-02  0.1312668E+00
        -11   -1    0    0    0    0  0.00000000000E+00  0.00000000000E+00  0.45593999997E+02  0.45594000000E+02  0.51100000000E-03 0. -1.
         11   -1    0    0    0    0 -0.00000000000E+00 -0.00000000000E+00 -0.45593999997E+02  0.45594000000E+02  0.51100000000E-03 0.  1.
    9900012    2    1    2    0    0  0.24407691032E+02 -0.35279284661E+01 -0.35713325555E+02  0.47787270939E+02  0.19999999521E+02 0.  0.
         12    1    1    2    0    0 -0.24407691032E+02  0.35279284661E+01  0.35713325555E+02  0.43400729061E+02  0.00000000000E+00 0. -1.
         11    1    3    3    0    0  0.12237895095E+02 -0.10663220384E+02 -0.12770624052E+02  0.20653309281E+02  0.51100000000E-03 0. -1.
        -11    1    3    3    0    0  0.76728008982E+01  0.38837589979E+01 -0.16679654180E+02  0.18766094996E+02  0.51100000000E-03 0.  1.
         12    1    3    3    0    0  0.44969950392E+01  0.32515329199E+01 -0.62630473230E+01  0.83678666626E+01  0.00000000000E+00 0. -1.
</event>
<event>
 7    1  0.2412036E-009  0.4778727E+02  0.7816164E-02  0.1312668E+00
        -11   -1    0    0    0    0  0.00000000000E+00  0.00000000000E+00  0.45593999997E+02  0.45594000000E+02  0.51100000000E-03 0.  1.
         11   -1    0    0    0    0 -0.00000000000E+00 -0.00000000000E+00 -0.45593999997E+02  0.45594000000E+02  0.51100000000E-03 0. -1.
    9900012    2    1    2    0    0 -0.30767237350E+02  0.24962597308E+02 -0.17716346215E+02  0.47787273258E+02  0.20000010093E+02 0.  0.
         12    1    1    2    0    0  0.30767237350E+02 -0.24962597308E+02  0.17716346215E+02  0.43400726742E+02  0.00000000000E+00 0. -1.
         11    1    3    3    0    0 -0.12264677921E+02  0.22900050189E+01 -0.11239703873E+02  0.16792777939E+02  0.51100000000E-03 0. -1.
        -11    1    3    3    0    0 -0.13955480004E+02  0.17370401728E+02 -0.82964493331E+01  0.23776403221E+02  0.51100000000E-03 0.  1.
         12    1    3    3    0    0 -0.45470794251E+01  0.53021905615E+01  0.18198069917E+01  0.72180920981E+01  0.00000000000E+00 0. -1.
</event>
<event>
 7    1  0.2412036E-009  0.4778727E+02  0.7816164E-02  0.1312668E+00
        -11   -1    0    0    0    0  0.00000000000E+00  0.00000000000E+00  0.45593999997E+02  0.45594000000E+02  0.51100000000E-03 0.  1.
         11   -1    0    0    0    0 -0.00000000000E+00 -0.00000000000E+00 -0.45593999997E+02  0.45594000000E+02  0.51100000000E-03 0. -1.
    9900012    2    1    2    0    0 -0.58925356180E+01  0.28720901658E+02  0.32000170256E+02  0.47787273456E+02  0.20000010997E+02 0.  0.
         12    1    1    2    0    0  0.58925356180E+01 -0.28720901658E+02 -0.32000170256E+02  0.43400726544E+02  0.00000000000E+00 0. -1.
         11    1    3    3    0    0  0.16535904478E+01  0.19300872485E+02  0.11955645402E+02  0.22763907777E+02  0.51100000000E-03 0. -1.
        -11    1    3    3    0    0 -0.61965164702E+00  0.78537497250E+01  0.10543944904E+02  0.13162071543E+02  0.51100000000E-03 0.  1.
         12    1    3    3    0    0 -0.69264744189E+01  0.15662794487E+01  0.95005799505E+01  0.11861294136E+02  0.00000000000E+00 0. -1.
</event>
<event>
 7    1  0.2412036E-009  0.4778727E+02  0.7816164E-02  0.1312668E+00
        -11   -1    0    0    0    0  0.00000000000E+00  0.00000000000E+00  0.45593999997E+02  0.45594000000E+02  0.51100000000E-03 0.  1.
         11   -1    0    0    0    0 -0.00000000000E+00 -0.00000000000E+00 -0.45593999997E+02  0.45594000000E+02  0.51100000000E-03 0. -1.
    9900012    2    1    2    0    0 -0.29434065626E+02 -0.18296088064E+02  0.26124933236E+02  0.47787271961E+02  0.20000004178E+02 0.  0.
         12    1    1    2    0    0  0.29434065626E+02  0.18296088064E+02 -0.26124933236E+02  0.43400728039E+02  0.00000000000E+00 0. -1.
         11    1    3    3    0    0 -0.93824786382E+00  0.78360339708E+00 -0.14194381453E+01  0.18732720698E+01  0.51100000000E-03 0. -1.
        -11    1    3    3    0    0 -0.17303514740E+02 -0.16091557406E+02  0.24276223076E+02  0.33877497683E+02  0.51100000000E-03 0.  1.
        -12    1    3    3    0    0 -0.11192303022E+02 -0.29881340547E+01  0.32681483050E+01  0.12036502208E+02  0.00000000000E+00 0.  1.
</event>
<event>
 7    1  0.2412036E-009  0.4778728E+02  0.7816164E-02  0.1312668E+00
        -11   -1    0    0    0    0  0.00000000000E+00  0.00000000000E+00  0.45593999997E+02  0.45594000000E+02  0.51100000000E-03 0.  1.
         11   -1    0    0    0    0 -0.00000000000E+00 -0.00000000000E+00 -0.45593999997E+02  0.45594000000E+02  0.51100000000E-03 0. -1.
    9900012    2    1    2    0    0  0.62071899197E+01  0.89100886809E+01  0.42020279526E+02  0.47787276752E+02  0.20000026023E+02 0.  0.
         12    1    1    2    0    0 -0.62071899197E+01 -0.89100886809E+01 -0.42020279526E+02  0.43400723248E+02  0.00000000000E+00 0. -1.
         11    1    3    3    0    0  0.54001042941E+01  0.53254586654E+01  0.38159401042E+02  0.38905803225E+02  0.51100000000E-03 0.  1.
        -11    1    3    3    0    0  0.39471169413E-01 -0.21010394392E+01  0.28391752264E+00  0.21205032703E+01  0.51100000000E-03 0. -1.
        -12    1    3    3    0    0  0.76761445614E+00  0.56856694547E+01  0.35769609611E+01  0.67609702572E+01  0.00000000000E+00 0.  1.
</event>
<event>
 7    1  0.2412036E-009  0.4778727E+02  0.7816164E-02  0.1312668E+00
        -11   -1    0    0    0    0  0.00000000000E+00  0.00000000000E+00  0.45593999997E+02  0.45594000000E+02  0.51100000000E-03 0.  1.
         11   -1    0    0    0    0 -0.00000000000E+00 -0.00000000000E+00 -0.45593999997E+02  0.45594000000E+02  0.51100000000E-03 0. -1.
    9900012    2    1    2    0    0  0.34743436552E+02 -0.24780201511E+02 -0.79030629071E+01  0.47787272199E+02  0.20000005262E+02 0.  0.
         12    1    1    2    0    0 -0.34743436552E+02  0.24780201511E+02  0.79030629071E+01  0.43400727801E+02  0.00000000000E+00 0. -1.
         11    1    3    3    0    0  0.12191823760E+02  0.16411676680E+01 -0.30934106783E+01  0.12684762031E+02  0.51100000000E-03 0. -1.
        -11    1    3    3    0    0  0.89934115388E+01 -0.11507624653E+02 -0.24549985595E+01  0.14809925538E+02  0.51100000000E-03 0.  1.
         12    1    3    3    0    0  0.13558201253E+02 -0.14913744527E+02 -0.23546536693E+01  0.20292584629E+02  0.00000000000E+00 0. -1.
</event>
<event>
 7    1  0.2412036E-009  0.4778727E+02  0.7816164E-02  0.1312668E+00
        -11   -1    0    0    0    0  0.00000000000E+00  0.00000000000E+00  0.45593999997E+02  0.45594000000E+02  0.51100000000E-03 0.  1.
         11   -1    0    0    0    0 -0.00000000000E+00 -0.00000000000E+00 -0.45593999997E+02  0.45594000000E+02  0.51100000000E-03 0. -1.
    9900012    2    1    2    0    0 -0.33624569358E+02  0.25202798934E+01  0.27325074931E+02  0.47787271950E+02  0.20000004129E+02 0.  0.
         12    1    1    2    0    0  0.33624569358E+02 -0.25202798934E+01 -0.27325074931E+02  0.43400728050E+02  0.00000000000E+00 0. -1.
         11    1    3    3    0    0 -0.14217380313E+02 -0.73666234884E+01  0.10286297472E+02  0.19031788159E+02  0.51100000000E-03 0. -1.
        -11    1    3    3    0    0 -0.18895349988E+02  0.86206836608E+01  0.17653309302E+02  0.27257838644E+02  0.51100000000E-03 0.  1.
         12    1    3    3    0    0 -0.51183905684E+00  0.12662197210E+01 -0.61453184268E+00  0.14976451474E+01  0.00000000000E+00 0. -1.
</event>
<event>
 7    1  0.2412036E-009  0.4778727E+02  0.7816164E-02  0.1312668E+00
        -11   -1    0    0    0    0  0.00000000000E+00  0.00000000000E+00  0.45593999997E+02  0.45594000000E+02  0.51100000000E-03 0.  1.
         11   -1    0    0    0    0 -0.00000000000E+00 -0.00000000000E+00 -0.45593999997E+02  0.45594000000E+02  0.51100000000E-03 0. -1.
    9900012    2    1    2    0    0  0.52648095936E+01  0.16133477268E+02  0.39945160413E+02  0.47787272480E+02  0.20000006546E+02 0.  0.
         12    1    1    2    0    0 -0.52648095936E+01 -0.16133477268E+02 -0.39945160413E+02  0.43400727520E+02  0.00000000000E+00 0. -1.
         11    1    3    3    0    0 -0.23078661561E+01 -0.22686950120E+01  0.55011529916E+01  0.63824687818E+01  0.51100000000E-03 0. -1.
        -11    1    3    3    0    0  0.66750030119E+01  0.43603058215E+01  0.72043214532E+01  0.10745705185E+02  0.51100000000E-03 0.  1.
         12    1    3    3    0    0  0.89767273777E+00  0.14041866459E+02  0.27239685968E+02  0.30659098513E+02  0.00000000000E+00 0. -1.
</event>
<event>
 7    1  0.2412036E-009  0.4778727E+02  0.7816164E-02  0.1312668E+00
        -11   -1    0    0    0    0  0.00000000000E+00  0.00000000000E+00  0.45593999997E+02  0.45594000000E+02  0.51100000000E-03 0.  1.
         11   -1    0    0    0    0 -0.00000000000E+00 -0.00000000000E+00 -0.45593999997E+02  0.45594000000E+02  0.51100000000E-03 0. -1.
    9900012    2    1    2    0    0  0.15841260058E+02 -0.39207295085E+02  0.97706573542E+01  0.47787271282E+02  0.20000001082E+02 0.  0.
         12    1    1    2    0    0 -0.15841260058E+02  0.39207295085E+02 -0.97706573542E+01  0.43400728718E+02  0.00000000000E+00 0. -1.
         11    1    3    3    0    0 -0.69681541375E+00 -0.51959788955E+01  0.27399112495E+01  0.59153074578E+01  0.51100000000E-03 0. -1.
        -11    1    3    3    0    0  0.10381219422E+02 -0.22464104944E+02  0.12457242298E+02  0.27705389612E+02  0.51100000000E-03 0.  1.
        -12    1    3    3    0    0  0.61568560496E+01 -0.11547211246E+02 -0.54264961930E+01  0.14166574212E+02  0.00000000000E+00 0.  1.
</event>
<event>
 7    1  0.2412036E-009  0.4778730E+02  0.7816164E-02  0.1312668E+00
        -11   -1    0    0    0    0  0.00000000000E+00  0.00000000000E+00  0.45593999997E+02  0.45594000000E+02  0.51100000000E-03 0. -1.
         11   -1    0    0    0    0 -0.00000000000E+00 -0.00000000000E+00 -0.45593999997E+02  0.45594000000E+02  0.51100000000E-03 0.  1.
    9900012    2    1    2    0    0  0.14454103065E+02  0.39445991287E+02 -0.10895586436E+02  0.47787295768E+02  0.20000112725E+02 0.  0.
         12    1    1    2    0    0 -0.14454103065E+02 -0.39445991287E+02  0.10895586436E+02  0.43400704232E+02  0.00000000000E+00 0. -1.
         11    1    3    3    0    0 -0.87470016145E+00  0.31841466917E+00 -0.56526167639E+00  0.10890405401E+01  0.51100000000E-03 0. -1.
        -11    1    3    3    0    0  0.15704795383E+02  0.32977082404E+02 -0.14456308263E+02  0.39282482238E+02  0.51100000000E-03 0.  1.
        -12    1    3    3    0    0 -0.37599215630E+00  0.61504942138E+01  0.41259835033E+01  0.74157729904E+01  0.00000000000E+00 0.  1.
</event>
<event>
 7    1  0.2412036E-009  0.4778727E+02  0.7816164E-02  0.1312668E+00
        -11   -1    0    0    0    0  0.00000000000E+00  0.00000000000E+00  0.45593999997E+02  0.45594000000E+02  0.51100000000E-03 0.  1.
         11   -1    0    0    0    0 -0.00000000000E+00 -0.00000000000E+00 -0.45593999997E+02  0.45594000000E+02  0.51100000000E-03 0. -1.
    9900012    2    1    2    0    0  0.39398920280E+02 -0.25482450434E+01  0.18023724752E+02  0.47787272748E+02  0.20000007768E+02 0.  0.
         12    1    1    2    0    0 -0.39398920280E+02  0.25482450434E+01 -0.18023724752E+02  0.43400727252E+02  0.00000000000E+00 0. -1.
         11    1    3    3    0    0 -0.88184304705E+00 -0.11596704530E+01  0.34411430023E+01  0.37368366491E+01  0.51100000000E-03 0. -1.
        -11    1    3    3    0    0  0.24126773749E+02 -0.48828839736E+01  0.11770487559E+02  0.27285310060E+02  0.51100000000E-03 0.  1.
         12    1    3    3    0    0  0.16153989578E+02  0.34943093832E+01  0.28120941901E+01  0.16765126039E+02  0.00000000000E+00 0. -1.
</event>
<event>
 7    1  0.2412036E-009  0.4778727E+02  0.7816164E-02  0.1312668E+00
        -11   -1    0    0    0    0  0.00000000000E+00  0.00000000000E+00  0.45593999997E+02  0.45594000000E+02  0.51100000000E-03 0. -1.
         11   -1    0    0    0    0 -0.00000000000E+00 -0.00000000000E+00 -0.45593999997E+02  0.45594000000E+02  0.51100000000E-03 0.  1.
    9900012    2    1    2    0    0 -0.31105555184E+02 -0.24478799138E+02 -0.17800446410E+02  0.47787273475E+02  0.20000011080E+02 0.  0.
         12    1    1    2    0    0  0.31105555184E+02  0.24478799138E+02  0.17800446410E+02  0.43400726525E+02  0.00000000000E+00 0. -1.
         11    1    3    3    0    0 -0.25211827621E+01 -0.85854375857E+00 -0.36763896904E+01  0.45397468346E+01  0.51100000000E-03 0. -1.
        -11    1    3    3    0    0 -0.59601088710E+01 -0.15081321245E+02 -0.89352475471E+01  0.18515069464E+02  0.51100000000E-03 0.  1.
        -12    1    3    3    0    0 -0.22624263551E+02 -0.85389341345E+01 -0.51888091724E+01  0.24732457177E+02  0.00000000000E+00 0.  1.
</event>
<event>
 7    1  0.2412036E-009  0.4778727E+02  0.7816164E-02  0.1312668E+00
        -11   -1    0    0    0    0  0.00000000000E+00  0.00000000000E+00  0.45593999997E+02  0.45594000000E+02  0.51100000000E-03 0.  1.
         11   -1    0    0    0    0 -0.00000000000E+00 -0.00000000000E+00 -0.45593999997E+02  0.45594000000E+02  0.51100000000E-03 0. -1.
    9900012    2    1    2    0    0 -0.26887848987E+02  0.33287641161E+02  0.72525918791E+01  0.47787267676E+02  0.19999984644E+02 0.  0.
         12    1    1    2    0    0  0.26887848987E+02 -0.33287641161E+02 -0.72525918791E+01  0.43400732324E+02  0.00000000000E+00 0. -1.
         11    1    3    3    0    0 -0.40958891992E+00  0.12238149788E+01  0.53334360107E+01  0.54873514674E+01  0.51100000000E-03 0. -1.
        -11    1    3    3    0    0 -0.20214326511E+02  0.28786954281E+02  0.19691095462E+01  0.35230457359E+02  0.51100000000E-03 0.  1.
         12    1    3    3    0    0 -0.62639335566E+01  0.32768719020E+01 -0.49953677780E-01  0.70694588501E+01  0.00000000000E+00 0. -1.
</event>
<event>
 7    1  0.2412036E-009  0.4778727E+02  0.7816164E-02  0.1312668E+00
        -11   -1    0    0    0    0  0.00000000000E+00  0.00000000000E+00  0.45593999997E+02  0.45594000000E+02  0.51100000000E-03 0. -1.
         11   -1    0    0    0    0 -0.00000000000E+00 -0.00000000000E+00 -0.45593999997E+02  0.45594000000E+02  0.51100000000E-03 0.  1.
    9900012    2    1    2    0    0  0.42391919245E+01 -0.43050509650E+02  0.35080262828E+01  0.47787269849E+02  0.19999994548E+02 0.  0.
         12    1    1    2    0    0 -0.42391919245E+01  0.43050509650E+02 -0.35080262828E+01  0.43400730151E+02  0.00000000000E+00 0. -1.
         11    1    3    3    0    0  0.81340145211E+01 -0.13481168446E+02 -0.75791561020E+00  0.15763201808E+02  0.51100000000E-03 0. -1.
        -11    1    3    3    0    0 -0.47630465104E+01 -0.20766626770E+02 -0.16704832653E+01  0.21371240349E+02  0.51100000000E-03 0.  1.
        -12    1    3    3    0    0  0.86822391379E+00 -0.88027144337E+01  0.59364251582E+01  0.10652827692E+02  0.00000000000E+00 0.  1.
</event>
<event>
 7    1  0.2412036E-009  0.4778728E+02  0.7816164E-02  0.1312668E+00
        -11   -1    0    0    0    0  0.00000000000E+00  0.00000000000E+00  0.45593999997E+02  0.45594000000E+02  0.51100000000E-03 0.  1.
         11   -1    0    0    0    0 -0.00000000000E+00 -0.00000000000E+00 -0.45593999997E+02  0.45594000000E+02  0.51100000000E-03 0. -1.
    9900012    2    1    2    0    0  0.21197101526E+02 -0.32288688154E+02  0.19792578905E+02  0.47787277938E+02  0.20000031430E+02 0.  0.
         12    1    1    2    0    0 -0.21197101526E+02  0.32288688154E+02 -0.19792578905E+02  0.43400722062E+02  0.00000000000E+00 0. -1.
         11    1    3    3    0    0  0.39036268722E+01 -0.20113580421E+00 -0.20377516997E+00  0.39141133031E+01  0.51100000000E-03 0. -1.
        -11    1    3    3    0    0  0.10439694178E+02 -0.30176730895E+02  0.16092113951E+02  0.35757215128E+02  0.51100000000E-03 0.  1.
        -12    1    3    3    0    0  0.68537804759E+01 -0.19108214540E+01  0.39042401246E+01  0.81159495065E+01  0.00000000000E+00 0.  1.
</event>
<event>
 7    1  0.2412036E-009  0.4778728E+02  0.7816164E-02  0.1312668E+00
        -11   -1    0    0    0    0  0.00000000000E+00  0.00000000000E+00  0.45593999997E+02  0.45594000000E+02  0.51100000000E-03 0.  1.
         11   -1    0    0    0    0 -0.00000000000E+00 -0.00000000000E+00 -0.45593999997E+02  0.45594000000E+02  0.51100000000E-03 0. -1.
    9900012    2    1    2    0    0  0.40420481275E+02 -0.45781445217E+01  0.15127726533E+02  0.47787276229E+02  0.20000023640E+02 0.  0.
         12    1    1    2    0    0 -0.40420481275E+02  0.45781445217E+01 -0.15127726533E+02  0.43400723771E+02  0.00000000000E+00 0. -1.
         11    1    3    3    0    0  0.99533009397E+01 -0.61935499914E+01  0.78479769845E+01  0.14107409546E+02  0.51100000000E-03 0. -1.
        -11    1    3    3    0    0  0.29609602733E+02  0.39412833270E+01  0.49502893581E+01  0.30278171234E+02  0.51100000000E-03 0.  1.
         12    1    3    3    0    0  0.85757760202E+00 -0.23258778573E+01  0.23294601905E+01  0.34016954493E+01  0.00000000000E+00 0. -1.
</event>
<event>
 7    1  0.2412036E-009  0.4778727E+02  0.7816164E-02  0.1312668E+00
        -11   -1    0    0    0    0  0.00000000000E+00  0.00000000000E+00  0.45593999997E+02  0.45594000000E+02  0.51100000000E-03 0. -1.
         11   -1    0    0    0    0 -0.00000000000E+00 -0.00000000000E+00 -0.45593999997E+02  0.45594000000E+02  0.51100000000E-03 0.  1.
    9900012    2    1    2    0    0 -0.40824885089E+02  0.84179836853E+01 -0.12086756567E+02  0.47787269866E+02  0.19999994626E+02 0.  0.
         12    1    1    2    0    0  0.40824885089E+02 -0.84179836853E+01  0.12086756567E+02  0.43400730134E+02  0.00000000000E+00 0. -1.
         11    1    3    3    0    0 -0.21523705862E+02 -0.46504835660E+01 -0.65629083673E+01  0.22977569017E+02  0.51100000000E-03 0. -1.
        -11    1    3    3    0    0 -0.15654966642E+02  0.11050262693E+02 -0.69819994599E+01  0.20394474812E+02  0.51100000000E-03 0.  1.
        -12    1    3    3    0    0 -0.36462125849E+01  0.20182045588E+01  0.14581512601E+01  0.44152260364E+01  0.00000000000E+00 0.  1.
</event>
<event>
 7    1  0.2412036E-009  0.4778729E+02  0.7816164E-02  0.1312668E+00
        -11   -1    0    0    0    0  0.00000000000E+00  0.00000000000E+00  0.45593999997E+02  0.45594000000E+02  0.51100000000E-03 0.  1.
         11   -1    0    0    0    0 -0.00000000000E+00 -0.00000000000E+00 -0.45593999997E+02  0.45594000000E+02  0.51100000000E-03 0. -1.
    9900012    2    1    2    0    0 -0.41563488847E+02 -0.51683027164E+01  0.11374836273E+02  0.47787287352E+02  0.20000074352E+02 0.  0.
         12    1    1    2    0    0  0.41563488847E+02  0.51683027164E+01 -0.11374836273E+02  0.43400712648E+02  0.00000000000E+00 0. -1.
         11    1    3    3    0    0 -0.22720389615E+02 -0.45287505734E+01  0.22329534833E+01  0.23274702308E+02  0.51100000000E-03 0. -1.
        -11    1    3    3    0    0 -0.16772959493E+02  0.26257304961E+01  0.10993541218E+02  0.20225839403E+02  0.51100000000E-03 0.  1.
         12    1    3    3    0    0 -0.20701397398E+01 -0.32652826391E+01 -0.18516584281E+01  0.42867456409E+01  0.00000000000E+00 0. -1.
</event>
<event>
 7    1  0.2412036E-009  0.4778725E+02  0.7816164E-02  0.1312668E+00
        -11   -1    0    0    0    0  0.00000000000E+00  0.00000000000E+00  0.45593999997E+02  0.45594000000E+02  0.51100000000E-03 0.  1.
         11   -1    0    0    0    0 -0.00000000000E+00 -0.00000000000E+00 -0.45593999997E+02  0.45594000000E+02  0.51100000000E-03 0. -1.
    9900012    2    1    2    0    0  0.50837869699E+00  0.85030508659E+00  0.43389441639E+02  0.47787249852E+02  0.19999903375E+02 0.  0.
         12    1    1    2    0    0 -0.50837869699E+00 -0.85030508659E+00 -0.43389441639E+02  0.43400750148E+02  0.00000000000E+00 0. -1.
         11    1    3    3    0    0 -0.25548555034E+01  0.89885756091E+01  0.15936828031E+02  0.18474421942E+02  0.51100000000E-03 0. -1.
        -11    1    3    3    0    0  0.39638387084E+01 -0.43360624884E+01  0.20633550966E+02  0.21453598322E+02  0.51100000000E-03 0.  1.
         12    1    3    3    0    0 -0.90060450803E+00 -0.38022080341E+01  0.68190626417E+01  0.78592295886E+01  0.00000000000E+00 0. -1.
</event>
<event>
 7    1  0.2412036E-009  0.4778727E+02  0.7816164E-02  0.1312668E+00
        -11   -1    0    0    0    0  0.00000000000E+00  0.00000000000E+00  0.45593999997E+02  0.45594000000E+02  0.51100000000E-03 0.  1.
         11   -1    0    0    0    0 -0.00000000000E+00 -0.00000000000E+00 -0.45593999997E+02  0.45594000000E+02  0.51100000000E-03 0. -1.
    9900012    2    1    2    0    0 -0.70467109244E+01 -0.41112411457E+02 -0.11989028074E+02  0.47787270688E+02  0.19999998374E+02 0.  0.
         12    1    1    2    0    0  0.70467109244E+01  0.41112411457E+02  0.11989028074E+02  0.43400729312E+02  0.00000000000E+00 0. -1.
         11    1    3    3    0    0  0.39828361512E+01 -0.47814006622E+01 -0.27067116116E+01  0.67860934351E+01  0.51100000000E-03 0. -1.
        -11    1    3    3    0    0 -0.10874066724E+02 -0.37057891826E+02 -0.10076640689E+02  0.39913298054E+02  0.51100000000E-03 0.  1.
        -12    1    3    3    0    0 -0.15548035142E+00  0.72688103099E+00  0.79432422710E+00  0.10878791986E+01  0.00000000000E+00 0.  1.
</event>
<event>
 7    1  0.2412036E-009  0.4778727E+02  0.7816164E-02  0.1312668E+00
        -11   -1    0    0    0    0  0.00000000000E+00  0.00000000000E+00  0.45593999997E+02  0.45594000000E+02  0.51100000000E-03 0. -1.
         11   -1    0    0    0    0 -0.00000000000E+00 -0.00000000000E+00 -0.45593999997E+02  0.45594000000E+02  0.51100000000E-03 0.  1.
    9900012    2    1    2    0    0 -0.34336087328E+02  0.23139876287E+02 -0.13007786099E+02  0.47787271126E+02  0.20000000371E+02 0.  0.
         12    1    1    2    0    0  0.34336087328E+02 -0.23139876287E+02  0.13007786099E+02  0.43400728874E+02  0.00000000000E+00 0. -1.
         11    1    3    3    0    0 -0.43053498688E+01 -0.26144799209E+00 -0.60733869793E+00  0.43558297833E+01  0.51100000000E-03 0. -1.
        -11    1    3    3    0    0 -0.13759775152E+00  0.48296648257E+01  0.22270171978E+01  0.53201692952E+01  0.51100000000E-03 0.  1.
        -12    1    3    3    0    0 -0.29893139708E+02  0.18571659454E+02 -0.14627464599E+02  0.38111272047E+02  0.00000000000E+00 0.  1.
</event>
<event>
 7    1  0.2412036E-009  0.4778728E+02  0.7816164E-02  0.1312668E+00
        -11   -1    0    0    0    0  0.00000000000E+00  0.00000000000E+00  0.45593999997E+02  0.45594000000E+02  0.51100000000E-03 0. -1.
         11   -1    0    0    0    0 -0.00000000000E+00 -0.00000000000E+00 -0.45593999997E+02  0.45594000000E+02  0.51100000000E-03 0.  1.
    9900012    2    1    2    0    0  0.23263423938E+02 -0.36517380373E+02  0.29861071279E+01  0.47787276522E+02  0.20000024976E+02 0.  0.
         12    1    1    2    0    0 -0.23263423938E+02  0.36517380373E+02 -0.29861071279E+01  0.43400723478E+02  0.00000000000E+00 0. -1.
         11    1    3    3    0    0  0.14387681183E+02 -0.11670069534E+02  0.85055271289E+01  0.20384795430E+02  0.51100000000E-03 0. -1.
        -11    1    3    3    0    0  0.69840710704E+01 -0.14802678805E+02 -0.52094333087E+01  0.17176575450E+02  0.51100000000E-03 0.  1.
         12    1    3    3    0    0  0.18916716852E+01 -0.10044632033E+02 -0.30998669231E+00  0.10225905642E+02  0.00000000000E+00 0. -1.
</event>
<event>
 7    1  0.2412036E-009  0.4778727E+02  0.7816164E-02  0.1312668E+00
        -11   -1    0    0    0    0  0.00000000000E+00  0.00000000000E+00  0.45593999997E+02  0.45594000000E+02  0.51100000000E-03 0.  1.
         11   -1    0    0    0    0 -0.00000000000E+00 -0.00000000000E+00 -0.45593999997E+02  0.45594000000E+02  0.51100000000E-03 0. -1.
    9900012    2    1    2    0    0 -0.13443796442E+02 -0.40035231788E+02 -0.10003389339E+02  0.47787271373E+02  0.20000001498E+02 0.  0.
         12    1    1    2    0    0  0.13443796442E+02  0.40035231788E+02  0.10003389339E+02  0.43400728627E+02  0.00000000000E+00 0. -1.
         11    1    3    3    0    0 -0.80994007774E+01 -0.85365831222E+01  0.29388548050E+01  0.12128908120E+02  0.51100000000E-03 0. -1.
        -11    1    3    3    0    0 -0.64549612309E+01 -0.22504050712E+02 -0.12605010336E+02  0.26589191578E+02  0.51100000000E-03 0.  1.
        -12    1    3    3    0    0  0.11105655662E+01 -0.89945979538E+01 -0.33723380752E+00  0.90691716748E+01  0.00000000000E+00 0.  1.
</event>
<event>
 7    1  0.2412036E-009  0.4778727E+02  0.7816164E-02  0.1312668E+00
        -11   -1    0    0    0    0  0.00000000000E+00  0.00000000000E+00  0.45593999997E+02  0.45594000000E+02  0.51100000000E-03 0.  1.
         11   -1    0    0    0    0 -0.00000000000E+00 -0.00000000000E+00 -0.45593999997E+02  0.45594000000E+02  0.51100000000E-03 0. -1.
    9900012    2    1    2    0    0 -0.16171207394E+02  0.23718985420E+02  0.32550348919E+02  0.47787269215E+02  0.19999991658E+02 0.  0.
         12    1    1    2    0    0  0.16171207394E+02 -0.23718985420E+02 -0.32550348919E+02  0.43400730785E+02  0.00000000000E+00 0. -1.
         11    1    3    3    0    0 -0.13546188630E+01 -0.29397262069E+01  0.30267247124E+01  0.44314834064E+01  0.51100000000E-03 0. -1.
        -11    1    3    3    0    0 -0.43757572482E+01  0.15360916309E+02  0.11624699892E+02  0.19754458970E+02  0.51100000000E-03 0.  1.
         12    1    3    3    0    0 -0.10440831283E+02  0.11297795318E+02  0.17898924314E+02  0.23601326839E+02  0.00000000000E+00 0. -1.
</event>
<event>
 7    1  0.2412036E-009  0.4778727E+02  0.7816164E-02  0.1312668E+00
        -11   -1    0    0    0    0  0.00000000000E+00  0.00000000000E+00  0.45593999997E+02  0.45594000000E+02  0.51100000000E-03 0.  1.
         11   -1    0    0    0    0 -0.00000000000E+00 -0.00000000000E+00 -0.45593999997E+02  0.45594000000E+02  0.51100000000E-03 0. -1.
    9900012    2    1    2    0    0 -0.17904958356E+02 -0.20219799142E+02  0.33973450766E+02  0.47787272264E+02  0.20000005560E+02 0.  0.
         12    1    1    2    0    0  0.17904958356E+02  0.20219799142E+02 -0.33973450766E+02  0.43400727736E+02  0.00000000000E+00 0. -1.
         11    1    3    3    0    0 -0.88137732171E+01 -0.55863594480E+00  0.42094551088E+01  0.97833626641E+01  0.51100000000E-03 0. -1.
        -11    1    3    3    0    0 -0.38915977655E+01 -0.74689835101E+01  0.46842070318E+01  0.96370142482E+01  0.51100000000E-03 0.  1.
         12    1    3    3    0    0 -0.51995873730E+01 -0.12192179687E+02  0.25079788626E+02  0.28366895352E+02  0.00000000000E+00 0. -1.
</event>
<event>
 7    1  0.2412036E-009  0.4778726E+02  0.7816164E-02  0.1312668E+00
        -11   -1    0    0    0    0  0.00000000000E+00  0.00000000000E+00  0.45593999997E+02  0.45594000000E+02  0.51100000000E-03 0. -1.
         11   -1    0    0    0    0 -0.00000000000E+00 -0.00000000000E+00 -0.45593999997E+02  0.45594000000E+02  0.51100000000E-03 0.  1.
    9900012    2    1    2    0    0  0.41045357141E+02 -0.36471060027E+01  0.13623560949E+02  0.47787261089E+02  0.19999954611E+02 0.  0.
         12    1    1    2    0    0 -0.41045357141E+02  0.36471060027E+01 -0.13623560949E+02  0.43400738911E+02  0.00000000000E+00 0. -1.
         11    1    3    3    0    0  0.38826159027E+00  0.12027700951E+01 -0.30426548055E+01  0.32947156919E+01  0.51100000000E-03 0. -1.
        -11    1    3    3    0    0  0.25942553573E+02 -0.23091843492E+01  0.13035926886E+02  0.29125312158E+02  0.51100000000E-03 0.  1.
         12    1    3    3    0    0  0.14714541978E+02 -0.25406917485E+01  0.36302888693E+01  0.15367233240E+02  0.00000000000E+00 0. -1.
</event>
<event>
 7    1  0.2412036E-009  0.4778727E+02  0.7816164E-02  0.1312668E+00
        -11   -1    0    0    0    0  0.00000000000E+00  0.00000000000E+00  0.45593999997E+02  0.45594000000E+02  0.51100000000E-03 0.  1.
         11   -1    0    0    0    0 -0.00000000000E+00 -0.00000000000E+00 -0.45593999997E+02  0.45594000000E+02  0.51100000000E-03 0. -1.
    9900012    2    1    2    0    0  0.31794349883E+02 -0.27759432115E+02  0.10107252407E+02  0.47787270662E+02  0.19999998257E+02 0.  0.
         12    1    1    2    0    0 -0.31794349883E+02  0.27759432115E+02 -0.10107252407E+02  0.43400729338E+02  0.00000000000E+00 0. -1.
         11    1    3    3    0    0  0.16615744815E+02 -0.53609470768E+01 -0.13152135811E+01  0.17508641190E+02  0.51100000000E-03 0. -1.
        -11    1    3    3    0    0  0.32077306157E+01 -0.10506490764E+02  0.28337591439E+01  0.11344869987E+02  0.51100000000E-03 0.  1.
         12    1    3    3    0    0  0.11970874453E+02 -0.11891994274E+02  0.85887068443E+01  0.18933759485E+02  0.00000000000E+00 0. -1.
</event>
<event>
 7    1  0.2412036E-009  0.4778727E+02  0.7816164E-02  0.1312668E+00
        -11   -1    0    0    0    0  0.00000000000E+00  0.00000000000E+00  0.45593999997E+02  0.45594000000E+02  0.51100000000E-03 0.  1.
         11   -1    0    0    0    0 -0.00000000000E+00 -0.00000000000E+00 -0.45593999997E+02  0.45594000000E+02  0.51100000000E-03 0. -1.
    9900012    2    1    2    0    0  0.49803263065E+01  0.39128679172E+02  0.18104318204E+02  0.47787268191E+02  0.19999986991E+02 0.  0.
         12    1    1    2    0    0 -0.49803263065E+01 -0.39128679172E+02 -0.18104318204E+02  0.43400731809E+02  0.00000000000E+00 0. -1.
         11    1    3    3    0    0 -0.24517766807E+01  0.23791269982E+01  0.30258643054E+01  0.45636946898E+01  0.51100000000E-03 0. -1.
        -11    1    3    3    0    0 -0.37660475958E-01  0.26263695156E+02  0.15206887650E+02  0.30348517819E+02  0.51100000000E-03 0.  1.
        -12    1    3    3    0    0  0.74697634631E+01  0.10485857018E+02 -0.12843375092E+00  0.12875055683E+02  0.00000000000E+00 0.  1.
</event>
<event>
 7    1  0.2412036E-009  0.4778727E+02  0.7816164E-02  0.1312668E+00
        -11   -1    0    0    0    0  0.00000000000E+00  0.00000000000E+00  0.45593999997E+02  0.45594000000E+02  0.51100000000E-03 0. -1.
         11   -1    0    0    0    0 -0.00000000000E+00 -0.00000000000E+00 -0.45593999997E+02  0.45594000000E+02  0.51100000000E-03 0.  1.
    9900012    2    1    2    0    0 -0.13815056394E+02 -0.41142778777E+02 -0.19815119874E+00  0.47787270829E+02  0.19999999020E+02 0.  0.
         12    1    1    2    0    0  0.13815056394E+02  0.41142778777E+02  0.19815119874E+00  0.43400729171E+02  0.00000000000E+00 0. -1.
         11    1    3    3    0    0 -0.45840261518E+01 -0.18377168346E+02 -0.97014593932E+01  0.21280317827E+02  0.51100000000E-03 0. -1.
        -11    1    3    3    0    0 -0.59400834801E+01 -0.16824888035E+02  0.57435287232E+01  0.18744321050E+02  0.51100000000E-03 0.  1.
         12    1    3    3    0    0 -0.32909467622E+01 -0.59407223951E+01  0.37597794712E+01  0.77626319531E+01  0.00000000000E+00 0. -1.
</event>
<event>
 7    1  0.2412036E-009  0.4778727E+02  0.7816164E-02  0.1312668E+00
        -11   -1    0    0    0    0  0.00000000000E+00  0.00000000000E+00  0.45593999997E+02  0.45594000000E+02  0.51100000000E-03 0.  1.
         11   -1    0    0    0    0 -0.00000000000E+00 -0.00000000000E+00 -0.45593999997E+02  0.45594000000E+02  0.51100000000E-03 0. -1.
    9900012    2    1    2    0    0 -0.36737201379E+02 -0.18956054226E+02  0.13216253059E+02  0.47787270722E+02  0.19999998529E+02 0.  0.
         12    1    1    2    0    0  0.36737201379E+02  0.18956054226E+02 -0.13216253059E+02  0.43400729278E+02  0.00000000000E+00 0. -1.
         11    1    3    3    0    0 -0.10223118407E+02 -0.15650962179E+02  0.24702672815E+01  0.18856483972E+02  0.51100000000E-03 0. -1.
        -11    1    3    3    0    0 -0.22926787962E+02 -0.19338677600E+01  0.88977351826E+01  0.24668748294E+02  0.51100000000E-03 0.  1.
         12    1    3    3    0    0 -0.35872950102E+01 -0.13712242877E+01  0.18482505947E+01  0.42620384558E+01  0.00000000000E+00 0. -1.
</event>
<event>
 7    1  0.2412036E-009  0.4778727E+02  0.7816164E-02  0.1312668E+00
        -11   -1    0    0    0    0  0.00000000000E+00  0.00000000000E+00  0.45593999997E+02  0.45594000000E+02  0.51100000000E-03 0.  1.
         11   -1    0    0    0    0 -0.00000000000E+00 -0.00000000000E+00 -0.45593999997E+02  0.45594000000E+02  0.51100000000E-03 0. -1.
    9900012    2    1    2    0    0  0.82423206439E+01 -0.35153073326E+02  0.24082125400E+02  0.47787272153E+02  0.20000005053E+02 0.  0.
         12    1    1    2    0    0 -0.82423206439E+01  0.35153073326E+02 -0.24082125400E+02  0.43400727847E+02  0.00000000000E+00 0. -1.
         11    1    3    3    0    0 -0.45320865397E-01 -0.79428332860E+00 -0.41761832280E+00  0.89852396272E+00  0.51100000000E-03 0. -1.
        -11    1    3    3    0    0 -0.33751312031E+01 -0.94358398746E+01 -0.36548345179E-01  0.10021373200E+02  0.51100000000E-03 0.  1.
        -12    1    3    3    0    0  0.11662772712E+02 -0.24922950123E+02  0.24536292068E+02  0.36867374990E+02  0.00000000000E+00 0.  1.
</event>
<event>
 7    1  0.2412036E-009  0.4778728E+02  0.7816164E-02  0.1312668E+00
        -11   -1    0    0    0    0  0.00000000000E+00  0.00000000000E+00  0.45593999997E+02  0.45594000000E+02  0.51100000000E-03 0.  1.
         11   -1    0    0    0    0 -0.00000000000E+00 -0.00000000000E+00 -0.45593999997E+02  0.45594000000E+02  0.51100000000E-03 0. -1.
    9900012    2    1    2    0    0 -0.11394831373E+02 -0.27753511694E+01  0.41786094101E+02  0.47787280923E+02  0.20000045042E+02 0.  0.
         12    1    1    2    0    0  0.11394831373E+02  0.27753511694E+01 -0.41786094101E+02  0.43400719077E+02  0.00000000000E+00 0. -1.
         11    1    3    3    0    0 -0.79377576095E+01  0.14606178333E+01  0.61795078558E+01  0.10165024246E+02  0.51100000000E-03 0. -1.
        -11    1    3    3    0    0 -0.48663613279E+01 -0.24813295405E+01  0.34808365124E+02  0.35234368900E+02  0.51100000000E-03 0.  1.
        -12    1    3    3    0    0  0.14092875644E+01 -0.17546394621E+01  0.79822112090E+00  0.23878877777E+01  0.00000000000E+00 0.  1.
</event>
<event>
 7    1  0.2412036E-009  0.4778727E+02  0.7816164E-02  0.1312668E+00
        -11   -1    0    0    0    0  0.00000000000E+00  0.00000000000E+00  0.45593999997E+02  0.45594000000E+02  0.51100000000E-03 0.  1.
         11   -1    0    0    0    0 -0.00000000000E+00 -0.00000000000E+00 -0.45593999997E+02  0.45594000000E+02  0.51100000000E-03 0. -1.
    9900012    2    1    2    0    0 -0.25327813032E+02  0.37710038222E+01  0.35041474424E+02  0.47787268294E+02  0.19999987462E+02 0.  0.
         12    1    1    2    0    0  0.25327813032E+02 -0.37710038222E+01 -0.35041474424E+02  0.43400731706E+02  0.00000000000E+00 0. -1.
         11    1    3    3    0    0 -0.14923898858E+02  0.50108741530E+01  0.12369167188E+02  0.20020687153E+02  0.51100000000E-03 0. -1.
        -11    1    3    3    0    0 -0.27481158624E+01 -0.53487288054E+01  0.15055259254E+02  0.16211781892E+02  0.51100000000E-03 0.  1.
        -12    1    3    3    0    0 -0.76557983115E+01  0.41088584746E+01  0.76170479814E+01  0.11554799250E+02  0.00000000000E+00 0.  1.
</event>
<event>
 7    1  0.2412036E-009  0.4778727E+02  0.7816164E-02  0.1312668E+00
        -11   -1    0    0    0    0  0.00000000000E+00  0.00000000000E+00  0.45593999997E+02  0.45594000000E+02  0.51100000000E-03 0.  1.
         11   -1    0    0    0    0 -0.00000000000E+00 -0.00000000000E+00 -0.45593999997E+02  0.45594000000E+02  0.51100000000E-03 0. -1.
    9900012    2    1    2    0    0 -0.24652558120E+02  0.35639198422E+02  0.23921256603E+01  0.47787270154E+02  0.19999995940E+02 0.  0.
         12    1    1    2    0    0  0.24652558120E+02 -0.35639198422E+02 -0.23921256603E+01  0.43400729846E+02  0.00000000000E+00 0. -1.
         11    1    3    3    0    0 -0.83943872668E+00  0.20780874969E+01 -0.31804999940E+01  0.38908463724E+01  0.51100000000E-03 0. -1.
        -11    1    3    3    0    0 -0.17965163975E+02  0.27672044253E+02  0.10020346585E+02  0.34480378417E+02  0.51100000000E-03 0.  1.
        -12    1    3    3    0    0 -0.58479554178E+01  0.58890666717E+01 -0.44477209308E+01  0.94160453647E+01  0.00000000000E+00 0.  1.
</event>
<event>
 7    1  0.2412036E-009  0.4778728E+02  0.7816164E-02  0.1312668E+00
        -11   -1    0    0    0    0  0.00000000000E+00  0.00000000000E+00  0.45593999997E+02  0.45594000000E+02  0.51100000000E-03 0.  1.
         11   -1    0    0    0    0 -0.00000000000E+00 -0.00000000000E+00 -0.45593999997E+02  0.45594000000E+02  0.51100000000E-03 0. -1.
    9900012    2    1    2    0    0 -0.14350777802E+01 -0.64088676681E+01  0.42900923294E+02  0.47787282811E+02  0.20000053649E+02 0.  0.
         12    1    1    2    0    0  0.14350777802E+01  0.64088676681E+01 -0.42900923294E+02  0.43400717189E+02  0.00000000000E+00 0. -1.
         11    1    3    3    0    0 -0.83300360331E+01  0.46312386225E+00  0.13154743321E+02  0.15577267287E+02  0.51100000000E-03 0. -1.
        -11    1    3    3    0    0  0.54961362851E+01 -0.85503808383E+01  0.24097556641E+02  0.26153561189E+02  0.51100000000E-03 0.  1.
         12    1    3    3    0    0  0.13988219677E+01  0.16783893080E+01  0.56486233318E+01  0.60564543350E+01  0.00000000000E+00 0. -1.
</event>
<event>
 7    1  0.2412036E-009  0.4778727E+02  0.7816164E-02  0.1312668E+00
        -11   -1    0    0    0    0  0.00000000000E+00  0.00000000000E+00  0.45593999997E+02  0.45594000000E+02  0.51100000000E-03 0.  1.
         11   -1    0    0    0    0 -0.00000000000E+00 -0.00000000000E+00 -0.45593999997E+02  0.45594000000E+02  0.51100000000E-03 0. -1.
    9900012    2    1    2    0    0  0.50105658119E+01  0.26323626158E+02  0.34140648371E+02  0.47787274948E+02  0.20000017797E+02 0.  0.
         12    1    1    2    0    0 -0.50105658119E+01 -0.26323626158E+02 -0.34140648371E+02  0.43400725052E+02  0.00000000000E+00 0. -1.
         11    1    3    3    0    0  0.46429080998E+01  0.34953313547E+01  0.15505057387E+02  0.16558403961E+02  0.51100000000E-03 0.  1.
        -11    1    3    3    0    0  0.46548108122E+01  0.12126803219E+02  0.66269831983E+01  0.14582301827E+02  0.51100000000E-03 0. -1.
         12    1    3    3    0    0 -0.42871531001E+01  0.10701491584E+02  0.12008607786E+02  0.16646569160E+02  0.00000000000E+00 0. -1.
</event>
<event>
 7    1  0.2412036E-009  0.4778727E+02  0.7816164E-02  0.1312668E+00
        -11   -1    0    0    0    0  0.00000000000E+00  0.00000000000E+00  0.45593999997E+02  0.45594000000E+02  0.51100000000E-03 0. -1.
         11   -1    0    0    0    0 -0.00000000000E+00 -0.00000000000E+00 -0.45593999997E+02  0.45594000000E+02  0.51100000000E-03 0.  1.
    9900012    2    1    2    0    0 -0.48808206325E+01 -0.56415938419E+01 -0.42754801699E+02  0.47787273515E+02  0.20000011264E+02 0.  0.
         12    1    1    2    0    0  0.48808206325E+01  0.56415938419E+01  0.42754801699E+02  0.43400726485E+02  0.00000000000E+00 0. -1.
         11    1    3    3    0    0 -0.21213352796E+01  0.26094850222E+01 -0.11178438461E+01  0.35438750789E+01  0.51100000000E-03 0. -1.
        -11    1    3    3    0    0 -0.17195589285E+01 -0.13886594564E+01 -0.33395741836E+02  0.33468803848E+02  0.51100000000E-03 0.  1.
        -12    1    3    3    0    0 -0.10399264244E+01 -0.68624194077E+01 -0.82412160169E+01  0.10774594588E+02  0.00000000000E+00 0.  1.
</event>
<event>
 7    1  0.2412036E-009  0.4778727E+02  0.7816164E-02  0.1312668E+00
        -11   -1    0    0    0    0  0.00000000000E+00  0.00000000000E+00  0.45593999997E+02  0.45594000000E+02  0.51100000000E-03 0.  1.
         11   -1    0    0    0    0 -0.00000000000E+00 -0.00000000000E+00 -0.45593999997E+02  0.45594000000E+02  0.51100000000E-03 0. -1.
    9900012    2    1    2    0    0 -0.50595240186E+01  0.33250876177E+00  0.43103523121E+02  0.47787273614E+02  0.20000011715E+02 0.  0.
         12    1    1    2    0    0  0.50595240186E+01 -0.33250876177E+00 -0.43103523121E+02  0.43400726386E+02  0.00000000000E+00 0. -1.
         11    1    3    3    0    0  0.53992697108E+01  0.52377159665E+01  0.14633267820E+02  0.16453519663E+02  0.51100000000E-03 0. -1.
        -11    1    3    3    0    0 -0.10852463419E+02 -0.36744567844E+01  0.22786262055E+02  0.25504731592E+02  0.51100000000E-03 0.  1.
        -12    1    3    3    0    0  0.39366968983E+00 -0.12307504203E+01  0.56839932471E+01  0.58290223584E+01  0.00000000000E+00 0.  1.
</event>
<event>
 7    1  0.2412036E-009  0.4778727E+02  0.7816164E-02  0.1312668E+00
        -11   -1    0    0    0    0  0.00000000000E+00  0.00000000000E+00  0.45593999997E+02  0.45594000000E+02  0.51100000000E-03 0.  1.
         11   -1    0    0    0    0 -0.00000000000E+00 -0.00000000000E+00 -0.45593999997E+02  0.45594000000E+02  0.51100000000E-03 0. -1.
    9900012    2    1    2    0    0  0.30280944758E+02 -0.27919631257E+02  0.13681452133E+02  0.47787267778E+02  0.19999985106E+02 0.  0.
         12    1    1    2    0    0 -0.30280944758E+02  0.27919631257E+02 -0.13681452133E+02  0.43400732222E+02  0.00000000000E+00 0. -1.
         11    1    3    3    0    0  0.13877196533E+01  0.87138608589E+00 -0.13842300738E+01  0.21450344298E+01  0.51100000000E-03 0. -1.
        -11    1    3    3    0    0  0.22074300870E+02 -0.28748597912E+02  0.13173769252E+02  0.38565591365E+02  0.51100000000E-03 0.  1.
        -12    1    3    3    0    0  0.68189242343E+01 -0.42419431571E-01  0.18919129549E+01  0.70766419826E+01  0.00000000000E+00 0.  1.
</event>
<event>
 7    1  0.2412036E-009  0.4778728E+02  0.7816164E-02  0.1312668E+00
        -11   -1    0    0    0    0  0.00000000000E+00  0.00000000000E+00  0.45593999997E+02  0.45594000000E+02  0.51100000000E-03 0. -1.
         11   -1    0    0    0    0 -0.00000000000E+00 -0.00000000000E+00 -0.45593999997E+02  0.45594000000E+02  0.51100000000E-03 0.  1.
    9900012    2    1    2    0    0  0.25443827718E+02 -0.94620390934E+01 -0.33863022912E+02  0.47787275657E+02  0.20000021032E+02 0.  0.
         12    1    1    2    0    0 -0.25443827718E+02  0.94620390934E+01  0.33863022912E+02  0.43400724343E+02  0.00000000000E+00 0. -1.
         11    1    3    3    0    0  0.75674134134E+01  0.16719135238E+01 -0.71080384784E+01  0.10515952257E+02  0.51100000000E-03 0. -1.
        -11    1    3    3    0    0  0.38793073158E+01 -0.86408522232E+01 -0.18621168941E+02  0.20891655879E+02  0.51100000000E-03 0.  1.
        -12    1    3    3    0    0  0.13997106989E+02 -0.24931003940E+01 -0.81338154923E+01  0.16379667521E+02  0.00000000000E+00 0.  1.
</event>
<event>
 7    1  0.2412036E-009  0.4778727E+02  0.7816164E-02  0.1312668E+00
        -11   -1    0    0    0    0  0.00000000000E+00  0.00000000000E+00  0.45593999997E+02  0.45594000000E+02  0.51100000000E-03 0.  1.
         11   -1    0    0    0    0 -0.00000000000E+00 -0.00000000000E+00 -0.45593999997E+02  0.45594000000E+02  0.51100000000E-03 0. -1.
    9900012    2    1    2    0    0  0.35244022317E+01  0.68250947964E+01  0.42715567550E+02  0.47787273725E+02  0.20000012223E+02 0.  0.
         12    1    1    2    0    0 -0.35244022317E+01 -0.68250947964E+01 -0.42715567550E+02  0.43400726275E+02  0.00000000000E+00 0. -1.
         11    1    3    3    0    0 -0.48449932913E+01 -0.10089365007E+01  0.61921591864E+01  0.79268372322E+01  0.51100000000E-03 0. -1.
        -11    1    3    3    0    0  0.96428938997E+01  0.35230506856E+01  0.31444436677E+02  0.33077936560E+02  0.51100000000E-03 0.  1.
        -12    1    3    3    0    0 -0.12734983767E+01  0.43109806114E+01  0.50789716869E+01  0.67824999332E+01  0.00000000000E+00 0.  1.
</event>
<event>
 7    1  0.2412036E-009  0.4778727E+02  0.7816164E-02  0.1312668E+00
        -11   -1    0    0    0    0  0.00000000000E+00  0.00000000000E+00  0.45593999997E+02  0.45594000000E+02  0.51100000000E-03 0.  1.
         11   -1    0    0    0    0 -0.00000000000E+00 -0.00000000000E+00 -0.45593999997E+02  0.45594000000E+02  0.51100000000E-03 0. -1.
    9900012    2    1    2    0    0  0.24701528871E+02 -0.22240541018E+02  0.27907277004E+02  0.47787270708E+02  0.19999998464E+02 0.  0.
         12    1    1    2    0    0 -0.24701528871E+02  0.22240541018E+02 -0.27907277004E+02  0.43400729292E+02  0.00000000000E+00 0. -1.
         11    1    3    3    0    0  0.68647624222E+01 -0.85476790229E+01  0.67369788868E+01  0.12867581924E+02  0.51100000000E-03 0. -1.
        -11    1    3    3    0    0  0.83481094330E+00 -0.69733661214E+01  0.99972247755E-01  0.70238692389E+01  0.51100000000E-03 0.  1.
        -12    1    3    3    0    0  0.17001955505E+02 -0.67194958736E+01  0.21070325870E+02  0.27895819544E+02  0.00000000000E+00 0.  1.
</event>
<event>
 7    1  0.2412036E-009  0.4778727E+02  0.7816164E-02  0.1312668E+00
        -11   -1    0    0    0    0  0.00000000000E+00  0.00000000000E+00  0.45593999997E+02  0.45594000000E+02  0.51100000000E-03 0.  1.
         11   -1    0    0    0    0 -0.00000000000E+00 -0.00000000000E+00 -0.45593999997E+02  0.45594000000E+02  0.51100000000E-03 0. -1.
    9900012    2    1    2    0    0 -0.67985713472E+01 -0.10611956813E+02  0.41530581097E+02  0.47787269983E+02  0.19999995161E+02 0.  0.
         12    1    1    2    0    0  0.67985713472E+01  0.10611956813E+02 -0.41530581097E+02  0.43400730017E+02  0.00000000000E+00 0. -1.
         11    1    3    3    0    0 -0.17461146288E+01 -0.11000997058E+02  0.11827446259E+02  0.16246825469E+02  0.51100000000E-03 0. -1.
        -11    1    3    3    0    0  0.14850251240E+01  0.64061859327E+00  0.18472549308E+02  0.18543213583E+02  0.51100000000E-03 0.  1.
        -12    1    3    3    0    0 -0.65374818424E+01 -0.25157834792E+00  0.11230585530E+02  0.12997230930E+02  0.00000000000E+00 0.  1.
</event>
<event>
 7    1  0.2412036E-009  0.4778724E+02  0.7816164E-02  0.1312668E+00
        -11   -1    0    0    0    0  0.00000000000E+00  0.00000000000E+00  0.45593999997E+02  0.45594000000E+02  0.51100000000E-03 0.  1.
         11   -1    0    0    0    0 -0.00000000000E+00 -0.00000000000E+00 -0.45593999997E+02  0.45594000000E+02  0.51100000000E-03 0. -1.
    9900012    2    1    2    0    0 -0.29586173506E+02 -0.92677703365E+01  0.30370923664E+02  0.47787236943E+02  0.19999844516E+02 0.  0.
         12    1    1    2    0    0  0.29586173506E+02  0.92677703365E+01 -0.30370923664E+02  0.43400763057E+02  0.00000000000E+00 0. -1.
         11    1    3    3    0    0 -0.14591227758E+02 -0.11783859254E+02  0.14655642616E+02  0.23802334489E+02  0.51100000000E-03 0. -1.
        -11    1    3    3    0    0 -0.98072941229E+01 -0.29632009531E+01  0.11255173884E+02  0.15219806744E+02  0.51100000000E-03 0.  1.
         12    1    3    3    0    0 -0.51876516252E+01  0.54792898710E+01  0.44601071649E+01  0.87650957095E+01  0.00000000000E+00 0. -1.
</event>
<event>
 7    1  0.2412036E-009  0.4778728E+02  0.7816164E-02  0.1312668E+00
        -11   -1    0    0    0    0  0.00000000000E+00  0.00000000000E+00  0.45593999997E+02  0.45594000000E+02  0.51100000000E-03 0. -1.
         11   -1    0    0    0    0 -0.00000000000E+00 -0.00000000000E+00 -0.45593999997E+02  0.45594000000E+02  0.51100000000E-03 0.  1.
    9900012    2    1    2    0    0 -0.14295871972E+01 -0.13182762711E+02 -0.41325459421E+02  0.47787279400E+02  0.20000038096E+02 0.  0.
         12    1    1    2    0    0  0.14295871972E+01  0.13182762711E+02  0.41325459421E+02  0.43400720600E+02  0.00000000000E+00 0. -1.
         11    1    3    3    0    0 -0.41265245569E+01 -0.11338443349E+00 -0.10149487286E+01  0.42510213045E+01  0.51100000000E-03 0. -1.
        -11    1    3    3    0    0  0.41228901319E+01 -0.12102639296E+02 -0.39700737694E+02  0.41708760168E+02  0.51100000000E-03 0.  1.
        -12    1    3    3    0    0 -0.14259527723E+01 -0.96673898177E+00 -0.60977299784E+00  0.18274979279E+01  0.00000000000E+00 0.  1.
</event>
<event>
 7    1  0.2412036E-009  0.4778727E+02  0.7816164E-02  0.1312668E+00
        -11   -1    0    0    0    0  0.00000000000E+00  0.00000000000E+00  0.45593999997E+02  0.45594000000E+02  0.51100000000E-03 0.  1.
         11   -1    0    0    0    0 -0.00000000000E+00 -0.00000000000E+00 -0.45593999997E+02  0.45594000000E+02  0.51100000000E-03 0. -1.
    9900012    2    1    2    0    0 -0.16227361334E+02 -0.20939802881E+02  0.34377616033E+02  0.47787273224E+02  0.20000009937E+02 0.  0.
         12    1    1    2    0    0  0.16227361334E+02  0.20939802881E+02 -0.34377616033E+02  0.43400726776E+02  0.00000000000E+00 0. -1.
         11    1    3    3    0    0 -0.91860852518E+00 -0.63185049909E+00  0.14713013713E+02  0.14755197370E+02  0.51100000000E-03 0. -1.
        -11    1    3    3    0    0 -0.12461612327E+02 -0.18906781181E+02  0.19451612756E+02  0.29851689994E+02  0.51100000000E-03 0.  1.
         12    1    3    3    0    0 -0.28471404825E+01 -0.14011712009E+01  0.21298956440E+00  0.31803858596E+01  0.00000000000E+00 0. -1.
</event>
<event>
 7    1  0.2412036E-009  0.4778727E+02  0.7816164E-02  0.1312668E+00
        -11   -1    0    0    0    0  0.00000000000E+00  0.00000000000E+00  0.45593999997E+02  0.45594000000E+02  0.51100000000E-03 0.  1.
         11   -1    0    0    0    0 -0.00000000000E+00 -0.00000000000E+00 -0.45593999997E+02  0.45594000000E+02  0.51100000000E-03 0. -1.
    9900012    2    1    2    0    0  0.39687263995E+02 -0.17122876160E+02 -0.39181363280E+01  0.47787267245E+02  0.19999982679E+02 0.  0.
         12    1    1    2    0    0 -0.39687263995E+02  0.17122876160E+02  0.39181363280E+01  0.43400732755E+02  0.00000000000E+00 0. -1.
         11    1    3    3    0    0  0.85436038416E+00  0.18665310611E+00  0.30354651428E+01  0.31589270239E+01  0.51100000000E-03 0. -1.
        -11    1    3    3    0    0  0.36769059933E+02 -0.13118640210E+02 -0.43515083479E+01  0.39281014682E+02  0.51100000000E-03 0.  1.
         12    1    3    3    0    0  0.20638436774E+01 -0.41908890554E+01 -0.26020931229E+01  0.53473255390E+01  0.00000000000E+00 0. -1.
</event>
<event>
 7    1  0.2412036E-009  0.4778727E+02  0.7816164E-02  0.1312668E+00
        -11   -1    0    0    0    0  0.00000000000E+00  0.00000000000E+00  0.45593999997E+02  0.45594000000E+02  0.51100000000E-03 0.  1.
         11   -1    0    0    0    0 -0.00000000000E+00 -0.00000000000E+00 -0.45593999997E+02  0.45594000000E+02  0.51100000000E-03 0. -1.
    9900012    2    1    2    0    0 -0.76825032835E+01 -0.18790908687E+02  0.38360189892E+02  0.47787271037E+02  0.19999999966E+02 0.  0.
         12    1    1    2    0    0  0.76825032835E+01  0.18790908687E+02 -0.38360189892E+02  0.43400728963E+02  0.00000000000E+00 0. -1.
         11    1    3    3    0    0 -0.98406605663E+01 -0.42969023644E+01  0.10457128485E+02  0.14988445774E+02  0.51100000000E-03 0. -1.
        -11    1    3    3    0    0  0.26338927038E+01 -0.11369349689E+02  0.12606562074E+02  0.17179199944E+02  0.51100000000E-03 0.  1.
         12    1    3    3    0    0 -0.47573542094E+00 -0.31246566341E+01  0.15296499333E+02  0.15619625320E+02  0.00000000000E+00 0. -1.
</event>
<event>
 7    1  0.2412036E-009  0.4778729E+02  0.7816164E-02  0.1312668E+00
        -11   -1    0    0    0    0  0.00000000000E+00  0.00000000000E+00  0.45593999997E+02  0.45594000000E+02  0.51100000000E-03 0.  1.
         11   -1    0    0    0    0 -0.00000000000E+00 -0.00000000000E+00 -0.45593999997E+02  0.45594000000E+02  0.51100000000E-03 0. -1.
    9900012    2    1    2    0    0  0.35942634942E+02 -0.23678467522E+02  0.55748593768E+01  0.47787287012E+02  0.20000072802E+02 0.  0.
         12    1    1    2    0    0 -0.35942634942E+02  0.23678467522E+02 -0.55748593768E+01  0.43400712988E+02  0.00000000000E+00 0. -1.
         11    1    3    3    0    0  0.20142008750E+01 -0.53330329710E+01  0.52484308020E+01  0.77488239094E+01  0.51100000000E-03 0. -1.
        -11    1    3    3    0    0  0.29283027279E+02 -0.15910577954E+02  0.40994701621E+01  0.33577489979E+02  0.51100000000E-03 0.  1.
         12    1    3    3    0    0  0.46454067886E+01 -0.24348565976E+01 -0.37730415873E+01  0.64609731235E+01  0.00000000000E+00 0. -1.
</event>
<event>
 7    1  0.2412036E-009  0.4778727E+02  0.7816164E-02  0.1312668E+00
        -11   -1    0    0    0    0  0.00000000000E+00  0.00000000000E+00  0.45593999997E+02  0.45594000000E+02  0.51100000000E-03 0.  1.
         11   -1    0    0    0    0 -0.00000000000E+00 -0.00000000000E+00 -0.45593999997E+02  0.45594000000E+02  0.51100000000E-03 0. -1.
    9900012    2    1    2    0    0  0.12897860956E+01 -0.35220566371E+01  0.43238350614E+02  0.47787269650E+02  0.19999993642E+02 0.  0.
         12    1    1    2    0    0 -0.12897860956E+01  0.35220566371E+01 -0.43238350614E+02  0.43400730350E+02  0.00000000000E+00 0. -1.
         11    1    3    3    0    0 -0.26607040640E+01 -0.61810847664E+01  0.39417306191E+01  0.77988714274E+01  0.51100000000E-03 0. -1.
        -11    1    3    3    0    0  0.30729417855E+01 -0.11957476104E+01  0.21999203058E+02  0.22244948169E+02  0.51100000000E-03 0.  1.
         12    1    3    3    0    0  0.87754837415E+00  0.38547757397E+01  0.17297416936E+02  0.17743450054E+02  0.00000000000E+00 0. -1.
</event>
<event>
 7    1  0.2412036E-009  0.4778727E+02  0.7816164E-02  0.1312668E+00
        -11   -1    0    0    0    0  0.00000000000E+00  0.00000000000E+00  0.45593999997E+02  0.45594000000E+02  0.51100000000E-03 0.  1.
         11   -1    0    0    0    0 -0.00000000000E+00 -0.00000000000E+00 -0.45593999997E+02  0.45594000000E+02  0.51100000000E-03 0. -1.
    9900012    2    1    2    0    0 -0.97840934202E+01  0.26338609928E+02 -0.33078277880E+02  0.47787270461E+02  0.19999997340E+02 0.  0.
         12    1    1    2    0    0  0.97840934202E+01 -0.26338609928E+02  0.33078277880E+02  0.43400729539E+02  0.00000000000E+00 0. -1.
         11    1    3    3    0    0  0.44838116058E+01  0.22417702973E+01 -0.79541336766E+01  0.94020393208E+01  0.51100000000E-03 0. -1.
        -11    1    3    3    0    0 -0.72671767155E+01  0.19052340616E+02 -0.17768366395E+02  0.27046596551E+02  0.51100000000E-03 0.  1.
         12    1    3    3    0    0 -0.70007283105E+01  0.50444990151E+01 -0.73557778080E+01  0.11338634589E+02  0.00000000000E+00 0. -1.
</event>
<event>
 7    1  0.2412036E-009  0.4778727E+02  0.7816164E-02  0.1312668E+00
        -11   -1    0    0    0    0  0.00000000000E+00  0.00000000000E+00  0.45593999997E+02  0.45594000000E+02  0.51100000000E-03 0.  1.
         11   -1    0    0    0    0 -0.00000000000E+00 -0.00000000000E+00 -0.45593999997E+02  0.45594000000E+02  0.51100000000E-03 0. -1.
    9900012    2    1    2    0    0  0.94291985111E+01 -0.38147477877E+02  0.18425081467E+02  0.47787268670E+02  0.19999989174E+02 0.  0.
         12    1    1    2    0    0 -0.94291985111E+01  0.38147477877E+02 -0.18425081467E+02  0.43400731330E+02  0.00000000000E+00 0. -1.
         11    1    3    3    0    0  0.30861598326E+01 -0.21634060383E+02  0.16198047357E+02  0.27201722181E+02  0.51100000000E-03 0.  1.
        -11    1    3    3    0    0  0.30654080488E+01 -0.16122273656E+02 -0.32316895802E+00  0.16414288677E+02  0.51100000000E-03 0. -1.
         12    1    3    3    0    0  0.32776306297E+01 -0.39114383778E+00  0.25502030675E+01  0.41712578118E+01  0.00000000000E+00 0. -1.
</event>
<event>
 7    1  0.2412036E-009  0.4778728E+02  0.7816164E-02  0.1312668E+00
        -11   -1    0    0    0    0  0.00000000000E+00  0.00000000000E+00  0.45593999997E+02  0.45594000000E+02  0.51100000000E-03 0. -1.
         11   -1    0    0    0    0 -0.00000000000E+00 -0.00000000000E+00 -0.45593999997E+02  0.45594000000E+02  0.51100000000E-03 0.  1.
    9900012    2    1    2    0    0 -0.41777957732E+02 -0.11418252443E+02  0.28014114969E+01  0.47787284021E+02  0.20000059167E+02 0.  0.
         12    1    1    2    0    0  0.41777957732E+02  0.11418252443E+02 -0.28014114969E+01  0.43400715979E+02  0.00000000000E+00 0. -1.
         11    1    3    3    0    0 -0.63385609943E+00 -0.16856295987E+01  0.35894282585E+01  0.40158580880E+01  0.51100000000E-03 0. -1.
        -11    1    3    3    0    0 -0.22229331773E+02 -0.69525887981E+01 -0.58097969140E+01  0.24004904134E+02  0.51100000000E-03 0.  1.
        -12    1    3    3    0    0 -0.18914769860E+02 -0.27800340463E+01  0.50217801524E+01  0.19766521799E+02  0.00000000000E+00 0.  1.
</event>
<event>
 7    1  0.2412036E-009  0.4778724E+02  0.7816164E-02  0.1312668E+00
        -11   -1    0    0    0    0  0.00000000000E+00  0.00000000000E+00  0.45593999997E+02  0.45594000000E+02  0.51100000000E-03 0.  1.
         11   -1    0    0    0    0 -0.00000000000E+00 -0.00000000000E+00 -0.45593999997E+02  0.45594000000E+02  0.51100000000E-03 0. -1.
    9900012    2    1    2    0    0  0.42400250451E+02 -0.59993021670E+01  0.70606953562E+01  0.47787236369E+02  0.19999841902E+02 0.  0.
         12    1    1    2    0    0 -0.42400250451E+02  0.59993021670E+01 -0.70606953562E+01  0.43400763631E+02  0.00000000000E+00 0. -1.
         11    1    3    3    0    0  0.88737956236E+01  0.15087301764E+00 -0.18978089023E+01  0.90757198242E+01  0.51100000000E-03 0. -1.
        -11    1    3    3    0    0  0.54025572952E+01 -0.69410757292E+01 -0.10303035376E+01  0.88559405625E+01  0.51100000000E-03 0.  1.
        -12    1    3    3    0    0  0.28123897532E+02  0.79090054457E+00  0.99888077960E+01  0.29855575983E+02  0.00000000000E+00 0.  1.
</event>
<event>
 7    1  0.2412036E-009  0.4778727E+02  0.7816164E-02  0.1312668E+00
        -11   -1    0    0    0    0  0.00000000000E+00  0.00000000000E+00  0.45593999997E+02  0.45594000000E+02  0.51100000000E-03 0. -1.
         11   -1    0    0    0    0 -0.00000000000E+00 -0.00000000000E+00 -0.45593999997E+02  0.45594000000E+02  0.51100000000E-03 0.  1.
    9900012    2    1    2    0    0 -0.22907410051E+02  0.12096719019E+02 -0.34821589656E+02  0.47787272443E+02  0.20000006378E+02 0.  0.
         12    1    1    2    0    0  0.22907410051E+02 -0.12096719019E+02  0.34821589656E+02  0.43400727557E+02  0.00000000000E+00 0. -1.
         11    1    3    3    0    0 -0.11210323768E+02  0.13311501079E+02 -0.13545136635E+02  0.22053075674E+02  0.51100000000E-03 0. -1.
        -11    1    3    3    0    0 -0.12224420201E+02  0.85840704758E+00 -0.19010715058E+02  0.22618147563E+02  0.51100000000E-03 0.  1.
         12    1    3    3    0    0  0.52733391744E+00 -0.20731891081E+01 -0.22657379640E+01  0.31160492069E+01  0.00000000000E+00 0. -1.
</event>
<event>
 7    1  0.2412036E-009  0.4778727E+02  0.7816164E-02  0.1312668E+00
        -11   -1    0    0    0    0  0.00000000000E+00  0.00000000000E+00  0.45593999997E+02  0.45594000000E+02  0.51100000000E-03 0. -1.
         11   -1    0    0    0    0 -0.00000000000E+00 -0.00000000000E+00 -0.45593999997E+02  0.45594000000E+02  0.51100000000E-03 0.  1.
    9900012    2    1    2    0    0 -0.22021920085E+02  0.32870861327E+02 -0.17837172864E+02  0.47787271614E+02  0.20000002597E+02 0.  0.
         12    1    1    2    0    0  0.22021920085E+02 -0.32870861327E+02  0.17837172864E+02  0.43400728386E+02  0.00000000000E+00 0. -1.
         11    1    3    3    0    0 -0.93760539835E+01  0.17048791327E+02 -0.15070925282E+02  0.24611063836E+02  0.51100000000E-03 0. -1.
        -11    1    3    3    0    0  0.12471397262E+01  0.50235168271E+01 -0.20448090643E+01  0.55652783560E+01  0.51100000000E-03 0.  1.
         12    1    3    3    0    0 -0.13893005828E+02  0.10798553173E+02 -0.72143851795E+00  0.17610929422E+02  0.00000000000E+00 0. -1.
</event>
<event>
 7    1  0.2412036E-009  0.4778724E+02  0.7816164E-02  0.1312668E+00
        -11   -1    0    0    0    0  0.00000000000E+00  0.00000000000E+00  0.45593999997E+02  0.45594000000E+02  0.51100000000E-03 0.  1.
         11   -1    0    0    0    0 -0.00000000000E+00 -0.00000000000E+00 -0.45593999997E+02  0.45594000000E+02  0.51100000000E-03 0. -1.
    9900012    2    1    2    0    0 -0.11413167060E+02 -0.55050507280E+01  0.41509761600E+02  0.47787236482E+02  0.19999842417E+02 0.  0.
         12    1    1    2    0    0  0.11413167060E+02  0.55050507280E+01 -0.41509761600E+02  0.43400763518E+02  0.00000000000E+00 0. -1.
         11    1    3    3    0    0 -0.70440669326E+01 -0.66591820861E+00  0.15205059308E+02  0.16770693332E+02  0.51100000000E-03 0. -1.
        -11    1    3    3    0    0  0.16113565545E+01  0.93741647013E+00  0.21153483893E+02  0.21235467988E+02  0.51100000000E-03 0.  1.
        -12    1    3    3    0    0 -0.59804566817E+01 -0.57765489895E+01  0.51512183989E+01  0.97810751629E+01  0.00000000000E+00 0.  1.
</event>
<event>
 7    1  0.2412036E-009  0.4778727E+02  0.7816164E-02  0.1312668E+00
        -11   -1    0    0    0    0  0.00000000000E+00  0.00000000000E+00  0.45593999997E+02  0.45594000000E+02  0.51100000000E-03 0. -1.
         11   -1    0    0    0    0 -0.00000000000E+00 -0.00000000000E+00 -0.45593999997E+02  0.45594000000E+02  0.51100000000E-03 0.  1.
    9900012    2    1    2    0    0  0.32240368252E+01  0.43099944337E+02  0.39526943316E+01  0.47787269502E+02  0.19999992967E+02 0.  0.
         12    1    1    2    0    0 -0.32240368252E+01 -0.43099944337E+02 -0.39526943316E+01  0.43400730498E+02  0.00000000000E+00 0. -1.
         11    1    3    3    0    0 -0.20789877541E+01  0.11401623269E+02  0.93404840349E+01  0.14885020844E+02  0.51100000000E-03 0. -1.
        -11    1    3    3    0    0  0.32734811227E+01  0.14604540076E+02 -0.46499596900E+01  0.15672600131E+02  0.51100000000E-03 0.  1.
         12    1    3    3    0    0  0.20295434565E+01  0.17093780992E+02 -0.73783001334E+00  0.17229648527E+02  0.00000000000E+00 0. -1.
</event>
<event>
 7    1  0.2412036E-009  0.4778727E+02  0.7816164E-02  0.1312668E+00
        -11   -1    0    0    0    0  0.00000000000E+00  0.00000000000E+00  0.45593999997E+02  0.45594000000E+02  0.51100000000E-03 0.  1.
         11   -1    0    0    0    0 -0.00000000000E+00 -0.00000000000E+00 -0.45593999997E+02  0.45594000000E+02  0.51100000000E-03 0. -1.
    9900012    2    1    2    0    0 -0.22386104213E+02  0.19654845908E+02  0.31562199345E+02  0.47787273543E+02  0.20000011392E+02 0.  0.
         12    1    1    2    0    0  0.22386104213E+02 -0.19654845908E+02 -0.31562199345E+02  0.43400726457E+02  0.00000000000E+00 0. -1.
         11    1    3    3    0    0  0.10465206573E+01  0.66996858579E+01  0.11502246823E+02  0.13352253679E+02  0.51100000000E-03 0. -1.
        -11    1    3    3    0    0 -0.19571239513E+02  0.90964977938E+01  0.19243786378E+02  0.28915445745E+02  0.51100000000E-03 0.  1.
         12    1    3    3    0    0 -0.38613853570E+01  0.38586622558E+01  0.81616614442E+00  0.55195741190E+01  0.00000000000E+00 0. -1.
</event>
<event>
 7    1  0.2412036E-009  0.4778728E+02  0.7816164E-02  0.1312668E+00
        -11   -1    0    0    0    0  0.00000000000E+00  0.00000000000E+00  0.45593999997E+02  0.45594000000E+02  0.51100000000E-03 0. -1.
         11   -1    0    0    0    0 -0.00000000000E+00 -0.00000000000E+00 -0.45593999997E+02  0.45594000000E+02  0.51100000000E-03 0.  1.
    9900012    2    1    2    0    0 -0.28164829091E+02 -0.32853749655E+02  0.33160442548E+01  0.47787278651E+02  0.20000034683E+02 0.  0.
         12    1    1    2    0    0  0.28164829091E+02  0.32853749655E+02 -0.33160442548E+01  0.43400721349E+02  0.00000000000E+00 0. -1.
         11    1    3    3    0    0 -0.15061696201E+02 -0.15985773910E+02  0.65924362711E+01  0.22931634835E+02  0.51100000000E-03 0. -1.
        -11    1    3    3    0    0 -0.11868459673E+02 -0.17869424767E+02 -0.54779379623E+01  0.22140110232E+02  0.51100000000E-03 0.  1.
        -12    1    3    3    0    0 -0.12346732167E+01  0.10014490220E+01  0.22015459460E+01  0.27155335844E+01  0.00000000000E+00 0.  1.
</event>
<event>
 7    1  0.2412036E-009  0.4778727E+02  0.7816164E-02  0.1312668E+00
        -11   -1    0    0    0    0  0.00000000000E+00  0.00000000000E+00  0.45593999997E+02  0.45594000000E+02  0.51100000000E-03 0. -1.
         11   -1    0    0    0    0 -0.00000000000E+00 -0.00000000000E+00 -0.45593999997E+02  0.45594000000E+02  0.51100000000E-03 0.  1.
    9900012    2    1    2    0    0 -0.37468497155E+02 -0.26102784569E+01 -0.21746757670E+02  0.47787270722E+02  0.19999998530E+02 0.  0.
         12    1    1    2    0    0  0.37468497155E+02  0.26102784569E+01  0.21746757670E+02  0.43400729278E+02  0.00000000000E+00 0. -1.
         11    1    3    3    0    0 -0.13524919942E+01 -0.45758095477E+01  0.27068917335E+00  0.47791778060E+01  0.51100000000E-03 0. -1.
        -11    1    3    3    0    0 -0.32573142155E+02  0.41927207302E+00 -0.17220337286E+02  0.36847325485E+02  0.51100000000E-03 0.  1.
         12    1    3    3    0    0 -0.35428630063E+01  0.15462590179E+01 -0.47971095574E+01  0.61607674309E+01  0.00000000000E+00 0. -1.
</event>
<event>
 7    1  0.2412036E-009  0.4778726E+02  0.7816164E-02  0.1312668E+00
        -11   -1    0    0    0    0  0.00000000000E+00  0.00000000000E+00  0.45593999997E+02  0.45594000000E+02  0.51100000000E-03 0.  1.
         11   -1    0    0    0    0 -0.00000000000E+00 -0.00000000000E+00 -0.45593999997E+02  0.45594000000E+02  0.51100000000E-03 0. -1.
    9900012    2    1    2    0    0 -0.29762473005E+02  0.10830104494E+02  0.29673694398E+02  0.47787261505E+02  0.19999956504E+02 0.  0.
         12    1    1    2    0    0  0.29762473005E+02 -0.10830104494E+02 -0.29673694398E+02  0.43400738495E+02  0.00000000000E+00 0. -1.
         11    1    3    3    0    0 -0.12424046504E+02  0.80417945619E+01  0.86817667327E+01  0.17158102027E+02  0.51100000000E-03 0. -1.
        -11    1    3    3    0    0 -0.98918569515E+01 -0.46051808475E+01  0.14989101138E+02  0.18539948160E+02  0.51100000000E-03 0.  1.
        -12    1    3    3    0    0 -0.74465695497E+01  0.73934907798E+01  0.60028265268E+01  0.12089211318E+02  0.00000000000E+00 0.  1.
</event>
<event>
 7    1  0.2412036E-009  0.4778727E+02  0.7816164E-02  0.1312668E+00
        -11   -1    0    0    0    0  0.00000000000E+00  0.00000000000E+00  0.45593999997E+02  0.45594000000E+02  0.51100000000E-03 0.  1.
         11   -1    0    0    0    0 -0.00000000000E+00 -0.00000000000E+00 -0.45593999997E+02  0.45594000000E+02  0.51100000000E-03 0. -1.
    9900012    2    1    2    0    0 -0.64014104359E+01  0.12467648481E+01  0.42907934123E+02  0.47787270872E+02  0.19999999213E+02 0.  0.
         12    1    1    2    0    0  0.64014104359E+01 -0.12467648481E+01 -0.42907934123E+02  0.43400729128E+02  0.00000000000E+00 0. -1.
         11    1    3    3    0    0 -0.27446635985E+01  0.74631553403E+01  0.78878993626E+01  0.11200483138E+02  0.51100000000E-03 0. -1.
        -11    1    3    3    0    0 -0.48907403240E+01 -0.70792285315E+01  0.24662345962E+02  0.26120224466E+02  0.51100000000E-03 0.  1.
        -12    1    3    3    0    0  0.12339934867E+01  0.86283803927E+00  0.10357688798E+02  0.10466563268E+02  0.00000000000E+00 0.  1.
</event>
<event>
 7    1  0.2412036E-009  0.4778727E+02  0.7816164E-02  0.1312668E+00
        -11   -1    0    0    0    0  0.00000000000E+00  0.00000000000E+00  0.45593999997E+02  0.45594000000E+02  0.51100000000E-03 0. -1.
         11   -1    0    0    0    0 -0.00000000000E+00 -0.00000000000E+00 -0.45593999997E+02  0.45594000000E+02  0.51100000000E-03 0.  1.
    9900012    2    1    2    0    0  0.57912561216E+01 -0.49739098313E+01 -0.42724059223E+02  0.47787266562E+02  0.19999979563E+02 0.  0.
         12    1    1    2    0    0 -0.57912561216E+01  0.49739098313E+01  0.42724059223E+02  0.43400733438E+02  0.00000000000E+00 0. -1.
         11    1    3    3    0    0 -0.68096041548E+01 -0.40698496754E+00 -0.84615934485E+01  0.10868988428E+02  0.51100000000E-03 0. -1.
        -11    1    3    3    0    0  0.65771556774E+01 -0.25729600292E+01 -0.13919178184E+02  0.15608415093E+02  0.51100000000E-03 0.  1.
         12    1    3    3    0    0  0.60237045991E+01 -0.19939648346E+01 -0.20343287590E+02  0.21309863041E+02  0.00000000000E+00 0. -1.
</event>
<event>
 7    1  0.2412036E-009  0.4778727E+02  0.7816164E-02  0.1312668E+00
        -11   -1    0    0    0    0  0.00000000000E+00  0.00000000000E+00  0.45593999997E+02  0.45594000000E+02  0.51100000000E-03 0.  1.
         11   -1    0    0    0    0 -0.00000000000E+00 -0.00000000000E+00 -0.45593999997E+02  0.45594000000E+02  0.51100000000E-03 0. -1.
    9900012    2    1    2    0    0  0.48952321520E+01 -0.30419461248E+02  0.30566584839E+02  0.47787273864E+02  0.20000012853E+02 0.  0.
         12    1    1    2    0    0 -0.48952321520E+01  0.30419461248E+02 -0.30566584839E+02  0.43400726136E+02  0.00000000000E+00 0. -1.
         11    1    3    3    0    0  0.50939124048E+01 -0.14124940167E+01  0.11358376954E+01  0.54067744974E+01  0.51100000000E-03 0. -1.
        -11    1    3    3    0    0  0.32934525689E+01 -0.41555496263E+01  0.64786004806E+01  0.83718389239E+01  0.51100000000E-03 0.  1.
         12    1    3    3    0    0 -0.34921328217E+01 -0.24851417605E+02  0.22952146664E+02  0.34008660442E+02  0.00000000000E+00 0. -1.
</event>
<event>
 7    1  0.2412036E-009  0.4778727E+02  0.7816164E-02  0.1312668E+00
        -11   -1    0    0    0    0  0.00000000000E+00  0.00000000000E+00  0.45593999997E+02  0.45594000000E+02  0.51100000000E-03 0. -1.
         11   -1    0    0    0    0 -0.00000000000E+00 -0.00000000000E+00 -0.45593999997E+02  0.45594000000E+02  0.51100000000E-03 0.  1.
    9900012    2    1    2    0    0 -0.52728295735E+01 -0.40580409698E+02 -0.14458592464E+02  0.47787270985E+02  0.19999999728E+02 0.  0.
         12    1    1    2    0    0  0.52728295735E+01  0.40580409698E+02  0.14458592464E+02  0.43400729015E+02  0.00000000000E+00 0. -1.
         11    1    3    3    0    0  0.11085868098E+01 -0.12298691407E+02 -0.39496418021E+00  0.12354868352E+02  0.51100000000E-03 0. -1.
        -11    1    3    3    0    0  0.68277121224E-01 -0.26667165655E+01  0.29776741065E+01  0.39978222011E+01  0.51100000000E-03 0.  1.
        -12    1    3    3    0    0 -0.64496935045E+01 -0.25615001726E+02 -0.17041302391E+02  0.31434580432E+02  0.00000000000E+00 0.  1.
</event>
<event>
 7    1  0.2412036E-009  0.4778727E+02  0.7816164E-02  0.1312668E+00
        -11   -1    0    0    0    0  0.00000000000E+00  0.00000000000E+00  0.45593999997E+02  0.45594000000E+02  0.51100000000E-03 0. -1.
         11   -1    0    0    0    0 -0.00000000000E+00 -0.00000000000E+00 -0.45593999997E+02  0.45594000000E+02  0.51100000000E-03 0.  1.
    9900012    2    1    2    0    0 -0.11198789637E+02  0.40819051848E+02 -0.95924558018E+01  0.47787273147E+02  0.20000009585E+02 0.  0.
         12    1    1    2    0    0  0.11198789637E+02 -0.40819051848E+02  0.95924558018E+01  0.43400726853E+02  0.00000000000E+00 0. -1.
         11    1    3    3    0    0 -0.54339914031E+01  0.10551780527E+02  0.60608271405E+00  0.11884261499E+02  0.51100000000E-03 0.  1.
        -11    1    3    3    0    0  0.22519256570E+01  0.30637836085E+01 -0.61849512323E+01  0.72602728028E+01  0.51100000000E-03 0. -1.
        -12    1    3    3    0    0 -0.80167238910E+01  0.27203487712E+02 -0.40135872836E+01  0.28642738845E+02  0.00000000000E+00 0.  1.
</event>
<event>
 7    1  0.2412036E-009  0.4778727E+02  0.7816164E-02  0.1312668E+00
        -11   -1    0    0    0    0  0.00000000000E+00  0.00000000000E+00  0.45593999997E+02  0.45594000000E+02  0.51100000000E-03 0.  1.
         11   -1    0    0    0    0 -0.00000000000E+00 -0.00000000000E+00 -0.45593999997E+02  0.45594000000E+02  0.51100000000E-03 0. -1.
    9900012    2    1    2    0    0 -0.43546028844E+01  0.43097981783E+02  0.26879721687E+01  0.47787265047E+02  0.19999972655E+02 0.  0.
         12    1    1    2    0    0  0.43546028844E+01 -0.43097981783E+02 -0.26879721687E+01  0.43400734953E+02  0.00000000000E+00 0. -1.
         11    1    3    3    0    0 -0.71828936575E+01  0.32823575437E+02  0.66629909392E+01  0.34254583843E+02  0.51100000000E-03 0. -1.
        -11    1    3    3    0    0  0.27105024692E+01  0.11145898677E+02 -0.46967190878E+01  0.12395041404E+02  0.51100000000E-03 0.  1.
         12    1    3    3    0    0  0.11778830398E+00 -0.87149233028E+00  0.72170031730E+00  0.11376397999E+01  0.00000000000E+00 0. -1.
</event>
<event>
 7    1  0.2412036E-009  0.4778723E+02  0.7816164E-02  0.1312668E+00
        -11   -1    0    0    0    0  0.00000000000E+00  0.00000000000E+00  0.45593999997E+02  0.45594000000E+02  0.51100000000E-03 0.  1.
         11   -1    0    0    0    0 -0.00000000000E+00 -0.00000000000E+00 -0.45593999997E+02  0.45594000000E+02  0.51100000000E-03 0. -1.
    9900012    2    1    2    0    0  0.30755397046E+02  0.27638203625E+02  0.13185688694E+02  0.47787226581E+02  0.19999797271E+02 0.  0.
         12    1    1    2    0    0 -0.30755397046E+02 -0.27638203625E+02 -0.13185688694E+02  0.43400773419E+02  0.00000000000E+00 0. -1.
         11    1    3    3    0    0  0.58859018040E+01  0.88367593962E+01  0.84270517893E+01  0.13555344289E+02  0.51100000000E-03 0. -1.
        -11    1    3    3    0    0  0.14493053115E+02  0.31644534898E+01  0.43564571583E+01  0.15460953196E+02  0.51100000000E-03 0.  1.
        -12    1    3    3    0    0  0.10376442127E+02  0.15636990739E+02  0.40217974624E+00  0.18770929096E+02  0.00000000000E+00 0.  1.
</event>
<event>
 7    1  0.2412036E-009  0.4778726E+02  0.7816164E-02  0.1312668E+00
        -11   -1    0    0    0    0  0.00000000000E+00  0.00000000000E+00  0.45593999997E+02  0.45594000000E+02  0.51100000000E-03 0. -1.
         11   -1    0    0    0    0 -0.00000000000E+00 -0.00000000000E+00 -0.45593999997E+02  0.45594000000E+02  0.51100000000E-03 0.  1.
    9900012    2    1    2    0    0 -0.31662021966E+02 -0.36082216370E+01 -0.29463894257E+02  0.47787263103E+02  0.19999963794E+02 0.  0.
         12    1    1    2    0    0  0.31662021966E+02  0.36082216370E+01  0.29463894257E+02  0.43400736897E+02  0.00000000000E+00 0. -1.
         11    1    3    3    0    0  0.45808279905E+00 -0.21660298693E+01 -0.25158700791E+01  0.33512874782E+01  0.51100000000E-03 0. -1.
        -11    1    3    3    0    0 -0.30454903568E+02 -0.34735754110E+01 -0.18995765435E+02  0.36061142275E+02  0.51100000000E-03 0.  1.
        -12    1    3    3    0    0 -0.16652011978E+01  0.20313836432E+01 -0.79522587426E+01  0.83748333503E+01  0.00000000000E+00 0.  1.
</event>
<event>
 7    1  0.2412036E-009  0.4778728E+02  0.7816164E-02  0.1312668E+00
        -11   -1    0    0    0    0  0.00000000000E+00  0.00000000000E+00  0.45593999997E+02  0.45594000000E+02  0.51100000000E-03 0.  1.
         11   -1    0    0    0    0 -0.00000000000E+00 -0.00000000000E+00 -0.45593999997E+02  0.45594000000E+02  0.51100000000E-03 0. -1.
    9900012    2    1    2    0    0  0.29546157473E+02  0.11047179536E+01  0.31771482386E+02  0.47787275165E+02  0.20000018789E+02 0.  0.
         12    1    1    2    0    0 -0.29546157473E+02 -0.11047179536E+01 -0.31771482386E+02  0.43400724835E+02  0.00000000000E+00 0. -1.
         11    1    3    3    0    0  0.12412089235E+02 -0.64664330629E+01  0.21389157695E+02  0.25561118577E+02  0.51100000000E-03 0. -1.
        -11    1    3    3    0    0  0.10484088549E+02  0.75488275882E+01  0.58720892480E+01  0.14190924672E+02  0.51100000000E-03 0.  1.
         12    1    3    3    0    0  0.66499796887E+01  0.22323428257E-01  0.45102354431E+01  0.80352319163E+01  0.00000000000E+00 0. -1.
</event>
<event>
 7    1  0.2412036E-009  0.4778727E+02  0.7816164E-02  0.1312668E+00
        -11   -1    0    0    0    0  0.00000000000E+00  0.00000000000E+00  0.45593999997E+02  0.45594000000E+02  0.51100000000E-03 0. -1.
         11   -1    0    0    0    0 -0.00000000000E+00 -0.00000000000E+00 -0.45593999997E+02  0.45594000000E+02  0.51100000000E-03 0.  1.
    9900012    2    1    2    0    0 -0.24375707060E+02 -0.69444746072E+01 -0.35230986209E+02  0.47787271764E+02  0.20000003279E+02 0.  0.
         12    1    1    2    0    0  0.24375707060E+02  0.69444746072E+01  0.35230986209E+02  0.43400728236E+02  0.00000000000E+00 0. -1.
         11    1    3    3    0    0  0.10524819784E+01 -0.18154798901E+01 -0.39743849475E+01  0.44943766551E+01  0.51100000000E-03 0. -1.
        -11    1    3    3    0    0 -0.27209551764E+02 -0.46750952843E+01 -0.26820440996E+02  0.38490937617E+02  0.51100000000E-03 0.  1.
        -12    1    3    3    0    0  0.17813627261E+01 -0.45389943280E+00 -0.44361602650E+01  0.48019574919E+01  0.00000000000E+00 0.  1.
</event>
<event>
 7    1  0.2412036E-009  0.4778727E+02  0.7816164E-02  0.1312668E+00
        -11   -1    0    0    0    0  0.00000000000E+00  0.00000000000E+00  0.45593999997E+02  0.45594000000E+02  0.51100000000E-03 0.  1.
         11   -1    0    0    0    0 -0.00000000000E+00 -0.00000000000E+00 -0.45593999997E+02  0.45594000000E+02  0.51100000000E-03 0. -1.
    9900012    2    1    2    0    0 -0.23728532891E+02 -0.32005415107E+02  0.17211428472E+02  0.47787272594E+02  0.20000007065E+02 0.  0.
         12    1    1    2    0    0  0.23728532891E+02  0.32005415107E+02 -0.17211428472E+02  0.43400727406E+02  0.00000000000E+00 0. -1.
         11    1    3    3    0    0 -0.10265591706E+02 -0.16877337206E+02  0.16439346587E+02  0.25699786005E+02  0.51100000000E-03 0. -1.
        -11    1    3    3    0    0 -0.44384285560E+01 -0.74987332963E+01  0.43515679694E+01  0.97399585805E+01  0.51100000000E-03 0.  1.
         12    1    3    3    0    0 -0.90245126294E+01 -0.76293446041E+01 -0.35794860844E+01  0.12347528008E+02  0.00000000000E+00 0. -1.
</event>
<event>
 7    1  0.2412036E-009  0.4778727E+02  0.7816164E-02  0.1312668E+00
        -11   -1    0    0    0    0  0.00000000000E+00  0.00000000000E+00  0.45593999997E+02  0.45594000000E+02  0.51100000000E-03 0.  1.
         11   -1    0    0    0    0 -0.00000000000E+00 -0.00000000000E+00 -0.45593999997E+02  0.45594000000E+02  0.51100000000E-03 0. -1.
    9900012    2    1    2    0    0  0.19156875007E+02  0.30760199214E+02  0.23884040603E+02  0.47787272917E+02  0.20000008540E+02 0.  0.
         12    1    1    2    0    0 -0.19156875007E+02 -0.30760199214E+02 -0.23884040603E+02  0.43400727083E+02  0.00000000000E+00 0. -1.
         11    1    3    3    0    0  0.12005404786E+02  0.29451038356E+02  0.13615925914E+02  0.34596052421E+02  0.51100000000E-03 0. -1.
        -11    1    3    3    0    0  0.76350513822E+01  0.13075365044E+01  0.99606470544E+01  0.12618167511E+02  0.51100000000E-03 0.  1.
         12    1    3    3    0    0 -0.48358116152E+00  0.16243535568E-02  0.30746763455E+00  0.57305298585E+00  0.00000000000E+00 0. -1.
</event>
<event>
 7    1  0.2412036E-009  0.4778727E+02  0.7816164E-02  0.1312668E+00
        -11   -1    0    0    0    0  0.00000000000E+00  0.00000000000E+00  0.45593999997E+02  0.45594000000E+02  0.51100000000E-03 0.  1.
         11   -1    0    0    0    0 -0.00000000000E+00 -0.00000000000E+00 -0.45593999997E+02  0.45594000000E+02  0.51100000000E-03 0. -1.
    9900012    2    1    2    0    0  0.10325601036E+02  0.16171328926E+02  0.38929339057E+02  0.47787270105E+02  0.19999995718E+02 0.  0.
         12    1    1    2    0    0 -0.10325601036E+02 -0.16171328926E+02 -0.38929339057E+02  0.43400729895E+02  0.00000000000E+00 0. -1.
         11    1    3    3    0    0  0.48699837443E+01  0.48834179991E+01  0.40392217539E+01  0.79924855747E+01  0.51100000000E-03 0. -1.
        -11    1    3    3    0    0  0.45779481997E+01  0.67905719476E+01  0.34192766205E+02  0.35159845536E+02  0.51100000000E-03 0.  1.
        -12    1    3    3    0    0  0.87766909205E+00  0.44973389791E+01  0.69735109767E+00  0.46349389944E+01  0.00000000000E+00 0.  1.
</event>
<event>
 7    1  0.2412036E-009  0.4778727E+02  0.7816164E-02  0.1312668E+00
        -11   -1    0    0    0    0  0.00000000000E+00  0.00000000000E+00  0.45593999997E+02  0.45594000000E+02  0.51100000000E-03 0.  1.
         11   -1    0    0    0    0 -0.00000000000E+00 -0.00000000000E+00 -0.45593999997E+02  0.45594000000E+02  0.51100000000E-03 0. -1.
    9900012    2    1    2    0    0 -0.11636954714E+02  0.41492397377E+02 -0.51561374265E+01  0.47787268344E+02  0.19999987686E+02 0.  0.
         12    1    1    2    0    0  0.11636954714E+02 -0.41492397377E+02  0.51561374265E+01  0.43400731656E+02  0.00000000000E+00 0. -1.
         11    1    3    3    0    0 -0.39562631307E+01  0.13193236307E+02 -0.72443985504E+01  0.15562609448E+02  0.51100000000E-03 0. -1.
        -11    1    3    3    0    0 -0.69006073493E+01  0.29691672856E+02  0.24719175830E+01  0.30583070408E+02  0.51100000000E-03 0.  1.
        -12    1    3    3    0    0 -0.78008423369E+00 -0.13925117856E+01 -0.38365645906E+00  0.16415884878E+01  0.00000000000E+00 0.  1.
</event>
<event>
 7    1  0.2412036E-009  0.4778727E+02  0.7816164E-02  0.1312668E+00
        -11   -1    0    0    0    0  0.00000000000E+00  0.00000000000E+00  0.45593999997E+02  0.45594000000E+02  0.51100000000E-03 0.  1.
         11   -1    0    0    0    0 -0.00000000000E+00 -0.00000000000E+00 -0.45593999997E+02  0.45594000000E+02  0.51100000000E-03 0. -1.
    9900012    2    1    2    0    0  0.15585258861E+02  0.95872467002E+01  0.39354893022E+02  0.47787271921E+02  0.20000003996E+02 0.  0.
         12    1    1    2    0    0 -0.15585258861E+02 -0.95872467002E+01 -0.39354893022E+02  0.43400728079E+02  0.00000000000E+00 0. -1.
         11    1    3    3    0    0  0.47783607143E+01  0.19784280847E+01  0.25170344396E+01  0.57517276912E+01  0.51100000000E-03 0. -1.
        -11    1    3    3    0    0 -0.33340005155E+01 -0.11282976725E+01  0.81941794165E+01  0.89181383509E+01  0.51100000000E-03 0.  1.
        -12    1    3    3    0    0  0.14140898662E+02  0.87371162880E+01  0.28643679166E+02  0.33117405879E+02  0.00000000000E+00 0.  1.
</event>
<event>
 7    1  0.2412036E-009  0.4778727E+02  0.7816164E-02  0.1312668E+00
        -11   -1    0    0    0    0  0.00000000000E+00  0.00000000000E+00  0.45593999997E+02  0.45594000000E+02  0.51100000000E-03 0. -1.
         11   -1    0    0    0    0 -0.00000000000E+00 -0.00000000000E+00 -0.45593999997E+02  0.45594000000E+02  0.51100000000E-03 0.  1.
    9900012    2    1    2    0    0 -0.38724636186E+02 -0.10606984213E+02 -0.16477789292E+02  0.47787273027E+02  0.20000009038E+02 0.  0.
         12    1    1    2    0    0  0.38724636186E+02  0.10606984213E+02  0.16477789292E+02  0.43400726973E+02  0.00000000000E+00 0. -1.
         11    1    3    3    0    0 -0.62348095547E+00  0.10376273189E+01  0.16321671586E+01  0.20320848529E+01  0.51100000000E-03 0. -1.
        -11    1    3    3    0    0 -0.32666699793E+02 -0.44908478698E+01 -0.13206889319E+02  0.35520457706E+02  0.51100000000E-03 0.  1.
        -12    1    3    3    0    0 -0.54344554380E+01 -0.71537636620E+01 -0.49030671322E+01  0.10234730467E+02  0.00000000000E+00 0.  1.
</event>
<event>
 7    1  0.2412036E-009  0.4778727E+02  0.7816164E-02  0.1312668E+00
        -11   -1    0    0    0    0  0.00000000000E+00  0.00000000000E+00  0.45593999997E+02  0.45594000000E+02  0.51100000000E-03 0. -1.
         11   -1    0    0    0    0 -0.00000000000E+00 -0.00000000000E+00 -0.45593999997E+02  0.45594000000E+02  0.51100000000E-03 0.  1.
    9900012    2    1    2    0    0  0.69933696340E+00 -0.31375198180E+02 -0.29978846861E+02  0.47787269682E+02  0.19999993788E+02 0.  0.
         12    1    1    2    0    0 -0.69933696340E+00  0.31375198180E+02  0.29978846861E+02  0.43400730318E+02  0.00000000000E+00 0. -1.
         11    1    3    3    0    0 -0.33233430624E+01 -0.24942022029E+02 -0.24623228665E+02  0.35205858350E+02  0.51100000000E-03 0. -1.
        -11    1    3    3    0    0  0.59012555124E+01 -0.60067357942E+01 -0.62212765378E+01  0.10469478189E+02  0.51100000000E-03 0.  1.
         12    1    3    3    0    0 -0.18785754866E+01 -0.42644035744E+00  0.86565834210E+00  0.21119331435E+01  0.00000000000E+00 0. -1.
</event>
<event>
 7    1  0.2412036E-009  0.4778728E+02  0.7816164E-02  0.1312668E+00
        -11   -1    0    0    0    0  0.00000000000E+00  0.00000000000E+00  0.45593999997E+02  0.45594000000E+02  0.51100000000E-03 0.  1.
         11   -1    0    0    0    0 -0.00000000000E+00 -0.00000000000E+00 -0.45593999997E+02  0.45594000000E+02  0.51100000000E-03 0. -1.
    9900012    2    1    2    0    0 -0.15815305246E+02 -0.20019429508E+02  0.35110131490E+02  0.47787276837E+02  0.20000026411E+02 0.  0.
         12    1    1    2    0    0  0.15815305246E+02  0.20019429508E+02 -0.35110131490E+02  0.43400723163E+02  0.00000000000E+00 0. -1.
         11    1    3    3    0    0 -0.16307600533E+02 -0.12094941947E+02  0.26675899240E+02  0.33523559721E+02  0.51100000000E-03 0. -1.
        -11    1    3    3    0    0  0.24250150823E+01 -0.81769484993E+01  0.88281685891E+01  0.12275167853E+02  0.51100000000E-03 0.  1.
         12    1    3    3    0    0 -0.19327197955E+01  0.25246093800E+00 -0.39393633996E+00  0.19885492634E+01  0.00000000000E+00 0. -1.
</event>
<event>
 7    1  0.2412036E-009  0.4778728E+02  0.7816164E-02  0.1312668E+00
        -11   -1    0    0    0    0  0.00000000000E+00  0.00000000000E+00  0.45593999997E+02  0.45594000000E+02  0.51100000000E-03 0.  1.
         11   -1    0    0    0    0 -0.00000000000E+00 -0.00000000000E+00 -0.45593999997E+02  0.45594000000E+02  0.51100000000E-03 0. -1.
    9900012    2    1    2    0    0 -0.11026671569E+02  0.18116781286E+02  0.37865781767E+02  0.47787277899E+02  0.20000031254E+02 0.  0.
         12    1    1    2    0    0  0.11026671569E+02 -0.18116781286E+02 -0.37865781767E+02  0.43400722101E+02  0.00000000000E+00 0. -1.
         11    1    3    3    0    0 -0.48539422363E+00  0.26661973752E+01  0.11394934999E+01  0.29398404197E+01  0.51100000000E-03 0. -1.
        -11    1    3    3    0    0 -0.31593771783E+01 -0.95785328773E+00  0.20034600731E+02  0.20304786967E+02  0.51100000000E-03 0.  1.
        -12    1    3    3    0    0 -0.73819001671E+01  0.16408437199E+02  0.16691687536E+02  0.24542650513E+02  0.00000000000E+00 0.  1.
</event>
<event>
 7    1  0.2412036E-009  0.4778726E+02  0.7816164E-02  0.1312668E+00
        -11   -1    0    0    0    0  0.00000000000E+00  0.00000000000E+00  0.45593999997E+02  0.45594000000E+02  0.51100000000E-03 0.  1.
         11   -1    0    0    0    0 -0.00000000000E+00 -0.00000000000E+00 -0.45593999997E+02  0.45594000000E+02  0.51100000000E-03 0. -1.
    9900012    2    1    2    0    0 -0.13386717007E+02 -0.19906808640E+02  0.36168205985E+02  0.47787258686E+02  0.19999943653E+02 0.  0.
         12    1    1    2    0    0  0.13386717007E+02  0.19906808640E+02 -0.36168205985E+02  0.43400741314E+02  0.00000000000E+00 0. -1.
         11    1    3    3    0    0 -0.11152816199E+02 -0.57844981318E+01  0.23083315250E+02  0.26280889844E+02  0.51100000000E-03 0. -1.
        -11    1    3    3    0    0 -0.39494590774E+00 -0.41120101792E+01  0.10080964711E+02  0.10894515122E+02  0.51100000000E-03 0.  1.
         12    1    3    3    0    0 -0.18389549004E+01 -0.10010300329E+02  0.30039260231E+01  0.10611853719E+02  0.00000000000E+00 0. -1.
</event>
<event>
 7    1  0.2412036E-009  0.4778727E+02  0.7816164E-02  0.1312668E+00
        -11   -1    0    0    0    0  0.00000000000E+00  0.00000000000E+00  0.45593999997E+02  0.45594000000E+02  0.51100000000E-03 0.  1.
         11   -1    0    0    0    0 -0.00000000000E+00 -0.00000000000E+00 -0.45593999997E+02  0.45594000000E+02  0.51100000000E-03 0. -1.
    9900012    2    1    2    0    0 -0.17029043316E+02  0.39875380707E+02  0.18944866597E+01  0.47787269793E+02  0.19999994294E+02 0.  0.
         12    1    1    2    0    0  0.17029043316E+02 -0.39875380707E+02 -0.18944866597E+01  0.43400730207E+02  0.00000000000E+00 0. -1.
         11    1    3    3    0    0 -0.89387313206E+01  0.23494001029E+01  0.31632321971E+00  0.92477380535E+01  0.51100000000E-03 0. -1.
        -11    1    3    3    0    0 -0.36326029073E+01  0.23435198109E+02  0.14602041330E+01  0.23759977076E+02  0.51100000000E-03 0.  1.
         12    1    3    3    0    0 -0.44577090878E+01  0.14090782495E+02  0.11795930706E+00  0.14779554663E+02  0.00000000000E+00 0. -1.
</event>
<event>
 7    1  0.2412036E-009  0.4778727E+02  0.7816164E-02  0.1312668E+00
        -11   -1    0    0    0    0  0.00000000000E+00  0.00000000000E+00  0.45593999997E+02  0.45594000000E+02  0.51100000000E-03 0.  1.
         11   -1    0    0    0    0 -0.00000000000E+00 -0.00000000000E+00 -0.45593999997E+02  0.45594000000E+02  0.51100000000E-03 0. -1.
    9900012    2    1    2    0    0  0.29719706249E+02  0.31546254582E+02 -0.22795413797E+01  0.47787269285E+02  0.19999991978E+02 0.  0.
         12    1    1    2    0    0 -0.29719706249E+02 -0.31546254582E+02  0.22795413797E+01  0.43400730715E+02  0.00000000000E+00 0. -1.
         11    1    3    3    0    0  0.15625251131E+02  0.11521415852E+02 -0.77716209593E+01  0.20911470267E+02  0.51100000000E-03 0. -1.
        -11    1    3    3    0    0 -0.79308855832E+00  0.29642135998E+01  0.26514719868E+01  0.40553490213E+01  0.51100000000E-03 0.  1.
         12    1    3    3    0    0  0.14887543677E+02  0.17060625130E+02  0.28406075927E+01  0.22820449997E+02  0.00000000000E+00 0. -1.
</event>
<event>
 7    1  0.2412036E-009  0.4778727E+02  0.7816164E-02  0.1312668E+00
        -11   -1    0    0    0    0  0.00000000000E+00  0.00000000000E+00  0.45593999997E+02  0.45594000000E+02  0.51100000000E-03 0.  1.
         11   -1    0    0    0    0 -0.00000000000E+00 -0.00000000000E+00 -0.45593999997E+02  0.45594000000E+02  0.51100000000E-03 0. -1.
    9900012    2    1    2    0    0  0.16519732662E+02 -0.50515213329E+01  0.39814620348E+02  0.47787269263E+02  0.19999991878E+02 0.  0.
         12    1    1    2    0    0 -0.16519732662E+02  0.50515213329E+01 -0.39814620348E+02  0.43400730737E+02  0.00000000000E+00 0. -1.
         11    1    3    3    0    0  0.56887754708E+01 -0.10679965975E+02  0.14439483680E+02  0.18839387697E+02  0.51100000000E-03 0. -1.
        -11    1    3    3    0    0  0.52803443631E+01  0.25053843938E+01  0.53110877413E+01  0.78972552707E+01  0.51100000000E-03 0.  1.
         12    1    3    3    0    0  0.55506128284E+01  0.31230602484E+01  0.20064048927E+02  0.21050626296E+02  0.00000000000E+00 0. -1.
</event>
<event>
 7    1  0.2412036E-009  0.4778727E+02  0.7816164E-02  0.1312668E+00
        -11   -1    0    0    0    0  0.00000000000E+00  0.00000000000E+00  0.45593999997E+02  0.45594000000E+02  0.51100000000E-03 0. -1.
         11   -1    0    0    0    0 -0.00000000000E+00 -0.00000000000E+00 -0.45593999997E+02  0.45594000000E+02  0.51100000000E-03 0.  1.
    9900012    2    1    2    0    0 -0.17355864870E+02  0.21438646282E+02 -0.33507936397E+02  0.47787269576E+02  0.19999993303E+02 0.  0.
         12    1    1    2    0    0  0.17355864870E+02 -0.21438646282E+02  0.33507936397E+02  0.43400730424E+02  0.00000000000E+00 0. -1.
         11    1    3    3    0    0 -0.57443710835E+01  0.20171194858E+02 -0.15520917054E+02  0.26091641719E+02  0.51100000000E-03 0. -1.
        -11    1    3    3    0    0 -0.10896533080E+02  0.14264107416E+01 -0.14849039321E+02  0.18473306411E+02  0.51100000000E-03 0.  1.
         12    1    3    3    0    0 -0.71496070630E+00 -0.15895931689E+00 -0.31379800223E+01  0.32223214452E+01  0.00000000000E+00 0. -1.
</event>
<event>
 7    1  0.2412036E-009  0.4778727E+02  0.7816164E-02  0.1312668E+00
        -11   -1    0    0    0    0  0.00000000000E+00  0.00000000000E+00  0.45593999997E+02  0.45594000000E+02  0.51100000000E-03 0.  1.
         11   -1    0    0    0    0 -0.00000000000E+00 -0.00000000000E+00 -0.45593999997E+02  0.45594000000E+02  0.51100000000E-03 0. -1.
    9900012    2    1    2    0    0  0.30614202620E+02  0.61880007553E+00  0.30757294104E+02  0.47787268944E+02  0.19999990423E+02 0.  0.
         12    1    1    2    0    0 -0.30614202620E+02 -0.61880007553E+00 -0.30757294104E+02  0.43400731056E+02  0.00000000000E+00 0. -1.
         11    1    3    3    0    0  0.91553140370E+01 -0.82736200462E+01  0.88971930020E+01  0.15212909234E+02  0.51100000000E-03 0. -1.
        -11    1    3    3    0    0  0.15867174445E+02  0.70801849925E+01  0.19807327495E+02  0.26348177681E+02  0.51100000000E-03 0.  1.
         12    1    3    3    0    0  0.55917141387E+01  0.18122351292E+01  0.20527736070E+01  0.62261820287E+01  0.00000000000E+00 0. -1.
</event>
<event>
 7    1  0.2412036E-009  0.4778727E+02  0.7816164E-02  0.1312668E+00
        -11   -1    0    0    0    0  0.00000000000E+00  0.00000000000E+00  0.45593999997E+02  0.45594000000E+02  0.51100000000E-03 0.  1.
         11   -1    0    0    0    0 -0.00000000000E+00 -0.00000000000E+00 -0.45593999997E+02  0.45594000000E+02  0.51100000000E-03 0. -1.
    9900012    2    1    2    0    0 -0.43147223182E+02 -0.24284285461E+00 -0.46777311566E+01  0.47787274088E+02  0.20000013875E+02 0.  0.
         12    1    1    2    0    0  0.43147223182E+02  0.24284285461E+00  0.46777311566E+01  0.43400725912E+02  0.00000000000E+00 0. -1.
         11    1    3    3    0    0 -0.61753871369E+01  0.76755920107E+00 -0.52575751244E+01  0.81465728910E+01  0.51100000000E-03 0. -1.
        -11    1    3    3    0    0 -0.29587123408E+02 -0.65985954121E+01 -0.49279204553E+00  0.30318017370E+02  0.51100000000E-03 0.  1.
        -12    1    3    3    0    0 -0.73847126370E+01  0.55881933564E+01  0.10726360133E+01  0.93226838269E+01  0.00000000000E+00 0.  1.
</event>
<event>
 7    1  0.2412036E-009  0.4778722E+02  0.7816164E-02  0.1312668E+00
        -11   -1    0    0    0    0  0.00000000000E+00  0.00000000000E+00  0.45593999997E+02  0.45594000000E+02  0.51100000000E-03 0.  1.
         11   -1    0    0    0    0 -0.00000000000E+00 -0.00000000000E+00 -0.45593999997E+02  0.45594000000E+02  0.51100000000E-03 0. -1.
    9900012    2    1    2    0    0 -0.85364617829E+01 -0.38362863815E+02  0.18413225178E+02  0.47787223955E+02  0.19999785297E+02 0.  0.
         12    1    1    2    0    0  0.85364617829E+01  0.38362863815E+02 -0.18413225178E+02  0.43400776045E+02  0.00000000000E+00 0. -1.
         11    1    3    3    0    0 -0.70300788062E+00 -0.22346322560E+02  0.28989803456E+00  0.22359257438E+02  0.51100000000E-03 0. -1.
        -11    1    3    3    0    0 -0.52143022552E+01 -0.10715612797E+02  0.11788187572E+02  0.16762299130E+02  0.51100000000E-03 0.  1.
         12    1    3    3    0    0 -0.26191516471E+01 -0.53009284580E+01  0.63351395711E+01  0.86656673864E+01  0.00000000000E+00 0. -1.
</event>
<event>
 7    1  0.2412036E-009  0.4778724E+02  0.7816164E-02  0.1312668E+00
        -11   -1    0    0    0    0  0.00000000000E+00  0.00000000000E+00  0.45593999997E+02  0.45594000000E+02  0.51100000000E-03 0.  1.
         11   -1    0    0    0    0 -0.00000000000E+00 -0.00000000000E+00 -0.45593999997E+02  0.45594000000E+02  0.51100000000E-03 0. -1.
    9900012    2    1    2    0    0 -0.10618394070E+02 -0.10098109535E+02  0.40852223544E+02  0.47787236443E+02  0.19999842237E+02 0.  0.
         12    1    1    2    0    0  0.10618394070E+02  0.10098109535E+02 -0.40852223544E+02  0.43400763557E+02  0.00000000000E+00 0. -1.
         11    1    3    3    0    0 -0.14899023256E+02 -0.85387567313E+01  0.27659820884E+02  0.32556980083E+02  0.51100000000E-03 0. -1.
        -11    1    3    3    0    0  0.35036886104E+01 -0.30710107453E+01  0.12594311157E+02  0.13428462855E+02  0.51100000000E-03 0.  1.
         12    1    3    3    0    0  0.77694057490E+00  0.15116579411E+01  0.59809150292E+00  0.18017935048E+01  0.00000000000E+00 0. -1.
</event>
<event>
 7    1  0.2412036E-009  0.4778725E+02  0.7816164E-02  0.1312668E+00
        -11   -1    0    0    0    0  0.00000000000E+00  0.00000000000E+00  0.45593999997E+02  0.45594000000E+02  0.51100000000E-03 0.  1.
         11   -1    0    0    0    0 -0.00000000000E+00 -0.00000000000E+00 -0.45593999997E+02  0.45594000000E+02  0.51100000000E-03 0. -1.
    9900012    2    1    2    0    0 -0.85484239604E+01  0.22843305821E+02  0.35898927653E+02  0.47787249088E+02  0.19999899893E+02 0.  0.
         12    1    1    2    0    0  0.85484239604E+01 -0.22843305821E+02 -0.35898927653E+02  0.43400750912E+02  0.00000000000E+00 0. -1.
         11    1    3    3    0    0 -0.58131444939E+01  0.14443446457E+02  0.93207192058E+01  0.18146118076E+02  0.51100000000E-03 0. -1.
        -11    1    3    3    0    0 -0.63926057045E+01  0.51680539923E+01  0.17482828370E+02  0.19318992672E+02  0.51100000000E-03 0.  1.
         12    1    3    3    0    0  0.36573262379E+01  0.32318053711E+01  0.90953800772E+01  0.10322138340E+02  0.00000000000E+00 0. -1.
</event>
<event>
 7    1  0.2412036E-009  0.4778728E+02  0.7816164E-02  0.1312668E+00
        -11   -1    0    0    0    0  0.00000000000E+00  0.00000000000E+00  0.45593999997E+02  0.45594000000E+02  0.51100000000E-03 0.  1.
         11   -1    0    0    0    0 -0.00000000000E+00 -0.00000000000E+00 -0.45593999997E+02  0.45594000000E+02  0.51100000000E-03 0. -1.
    9900012    2    1    2    0    0 -0.34424862137E+02  0.26429020799E+02 -0.24198012128E+00  0.47787276182E+02  0.20000023425E+02 0.  0.
         12    1    1    2    0    0  0.34424862137E+02 -0.26429020799E+02  0.24198012128E+00  0.43400723818E+02  0.00000000000E+00 0. -1.
         11    1    3    3    0    0 -0.12912375156E+01 -0.20031893178E+01 -0.22013377665E+01  0.32443720483E+01  0.51100000000E-03 0. -1.
        -11    1    3    3    0    0 -0.21305442076E+02  0.15061512337E+02  0.46094413983E+01  0.26495621642E+02  0.51100000000E-03 0.  1.
         12    1    3    3    0    0 -0.11828182546E+02  0.13370697780E+02 -0.26500837531E+01  0.18047282492E+02  0.00000000000E+00 0. -1.
</event>
<event>
 7    1  0.2412036E-009  0.4778727E+02  0.7816164E-02  0.1312668E+00
        -11   -1    0    0    0    0  0.00000000000E+00  0.00000000000E+00  0.45593999997E+02  0.45594000000E+02  0.51100000000E-03 0. -1.
         11   -1    0    0    0    0 -0.00000000000E+00 -0.00000000000E+00 -0.45593999997E+02  0.45594000000E+02  0.51100000000E-03 0.  1.
    9900012    2    1    2    0    0  0.30533649918E+02 -0.23656172969E+02 -0.19791529478E+02  0.47787274937E+02  0.20000017749E+02 0.  0.
         12    1    1    2    0    0 -0.30533649918E+02  0.23656172969E+02  0.19791529478E+02  0.43400725063E+02  0.00000000000E+00 0. -1.
         11    1    3    3    0    0  0.71313411331E+01 -0.14741935934E+00 -0.10549108010E+02  0.12734262400E+02  0.51100000000E-03 0. -1.
        -11    1    3    3    0    0  0.19121827808E+02 -0.15056376234E+02 -0.66964063879E+01  0.25242436942E+02  0.51100000000E-03 0.  1.
         12    1    3    3    0    0  0.42804809773E+01 -0.84523773760E+01 -0.25460150811E+01  0.98105755946E+01  0.00000000000E+00 0. -1.
</event>
<event>
 7    1  0.2412036E-009  0.4778727E+02  0.7816164E-02  0.1312668E+00
        -11   -1    0    0    0    0  0.00000000000E+00  0.00000000000E+00  0.45593999997E+02  0.45594000000E+02  0.51100000000E-03 0.  1.
         11   -1    0    0    0    0 -0.00000000000E+00 -0.00000000000E+00 -0.45593999997E+02  0.45594000000E+02  0.51100000000E-03 0. -1.
    9900012    2    1    2    0    0 -0.82549529192E+01 -0.19984728484E+02  0.37630967491E+02  0.47787270345E+02  0.19999996812E+02 0.  0.
         12    1    1    2    0    0  0.82549529192E+01  0.19984728484E+02 -0.37630967491E+02  0.43400729655E+02  0.00000000000E+00 0. -1.
         11    1    3    3    0    0 -0.74310134657E+01 -0.64843940274E+01  0.46311717448E+01  0.10895644957E+02  0.51100000000E-03 0.  1.
        -11    1    3    3    0    0 -0.40103852598E+01 -0.70701663953E+01  0.24245815160E+02  0.25572054978E+02  0.51100000000E-03 0. -1.
         12    1    3    3    0    0  0.31864458062E+01 -0.64301680614E+01  0.87539805860E+01  0.11319570410E+02  0.00000000000E+00 0. -1.
</event>
<event>
 7    1  0.2412036E-009  0.4778727E+02  0.7816164E-02  0.1312668E+00
        -11   -1    0    0    0    0  0.00000000000E+00  0.00000000000E+00  0.45593999997E+02  0.45594000000E+02  0.51100000000E-03 0.  1.
         11   -1    0    0    0    0 -0.00000000000E+00 -0.00000000000E+00 -0.45593999997E+02  0.45594000000E+02  0.51100000000E-03 0. -1.
    9900012    2    1    2    0    0  0.16078580652E+02 -0.30264903606E+02  0.26629649142E+02  0.47787270058E+02  0.19999995501E+02 0.  0.
         12    1    1    2    0    0 -0.16078580652E+02  0.30264903606E+02 -0.26629649142E+02  0.43400729942E+02  0.00000000000E+00 0. -1.
         11    1    3    3    0    0  0.12461316317E+02 -0.14988088066E+02  0.74378660777E+01  0.20862623044E+02  0.51100000000E-03 0. -1.
        -11    1    3    3    0    0 -0.46621909196E+00 -0.14567320330E+02  0.16328785923E+02  0.21887289275E+02  0.51100000000E-03 0.  1.
         12    1    3    3    0    0  0.40834834274E+01 -0.70949521050E+00  0.28629971410E+01  0.50373577384E+01  0.00000000000E+00 0. -1.
</event>
<event>
 7    1  0.2412036E-009  0.4778727E+02  0.7816164E-02  0.1312668E+00
        -11   -1    0    0    0    0  0.00000000000E+00  0.00000000000E+00  0.45593999997E+02  0.45594000000E+02  0.51100000000E-03 0. -1.
         11   -1    0    0    0    0 -0.00000000000E+00 -0.00000000000E+00 -0.45593999997E+02  0.45594000000E+02  0.51100000000E-03 0.  1.
    9900012    2    1    2    0    0  0.16286322166E+02 -0.11683153520E+02 -0.38495231979E+02  0.47787271309E+02  0.20000001205E+02 0.  0.
         12    1    1    2    0    0 -0.16286322166E+02  0.11683153520E+02  0.38495231979E+02  0.43400728691E+02  0.00000000000E+00 0. -1.
         11    1    3    3    0    0 -0.86464753923E+00  0.44073235659E+01 -0.82617695566E+01  0.94036669895E+01  0.51100000000E-03 0. -1.
        -11    1    3    3    0    0  0.69259629065E+01 -0.71662084377E+01 -0.10992582604E+02  0.14837802335E+02  0.51100000000E-03 0.  1.
         12    1    3    3    0    0  0.10225006799E+02 -0.89242686477E+01 -0.19240879818E+02  0.23545801985E+02  0.00000000000E+00 0. -1.
</event>
<event>
 7    1  0.2412036E-009  0.4778727E+02  0.7816164E-02  0.1312668E+00
        -11   -1    0    0    0    0  0.00000000000E+00  0.00000000000E+00  0.45593999997E+02  0.45594000000E+02  0.51100000000E-03 0.  1.
         11   -1    0    0    0    0 -0.00000000000E+00 -0.00000000000E+00 -0.45593999997E+02  0.45594000000E+02  0.51100000000E-03 0. -1.
    9900012    2    1    2    0    0  0.22757132381E+02 -0.18330088942E+02  0.32089623093E+02  0.47787272528E+02  0.20000006766E+02 0.  0.
         12    1    1    2    0    0 -0.22757132381E+02  0.18330088942E+02 -0.32089623093E+02  0.43400727472E+02  0.00000000000E+00 0. -1.
         11    1    3    3    0    0  0.28753958971E+00  0.32495758555E+01  0.36324785663E+00  0.32824337804E+01  0.51100000000E-03 0. -1.
        -11    1    3    3    0    0  0.69645320125E+01 -0.56327918726E+01  0.85670052179E+01  0.12394620974E+02  0.51100000000E-03 0.  1.
         12    1    3    3    0    0  0.15505060778E+02 -0.15946872925E+02  0.23159370019E+02  0.32110217774E+02  0.00000000000E+00 0. -1.
</event>
<event>
 7    1  0.2412036E-009  0.4778727E+02  0.7816164E-02  0.1312668E+00
        -11   -1    0    0    0    0  0.00000000000E+00  0.00000000000E+00  0.45593999997E+02  0.45594000000E+02  0.51100000000E-03 0. -1.
         11   -1    0    0    0    0 -0.00000000000E+00 -0.00000000000E+00 -0.45593999997E+02  0.45594000000E+02  0.51100000000E-03 0.  1.
    9900012    2    1    2    0    0  0.31464969363E+02 -0.29631425274E+02  0.39443119649E+01  0.47787271232E+02  0.20000000854E+02 0.  0.
         12    1    1    2    0    0 -0.31464969363E+02  0.29631425274E+02 -0.39443119649E+01  0.43400728768E+02  0.00000000000E+00 0. -1.
         11    1    3    3    0    0  0.10903875449E+02 -0.22757354656E+02  0.11639634873E+01  0.25261561750E+02  0.51100000000E-03 0. -1.
        -11    1    3    3    0    0  0.17829579283E+02 -0.72846963335E+01  0.10982326220E+01  0.19291625469E+02  0.51100000000E-03 0.  1.
         12    1    3    3    0    0  0.27315146299E+01  0.41062571617E+00  0.16821158556E+01  0.32340840131E+01  0.00000000000E+00 0. -1.
</event>
<event>
 7    1  0.2412036E-009  0.4778727E+02  0.7816164E-02  0.1312668E+00
        -11   -1    0    0    0    0  0.00000000000E+00  0.00000000000E+00  0.45593999997E+02  0.45594000000E+02  0.51100000000E-03 0.  1.
         11   -1    0    0    0    0 -0.00000000000E+00 -0.00000000000E+00 -0.45593999997E+02  0.45594000000E+02  0.51100000000E-03 0. -1.
    9900012    2    1    2    0    0 -0.18276005975E+02  0.93389646620E+01  0.38241267476E+02  0.47787271970E+02  0.20000004219E+02 0.  0.
         12    1    1    2    0    0  0.18276005975E+02 -0.93389646620E+01 -0.38241267476E+02  0.43400728030E+02  0.00000000000E+00 0. -1.
         11    1    3    3    0    0 -0.11870807388E+02  0.12386372577E+02  0.27850749291E+02  0.32710893139E+02  0.51100000000E-03 0. -1.
        -11    1    3    3    0    0 -0.16291894560E+01 -0.70736169287E+00  0.95234979175E+01  0.96877051820E+01  0.51100000000E-03 0.  1.
         12    1    3    3    0    0 -0.47760091313E+01 -0.23400462221E+01  0.86702026774E+00  0.53886736483E+01  0.00000000000E+00 0. -1.
</event>
<event>
 7    1  0.2412036E-009  0.4778726E+02  0.7816164E-02  0.1312668E+00
        -11   -1    0    0    0    0  0.00000000000E+00  0.00000000000E+00  0.45593999997E+02  0.45594000000E+02  0.51100000000E-03 0. -1.
         11   -1    0    0    0    0 -0.00000000000E+00 -0.00000000000E+00 -0.45593999997E+02  0.45594000000E+02  0.51100000000E-03 0.  1.
    9900012    2    1    2    0    0  0.20151803131E+02  0.87745310050E+01 -0.37423748486E+02  0.47787256751E+02  0.19999934830E+02 0.  0.
         12    1    1    2    0    0 -0.20151803131E+02 -0.87745310050E+01  0.37423748486E+02  0.43400743249E+02  0.00000000000E+00 0. -1.
         11    1    3    3    0    0  0.65144647340E+01  0.10274503440E+02 -0.18466592885E+02  0.22113767764E+02  0.51100000000E-03 0. -1.
        -11    1    3    3    0    0  0.13444954514E+02 -0.28887032128E+00 -0.10324628939E+02  0.16954297713E+02  0.51100000000E-03 0.  1.
         12    1    3    3    0    0  0.19238388314E+00 -0.12111021135E+01 -0.86325266628E+01  0.87191912739E+01  0.00000000000E+00 0. -1.
</event>
<event>
 7    1  0.2412036E-009  0.4778727E+02  0.7816164E-02  0.1312668E+00
        -11   -1    0    0    0    0  0.00000000000E+00  0.00000000000E+00  0.45593999997E+02  0.45594000000E+02  0.51100000000E-03 0.  1.
         11   -1    0    0    0    0 -0.00000000000E+00 -0.00000000000E+00 -0.45593999997E+02  0.45594000000E+02  0.51100000000E-03 0. -1.
    9900012    2    1    2    0    0  0.64305944820E+01  0.42903686389E+02 -0.12426141012E+01  0.47787274880E+02  0.20000017486E+02 0.  0.
         12    1    1    2    0    0 -0.64305944820E+01 -0.42903686389E+02  0.12426141012E+01  0.43400725120E+02  0.00000000000E+00 0. -1.
         11    1    3    3    0    0  0.81563828751E+01  0.13241620421E+02  0.63991752768E+01  0.16817150100E+02  0.51100000000E-03 0. -1.
        -11    1    3    3    0    0  0.97953062423E+00  0.10084846585E+02 -0.13060088742E+01  0.10216127952E+02  0.51100000000E-03 0.  1.
         12    1    3    3    0    0 -0.27053190173E+01  0.19577219383E+02 -0.63357805037E+01  0.20753996828E+02  0.00000000000E+00 0. -1.
</event>
<event>
 7    1  0.2412036E-009  0.4778727E+02  0.7816164E-02  0.1312668E+00
        -11   -1    0    0    0    0  0.00000000000E+00  0.00000000000E+00  0.45593999997E+02  0.45594000000E+02  0.51100000000E-03 0.  1.
         11   -1    0    0    0    0 -0.00000000000E+00 -0.00000000000E+00 -0.45593999997E+02  0.45594000000E+02  0.51100000000E-03 0. -1.
    9900012    2    1    2    0    0  0.20215295949E+02  0.22669056371E+02  0.31001274930E+02  0.47787270118E+02  0.19999995776E+02 0.  0.
         12    1    1    2    0    0 -0.20215295949E+02 -0.22669056371E+02 -0.31001274930E+02  0.43400729882E+02  0.00000000000E+00 0. -1.
         11    1    3    3    0    0  0.20420149449E+01 -0.15680238276E+01  0.60413224250E+01  0.65670465707E+01  0.51100000000E-03 0. -1.
        -11    1    3    3    0    0  0.10344702575E+02  0.15677887645E+02  0.74284043329E+01  0.20198767872E+02  0.51100000000E-03 0.  1.
        -12    1    3    3    0    0  0.78285784293E+01  0.85591925530E+01  0.17531548172E+02  0.21021455675E+02  0.00000000000E+00 0.  1.
</event>
<event>
 7    1  0.2412036E-009  0.4778727E+02  0.7816164E-02  0.1312668E+00
        -11   -1    0    0    0    0  0.00000000000E+00  0.00000000000E+00  0.45593999997E+02  0.45594000000E+02  0.51100000000E-03 0.  1.
         11   -1    0    0    0    0 -0.00000000000E+00 -0.00000000000E+00 -0.45593999997E+02  0.45594000000E+02  0.51100000000E-03 0. -1.
    9900012    2    1    2    0    0 -0.62027788171E+01 -0.30451332875E+02  0.30296290116E+02  0.47787270355E+02  0.19999996857E+02 0.  0.
         12    1    1    2    0    0  0.62027788171E+01  0.30451332875E+02 -0.30296290116E+02  0.43400729645E+02  0.00000000000E+00 0. -1.
         11    1    3    3    0    0  0.36181017012E+01 -0.25509079123E+01  0.74503505373E+01  0.86663437785E+01  0.51100000000E-03 0. -1.
        -11    1    3    3    0    0 -0.11132216596E+02 -0.14566626391E+02  0.13971522492E+02  0.23050299169E+02  0.51100000000E-03 0.  1.
         12    1    3    3    0    0  0.13113360781E+01 -0.13333798572E+02  0.88744170871E+01  0.16070627408E+02  0.00000000000E+00 0. -1.
</event>
<event>
 7    1  0.2412036E-009  0.4778722E+02  0.7816164E-02  0.1312668E+00
        -11   -1    0    0    0    0  0.00000000000E+00  0.00000000000E+00  0.45593999997E+02  0.45594000000E+02  0.51100000000E-03 0.  1.
         11   -1    0    0    0    0 -0.00000000000E+00 -0.00000000000E+00 -0.45593999997E+02  0.45594000000E+02  0.51100000000E-03 0. -1.
    9900012    2    1    2    0    0  0.41394776188E+02 -0.12867938496E+02 -0.21250748771E+01  0.47787224891E+02  0.19999789568E+02 0.  0.
         12    1    1    2    0    0 -0.41394776188E+02  0.12867938496E+02  0.21250748771E+01  0.43400775109E+02  0.00000000000E+00 0. -1.
         11    1    3    3    0    0  0.20161250647E+02 -0.90344518883E+01 -0.54495133839E+01  0.22755099318E+02  0.51100000000E-03 0.  1.
        -11    1    3    3    0    0  0.17055137823E+01  0.29259314257E+01  0.27446158629E+01  0.43592164967E+01  0.51100000000E-03 0. -1.
         12    1    3    3    0    0  0.19528011759E+02 -0.67594180330E+01  0.57982264380E+00  0.20672909077E+02  0.00000000000E+00 0. -1.
</event>
<event>
 7    1  0.2412036E-009  0.4778727E+02  0.7816164E-02  0.1312668E+00
        -11   -1    0    0    0    0  0.00000000000E+00  0.00000000000E+00  0.45593999997E+02  0.45594000000E+02  0.51100000000E-03 0.  1.
         11   -1    0    0    0    0 -0.00000000000E+00 -0.00000000000E+00 -0.45593999997E+02  0.45594000000E+02  0.51100000000E-03 0. -1.
    9900012    2    1    2    0    0 -0.28868378673E+01 -0.13658639615E+02  0.41094172949E+02  0.47787270521E+02  0.19999997612E+02 0.  0.
         12    1    1    2    0    0  0.28868378673E+01  0.13658639615E+02 -0.41094172949E+02  0.43400729479E+02  0.00000000000E+00 0. -1.
         11    1    3    3    0    0  0.42523755188E+01 -0.41176998993E+01  0.18436030503E+02  0.19362989722E+02  0.51100000000E-03 0. -1.
        -11    1    3    3    0    0 -0.82640677846E+01 -0.48413808635E+01  0.21377724026E+02  0.23425218672E+02  0.51100000000E-03 0.  1.
         12    1    3    3    0    0  0.11248543985E+01 -0.46995588520E+01  0.12804184199E+01  0.49990621272E+01  0.00000000000E+00 0. -1.
</event>
<event>
 7    1  0.2412036E-009  0.4778728E+02  0.7816164E-02  0.1312668E+00
        -11   -1    0    0    0    0  0.00000000000E+00  0.00000000000E+00  0.45593999997E+02  0.45594000000E+02  0.51100000000E-03 0. -1.
         11   -1    0    0    0    0 -0.00000000000E+00 -0.00000000000E+00 -0.45593999997E+02  0.45594000000E+02  0.51100000000E-03 0.  1.
    9900012    2    1    2    0    0  0.43357344200E+02 -0.19043158028E+01  0.37041484248E+00  0.47787275099E+02  0.20000018487E+02 0.  0.
         12    1    1    2    0    0 -0.43357344200E+02  0.19043158028E+01 -0.37041484248E+00  0.43400724901E+02  0.00000000000E+00 0. -1.
         11    1    3    3    0    0  0.16365096083E+02  0.66918520737E+01 -0.11442467951E+01  0.17717408247E+02  0.51100000000E-03 0.  1.
        -11    1    3    3    0    0  0.12775687559E+02 -0.96381895035E+00 -0.33017416318E+01  0.13230594758E+02  0.51100000000E-03 0. -1.
         12    1    3    3    0    0  0.14216560557E+02 -0.76323489262E+01  0.48164032694E+01  0.16839272094E+02  0.00000000000E+00 0. -1.
</event>
<event>
 7    1  0.2412036E-009  0.4778727E+02  0.7816164E-02  0.1312668E+00
        -11   -1    0    0    0    0  0.00000000000E+00  0.00000000000E+00  0.45593999997E+02  0.45594000000E+02  0.51100000000E-03 0.  1.
         11   -1    0    0    0    0 -0.00000000000E+00 -0.00000000000E+00 -0.45593999997E+02  0.45594000000E+02  0.51100000000E-03 0. -1.
    9900012    2    1    2    0    0  0.41236185736E+02 -0.13381935793E+02 -0.20307458970E+01  0.47787272488E+02  0.20000006582E+02 0.  0.
         12    1    1    2    0    0 -0.41236185736E+02  0.13381935793E+02  0.20307458970E+01  0.43400727512E+02  0.00000000000E+00 0. -1.
         11    1    3    3    0    0  0.11528708858E+02  0.18047239719E+01 -0.73630932335E+01  0.13797945455E+02  0.51100000000E-03 0. -1.
        -11    1    3    3    0    0  0.16906135998E+02 -0.10593610826E+02  0.37024330793E+01  0.20291624767E+02  0.51100000000E-03 0.  1.
         12    1    3    3    0    0  0.12801340880E+02 -0.45930489395E+01  0.16299142572E+01  0.13697702266E+02  0.00000000000E+00 0. -1.
</event>
<event>
 7    1  0.2412036E-009  0.4778728E+02  0.7816164E-02  0.1312668E+00
        -11   -1    0    0    0    0  0.00000000000E+00  0.00000000000E+00  0.45593999997E+02  0.45594000000E+02  0.51100000000E-03 0.  1.
         11   -1    0    0    0    0 -0.00000000000E+00 -0.00000000000E+00 -0.45593999997E+02  0.45594000000E+02  0.51100000000E-03 0. -1.
    9900012    2    1    2    0    0 -0.33894266780E+02  0.25043631552E+02 -0.10373912224E+02  0.47787275851E+02  0.20000021914E+02 0.  0.
         12    1    1    2    0    0  0.33894266780E+02 -0.25043631552E+02  0.10373912224E+02  0.43400724149E+02  0.00000000000E+00 0. -1.
         11    1    3    3    0    0 -0.14493331055E+02  0.33522603735E+01 -0.60214792543E+01  0.16048442521E+02  0.51100000000E-03 0. -1.
        -11    1    3    3    0    0 -0.48136996592E+01  0.10442089778E+02  0.30345180348E+01  0.11891898221E+02  0.51100000000E-03 0.  1.
        -12    1    3    3    0    0 -0.14587236065E+02  0.11249281400E+02 -0.73869510049E+01  0.19846935108E+02  0.00000000000E+00 0.  1.
</event>
<event>
 7    1  0.2412036E-009  0.4778726E+02  0.7816164E-02  0.1312668E+00
        -11   -1    0    0    0    0  0.00000000000E+00  0.00000000000E+00  0.45593999997E+02  0.45594000000E+02  0.51100000000E-03 0.  1.
         11   -1    0    0    0    0 -0.00000000000E+00 -0.00000000000E+00 -0.45593999997E+02  0.45594000000E+02  0.51100000000E-03 0. -1.
    9900012    2    1    2    0    0 -0.23534633051E+02 -0.23845869633E+02 -0.27588398695E+02  0.47787260445E+02  0.19999951673E+02 0.  0.
         12    1    1    2    0    0  0.23534633051E+02  0.23845869633E+02  0.27588398695E+02  0.43400739555E+02  0.00000000000E+00 0. -1.
         11    1    3    3    0    0 -0.35735926983E+01 -0.44723235961E+01 -0.87014160183E+00  0.57904567860E+01  0.51100000000E-03 0. -1.
        -11    1    3    3    0    0 -0.20536655622E+01 -0.13258346081E+02 -0.98091091852E+01  0.16619864810E+02  0.51100000000E-03 0.  1.
        -12    1    3    3    0    0 -0.17907374790E+02 -0.61151999561E+01 -0.16909147908E+02  0.25376938849E+02  0.00000000000E+00 0.  1.
</event>
<event>
 7    1  0.2412036E-009  0.4778727E+02  0.7816164E-02  0.1312668E+00
        -11   -1    0    0    0    0  0.00000000000E+00  0.00000000000E+00  0.45593999997E+02  0.45594000000E+02  0.51100000000E-03 0.  1.
         11   -1    0    0    0    0 -0.00000000000E+00 -0.00000000000E+00 -0.45593999997E+02  0.45594000000E+02  0.51100000000E-03 0. -1.
    9900012    2    1    2    0    0  0.10559815450E+02  0.19365872793E+02  0.37377485949E+02  0.47787272043E+02  0.20000004553E+02 0.  0.
         12    1    1    2    0    0 -0.10559815450E+02 -0.19365872793E+02 -0.37377485949E+02  0.43400727957E+02  0.00000000000E+00 0. -1.
         11    1    3    3    0    0  0.97016018882E+01  0.10525962278E+02  0.80081185053E+01  0.16402649888E+02  0.51100000000E-03 0. -1.
        -11    1    3    3    0    0 -0.25948961317E+01  0.50415895332E+01  0.11992987153E+02  0.13265852858E+02  0.51100000000E-03 0.  1.
         12    1    3    3    0    0  0.34531096936E+01  0.37983209809E+01  0.17376380291E+02  0.18118769297E+02  0.00000000000E+00 0. -1.
</event>
<event>
 7    1  0.2412036E-009  0.4778728E+02  0.7816164E-02  0.1312668E+00
        -11   -1    0    0    0    0  0.00000000000E+00  0.00000000000E+00  0.45593999997E+02  0.45594000000E+02  0.51100000000E-03 0.  1.
         11   -1    0    0    0    0 -0.00000000000E+00 -0.00000000000E+00 -0.45593999997E+02  0.45594000000E+02  0.51100000000E-03 0. -1.
    9900012    2    1    2    0    0 -0.22494022802E+01  0.33330129152E+02  0.27706763648E+02  0.47787284894E+02  0.20000063144E+02 0.  0.
         12    1    1    2    0    0  0.22494022802E+01 -0.33330129152E+02 -0.27706763648E+02  0.43400715106E+02  0.00000000000E+00 0. -1.
         11    1    3    3    0    0 -0.75046188297E+01  0.15041752136E+02  0.14347520088E+02  0.22100338097E+02  0.51100000000E-03 0. -1.
        -11    1    3    3    0    0  0.53532146809E+01  0.19641664503E+02  0.13322082403E+02  0.24329606895E+02  0.51100000000E-03 0.  1.
         12    1    3    3    0    0 -0.97998131315E-01 -0.13532874865E+01  0.37161157089E-01  0.13573399009E+01  0.00000000000E+00 0. -1.
</event>
<event>
 7    1  0.2412036E-009  0.4778727E+02  0.7816164E-02  0.1312668E+00
        -11   -1    0    0    0    0  0.00000000000E+00  0.00000000000E+00  0.45593999997E+02  0.45594000000E+02  0.51100000000E-03 0.  1.
         11   -1    0    0    0    0 -0.00000000000E+00 -0.00000000000E+00 -0.45593999997E+02  0.45594000000E+02  0.51100000000E-03 0. -1.
    9900012    2    1    2    0    0  0.16707369012E+02  0.31656437860E+02  0.24542965018E+02  0.47787269947E+02  0.19999994994E+02 0.  0.
         12    1    1    2    0    0 -0.16707369012E+02 -0.31656437860E+02 -0.24542965018E+02  0.43400730053E+02  0.00000000000E+00 0. -1.
         11    1    3    3    0    0  0.13445820490E+01  0.14829871319E+02  0.43313069011E+01  0.15507843305E+02  0.51100000000E-03 0. -1.
        -11    1    3    3    0    0  0.15540370984E+02  0.15598553931E+02  0.14336265406E+02  0.26274446161E+02  0.51100000000E-03 0.  1.
        -12    1    3    3    0    0 -0.17758402075E+00  0.12280126098E+01  0.58753927114E+01  0.60049804802E+01  0.00000000000E+00 0.  1.
</event>
<event>
 7    1  0.2412036E-009  0.4778727E+02  0.7816164E-02  0.1312668E+00
        -11   -1    0    0    0    0  0.00000000000E+00  0.00000000000E+00  0.45593999997E+02  0.45594000000E+02  0.51100000000E-03 0.  1.
         11   -1    0    0    0    0 -0.00000000000E+00 -0.00000000000E+00 -0.45593999997E+02  0.45594000000E+02  0.51100000000E-03 0. -1.
    9900012    2    1    2    0    0 -0.57178411802E+01 -0.27430199946E+02  0.33143829422E+02  0.47787274135E+02  0.20000014092E+02 0.  0.
         12    1    1    2    0    0  0.57178411802E+01  0.27430199946E+02 -0.33143829422E+02  0.43400725865E+02  0.00000000000E+00 0. -1.
         11    1    3    3    0    0  0.19713928262E+00 -0.25029388632E+00  0.78879720658E+01  0.78944039989E+01  0.51100000000E-03 0. -1.
        -11    1    3    3    0    0 -0.33365807346E+01 -0.27258315155E+02  0.25261270954E+02  0.37313272793E+02  0.51100000000E-03 0.  1.
        -12    1    3    3    0    0 -0.25783997282E+01  0.78409095403E-01 -0.54135977842E-02  0.25795973429E+01  0.00000000000E+00 0.  1.
</event>
<event>
 7    1  0.2412036E-009  0.4778728E+02  0.7816164E-02  0.1312668E+00
        -11   -1    0    0    0    0  0.00000000000E+00  0.00000000000E+00  0.45593999997E+02  0.45594000000E+02  0.51100000000E-03 0. -1.
         11   -1    0    0    0    0 -0.00000000000E+00 -0.00000000000E+00 -0.45593999997E+02  0.45594000000E+02  0.51100000000E-03 0.  1.
    9900012    2    1    2    0    0  0.52499126576E+01  0.21135265470E+02 -0.37541468356E+02  0.47787275631E+02  0.20000020913E+02 0.  0.
         12    1    1    2    0    0 -0.52499126576E+01 -0.21135265470E+02  0.37541468356E+02  0.43400724369E+02  0.00000000000E+00 0. -1.
         11    1    3    3    0    0 -0.24639971329E+00 -0.15069187206E+01  0.12578246293E+01  0.19782921696E+01  0.51100000000E-03 0. -1.
        -11    1    3    3    0    0  0.68303263600E+01  0.17447669274E+02 -0.32695195633E+02  0.37683555287E+02  0.51100000000E-03 0.  1.
         12    1    3    3    0    0 -0.13340139891E+01  0.51945149168E+01 -0.61040973521E+01  0.81254281750E+01  0.00000000000E+00 0. -1.
</event>
<event>
 7    1  0.2412036E-009  0.4778728E+02  0.7816164E-02  0.1312668E+00
        -11   -1    0    0    0    0  0.00000000000E+00  0.00000000000E+00  0.45593999997E+02  0.45594000000E+02  0.51100000000E-03 0. -1.
         11   -1    0    0    0    0 -0.00000000000E+00 -0.00000000000E+00 -0.45593999997E+02  0.45594000000E+02  0.51100000000E-03 0.  1.
    9900012    2    1    2    0    0 -0.40761244232E+02 -0.14609970576E+02 -0.29483170391E+01  0.47787275987E+02  0.20000022533E+02 0.  0.
         12    1    1    2    0    0  0.40761244232E+02  0.14609970576E+02  0.29483170391E+01  0.43400724013E+02  0.00000000000E+00 0. -1.
         11    1    3    3    0    0  0.10292390425E+00 -0.22837235887E+01 -0.16746249616E+01  0.28337882388E+01  0.51100000000E-03 0. -1.
        -11    1    3    3    0    0 -0.32716971407E+02 -0.36475257207E+01  0.46857904117E+00  0.32923004548E+02  0.51100000000E-03 0.  1.
        -12    1    3    3    0    0 -0.81471967292E+01 -0.86787212661E+01 -0.17422711187E+01  0.12030483199E+02  0.00000000000E+00 0.  1.
</event>
<event>
 7    1  0.2412036E-009  0.4778727E+02  0.7816164E-02  0.1312668E+00
        -11   -1    0    0    0    0  0.00000000000E+00  0.00000000000E+00  0.45593999997E+02  0.45594000000E+02  0.51100000000E-03 0.  1.
         11   -1    0    0    0    0 -0.00000000000E+00 -0.00000000000E+00 -0.45593999997E+02  0.45594000000E+02  0.51100000000E-03 0. -1.
    9900012    2    1    2    0    0  0.37572847546E+02  0.19707722830E+02  0.91383874220E+01  0.47787270322E+02  0.19999996707E+02 0.  0.
         12    1    1    2    0    0 -0.37572847546E+02 -0.19707722830E+02 -0.91383874220E+01  0.43400729678E+02  0.00000000000E+00 0. -1.
         11    1    3    3    0    0  0.21388296546E+02  0.16080810138E+02  0.28334725964E+01  0.26908739307E+02  0.51100000000E-03 0. -1.
        -11    1    3    3    0    0  0.62278255736E+01  0.67993944552E+01  0.45508777409E+01  0.10282415320E+02  0.51100000000E-03 0.  1.
         12    1    3    3    0    0  0.99567254262E+01 -0.31724817629E+01  0.17540370847E+01  0.10596115696E+02  0.00000000000E+00 0. -1.
</event>
<event>
 7    1  0.2412036E-009  0.4778727E+02  0.7816164E-02  0.1312668E+00
        -11   -1    0    0    0    0  0.00000000000E+00  0.00000000000E+00  0.45593999997E+02  0.45594000000E+02  0.51100000000E-03 0.  1.
         11   -1    0    0    0    0 -0.00000000000E+00 -0.00000000000E+00 -0.45593999997E+02  0.45594000000E+02  0.51100000000E-03 0. -1.
    9900012    2    1    2    0    0  0.16236294297E+02  0.39197887442E+02 -0.91395731688E+01  0.47787269244E+02  0.19999991790E+02 0.  0.
         12    1    1    2    0    0 -0.16236294297E+02 -0.39197887442E+02  0.91395731688E+01  0.43400730756E+02  0.00000000000E+00 0. -1.
         11    1    3    3    0    0  0.29086742954E+01  0.60502240260E+01 -0.42824879751E+01  0.79627445294E+01  0.51100000000E-03 0. -1.
        -11    1    3    3    0    0  0.10976534500E+02  0.82554604234E+01 -0.55461446140E+01  0.14812044314E+02  0.51100000000E-03 0.  1.
        -12    1    3    3    0    0  0.23510855019E+01  0.24892202993E+02  0.68905942026E+00  0.25012480400E+02  0.00000000000E+00 0.  1.
</event>
<event>
 7    1  0.2412036E-009  0.4778727E+02  0.7816164E-02  0.1312668E+00
        -11   -1    0    0    0    0  0.00000000000E+00  0.00000000000E+00  0.45593999997E+02  0.45594000000E+02  0.51100000000E-03 0.  1.
         11   -1    0    0    0    0 -0.00000000000E+00 -0.00000000000E+00 -0.45593999997E+02  0.45594000000E+02  0.51100000000E-03 0. -1.
    9900012    2    1    2    0    0 -0.16991405034E+02  0.44551165723E+01  0.39687118171E+02  0.47787271234E+02  0.20000000863E+02 0.  0.
         12    1    1    2    0    0  0.16991405034E+02 -0.44551165723E+01 -0.39687118171E+02  0.43400728766E+02  0.00000000000E+00 0. -1.
         11    1    3    3    0    0 -0.37095397552E+01  0.64643919989E+01  0.28319136380E+01  0.79730034633E+01  0.51100000000E-03 0. -1.
        -11    1    3    3    0    0 -0.84455037015E+01 -0.61218567683E+00  0.30784529780E+02  0.31927865230E+02  0.51100000000E-03 0.  1.
        -12    1    3    3    0    0 -0.48363615776E+01 -0.13970897498E+01  0.60706747531E+01  0.78864025409E+01  0.00000000000E+00 0.  1.
</event>
<event>
 7    1  0.2412036E-009  0.4778727E+02  0.7816164E-02  0.1312668E+00
        -11   -1    0    0    0    0  0.00000000000E+00  0.00000000000E+00  0.45593999997E+02  0.45594000000E+02  0.51100000000E-03 0. -1.
         11   -1    0    0    0    0 -0.00000000000E+00 -0.00000000000E+00 -0.45593999997E+02  0.45594000000E+02  0.51100000000E-03 0.  1.
    9900012    2    1    2    0    0  0.42541383303E+00  0.13003021418E+02 -0.41404873058E+02  0.47787273556E+02  0.20000011449E+02 0.  0.
         12    1    1    2    0    0 -0.42541383303E+00 -0.13003021418E+02  0.41404873058E+02  0.43400726444E+02  0.00000000000E+00 0. -1.
         11    1    3    3    0    0 -0.43485906834E+01  0.10251443947E+02 -0.31320254516E+02  0.33240948950E+02  0.51100000000E-03 0. -1.
        -11    1    3    3    0    0  0.41716106802E+01  0.48200568518E+01 -0.10564870993E+02  0.12339034933E+02  0.51100000000E-03 0.  1.
         12    1    3    3    0    0  0.60239383620E+00 -0.20684793801E+01  0.48025245051E+00  0.22072896720E+01  0.00000000000E+00 0. -1.
</event>
<event>
 7    1  0.2412036E-009  0.4778726E+02  0.7816164E-02  0.1312668E+00
        -11   -1    0    0    0    0  0.00000000000E+00  0.00000000000E+00  0.45593999997E+02  0.45594000000E+02  0.51100000000E-03 0.  1.
         11   -1    0    0    0    0 -0.00000000000E+00 -0.00000000000E+00 -0.45593999997E+02  0.45594000000E+02  0.51100000000E-03 0. -1.
    9900012    2    1    2    0    0  0.21838718087E+02  0.28951865210E+02  0.23842897362E+02  0.47787264275E+02  0.19999969138E+02 0.  0.
         12    1    1    2    0    0 -0.21838718087E+02 -0.28951865210E+02 -0.23842897362E+02  0.43400735725E+02  0.00000000000E+00 0. -1.
         11    1    3    3    0    0  0.70436167875E+00 -0.28102919750E+01  0.76399159492E+00  0.29962559599E+01  0.51100000000E-03 0. -1.
        -11    1    3    3    0    0  0.15204720841E+02  0.22254435461E+02  0.18475512409E+02  0.32677025455E+02  0.51100000000E-03 0.  1.
         12    1    3    3    0    0  0.59296355677E+01  0.95077217235E+01  0.46033933577E+01  0.12113982860E+02  0.00000000000E+00 0. -1.
</event>
<event>
 7    1  0.2412036E-009  0.4778727E+02  0.7816164E-02  0.1312668E+00
        -11   -1    0    0    0    0  0.00000000000E+00  0.00000000000E+00  0.45593999997E+02  0.45594000000E+02  0.51100000000E-03 0.  1.
         11   -1    0    0    0    0 -0.00000000000E+00 -0.00000000000E+00 -0.45593999997E+02  0.45594000000E+02  0.51100000000E-03 0. -1.
    9900012    2    1    2    0    0  0.16801821841E+02  0.14336471782E+02  0.37360244832E+02  0.47787268045E+02  0.19999986325E+02 0.  0.
         12    1    1    2    0    0 -0.16801821841E+02 -0.14336471782E+02 -0.37360244832E+02  0.43400731955E+02  0.00000000000E+00 0. -1.
         11    1    3    3    0    0  0.49747979731E+01  0.69913287853E+01  0.78576153074E+01  0.11634836124E+02  0.51100000000E-03 0. -1.
        -11    1    3    3    0    0  0.84558814345E+01  0.82776276216E+01  0.30331386660E+02  0.32557857221E+02  0.51100000000E-03 0.  1.
        -12    1    3    3    0    0  0.33711424335E+01 -0.93248462468E+00 -0.82875713556E+00  0.35945746997E+01  0.00000000000E+00 0.  1.
</event>
<event>
 7    1  0.2412036E-009  0.4778727E+02  0.7816164E-02  0.1312668E+00
        -11   -1    0    0    0    0  0.00000000000E+00  0.00000000000E+00  0.45593999997E+02  0.45594000000E+02  0.51100000000E-03 0. -1.
         11   -1    0    0    0    0 -0.00000000000E+00 -0.00000000000E+00 -0.45593999997E+02  0.45594000000E+02  0.51100000000E-03 0.  1.
    9900012    2    1    2    0    0  0.12768375905E+02  0.25849999600E+02  0.32440242894E+02  0.47787271186E+02  0.20000000644E+02 0.  0.
         12    1    1    2    0    0 -0.12768375905E+02 -0.25849999600E+02 -0.32440242894E+02  0.43400728814E+02  0.00000000000E+00 0. -1.
         11    1    3    3    0    0  0.45356313975E+01  0.59990222056E+01  0.13674662413E+02  0.15606300393E+02  0.51100000000E-03 0. -1.
        -11    1    3    3    0    0  0.33033783787E+01  0.10836121061E+02  0.64083934409E+00  0.11346563519E+02  0.51100000000E-03 0.  1.
        -12    1    3    3    0    0  0.49293661284E+01  0.90148563334E+01  0.18124741137E+02  0.20834407273E+02  0.00000000000E+00 0.  1.
</event>
<event>
 7    1  0.2833701E-009  0.4778727E+02  0.7816164E-02  0.1312668E+00
        -11   -1    0    0    0    0  0.00000000000E+00  0.00000000000E+00  0.45593999997E+02  0.45594000000E+02  0.51100000000E-03 0. -1.
         11   -1    0    0    0    0 -0.00000000000E+00 -0.00000000000E+00 -0.45593999997E+02  0.45594000000E+02  0.51100000000E-03 0.  1.
    9900012    2    1    2    0    0  0.24948512468E+02  0.35510396018E+02  0.45478932462E+00  0.47787270363E+02  0.19999996892E+02 0.  0.
         12    1    1    2    0    0 -0.24948512468E+02 -0.35510396018E+02 -0.45478932462E+00  0.43400729637E+02  0.00000000000E+00 0. -1.
         11    1    3    3    0    0 -0.70592907153E+00  0.13741157405E+00 -0.25328383768E+01  0.26329618871E+01  0.51100000000E-03 0. -1.
        -11    1    3    3    0    0  0.20684270432E+02  0.25747981755E+02  0.67064241576E+01  0.33701242306E+02  0.51100000000E-03 0.  1.
        -12    1    3    3    0    0  0.49701711081E+01  0.96250026887E+01 -0.37187964561E+01  0.11453066169E+02  0.00000000000E+00 0.  1.
</event>
<event>
 7    1  0.2412036E-009  0.4778727E+02  0.7816164E-02  0.1312668E+00
        -11   -1    0    0    0    0  0.00000000000E+00  0.00000000000E+00  0.45593999997E+02  0.45594000000E+02  0.51100000000E-03 0.  1.
         11   -1    0    0    0    0 -0.00000000000E+00 -0.00000000000E+00 -0.45593999997E+02  0.45594000000E+02  0.51100000000E-03 0. -1.
    9900012    2    1    2    0    0  0.42102149533E+02  0.10420931107E+02 -0.15609115550E+01  0.47787271374E+02  0.20000001502E+02 0.  0.
         12    1    1    2    0    0 -0.42102149533E+02 -0.10420931107E+02  0.15609115550E+01  0.43400728626E+02  0.00000000000E+00 0. -1.
         11    1    3    3    0    0  0.12206315263E+02 -0.22098108587E+01  0.37160380888E+01  0.12949375880E+02  0.51100000000E-03 0. -1.
        -11    1    3    3    0    0  0.27430144034E+02  0.13684263127E+02 -0.21654358829E+01  0.30730456747E+02  0.51100000000E-03 0.  1.
         12    1    3    3    0    0  0.24656902350E+01 -0.10535211615E+01 -0.31115137609E+01  0.41074387466E+01  0.00000000000E+00 0. -1.
</event>
<event>
 7    1  0.2412036E-009  0.4778727E+02  0.7816164E-02  0.1312668E+00
        -11   -1    0    0    0    0  0.00000000000E+00  0.00000000000E+00  0.45593999997E+02  0.45594000000E+02  0.51100000000E-03 0. -1.
         11   -1    0    0    0    0 -0.00000000000E+00 -0.00000000000E+00 -0.45593999997E+02  0.45594000000E+02  0.51100000000E-03 0.  1.
    9900012    2    1    2    0    0  0.32601686836E+02 -0.17767064204E+02  0.22474095424E+02  0.47787268208E+02  0.19999987066E+02 0.  0.
         12    1    1    2    0    0 -0.32601686836E+02  0.17767064204E+02 -0.22474095424E+02  0.43400731792E+02  0.00000000000E+00 0. -1.
         11    1    3    3    0    0  0.24873922157E+02 -0.47702918639E+01  0.17435733396E+02  0.30748536343E+02  0.51100000000E-03 0. -1.
        -11    1    3    3    0    0  0.14843791523E+01 -0.60777266679E+01 -0.36339880405E+00  0.62669132649E+01  0.51100000000E-03 0.  1.
        -12    1    3    3    0    0  0.62433855263E+01 -0.69190456721E+01  0.54017608325E+01  0.10771818599E+02  0.00000000000E+00 0.  1.
</event>
<event>
 7    1  0.2412036E-009  0.4778727E+02  0.7816164E-02  0.1312668E+00
        -11   -1    0    0    0    0  0.00000000000E+00  0.00000000000E+00  0.45593999997E+02  0.45594000000E+02  0.51100000000E-03 0. -1.
         11   -1    0    0    0    0 -0.00000000000E+00 -0.00000000000E+00 -0.45593999997E+02  0.45594000000E+02  0.51100000000E-03 0.  1.
    9900012    2    1    2    0    0  0.36435756052E+02  0.23292389614E+02 -0.36774296414E+01  0.47787271644E+02  0.20000002734E+02 0.  0.
         12    1    1    2    0    0 -0.36435756052E+02 -0.23292389614E+02  0.36774296414E+01  0.43400728356E+02  0.00000000000E+00 0. -1.
         11    1    3    3    0    0  0.43619816627E+01 -0.11809821420E+00 -0.16462764132E+01  0.46638029014E+01  0.51100000000E-03 0.  1.
        -11    1    3    3    0    0  0.16608412744E+02  0.76377848622E+01  0.65600803985E+01  0.19421889367E+02  0.51100000000E-03 0. -1.
        -12    1    3    3    0    0  0.15465361646E+02  0.15772702966E+02 -0.85912336267E+01  0.23701579376E+02  0.00000000000E+00 0.  1.
</event>
<event>
 7    1  0.2412036E-009  0.4778728E+02  0.7816164E-02  0.1312668E+00
        -11   -1    0    0    0    0  0.00000000000E+00  0.00000000000E+00  0.45593999997E+02  0.45594000000E+02  0.51100000000E-03 0.  1.
         11   -1    0    0    0    0 -0.00000000000E+00 -0.00000000000E+00 -0.45593999997E+02  0.45594000000E+02  0.51100000000E-03 0. -1.
    9900012    2    1    2    0    0 -0.19034698318E+02 -0.21622821329E+02  0.32461611424E+02  0.47787281590E+02  0.20000048081E+02 0.  0.
         12    1    1    2    0    0  0.19034698318E+02  0.21622821329E+02 -0.32461611424E+02  0.43400718410E+02  0.00000000000E+00 0. -1.
         11    1    3    3    0    0 -0.11823291759E+02 -0.14259342077E+02  0.13500823339E+02  0.22921415654E+02  0.51100000000E-03 0. -1.
        -11    1    3    3    0    0 -0.79614122689E+01 -0.13784210058E+00  0.13877119991E+02  0.15999298275E+02  0.51100000000E-03 0.  1.
        -12    1    3    3    0    0  0.75000571049E+00 -0.72256371518E+01  0.50836680938E+01  0.88665676619E+01  0.00000000000E+00 0.  1.
</event>
<event>
 7    1  0.2412036E-009  0.4778728E+02  0.7816164E-02  0.1312668E+00
        -11   -1    0    0    0    0  0.00000000000E+00  0.00000000000E+00  0.45593999997E+02  0.45594000000E+02  0.51100000000E-03 0.  1.
         11   -1    0    0    0    0 -0.00000000000E+00 -0.00000000000E+00 -0.45593999997E+02  0.45594000000E+02  0.51100000000E-03 0. -1.
    9900012    2    1    2    0    0  0.23152890216E+01 -0.23066333635E+02  0.36690680595E+02  0.47787281652E+02  0.20000048363E+02 0.  0.
         12    1    1    2    0    0 -0.23152890216E+01  0.23066333635E+02 -0.36690680595E+02  0.43400718348E+02  0.00000000000E+00 0. -1.
         11    1    3    3    0    0  0.74098414801E+01 -0.10085075896E+02  0.92811895969E+01  0.15580596496E+02  0.51100000000E-03 0. -1.
        -11    1    3    3    0    0 -0.14966575203E+01 -0.13112603783E+02  0.22962031666E+02  0.26484623090E+02  0.51100000000E-03 0.  1.
         12    1    3    3    0    0 -0.35978949382E+01  0.13134604438E+00  0.44474593320E+01  0.57220620653E+01  0.00000000000E+00 0. -1.
</event>
<event>
 7    1  0.2412036E-009  0.4778727E+02  0.7816164E-02  0.1312668E+00
        -11   -1    0    0    0    0  0.00000000000E+00  0.00000000000E+00  0.45593999997E+02  0.45594000000E+02  0.51100000000E-03 0. -1.
         11   -1    0    0    0    0 -0.00000000000E+00 -0.00000000000E+00 -0.45593999997E+02  0.45594000000E+02  0.51100000000E-03 0.  1.
    9900012    2    1    2    0    0  0.15246187121E+02 -0.38384212470E+02 -0.13335274907E+02  0.47787267915E+02  0.19999985732E+02 0.  0.
         12    1    1    2    0    0 -0.15246187121E+02  0.38384212470E+02  0.13335274907E+02  0.43400732085E+02  0.00000000000E+00 0. -1.
         11    1    3    3    0    0  0.15402604033E+02 -0.19673736462E+02 -0.53543078005E+01  0.25553174552E+02  0.51100000000E-03 0. -1.
        -11    1    3    3    0    0  0.32506354387E+01 -0.79454745150E+01 -0.66611758535E+01  0.10865931163E+02  0.51100000000E-03 0.  1.
         12    1    3    3    0    0 -0.34070523513E+01 -0.10765001493E+02 -0.13197912526E+01  0.11368162200E+02  0.00000000000E+00 0. -1.
</event>
<event>
 7    1  0.2412036E-009  0.4778726E+02  0.7816164E-02  0.1312668E+00
        -11   -1    0    0    0    0  0.00000000000E+00  0.00000000000E+00  0.45593999997E+02  0.45594000000E+02  0.51100000000E-03 0. -1.
         11   -1    0    0    0    0 -0.00000000000E+00 -0.00000000000E+00 -0.45593999997E+02  0.45594000000E+02  0.51100000000E-03 0.  1.
    9900012    2    1    2    0    0 -0.37784979154E+02  0.15669009297E+02 -0.14505217968E+02  0.47787264403E+02  0.19999969721E+02 0.  0.
         12    1    1    2    0    0  0.37784979154E+02 -0.15669009297E+02  0.14505217968E+02  0.43400735597E+02  0.00000000000E+00 0. -1.
         11    1    3    3    0    0 -0.77131873863E+00  0.20969137907E+01  0.46275735740E+00  0.22816933788E+01  0.51100000000E-03 0. -1.
        -11    1    3    3    0    0 -0.36789775771E+02  0.16267733421E+02 -0.13518310091E+02  0.42436675882E+02  0.51100000000E-03 0.  1.
        -12    1    3    3    0    0 -0.22388464425E+00 -0.26956379151E+01 -0.14496652340E+01  0.30688951422E+01  0.00000000000E+00 0.  1.
</event>
<event>
 7    1  0.2412036E-009  0.4778727E+02  0.7816164E-02  0.1312668E+00
        -11   -1    0    0    0    0  0.00000000000E+00  0.00000000000E+00  0.45593999997E+02  0.45594000000E+02  0.51100000000E-03 0.  1.
         11   -1    0    0    0    0 -0.00000000000E+00 -0.00000000000E+00 -0.45593999997E+02  0.45594000000E+02  0.51100000000E-03 0. -1.
    9900012    2    1    2    0    0 -0.40978123427E+01  0.50136480381E+01  0.42914970543E+02  0.47787269253E+02  0.19999991831E+02 0.  0.
         12    1    1    2    0    0  0.40978123427E+01 -0.50136480381E+01 -0.42914970543E+02  0.43400730747E+02  0.00000000000E+00 0. -1.
         11    1    3    3    0    0 -0.93390120024E+01  0.43875192377E+01  0.27775419065E+02  0.29630075510E+02  0.51100000000E-03 0. -1.
        -11    1    3    3    0    0  0.62397150567E+01  0.22098135500E+01  0.14855532679E+02  0.16263584210E+02  0.51100000000E-03 0.  1.
        -12    1    3    3    0    0 -0.99851539692E+00 -0.15836847496E+01  0.28401879943E+00  0.18936095327E+01  0.00000000000E+00 0.  1.
</event>
<event>
 7    1  0.2412036E-009  0.4778727E+02  0.7816164E-02  0.1312668E+00
        -11   -1    0    0    0    0  0.00000000000E+00  0.00000000000E+00  0.45593999997E+02  0.45594000000E+02  0.51100000000E-03 0.  1.
         11   -1    0    0    0    0 -0.00000000000E+00 -0.00000000000E+00 -0.45593999997E+02  0.45594000000E+02  0.51100000000E-03 0. -1.
    9900012    2    1    2    0    0 -0.35137640789E+02 -0.37749766761E+01  0.25193630538E+02  0.47787271102E+02  0.20000000264E+02 0.  0.
         12    1    1    2    0    0  0.35137640789E+02  0.37749766761E+01 -0.25193630538E+02  0.43400728898E+02  0.00000000000E+00 0. -1.
         11    1    3    3    0    0 -0.41324174521E+01  0.17708949057E+01  0.99778309862E+01  0.10943950576E+02  0.51100000000E-03 0. -1.
        -11    1    3    3    0    0 -0.94907349042E+01 -0.53147675283E+01  0.72267834788E+00  0.10901516737E+02  0.51100000000E-03 0.  1.
        -12    1    3    3    0    0 -0.21514488433E+02 -0.23110405350E+00  0.14493121204E+02  0.25941803790E+02  0.00000000000E+00 0.  1.
</event>
<event>
 7    1  0.2412036E-009  0.4778727E+02  0.7816164E-02  0.1312668E+00
        -11   -1    0    0    0    0  0.00000000000E+00  0.00000000000E+00  0.45593999997E+02  0.45594000000E+02  0.51100000000E-03 0.  1.
         11   -1    0    0    0    0 -0.00000000000E+00 -0.00000000000E+00 -0.45593999997E+02  0.45594000000E+02  0.51100000000E-03 0. -1.
    9900012    2    1    2    0    0  0.12848434227E+00  0.16440719275E+02  0.40166023737E+02  0.47787271649E+02  0.20000002759E+02 0.  0.
         12    1    1    2    0    0 -0.12848434227E+00 -0.16440719275E+02 -0.40166023737E+02  0.43400728351E+02  0.00000000000E+00 0. -1.
         11    1    3    3    0    0 -0.80597841223E+01  0.83387568880E+01  0.94481937071E+01  0.14958721574E+02  0.51100000000E-03 0. -1.
        -11    1    3    3    0    0  0.71074799999E+01  0.66768136892E+01  0.24879324991E+02  0.26722217821E+02  0.51100000000E-03 0.  1.
         12    1    3    3    0    0  0.10807884647E+01  0.14251486974E+01  0.58385050391E+01  0.61063322549E+01  0.00000000000E+00 0. -1.
</event>
<event>
 7    1  0.2412036E-009  0.4778727E+02  0.7816164E-02  0.1312668E+00
        -11   -1    0    0    0    0  0.00000000000E+00  0.00000000000E+00  0.45593999997E+02  0.45594000000E+02  0.51100000000E-03 0.  1.
         11   -1    0    0    0    0 -0.00000000000E+00 -0.00000000000E+00 -0.45593999997E+02  0.45594000000E+02  0.51100000000E-03 0. -1.
    9900012    2    1    2    0    0  0.13746691799E+02 -0.21658338846E+02  0.35008114071E+02  0.47787271575E+02  0.20000002419E+02 0.  0.
         12    1    1    2    0    0 -0.13746691799E+02  0.21658338846E+02 -0.35008114071E+02  0.43400728425E+02  0.00000000000E+00 0. -1.
         11    1    3    3    0    0  0.73473146792E+01  0.14769061687E+01  0.82268721145E+01  0.11128598738E+02  0.51100000000E-03 0. -1.
        -11    1    3    3    0    0  0.56779481775E+01 -0.15863794846E+02  0.22759955808E+02  0.28318097943E+02  0.51100000000E-03 0.  1.
         12    1    3    3    0    0  0.72142894215E+00 -0.72714501690E+01  0.40212861484E+01  0.83405748942E+01  0.00000000000E+00 0. -1.
</event>
<event>
 7    1  0.2412036E-009  0.4778727E+02  0.7816164E-02  0.1312668E+00
        -11   -1    0    0    0    0  0.00000000000E+00  0.00000000000E+00  0.45593999997E+02  0.45594000000E+02  0.51100000000E-03 0. -1.
         11   -1    0    0    0    0 -0.00000000000E+00 -0.00000000000E+00 -0.45593999997E+02  0.45594000000E+02  0.51100000000E-03 0.  1.
    9900012    2    1    2    0    0 -0.16072313067E+02  0.18193765697E+02 -0.35976258747E+02  0.47787267852E+02  0.19999985443E+02 0.  0.
         12    1    1    2    0    0  0.16072313067E+02 -0.18193765697E+02  0.35976258747E+02  0.43400732148E+02  0.00000000000E+00 0. -1.
         11    1    3    3    0    0 -0.20566448633E+00  0.17207573642E+01 -0.15450545709E+02  0.15547432803E+02  0.51100000000E-03 0. -1.
        -11    1    3    3    0    0 -0.10477780121E+02  0.16109953308E+02 -0.14041320243E+02  0.23800696340E+02  0.51100000000E-03 0.  1.
         12    1    3    3    0    0 -0.53888684598E+01  0.36305502535E+00 -0.64843927946E+01  0.84391387086E+01  0.00000000000E+00 0. -1.
</event>
<event>
 7    1  0.2412036E-009  0.4778727E+02  0.7816164E-02  0.1312668E+00
        -11   -1    0    0    0    0  0.00000000000E+00  0.00000000000E+00  0.45593999997E+02  0.45594000000E+02  0.51100000000E-03 0.  1.
         11   -1    0    0    0    0 -0.00000000000E+00 -0.00000000000E+00 -0.45593999997E+02  0.45594000000E+02  0.51100000000E-03 0. -1.
    9900012    2    1    2    0    0  0.41966352333E+02  0.73451174063E+01 -0.82763363313E+01  0.47787271654E+02  0.20000002780E+02 0.  0.
         12    1    1    2    0    0 -0.41966352333E+02 -0.73451174063E+01  0.82763363313E+01  0.43400728346E+02  0.00000000000E+00 0. -1.
         11    1    3    3    0    0  0.37103588641E+02  0.24648085158E+01 -0.61878045113E+01  0.37696690783E+02  0.51100000000E-03 0. -1.
        -11    1    3    3    0    0  0.60255399369E+01  0.13845624746E+01 -0.14705432668E+01  0.63550485866E+01  0.51100000000E-03 0.  1.
         12    1    3    3    0    0 -0.11627762445E+01  0.34957464159E+01 -0.61798855319E+00  0.37355322848E+01  0.00000000000E+00 0. -1.
</event>
<event>
 7    1  0.2412036E-009  0.4778727E+02  0.7816164E-02  0.1312668E+00
        -11   -1    0    0    0    0  0.00000000000E+00  0.00000000000E+00  0.45593999997E+02  0.45594000000E+02  0.51100000000E-03 0.  1.
         11   -1    0    0    0    0 -0.00000000000E+00 -0.00000000000E+00 -0.45593999997E+02  0.45594000000E+02  0.51100000000E-03 0. -1.
    9900012    2    1    2    0    0  0.21083045297E+02  0.10548671330E+02  0.36439731672E+02  0.47787270626E+02  0.19999998093E+02 0.  0.
         12    1    1    2    0    0 -0.21083045297E+02 -0.10548671330E+02 -0.36439731672E+02  0.43400729374E+02  0.00000000000E+00 0. -1.
         11    1    3    3    0    0 -0.14628773746E+00 -0.98469710708E+00 -0.60735431078E+00  0.11661509400E+01  0.51100000000E-03 0. -1.
        -11    1    3    3    0    0  0.10441094932E+02  0.11591743134E+02  0.13157334604E+02  0.20408342078E+02  0.51100000000E-03 0.  1.
        -12    1    3    3    0    0  0.10788238103E+02 -0.58374696175E-01  0.23889751379E+02  0.26212777608E+02  0.00000000000E+00 0.  1.
</event>
<event>
 7    1  0.2412036E-009  0.4778727E+02  0.7816164E-02  0.1312668E+00
        -11   -1    0    0    0    0  0.00000000000E+00  0.00000000000E+00  0.45593999997E+02  0.45594000000E+02  0.51100000000E-03 0.  1.
         11   -1    0    0    0    0 -0.00000000000E+00 -0.00000000000E+00 -0.45593999997E+02  0.45594000000E+02  0.51100000000E-03 0. -1.
    9900012    2    1    2    0    0  0.32589318916E+02  0.15410681673E+02 -0.24167547536E+02  0.47787272230E+02  0.20000005406E+02 0.  0.
         12    1    1    2    0    0 -0.32589318916E+02 -0.15410681673E+02  0.24167547536E+02  0.43400727770E+02  0.00000000000E+00 0. -1.
         11    1    3    3    0    0  0.21805195867E+02  0.10857799993E+02 -0.25668188349E+02  0.35386639864E+02  0.51100000000E-03 0. -1.
        -11    1    3    3    0    0  0.60169380740E+01  0.40030055276E+01  0.21927140072E+01  0.75521912064E+01  0.51100000000E-03 0.  1.
         12    1    3    3    0    0  0.47671849752E+01  0.54987615231E+00 -0.69207319377E+00  0.48484411594E+01  0.00000000000E+00 0. -1.
</event>
<event>
 7    1  0.2412036E-009  0.4778727E+02  0.7816164E-02  0.1312668E+00
        -11   -1    0    0    0    0  0.00000000000E+00  0.00000000000E+00  0.45593999997E+02  0.45594000000E+02  0.51100000000E-03 0.  1.
         11   -1    0    0    0    0 -0.00000000000E+00 -0.00000000000E+00 -0.45593999997E+02  0.45594000000E+02  0.51100000000E-03 0. -1.
    9900012    2    1    2    0    0  0.36749182056E+01 -0.21368626590E+02  0.37596548849E+02  0.47787266002E+02  0.19999977010E+02 0.  0.
         12    1    1    2    0    0 -0.36749182056E+01  0.21368626590E+02 -0.37596548849E+02  0.43400733998E+02  0.00000000000E+00 0. -1.
         11    1    3    3    0    0 -0.13150553800E+01 -0.16820979901E+01 -0.14307569352E+01  0.25701925938E+01  0.51100000000E-03 0. -1.
        -11    1    3    3    0    0 -0.18067668552E+00 -0.16911975709E+02  0.30294260649E+02  0.34695674010E+02  0.51100000000E-03 0.  1.
        -12    1    3    3    0    0  0.51706502711E+01 -0.27745528913E+01  0.87330451350E+01  0.10521399398E+02  0.00000000000E+00 0.  1.
</event>
<event>
 7    1  0.2412036E-009  0.4778727E+02  0.7816164E-02  0.1312668E+00
        -11   -1    0    0    0    0  0.00000000000E+00  0.00000000000E+00  0.45593999997E+02  0.45594000000E+02  0.51100000000E-03 0. -1.
         11   -1    0    0    0    0 -0.00000000000E+00 -0.00000000000E+00 -0.45593999997E+02  0.45594000000E+02  0.51100000000E-03 0.  1.
    9900012    2    1    2    0    0 -0.14182462882E+02 -0.40592653993E+02 -0.58921716466E+01  0.47787268459E+02  0.19999988211E+02 0.  0.
         12    1    1    2    0    0  0.14182462882E+02  0.40592653993E+02  0.58921716466E+01  0.43400731541E+02  0.00000000000E+00 0. -1.
         11    1    3    3    0    0  0.61240385448E+00 -0.18928269392E+02  0.13948323797E+01  0.18989470195E+02  0.51100000000E-03 0. -1.
        -11    1    3    3    0    0 -0.10546700633E+02 -0.83572766386E+01 -0.61126616748E+01  0.14779769960E+02  0.51100000000E-03 0.  1.
         12    1    3    3    0    0 -0.42481661037E+01 -0.13307107962E+02 -0.11743423515E+01  0.14018028304E+02  0.00000000000E+00 0. -1.
</event>
<event>
 7    1  0.2412036E-009  0.4778727E+02  0.7816164E-02  0.1312668E+00
        -11   -1    0    0    0    0  0.00000000000E+00  0.00000000000E+00  0.45593999997E+02  0.45594000000E+02  0.51100000000E-03 0. -1.
         11   -1    0    0    0    0 -0.00000000000E+00 -0.00000000000E+00 -0.45593999997E+02  0.45594000000E+02  0.51100000000E-03 0.  1.
    9900012    2    1    2    0    0 -0.39023111236E+02  0.18923186268E+02  0.16532770393E+01  0.47787268277E+02  0.19999987383E+02 0.  0.
         12    1    1    2    0    0  0.39023111236E+02 -0.18923186268E+02 -0.16532770393E+01  0.43400731723E+02  0.00000000000E+00 0. -1.
         11    1    3    3    0    0 -0.22224434024E+02  0.16119355531E+02  0.89456856324E+00  0.27469243594E+02  0.51100000000E-03 0. -1.
        -11    1    3    3    0    0 -0.37879587672E+01 -0.30781429633E+01 -0.27669328404E+01  0.56106606856E+01  0.51100000000E-03 0.  1.
        -12    1    3    3    0    0 -0.13010718445E+02  0.58819737004E+01  0.35256413165E+01  0.14707363998E+02  0.00000000000E+00 0.  1.
</event>
<event>
 7    1  0.2412036E-009  0.4778727E+02  0.7816164E-02  0.1312668E+00
        -11   -1    0    0    0    0  0.00000000000E+00  0.00000000000E+00  0.45593999997E+02  0.45594000000E+02  0.51100000000E-03 0.  1.
         11   -1    0    0    0    0 -0.00000000000E+00 -0.00000000000E+00 -0.45593999997E+02  0.45594000000E+02  0.51100000000E-03 0. -1.
    9900012    2    1    2    0    0 -0.33572855721E+02 -0.40874401627E+01  0.27198882130E+02  0.47787274229E+02  0.20000014519E+02 0.  0.
         12    1    1    2    0    0  0.33572855721E+02  0.40874401627E+01 -0.27198882130E+02  0.43400725771E+02  0.00000000000E+00 0. -1.
         11    1    3    3    0    0 -0.73404741767E+00 -0.45529172346E+01  0.37844150145E+01  0.59657085262E+01  0.51100000000E-03 0. -1.
        -11    1    3    3    0    0 -0.22640376255E+02  0.53369988166E+01  0.14327078688E+02  0.27319139395E+02  0.51100000000E-03 0.  1.
        -12    1    3    3    0    0 -0.10198432049E+02 -0.48715217446E+01  0.90873884275E+01  0.14502426307E+02  0.00000000000E+00 0.  1.
</event>
<event>
 7    1  0.2412036E-009  0.4778727E+02  0.7816164E-02  0.1312668E+00
        -11   -1    0    0    0    0  0.00000000000E+00  0.00000000000E+00  0.45593999997E+02  0.45594000000E+02  0.51100000000E-03 0.  1.
         11   -1    0    0    0    0 -0.00000000000E+00 -0.00000000000E+00 -0.45593999997E+02  0.45594000000E+02  0.51100000000E-03 0. -1.
    9900012    2    1    2    0    0 -0.11647579326E+01 -0.23758177992E+02  0.36301736910E+02  0.47787265153E+02  0.19999973138E+02 0.  0.
         12    1    1    2    0    0  0.11647579326E+01  0.23758177992E+02 -0.36301736910E+02  0.43400734847E+02  0.00000000000E+00 0. -1.
         11    1    3    3    0    0 -0.71859038702E+01 -0.60361422081E+01  0.61953926204E+01  0.11245226417E+02  0.51100000000E-03 0. -1.
        -11    1    3    3    0    0  0.56961907775E+01 -0.14343039134E+02  0.29201814647E+02  0.33029007553E+02  0.51100000000E-03 0.  1.
        -12    1    3    3    0    0  0.32495516015E+00 -0.33789966499E+01  0.90452964255E+00  0.35130311827E+01  0.00000000000E+00 0.  1.
</event>
<event>
 7    1  0.2412036E-009  0.4778727E+02  0.7816164E-02  0.1312668E+00
        -11   -1    0    0    0    0  0.00000000000E+00  0.00000000000E+00  0.45593999997E+02  0.45594000000E+02  0.51100000000E-03 0. -1.
         11   -1    0    0    0    0 -0.00000000000E+00 -0.00000000000E+00 -0.45593999997E+02  0.45594000000E+02  0.51100000000E-03 0.  1.
    9900012    2    1    2    0    0  0.16376783575E+02 -0.35561183884E+02 -0.18730362216E+02  0.47787270649E+02  0.19999998196E+02 0.  0.
         12    1    1    2    0    0 -0.16376783575E+02  0.35561183884E+02  0.18730362216E+02  0.43400729351E+02  0.00000000000E+00 0. -1.
         11    1    3    3    0    0  0.46998559136E+01  0.30801356276E+00 -0.29116022561E+00  0.47189291689E+01  0.51100000000E-03 0. -1.
        -11    1    3    3    0    0  0.18721438500E+01 -0.12458690675E+02 -0.18171086333E+01  0.12728934754E+02  0.51100000000E-03 0.  1.
         12    1    3    3    0    0  0.98047838112E+01 -0.23410506772E+02 -0.16622093357E+02  0.30339406726E+02  0.00000000000E+00 0. -1.
</event>
<event>
 7    1  0.2412036E-009  0.4778730E+02  0.7816164E-02  0.1312668E+00
        -11   -1    0    0    0    0  0.00000000000E+00  0.00000000000E+00  0.45593999997E+02  0.45594000000E+02  0.51100000000E-03 0.  1.
         11   -1    0    0    0    0 -0.00000000000E+00 -0.00000000000E+00 -0.45593999997E+02  0.45594000000E+02  0.51100000000E-03 0. -1.
    9900012    2    1    2    0    0 -0.37879324297E+02  0.20946008166E+02  0.31689454661E+01  0.47787300897E+02  0.20000136109E+02 0.  0.
         12    1    1    2    0    0  0.37879324297E+02 -0.20946008166E+02 -0.31689454661E+01  0.43400699103E+02  0.00000000000E+00 0. -1.
         11    1    3    3    0    0 -0.11817862912E+01  0.80922554959E-02 -0.19525268251E+01  0.22823333644E+01  0.51100000000E-03 0. -1.
        -11    1    3    3    0    0 -0.25208902992E+00 -0.23739291047E+00 -0.26256929813E+01  0.26484274893E+01  0.51100000000E-03 0.  1.
        -12    1    3    3    0    0 -0.36445448976E+02  0.21175308821E+02  0.77471652725E+01  0.42856540043E+02  0.00000000000E+00 0.  1.
</event>
<event>
 7    1  0.2412036E-009  0.4778727E+02  0.7816164E-02  0.1312668E+00
        -11   -1    0    0    0    0  0.00000000000E+00  0.00000000000E+00  0.45593999997E+02  0.45594000000E+02  0.51100000000E-03 0.  1.
         11   -1    0    0    0    0 -0.00000000000E+00 -0.00000000000E+00 -0.45593999997E+02  0.45594000000E+02  0.51100000000E-03 0. -1.
    9900012    2    1    2    0    0 -0.45721174507E+01  0.88407052079E+01  0.42244061658E+02  0.47787273371E+02  0.20000010606E+02 0.  0.
         12    1    1    2    0    0  0.45721174507E+01 -0.88407052079E+01 -0.42244061658E+02  0.43400726629E+02  0.00000000000E+00 0. -1.
         11    1    3    3    0    0  0.63569693556E+01  0.39789724464E+00  0.16693331247E+02  0.17867195918E+02  0.51100000000E-03 0. -1.
        -11    1    3    3    0    0 -0.53502713830E+01  0.83328274678E+01  0.17809641356E+02  0.20377554882E+02  0.51100000000E-03 0.  1.
         12    1    3    3    0    0 -0.55788154233E+01  0.10998049547E+00  0.77410890560E+01  0.95425225706E+01  0.00000000000E+00 0. -1.
</event>
<event>
 7    1  0.2412036E-009  0.4778727E+02  0.7816164E-02  0.1312668E+00
        -11   -1    0    0    0    0  0.00000000000E+00  0.00000000000E+00  0.45593999997E+02  0.45594000000E+02  0.51100000000E-03 0.  1.
         11   -1    0    0    0    0 -0.00000000000E+00 -0.00000000000E+00 -0.45593999997E+02  0.45594000000E+02  0.51100000000E-03 0. -1.
    9900012    2    1    2    0    0  0.22334770754E+01 -0.16766008797E+02  0.39969183856E+02  0.47787272714E+02  0.20000007614E+02 0.  0.
         12    1    1    2    0    0 -0.22334770754E+01  0.16766008797E+02 -0.39969183856E+02  0.43400727286E+02  0.00000000000E+00 0. -1.
         11    1    3    3    0    0 -0.36870615201E+01  0.22203131090E+01  0.75918930288E+01  0.87270300204E+01  0.51100000000E-03 0. -1.
        -11    1    3    3    0    0 -0.17631207706E+00 -0.96727911896E+01  0.21111382712E+02  0.23222498910E+02  0.51100000000E-03 0.  1.
         12    1    3    3    0    0  0.60968506725E+01 -0.93135307159E+01  0.11265908115E+02  0.15837743784E+02  0.00000000000E+00 0. -1.
</event>
<event>
 7    1  0.2412036E-009  0.4778725E+02  0.7816164E-02  0.1312668E+00
        -11   -1    0    0    0    0  0.00000000000E+00  0.00000000000E+00  0.45593999997E+02  0.45594000000E+02  0.51100000000E-03 0.  1.
         11   -1    0    0    0    0 -0.00000000000E+00 -0.00000000000E+00 -0.45593999997E+02  0.45594000000E+02  0.51100000000E-03 0. -1.
    9900012    2    1    2    0    0  0.82963666943E+00  0.25076729869E+02  0.35413189579E+02  0.47787254913E+02  0.19999926450E+02 0.  0.
         12    1    1    2    0    0 -0.82963666943E+00 -0.25076729869E+02 -0.35413189579E+02  0.43400745087E+02  0.00000000000E+00 0. -1.
         11    1    3    3    0    0  0.12634566694E+01 -0.79068164510E+00  0.10051347244E+01  0.17977197487E+01  0.51100000000E-03 0. -1.
        -11    1    3    3    0    0  0.52015921012E+01  0.12682232276E+02  0.78196225314E+01  0.15781066906E+02  0.51100000000E-03 0.  1.
        -12    1    3    3    0    0 -0.56354121012E+01  0.13185179238E+02  0.26588432324E+02  0.30208468258E+02  0.00000000000E+00 0.  1.
</event>
<event>
 7    1  0.2412036E-009  0.4778727E+02  0.7816164E-02  0.1312668E+00
        -11   -1    0    0    0    0  0.00000000000E+00  0.00000000000E+00  0.45593999997E+02  0.45594000000E+02  0.51100000000E-03 0.  1.
         11   -1    0    0    0    0 -0.00000000000E+00 -0.00000000000E+00 -0.45593999997E+02  0.45594000000E+02  0.51100000000E-03 0. -1.
    9900012    2    1    2    0    0 -0.17781499096E+02  0.29587927958E+02  0.26305818104E+02  0.47787271238E+02  0.20000000882E+02 0.  0.
         12    1    1    2    0    0  0.17781499096E+02 -0.29587927958E+02 -0.26305818104E+02  0.43400728762E+02  0.00000000000E+00 0. -1.
         11    1    3    3    0    0 -0.80657041581E+01  0.19463426060E+02  0.58361373380E+01  0.21861862611E+02  0.51100000000E-03 0. -1.
        -11    1    3    3    0    0  0.47135959217E+00  0.38372295244E+01  0.39807915750E+01  0.55491631903E+01  0.51100000000E-03 0.  1.
         12    1    3    3    0    0 -0.10187154530E+02  0.62872723740E+01  0.16488889191E+02  0.20376245436E+02  0.00000000000E+00 0. -1.
</event>
<event>
 7    1  0.2412036E-009  0.4778727E+02  0.7816164E-02  0.1312668E+00
        -11   -1    0    0    0    0  0.00000000000E+00  0.00000000000E+00  0.45593999997E+02  0.45594000000E+02  0.51100000000E-03 0.  1.
         11   -1    0    0    0    0 -0.00000000000E+00 -0.00000000000E+00 -0.45593999997E+02  0.45594000000E+02  0.51100000000E-03 0. -1.
    9900012    2    1    2    0    0  0.20525513209E+02  0.35642470939E+02  0.13854268817E+02  0.47787271992E+02  0.20000004321E+02 0.  0.
         12    1    1    2    0    0 -0.20525513209E+02 -0.35642470939E+02 -0.13854268817E+02  0.43400728008E+02  0.00000000000E+00 0. -1.
         11    1    3    3    0    0  0.11811383146E+02  0.38540504210E+01  0.26604110551E+01  0.12705914517E+02  0.51100000000E-03 0. -1.
        -11    1    3    3    0    0  0.34634299955E+01  0.59881568065E+01  0.24276707687E+01  0.73312314720E+01  0.51100000000E-03 0.  1.
         12    1    3    3    0    0  0.52507000679E+01  0.25800263712E+02  0.87661869929E+01  0.27750126003E+02  0.00000000000E+00 0. -1.
</event>
<event>
 7    1  0.2412036E-009  0.4778727E+02  0.7816164E-02  0.1312668E+00
        -11   -1    0    0    0    0  0.00000000000E+00  0.00000000000E+00  0.45593999997E+02  0.45594000000E+02  0.51100000000E-03 0.  1.
         11   -1    0    0    0    0 -0.00000000000E+00 -0.00000000000E+00 -0.45593999997E+02  0.45594000000E+02  0.51100000000E-03 0. -1.
    9900012    2    1    2    0    0  0.96549513207E+01  0.42116387660E+02 -0.40761658724E+01  0.47787270482E+02  0.19999997435E+02 0.  0.
         12    1    1    2    0    0 -0.96549513207E+01 -0.42116387660E+02  0.40761658724E+01  0.43400729518E+02  0.00000000000E+00 0. -1.
         11    1    3    3    0    0  0.78162651487E+01  0.15108273312E+02 -0.82378225498E+01  0.18900149311E+02  0.51100000000E-03 0. -1.
        -11    1    3    3    0    0 -0.76598420846E-01  0.25884147542E+02  0.52542704199E+01  0.26412162335E+02  0.51100000000E-03 0.  1.
        -12    1    3    3    0    0  0.19152845929E+01  0.11239668061E+01 -0.10926137425E+01  0.24749588367E+01  0.00000000000E+00 0.  1.
</event>
<event>
 7    1  0.2412036E-009  0.4778727E+02  0.7816164E-02  0.1312668E+00
        -11   -1    0    0    0    0  0.00000000000E+00  0.00000000000E+00  0.45593999997E+02  0.45594000000E+02  0.51100000000E-03 0.  1.
         11   -1    0    0    0    0 -0.00000000000E+00 -0.00000000000E+00 -0.45593999997E+02  0.45594000000E+02  0.51100000000E-03 0. -1.
    9900012    2    1    2    0    0 -0.30975595382E+02 -0.30399040257E+02 -0.18526406117E+00  0.47787268663E+02  0.19999989143E+02 0.  0.
         12    1    1    2    0    0  0.30975595382E+02  0.30399040257E+02  0.18526406117E+00  0.43400731337E+02  0.00000000000E+00 0. -1.
         11    1    3    3    0    0  0.18300763991E+00 -0.80769923177E+00 -0.30334231287E+00  0.88197883487E+00  0.51100000000E-03 0. -1.
        -11    1    3    3    0    0 -0.17639279484E+01 -0.99985636131E+01 -0.48144567192E+01  0.11236623598E+02  0.51100000000E-03 0.  1.
        -12    1    3    3    0    0 -0.29394675073E+02 -0.19592777412E+02  0.49325349709E+01  0.35668666230E+02  0.00000000000E+00 0.  1.
</event>
<event>
 7    1  0.2412036E-009  0.4778727E+02  0.7816164E-02  0.1312668E+00
        -11   -1    0    0    0    0  0.00000000000E+00  0.00000000000E+00  0.45593999997E+02  0.45594000000E+02  0.51100000000E-03 0. -1.
         11   -1    0    0    0    0 -0.00000000000E+00 -0.00000000000E+00 -0.45593999997E+02  0.45594000000E+02  0.51100000000E-03 0.  1.
    9900012    2    1    2    0    0  0.23586972804E+02  0.35920697660E+02 -0.60812355625E+01  0.47787271522E+02  0.20000002177E+02 0.  0.
         12    1    1    2    0    0 -0.23586972804E+02 -0.35920697660E+02  0.60812355625E+01  0.43400728478E+02  0.00000000000E+00 0. -1.
         11    1    3    3    0    0  0.19376007999E+02  0.19163728078E+02 -0.50139264351E+01  0.27709522160E+02  0.51100000000E-03 0. -1.
        -11    1    3    3    0    0  0.53163968984E+01  0.62996642085E+01 -0.39978324256E+01  0.91614687406E+01  0.51100000000E-03 0.  1.
         12    1    3    3    0    0 -0.11054320927E+01  0.10457305374E+02  0.29305232982E+01  0.10916280621E+02  0.00000000000E+00 0. -1.
</event>
<event>
 7    1  0.2412036E-009  0.4778727E+02  0.7816164E-02  0.1312668E+00
        -11   -1    0    0    0    0  0.00000000000E+00  0.00000000000E+00  0.45593999997E+02  0.45594000000E+02  0.51100000000E-03 0.  1.
         11   -1    0    0    0    0 -0.00000000000E+00 -0.00000000000E+00 -0.45593999997E+02  0.45594000000E+02  0.51100000000E-03 0. -1.
    9900012    2    1    2    0    0 -0.41760977559E+01 -0.16302276788E+01  0.43168573988E+02  0.47787271724E+02  0.20000003098E+02 0.  0.
         12    1    1    2    0    0  0.41760977559E+01  0.16302276788E+01 -0.43168573988E+02  0.43400728276E+02  0.00000000000E+00 0. -1.
         11    1    3    3    0    0 -0.70276587292E+01 -0.57641800778E+01  0.36436766173E+02  0.37553317944E+02  0.51100000000E-03 0. -1.
        -11    1    3    3    0    0  0.21144939216E+01  0.56019638905E+01  0.46450677522E+01  0.75782411323E+01  0.51100000000E-03 0.  1.
         12    1    3    3    0    0  0.73706705165E+00 -0.14680114915E+01  0.20867400629E+01  0.26557126478E+01  0.00000000000E+00 0. -1.
</event>
<event>
 7    1  0.2412036E-009  0.4778727E+02  0.7816164E-02  0.1312668E+00
        -11   -1    0    0    0    0  0.00000000000E+00  0.00000000000E+00  0.45593999997E+02  0.45594000000E+02  0.51100000000E-03 0. -1.
         11   -1    0    0    0    0 -0.00000000000E+00 -0.00000000000E+00 -0.45593999997E+02  0.45594000000E+02  0.51100000000E-03 0.  1.
    9900012    2    1    2    0    0  0.24735973133E+02  0.10911337322E+02 -0.33951407962E+02  0.47787265541E+02  0.19999974908E+02 0.  0.
         12    1    1    2    0    0 -0.24735973133E+02 -0.10911337322E+02  0.33951407962E+02  0.43400734459E+02  0.00000000000E+00 0. -1.
         11    1    3    3    0    0  0.41922019602E+01  0.35859200027E+01 -0.78140993591E+01  0.95652249631E+01  0.51100000000E-03 0. -1.
        -11    1    3    3    0    0 -0.95699648203E+00  0.52546820256E+01 -0.97203424145E+01  0.11091103749E+02  0.51100000000E-03 0.  1.
        -12    1    3    3    0    0  0.21500767654E+02  0.20707352942E+01 -0.16416966188E+02  0.27130936829E+02  0.00000000000E+00 0.  1.
</event>
<event>
 7    1  0.2412036E-009  0.4778727E+02  0.7816164E-02  0.1312668E+00
        -11   -1    0    0    0    0  0.00000000000E+00  0.00000000000E+00  0.45593999997E+02  0.45594000000E+02  0.51100000000E-03 0.  1.
         11   -1    0    0    0    0 -0.00000000000E+00 -0.00000000000E+00 -0.45593999997E+02  0.45594000000E+02  0.51100000000E-03 0. -1.
    9900012    2    1    2    0    0 -0.23313718204E+02 -0.34936757187E+02 -0.10932385395E+02  0.47787268328E+02  0.19999987616E+02 0.  0.
         12    1    1    2    0    0  0.23313718204E+02  0.34936757187E+02  0.10932385395E+02  0.43400731672E+02  0.00000000000E+00 0. -1.
         11    1    3    3    0    0  0.18515956785E+01 -0.10834452142E+00 -0.44886645798E+00  0.19083046010E+01  0.51100000000E-03 0. -1.
        -11    1    3    3    0    0 -0.20385708856E+02 -0.34239389114E+02 -0.92701919791E+01  0.40912704042E+02  0.51100000000E-03 0.  1.
        -12    1    3    3    0    0 -0.47796050264E+01 -0.58902355149E+00 -0.12133269582E+01  0.49662596851E+01  0.00000000000E+00 0.  1.
</event>
<event>
 7    1  0.2412036E-009  0.4778728E+02  0.7816164E-02  0.1312668E+00
        -11   -1    0    0    0    0  0.00000000000E+00  0.00000000000E+00  0.45593999997E+02  0.45594000000E+02  0.51100000000E-03 0.  1.
         11   -1    0    0    0    0 -0.00000000000E+00 -0.00000000000E+00 -0.45593999997E+02  0.45594000000E+02  0.51100000000E-03 0. -1.
    9900012    2    1    2    0    0  0.39880619198E+02  0.23923522808E+01  0.16953930399E+02  0.47787275432E+02  0.20000020003E+02 0.  0.
         12    1    1    2    0    0 -0.39880619198E+02 -0.23923522808E+01 -0.16953930399E+02  0.43400724568E+02  0.00000000000E+00 0. -1.
         11    1    3    3    0    0  0.28981383447E+02  0.35178298154E+01  0.15357909629E+02  0.32987286969E+02  0.51100000000E-03 0. -1.
        -11    1    3    3    0    0  0.66531173530E+01 -0.45257572962E+00 -0.39747741230E+01  0.77632225844E+01  0.51100000000E-03 0.  1.
         12    1    3    3    0    0  0.42461183981E+01 -0.67290180502E+00  0.55707948929E+01  0.70367658785E+01  0.00000000000E+00 0. -1.
</event>
<event>
 7    1  0.2412036E-009  0.4778727E+02  0.7816164E-02  0.1312668E+00
        -11   -1    0    0    0    0  0.00000000000E+00  0.00000000000E+00  0.45593999997E+02  0.45594000000E+02  0.51100000000E-03 0. -1.
         11   -1    0    0    0    0 -0.00000000000E+00 -0.00000000000E+00 -0.45593999997E+02  0.45594000000E+02  0.51100000000E-03 0.  1.
    9900012    2    1    2    0    0  0.48786884319E+01 -0.13061798627E+01 -0.43105864619E+02  0.47787271075E+02  0.20000000139E+02 0.  0.
         12    1    1    2    0    0 -0.48786884319E+01  0.13061798627E+01  0.43105864619E+02  0.43400728925E+02  0.00000000000E+00 0. -1.
         11    1    3    3    0    0 -0.49397940362E+01  0.34437892552E+01 -0.16560968587E+02  0.17621774325E+02  0.51100000000E-03 0. -1.
        -11    1    3    3    0    0  0.98808369728E+01 -0.23841163977E+01 -0.25725920739E+02  0.27661127027E+02  0.51100000000E-03 0.  1.
         12    1    3    3    0    0 -0.62354504665E-01 -0.23658527203E+01 -0.81897529311E+00  0.25043697229E+01  0.00000000000E+00 0. -1.
</event>
<event>
 7    1  0.2412036E-009  0.4778727E+02  0.7816164E-02  0.1312668E+00
        -11   -1    0    0    0    0  0.00000000000E+00  0.00000000000E+00  0.45593999997E+02  0.45594000000E+02  0.51100000000E-03 0.  1.
         11   -1    0    0    0    0 -0.00000000000E+00 -0.00000000000E+00 -0.45593999997E+02  0.45594000000E+02  0.51100000000E-03 0. -1.
    9900012    2    1    2    0    0  0.26278946066E+01 -0.12102994209E+00  0.43320926610E+02  0.47787272349E+02  0.20000005948E+02 0.  0.
         12    1    1    2    0    0 -0.26278946066E+01  0.12102994209E+00 -0.43320926610E+02  0.43400727651E+02  0.00000000000E+00 0. -1.
         11    1    3    3    0    0 -0.81700964613E+00  0.30893062087E+01  0.19787537552E+01  0.37585614665E+01  0.51100000000E-03 0. -1.
        -11    1    3    3    0    0  0.39295878424E+01 -0.63172705764E+01  0.39867238574E+02  0.40555471640E+02  0.51100000000E-03 0.  1.
        -12    1    3    3    0    0 -0.48468358965E+00  0.31069344256E+01  0.14749342807E+01  0.34732392430E+01  0.00000000000E+00 0.  1.
</event>
<event>
 7    1  0.2412036E-009  0.4778727E+02  0.7816164E-02  0.1312668E+00
        -11   -1    0    0    0    0  0.00000000000E+00  0.00000000000E+00  0.45593999997E+02  0.45594000000E+02  0.51100000000E-03 0.  1.
         11   -1    0    0    0    0 -0.00000000000E+00 -0.00000000000E+00 -0.45593999997E+02  0.45594000000E+02  0.51100000000E-03 0. -1.
    9900012    2    1    2    0    0  0.49380359518E+01 -0.18867069457E+02  0.38772058606E+02  0.47787273768E+02  0.20000012416E+02 0.  0.
         12    1    1    2    0    0 -0.49380359518E+01  0.18867069457E+02 -0.38772058606E+02  0.43400726232E+02  0.00000000000E+00 0. -1.
         11    1    3    3    0    0  0.94623494330E+01 -0.85447896680E+01  0.11142882192E+02  0.16932610876E+02  0.51100000000E-03 0. -1.
        -11    1    3    3    0    0 -0.51563812516E+01 -0.99166286856E+01  0.17943678183E+02  0.21140089382E+02  0.51100000000E-03 0.  1.
        -12    1    3    3    0    0  0.63206777031E+00 -0.40565110311E+00  0.96854982313E+01  0.97145735095E+01  0.00000000000E+00 0.  1.
</event>
<event>
 7    1  0.2412036E-009  0.4778727E+02  0.7816164E-02  0.1312668E+00
        -11   -1    0    0    0    0  0.00000000000E+00  0.00000000000E+00  0.45593999997E+02  0.45594000000E+02  0.51100000000E-03 0. -1.
         11   -1    0    0    0    0 -0.00000000000E+00 -0.00000000000E+00 -0.45593999997E+02  0.45594000000E+02  0.51100000000E-03 0.  1.
    9900012    2    1    2    0    0  0.21734599196E+02 -0.12826408248E+02 -0.35308832836E+02  0.47787271585E+02  0.20000002464E+02 0.  0.
         12    1    1    2    0    0 -0.21734599196E+02  0.12826408248E+02  0.35308832836E+02  0.43400728415E+02  0.00000000000E+00 0. -1.
         11    1    3    3    0    0  0.16546653147E+02 -0.21797124245E+01 -0.11667689318E+02  0.20363640414E+02  0.51100000000E-03 0. -1.
        -11    1    3    3    0    0  0.56460594196E+01 -0.51158839509E+01 -0.17822211931E+02  0.19382504842E+02  0.51100000000E-03 0.  1.
         12    1    3    3    0    0 -0.45811337128E+00 -0.55308118721E+01 -0.58189315869E+01  0.80411263290E+01  0.00000000000E+00 0. -1.
</event>
<event>
 7    1  0.2412036E-009  0.4778727E+02  0.7816164E-02  0.1312668E+00
        -11   -1    0    0    0    0  0.00000000000E+00  0.00000000000E+00  0.45593999997E+02  0.45594000000E+02  0.51100000000E-03 0.  1.
         11   -1    0    0    0    0 -0.00000000000E+00 -0.00000000000E+00 -0.45593999997E+02  0.45594000000E+02  0.51100000000E-03 0. -1.
    9900012    2    1    2    0    0 -0.36440696107E+02  0.63219252313E+01  0.22709738148E+02  0.47787270995E+02  0.19999999777E+02 0.  0.
         12    1    1    2    0    0  0.36440696107E+02 -0.63219252313E+01 -0.22709738148E+02  0.43400729005E+02  0.00000000000E+00 0. -1.
         11    1    3    3    0    0 -0.17969195043E+02  0.88893497114E+01  0.89013792691E+01  0.21935064667E+02  0.51100000000E-03 0. -1.
        -11    1    3    3    0    0 -0.13194828528E+02 -0.63349759092E+01  0.63087856219E+01  0.15938512978E+02  0.51100000000E-03 0.  1.
        -12    1    3    3    0    0 -0.52766725355E+01  0.37675514291E+01  0.74995732568E+01  0.99136933507E+01  0.00000000000E+00 0.  1.
</event>
<event>
 7    1  0.2412036E-009  0.4778727E+02  0.7816164E-02  0.1312668E+00
        -11   -1    0    0    0    0  0.00000000000E+00  0.00000000000E+00  0.45593999997E+02  0.45594000000E+02  0.51100000000E-03 0.  1.
         11   -1    0    0    0    0 -0.00000000000E+00 -0.00000000000E+00 -0.45593999997E+02  0.45594000000E+02  0.51100000000E-03 0. -1.
    9900012    2    1    2    0    0  0.42881971087E+02  0.20170105000E+01  0.63789667206E+01  0.47787274291E+02  0.20000014803E+02 0.  0.
         12    1    1    2    0    0 -0.42881971087E+02 -0.20170105000E+01 -0.63789667206E+01  0.43400725709E+02  0.00000000000E+00 0. -1.
         11    1    3    3    0    0  0.10324654938E+02  0.72926533456E+01  0.41438040423E+01  0.13302345831E+02  0.51100000000E-03 0. -1.
        -11    1    3    3    0    0  0.25559456960E+02 -0.25883305381E+01  0.55593407369E+01  0.26284816240E+02  0.51100000000E-03 0.  1.
         12    1    3    3    0    0  0.69978591881E+01 -0.26873123075E+01 -0.33241780586E+01  0.82001122200E+01  0.00000000000E+00 0. -1.
</event>
<event>
 7    1  0.2412036E-009  0.4778727E+02  0.7816164E-02  0.1312668E+00
        -11   -1    0    0    0    0  0.00000000000E+00  0.00000000000E+00  0.45593999997E+02  0.45594000000E+02  0.51100000000E-03 0.  1.
         11   -1    0    0    0    0 -0.00000000000E+00 -0.00000000000E+00 -0.45593999997E+02  0.45594000000E+02  0.51100000000E-03 0. -1.
    9900012    2    1    2    0    0  0.27322065042E+02  0.32534729177E+02  0.88667736529E+01  0.47787268257E+02  0.19999987291E+02 0.  0.
         12    1    1    2    0    0 -0.27322065042E+02 -0.32534729177E+02 -0.88667736529E+01  0.43400731743E+02  0.00000000000E+00 0. -1.
         11    1    3    3    0    0 -0.23361479530E+01  0.45356980522E+00 -0.86988318346E+00  0.25337738337E+01  0.51100000000E-03 0. -1.
        -11    1    3    3    0    0  0.18694324672E+02  0.24348976265E+02  0.80189786291E+01  0.31727818056E+02  0.51100000000E-03 0.  1.
         12    1    3    3    0    0  0.10963888324E+02  0.77321831070E+01  0.17176782073E+01  0.13525676367E+02  0.00000000000E+00 0. -1.
</event>
<event>
 7    1  0.2412036E-009  0.4778728E+02  0.7816164E-02  0.1312668E+00
        -11   -1    0    0    0    0  0.00000000000E+00  0.00000000000E+00  0.45593999997E+02  0.45594000000E+02  0.51100000000E-03 0.  1.
         11   -1    0    0    0    0 -0.00000000000E+00 -0.00000000000E+00 -0.45593999997E+02  0.45594000000E+02  0.51100000000E-03 0. -1.
    9900012    2    1    2    0    0  0.30166362762E+02  0.31189090470E+02  0.92395932475E+00  0.47787279873E+02  0.20000040254E+02 0.  0.
         12    1    1    2    0    0 -0.30166362762E+02 -0.31189090470E+02 -0.92395932475E+00  0.43400720127E+02  0.00000000000E+00 0. -1.
         11    1    3    3    0    0  0.52585568766E+01  0.13885559158E+02  0.12813305330E+01  0.14903119866E+02  0.51100000000E-03 0. -1.
        -11    1    3    3    0    0  0.14871284626E+02  0.28014676057E+01 -0.15230539919E+01  0.15209307049E+02  0.51100000000E-03 0.  1.
        -12    1    3    3    0    0  0.10036521260E+02  0.14502063707E+02  0.11656827836E+01  0.17674852959E+02  0.00000000000E+00 0.  1.
</event>
<event>
 7    1  0.2412036E-009  0.4778727E+02  0.7816164E-02  0.1312668E+00
        -11   -1    0    0    0    0  0.00000000000E+00  0.00000000000E+00  0.45593999997E+02  0.45594000000E+02  0.51100000000E-03 0.  1.
         11   -1    0    0    0    0 -0.00000000000E+00 -0.00000000000E+00 -0.45593999997E+02  0.45594000000E+02  0.51100000000E-03 0. -1.
    9900012    2    1    2    0    0  0.27034067180E+02  0.33941244907E+02 -0.88006105442E+00  0.47787269573E+02  0.19999993293E+02 0.  0.
         12    1    1    2    0    0 -0.27034067180E+02 -0.33941244907E+02  0.88006105442E+00  0.43400730427E+02  0.00000000000E+00 0. -1.
         11    1    3    3    0    0  0.37696023844E+01  0.10956433999E+02  0.78423250353E+00  0.11613284160E+02  0.51100000000E-03 0. -1.
        -11    1    3    3    0    0  0.13629357922E+02  0.13119580867E+02  0.66724701118E+01  0.20060026349E+02  0.51100000000E-03 0.  1.
        -12    1    3    3    0    0  0.96351068737E+01  0.98652300413E+01 -0.83367636697E+01  0.16113959064E+02  0.00000000000E+00 0.  1.
</event>
<event>
 7    1  0.2412036E-009  0.4778727E+02  0.7816164E-02  0.1312668E+00
        -11   -1    0    0    0    0  0.00000000000E+00  0.00000000000E+00  0.45593999997E+02  0.45594000000E+02  0.51100000000E-03 0.  1.
         11   -1    0    0    0    0 -0.00000000000E+00 -0.00000000000E+00 -0.45593999997E+02  0.45594000000E+02  0.51100000000E-03 0. -1.
    9900012    2    1    2    0    0  0.10119466714E+02 -0.33367965722E+02  0.25841804466E+02  0.47787267275E+02  0.19999982814E+02 0.  0.
         12    1    1    2    0    0 -0.10119466714E+02  0.33367965722E+02 -0.25841804466E+02  0.43400732725E+02  0.00000000000E+00 0. -1.
         11    1    3    3    0    0  0.13023716946E+02 -0.25518297212E+02  0.13048240197E+02  0.31481062056E+02  0.51100000000E-03 0. -1.
        -11    1    3    3    0    0 -0.28458498375E+01 -0.85206261794E+01  0.10043442717E+02  0.13474816275E+02  0.51100000000E-03 0.  1.
         12    1    3    3    0    0 -0.58400394148E-01  0.67095766902E+00  0.27501215522E+01  0.28313889439E+01  0.00000000000E+00 0. -1.
</event>
<event>
 7    1  0.2412036E-009  0.4778727E+02  0.7816164E-02  0.1312668E+00
        -11   -1    0    0    0    0  0.00000000000E+00  0.00000000000E+00  0.45593999997E+02  0.45594000000E+02  0.51100000000E-03 0.  1.
         11   -1    0    0    0    0 -0.00000000000E+00 -0.00000000000E+00 -0.45593999997E+02  0.45594000000E+02  0.51100000000E-03 0. -1.
    9900012    2    1    2    0    0  0.11173814733E+02 -0.11550284604E+02  0.40315752882E+02  0.47787272580E+02  0.20000007001E+02 0.  0.
         12    1    1    2    0    0 -0.11173814733E+02  0.11550284604E+02 -0.40315752882E+02  0.43400727420E+02  0.00000000000E+00 0. -1.
         11    1    3    3    0    0  0.38833424647E+01  0.26377668333E+01  0.21489582275E+02  0.21996370364E+02  0.51100000000E-03 0.  1.
        -11    1    3    3    0    0  0.16828373640E+01 -0.69693466122E+01  0.35782019502E+01  0.80129434824E+01  0.51100000000E-03 0. -1.
         12    1    3    3    0    0  0.56076349039E+01 -0.72187048252E+01  0.15247968657E+02  0.17777958734E+02  0.00000000000E+00 0. -1.
</event>
<event>
 7    1  0.2412036E-009  0.4778727E+02  0.7816164E-02  0.1312668E+00
        -11   -1    0    0    0    0  0.00000000000E+00  0.00000000000E+00  0.45593999997E+02  0.45594000000E+02  0.51100000000E-03 0.  1.
         11   -1    0    0    0    0 -0.00000000000E+00 -0.00000000000E+00 -0.45593999997E+02  0.45594000000E+02  0.51100000000E-03 0. -1.
    9900012    2    1    2    0    0 -0.23502334392E+02 -0.33629206028E+02  0.14154152689E+02  0.47787271224E+02  0.20000000817E+02 0.  0.
         12    1    1    2    0    0  0.23502334392E+02  0.33629206028E+02 -0.14154152689E+02  0.43400728776E+02  0.00000000000E+00 0. -1.
         11    1    3    3    0    0 -0.36616760465E+01 -0.50519588005E+01 -0.48817612888E+01  0.79222315501E+01  0.51100000000E-03 0. -1.
        -11    1    3    3    0    0 -0.13833436008E+02 -0.22828020524E+02  0.15068750705E+02  0.30652075312E+02  0.51100000000E-03 0.  1.
         12    1    3    3    0    0 -0.60072223375E+01 -0.57492267034E+01  0.39671632732E+01  0.92129643620E+01  0.00000000000E+00 0. -1.
</event>
<event>
 7    1  0.2412036E-009  0.4778727E+02  0.7816164E-02  0.1312668E+00
        -11   -1    0    0    0    0  0.00000000000E+00  0.00000000000E+00  0.45593999997E+02  0.45594000000E+02  0.51100000000E-03 0. -1.
         11   -1    0    0    0    0 -0.00000000000E+00 -0.00000000000E+00 -0.45593999997E+02  0.45594000000E+02  0.51100000000E-03 0.  1.
    9900012    2    1    2    0    0  0.32516023363E+02 -0.25563769203E+02  0.13146306647E+02  0.47787269020E+02  0.19999990768E+02 0.  0.
         12    1    1    2    0    0 -0.32516023363E+02  0.25563769203E+02 -0.13146306647E+02  0.43400730980E+02  0.00000000000E+00 0. -1.
         11    1    3    3    0    0  0.42450638648E+01  0.25840064076E+01  0.24728147021E+01  0.55508980483E+01  0.51100000000E-03 0. -1.
        -11    1    3    3    0    0  0.44337746295E+01 -0.84403111920E+01  0.50852293095E-01  0.95341384876E+01  0.51100000000E-03 0.  1.
         12    1    3    3    0    0  0.23837184869E+02 -0.19707464418E+02  0.10622639651E+02  0.32702232484E+02  0.00000000000E+00 0. -1.
</event>
<event>
 7    1  0.2412036E-009  0.4778727E+02  0.7816164E-02  0.1312668E+00
        -11   -1    0    0    0    0  0.00000000000E+00  0.00000000000E+00  0.45593999997E+02  0.45594000000E+02  0.51100000000E-03 0. -1.
         11   -1    0    0    0    0 -0.00000000000E+00 -0.00000000000E+00 -0.45593999997E+02  0.45594000000E+02  0.51100000000E-03 0.  1.
    9900012    2    1    2    0    0  0.26599190749E+02  0.33485232797E+02  0.74057752338E+01  0.47787271080E+02  0.20000000162E+02 0.  0.
         12    1    1    2    0    0 -0.26599190749E+02 -0.33485232797E+02 -0.74057752338E+01  0.43400728920E+02  0.00000000000E+00 0. -1.
         11    1    3    3    0    0  0.98200695929E-01 -0.10679760145E+01 -0.36844205707E+00  0.11340043892E+01  0.51100000000E-03 0. -1.
        -11    1    3    3    0    0  0.27406145577E+02  0.30656927747E+02  0.96454610169E+01  0.42237175009E+02  0.51100000000E-03 0.  1.
        -12    1    3    3    0    0 -0.90515552412E+00  0.38962810646E+01 -0.18712437260E+01  0.44160916815E+01  0.00000000000E+00 0.  1.
</event>
<event>
 7    1  0.2412036E-009  0.4778728E+02  0.7816164E-02  0.1312668E+00
        -11   -1    0    0    0    0  0.00000000000E+00  0.00000000000E+00  0.45593999997E+02  0.45594000000E+02  0.51100000000E-03 0.  1.
         11   -1    0    0    0    0 -0.00000000000E+00 -0.00000000000E+00 -0.45593999997E+02  0.45594000000E+02  0.51100000000E-03 0. -1.
    9900012    2    1    2    0    0 -0.40771592864E+02  0.26301514547E+01  0.14641798146E+02  0.47787277260E+02  0.20000028341E+02 0.  0.
         12    1    1    2    0    0  0.40771592864E+02 -0.26301514547E+01 -0.14641798146E+02  0.43400722740E+02  0.00000000000E+00 0. -1.
         11    1    3    3    0    0 -0.20755912199E+02 -0.57375179643E+01  0.13544852323E+01  0.21576877302E+02  0.51100000000E-03 0. -1.
        -11    1    3    3    0    0 -0.15583544678E+02  0.36181203318E+01  0.10534008642E+02  0.19154712157E+02  0.51100000000E-03 0.  1.
         12    1    3    3    0    0 -0.44321359873E+01  0.47495490872E+01  0.27533042720E+01  0.70556878018E+01  0.00000000000E+00 0. -1.
</event>
<event>
 7    1  0.2412036E-009  0.4778727E+02  0.7816164E-02  0.1312668E+00
        -11   -1    0    0    0    0  0.00000000000E+00  0.00000000000E+00  0.45593999997E+02  0.45594000000E+02  0.51100000000E-03 0. -1.
         11   -1    0    0    0    0 -0.00000000000E+00 -0.00000000000E+00 -0.45593999997E+02  0.45594000000E+02  0.51100000000E-03 0.  1.
    9900012    2    1    2    0    0 -0.33468267523E+01  0.28689296998E+02  0.32393618066E+02  0.47787268406E+02  0.19999987968E+02 0.  0.
         12    1    1    2    0    0  0.33468267523E+01 -0.28689296998E+02 -0.32393618066E+02  0.43400731594E+02  0.00000000000E+00 0. -1.
         11    1    3    3    0    0 -0.73012481122E+01  0.11430379033E+02  0.89881071063E+01  0.16271074287E+02  0.51100000000E-03 0. -1.
        -11    1    3    3    0    0  0.67155974692E+01  0.17016156484E+02  0.19631413790E+02  0.26833584153E+02  0.51100000000E-03 0.  1.
        -12    1    3    3    0    0 -0.27611761093E+01  0.24276148094E+00  0.37740971697E+01  0.46826099656E+01  0.00000000000E+00 0.  1.
</event>
<event>
 7    1  0.2412036E-009  0.4778727E+02  0.7816164E-02  0.1312668E+00
        -11   -1    0    0    0    0  0.00000000000E+00  0.00000000000E+00  0.45593999997E+02  0.45594000000E+02  0.51100000000E-03 0. -1.
         11   -1    0    0    0    0 -0.00000000000E+00 -0.00000000000E+00 -0.45593999997E+02  0.45594000000E+02  0.51100000000E-03 0.  1.
    9900012    2    1    2    0    0  0.21946186891E+02  0.36049361369E+02 -0.10120850831E+02  0.47787271945E+02  0.20000004106E+02 0.  0.
         12    1    1    2    0    0 -0.21946186891E+02 -0.36049361369E+02  0.10120850831E+02  0.43400728055E+02  0.00000000000E+00 0. -1.
         11    1    3    3    0    0  0.24626239775E+01  0.12459437153E+02  0.36590909955E+01  0.13217073738E+02  0.51100000000E-03 0. -1.
        -11    1    3    3    0    0  0.16483387151E+02  0.18018987555E+02 -0.14163728275E+02  0.28231138188E+02  0.51100000000E-03 0.  1.
        -12    1    3    3    0    0  0.30001757622E+01  0.55709366616E+01  0.38378644868E+00  0.63390600194E+01  0.00000000000E+00 0.  1.
</event>
<event>
 7    1  0.2412036E-009  0.4778727E+02  0.7816164E-02  0.1312668E+00
        -11   -1    0    0    0    0  0.00000000000E+00  0.00000000000E+00  0.45593999997E+02  0.45594000000E+02  0.51100000000E-03 0.  1.
         11   -1    0    0    0    0 -0.00000000000E+00 -0.00000000000E+00 -0.45593999997E+02  0.45594000000E+02  0.51100000000E-03 0. -1.
    9900012    2    1    2    0    0  0.62727998731E+01 -0.90039668579E+01  0.41990519468E+02  0.47787272326E+02  0.20000005844E+02 0.  0.
         12    1    1    2    0    0 -0.62727998731E+01  0.90039668579E+01 -0.41990519468E+02  0.43400727674E+02  0.00000000000E+00 0. -1.
         11    1    3    3    0    0 -0.61522551625E+00 -0.50111609920E+01  0.24948756733E+01  0.56315754288E+01  0.51100000000E-03 0. -1.
        -11    1    3    3    0    0  0.23036515339E+01  0.30965530134E+01  0.25652857790E+02  0.25941560554E+02  0.51100000000E-03 0.  1.
        -12    1    3    3    0    0  0.45843738554E+01 -0.70893588793E+01  0.13842786005E+02  0.16214136343E+02  0.00000000000E+00 0.  1.
</event>
<event>
 7    1  0.2412036E-009  0.4778727E+02  0.7816164E-02  0.1312668E+00
        -11   -1    0    0    0    0  0.00000000000E+00  0.00000000000E+00  0.45593999997E+02  0.45594000000E+02  0.51100000000E-03 0.  1.
         11   -1    0    0    0    0 -0.00000000000E+00 -0.00000000000E+00 -0.45593999997E+02  0.45594000000E+02  0.51100000000E-03 0. -1.
    9900012    2    1    2    0    0 -0.78429482129E+01 -0.34346945052E+02  0.25345585765E+02  0.47787272024E+02  0.20000004467E+02 0.  0.
         12    1    1    2    0    0  0.78429482129E+01  0.34346945052E+02 -0.25345585765E+02  0.43400727976E+02  0.00000000000E+00 0. -1.
         11    1    3    3    0    0 -0.10610926643E+02 -0.13355863970E+02  0.75926934685E+01  0.18671364733E+02  0.51100000000E-03 0.  1.
        -11    1    3    3    0    0 -0.22497654309E+01 -0.69636959474E+01  0.97919477345E+01  0.12224432356E+02  0.51100000000E-03 0. -1.
         12    1    3    3    0    0  0.50177438609E+01 -0.14027385134E+02  0.79609445623E+01  0.16891474935E+02  0.00000000000E+00 0. -1.
</event>
<event>
 7    1  0.2412036E-009  0.4778727E+02  0.7816164E-02  0.1312668E+00
        -11   -1    0    0    0    0  0.00000000000E+00  0.00000000000E+00  0.45593999997E+02  0.45594000000E+02  0.51100000000E-03 0.  1.
         11   -1    0    0    0    0 -0.00000000000E+00 -0.00000000000E+00 -0.45593999997E+02  0.45594000000E+02  0.51100000000E-03 0. -1.
    9900012    2    1    2    0    0 -0.20798704298E+02  0.39396672443E+01  0.37888203800E+02  0.47787273443E+02  0.20000010938E+02 0.  0.
         12    1    1    2    0    0  0.20798704298E+02 -0.39396672443E+01 -0.37888203800E+02  0.43400726557E+02  0.00000000000E+00 0. -1.
         11    1    3    3    0    0  0.42066450494E+00  0.11916309804E+00 -0.10756461446E+01  0.11611086767E+01  0.51100000000E-03 0. -1.
        -11    1    3    3    0    0 -0.17587741527E+02 -0.23036294431E+01  0.22222594804E+02  0.28433766559E+02  0.51100000000E-03 0.  1.
        -12    1    3    3    0    0 -0.36316272758E+01  0.61241335893E+01  0.16741255140E+02  0.18192398208E+02  0.00000000000E+00 0.  1.
</event>
<event>
 7    1  0.2412036E-009  0.4778727E+02  0.7816164E-02  0.1312668E+00
        -11   -1    0    0    0    0  0.00000000000E+00  0.00000000000E+00  0.45593999997E+02  0.45594000000E+02  0.51100000000E-03 0.  1.
         11   -1    0    0    0    0 -0.00000000000E+00 -0.00000000000E+00 -0.45593999997E+02  0.45594000000E+02  0.51100000000E-03 0. -1.
    9900012    2    1    2    0    0 -0.19587829249E+02 -0.87825478646E+01  0.37720115017E+02  0.47787270990E+02  0.19999999754E+02 0.  0.
         12    1    1    2    0    0  0.19587829249E+02  0.87825478646E+01 -0.37720115017E+02  0.43400729010E+02  0.00000000000E+00 0. -1.
         11    1    3    3    0    0  0.17081239488E+01 -0.23162097264E+01  0.11627473168E+02  0.11978340764E+02  0.51100000000E-03 0. -1.
        -11    1    3    3    0    0 -0.17559833390E+02 -0.84149101797E+01  0.24520305930E+02  0.31311401521E+02  0.51100000000E-03 0.  1.
         12    1    3    3    0    0 -0.37361198079E+01  0.19485720415E+01  0.15723359185E+01  0.44975287059E+01  0.00000000000E+00 0. -1.
</event>
<event>
 7    1  0.2412036E-009  0.4778727E+02  0.7816164E-02  0.1312668E+00
        -11   -1    0    0    0    0  0.00000000000E+00  0.00000000000E+00  0.45593999997E+02  0.45594000000E+02  0.51100000000E-03 0.  1.
         11   -1    0    0    0    0 -0.00000000000E+00 -0.00000000000E+00 -0.45593999997E+02  0.45594000000E+02  0.51100000000E-03 0. -1.
    9900012    2    1    2    0    0  0.36939924750E+02 -0.63101580642E+01  0.21891714794E+02  0.47787270605E+02  0.19999997998E+02 0.  0.
         12    1    1    2    0    0 -0.36939924750E+02  0.63101580642E+01 -0.21891714794E+02  0.43400729395E+02  0.00000000000E+00 0. -1.
         11    1    3    3    0    0  0.30422732222E+02 -0.27627984038E+01  0.18821421162E+02  0.35880657542E+02  0.51100000000E-03 0. -1.
        -11    1    3    3    0    0  0.31821484294E+01 -0.63641398071E+01  0.15346038135E+01  0.72789664951E+01  0.51100000000E-03 0.  1.
         12    1    3    3    0    0  0.33350440993E+01  0.28167801467E+01  0.15356898188E+01  0.46276465680E+01  0.00000000000E+00 0. -1.
</event>
<event>
 7    1  0.2412036E-009  0.4778727E+02  0.7816164E-02  0.1312668E+00
        -11   -1    0    0    0    0  0.00000000000E+00  0.00000000000E+00  0.45593999997E+02  0.45594000000E+02  0.51100000000E-03 0. -1.
         11   -1    0    0    0    0 -0.00000000000E+00 -0.00000000000E+00 -0.45593999997E+02  0.45594000000E+02  0.51100000000E-03 0.  1.
    9900012    2    1    2    0    0  0.17947230719E+02  0.34412637579E+02 -0.19423972615E+02  0.47787269271E+02  0.19999991915E+02 0.  0.
         12    1    1    2    0    0 -0.17947230719E+02 -0.34412637579E+02  0.19423972615E+02  0.43400730729E+02  0.00000000000E+00 0. -1.
         11    1    3    3    0    0 -0.18370743869E+01  0.40100888864E+01  0.19449966531E+01  0.48206501036E+01  0.51100000000E-03 0. -1.
        -11    1    3    3    0    0  0.90306799408E+01  0.74751255003E+01 -0.45969835030E+01  0.12592177692E+02  0.51100000000E-03 0.  1.
         12    1    3    3    0    0  0.10753625165E+02  0.22927423193E+02 -0.16771985765E+02  0.30374441476E+02  0.00000000000E+00 0. -1.
</event>
<event>
 7    1  0.2412036E-009  0.4778727E+02  0.7816164E-02  0.1312668E+00
        -11   -1    0    0    0    0  0.00000000000E+00  0.00000000000E+00  0.45593999997E+02  0.45594000000E+02  0.51100000000E-03 0.  1.
         11   -1    0    0    0    0 -0.00000000000E+00 -0.00000000000E+00 -0.45593999997E+02  0.45594000000E+02  0.51100000000E-03 0. -1.
    9900012    2    1    2    0    0 -0.33306310568E+01  0.33386910739E+02  0.27528972617E+02  0.47787271374E+02  0.20000001503E+02 0.  0.
         12    1    1    2    0    0  0.33306310568E+01 -0.33386910739E+02 -0.27528972617E+02  0.43400728626E+02  0.00000000000E+00 0. -1.
         11    1    3    3    0    0 -0.20223241112E+01  0.88354836497E+01  0.16311870255E+02  0.18660993479E+02  0.51100000000E-03 0. -1.
        -11    1    3    3    0    0 -0.41341532434E+01  0.23307793890E+02  0.89978016265E+01  0.25323998765E+02  0.51100000000E-03 0.  1.
         12    1    3    3    0    0  0.28258462979E+01  0.12436331992E+01  0.22193007353E+01  0.38022791306E+01  0.00000000000E+00 0. -1.
</event>
<event>
 7    1  0.2412036E-009  0.4778726E+02  0.7816164E-02  0.1312668E+00
        -11   -1    0    0    0    0  0.00000000000E+00  0.00000000000E+00  0.45593999997E+02  0.45594000000E+02  0.51100000000E-03 0.  1.
         11   -1    0    0    0    0 -0.00000000000E+00 -0.00000000000E+00 -0.45593999997E+02  0.45594000000E+02  0.51100000000E-03 0. -1.
    9900012    2    1    2    0    0 -0.31477975916E+02 -0.89942018659E+01  0.28493248563E+02  0.47787264422E+02  0.19999969808E+02 0.  0.
         12    1    1    2    0    0  0.31477975916E+02  0.89942018659E+01 -0.28493248563E+02  0.43400735578E+02  0.00000000000E+00 0. -1.
         11    1    3    3    0    0 -0.82094533274E+01  0.21618906005E+00  0.63701302590E+01  0.10393287325E+02  0.51100000000E-03 0.  1.
        -11    1    3    3    0    0  0.12856347999E+01  0.26001686772E+01  0.21323226125E+01  0.36000741622E+01  0.51100000000E-03 0. -1.
        -12    1    3    3    0    0 -0.24554157388E+02 -0.11810559603E+02  0.19990795692E+02  0.33793902935E+02  0.00000000000E+00 0.  1.
</event>
<event>
 7    1  0.2412036E-009  0.4778727E+02  0.7816164E-02  0.1312668E+00
        -11   -1    0    0    0    0  0.00000000000E+00  0.00000000000E+00  0.45593999997E+02  0.45594000000E+02  0.51100000000E-03 0.  1.
         11   -1    0    0    0    0 -0.00000000000E+00 -0.00000000000E+00 -0.45593999997E+02  0.45594000000E+02  0.51100000000E-03 0. -1.
    9900012    2    1    2    0    0 -0.10819409301E+02 -0.24680403045E+02  0.34021190584E+02  0.47787270503E+02  0.19999997533E+02 0.  0.
         12    1    1    2    0    0  0.10819409301E+02  0.24680403045E+02 -0.34021190584E+02  0.43400729497E+02  0.00000000000E+00 0. -1.
         11    1    3    3    0    0 -0.91150553567E+01 -0.62670082291E+01  0.72921148908E+01  0.13248945850E+02  0.51100000000E-03 0. -1.
        -11    1    3    3    0    0 -0.69061749708E-01 -0.19262249592E+02  0.20889442659E+02  0.28414922906E+02  0.51100000000E-03 0.  1.
         12    1    3    3    0    0 -0.16352921945E+01  0.84885477583E+00  0.58396330339E+01  0.61234017476E+01  0.00000000000E+00 0. -1.
</event>
<event>
 7    1  0.2412036E-009  0.4778727E+02  0.7816164E-02  0.1312668E+00
        -11   -1    0    0    0    0  0.00000000000E+00  0.00000000000E+00  0.45593999997E+02  0.45594000000E+02  0.51100000000E-03 0.  1.
         11   -1    0    0    0    0 -0.00000000000E+00 -0.00000000000E+00 -0.45593999997E+02  0.45594000000E+02  0.51100000000E-03 0. -1.
    9900012    2    1    2    0    0 -0.60094206088E+01  0.21251812900E+02  0.37361350632E+02  0.47787271796E+02  0.20000003428E+02 0.  0.
         12    1    1    2    0    0  0.60094206088E+01 -0.21251812900E+02 -0.37361350632E+02  0.43400728204E+02  0.00000000000E+00 0. -1.
         11    1    3    3    0    0 -0.96762900782E+01  0.73240487364E+01  0.88586121847E+01  0.15024889007E+02  0.51100000000E-03 0. -1.
        -11    1    3    3    0    0  0.12280499597E+01  0.13515812237E+02  0.25360073933E+02  0.28763147207E+02  0.51100000000E-03 0.  1.
         12    1    3    3    0    0  0.24388195098E+01  0.41195192633E+00  0.31426645147E+01  0.39992355823E+01  0.00000000000E+00 0. -1.
</event>
<event>
 7    1  0.2412036E-009  0.4778727E+02  0.7816164E-02  0.1312668E+00
        -11   -1    0    0    0    0  0.00000000000E+00  0.00000000000E+00  0.45593999997E+02  0.45594000000E+02  0.51100000000E-03 0. -1.
         11   -1    0    0    0    0 -0.00000000000E+00 -0.00000000000E+00 -0.45593999997E+02  0.45594000000E+02  0.51100000000E-03 0.  1.
    9900012    2    1    2    0    0  0.16639473501E+02 -0.38551120039E+02 -0.10980081765E+02  0.47787272699E+02  0.20000007544E+02 0.  0.
         12    1    1    2    0    0 -0.16639473501E+02  0.38551120039E+02  0.10980081765E+02  0.43400727301E+02  0.00000000000E+00 0. -1.
         11    1    3    3    0    0 -0.57817093587E+00 -0.46234586725E+01 -0.38367367534E+01  0.60358264475E+01  0.51100000000E-03 0. -1.
        -11    1    3    3    0    0  0.17956058681E+02 -0.32931935464E+02 -0.32316860333E+01  0.37648057209E+02  0.51100000000E-03 0.  1.
        -12    1    3    3    0    0 -0.73841424415E+00 -0.99572590319E+00 -0.39116589784E+01  0.41033890424E+01  0.00000000000E+00 0.  1.
</event>
<event>
 7    1  0.2412036E-009  0.4778727E+02  0.7816164E-02  0.1312668E+00
        -11   -1    0    0    0    0  0.00000000000E+00  0.00000000000E+00  0.45593999997E+02  0.45594000000E+02  0.51100000000E-03 0.  1.
         11   -1    0    0    0    0 -0.00000000000E+00 -0.00000000000E+00 -0.45593999997E+02  0.45594000000E+02  0.51100000000E-03 0. -1.
    9900012    2    1    2    0    0  0.22466496684E+02 -0.35160511902E+02  0.11942307505E+02  0.47787265225E+02  0.19999973466E+02 0.  0.
         12    1    1    2    0    0 -0.22466496684E+02  0.35160511902E+02 -0.11942307505E+02  0.43400734775E+02  0.00000000000E+00 0. -1.
         11    1    3    3    0    0  0.93055573623E+00 -0.12692058953E+01 -0.19889174873E+00  0.15863088513E+01  0.51100000000E-03 0. -1.
        -11    1    3    3    0    0  0.16670025879E+02 -0.31634512686E+02  0.16412116971E+02  0.39344500752E+02  0.51100000000E-03 0.  1.
        -12    1    3    3    0    0  0.48659150685E+01 -0.22567933213E+01 -0.42709177172E+01  0.68564556220E+01  0.00000000000E+00 0.  1.
</event>
<event>
 7    1  0.2412036E-009  0.4778727E+02  0.7816164E-02  0.1312668E+00
        -11   -1    0    0    0    0  0.00000000000E+00  0.00000000000E+00  0.45593999997E+02  0.45594000000E+02  0.51100000000E-03 0.  1.
         11   -1    0    0    0    0 -0.00000000000E+00 -0.00000000000E+00 -0.45593999997E+02  0.45594000000E+02  0.51100000000E-03 0. -1.
    9900012    2    1    2    0    0  0.25484248856E+02 -0.26425046417E+02  0.23149368561E+02  0.47787270943E+02  0.19999999539E+02 0.  0.
         12    1    1    2    0    0 -0.25484248856E+02  0.26425046417E+02 -0.23149368561E+02  0.43400729057E+02  0.00000000000E+00 0. -1.
         11    1    3    3    0    0  0.12415144303E+02 -0.51549037148E+01  0.31458811723E+01  0.13805991779E+02  0.51100000000E-03 0. -1.
        -11    1    3    3    0    0  0.11475962342E+02 -0.22267445739E+02  0.16472870789E+02  0.29981533044E+02  0.51100000000E-03 0.  1.
        -12    1    3    3    0    0  0.15931422101E+01  0.99730303698E+00  0.35306166002E+01  0.39997461203E+01  0.00000000000E+00 0.  1.
</event>
<event>
 7    1  0.2412036E-009  0.4778727E+02  0.7816164E-02  0.1312668E+00
        -11   -1    0    0    0    0  0.00000000000E+00  0.00000000000E+00  0.45593999997E+02  0.45594000000E+02  0.51100000000E-03 0. -1.
         11   -1    0    0    0    0 -0.00000000000E+00 -0.00000000000E+00 -0.45593999997E+02  0.45594000000E+02  0.51100000000E-03 0.  1.
    9900012    2    1    2    0    0  0.14340708948E+02 -0.21017474179E+02 -0.35160105889E+02  0.47787271894E+02  0.20000003872E+02 0.  0.
         12    1    1    2    0    0 -0.14340708948E+02  0.21017474179E+02  0.35160105889E+02  0.43400728106E+02  0.00000000000E+00 0. -1.
         11    1    3    3    0    0  0.26999170465E+01  0.17761003567E+01 -0.80012024708E+01  0.86292135085E+01  0.51100000000E-03 0. -1.
        -11    1    3    3    0    0  0.13103211524E+02 -0.23233495251E+02 -0.25893605436E+02  0.37174833645E+02  0.51100000000E-03 0.  1.
        -12    1    3    3    0    0 -0.14624196222E+01  0.43992071441E+00 -0.12652979826E+01  0.19832247405E+01  0.00000000000E+00 0.  1.
</event>
<event>
 7    1  0.2412036E-009  0.4778727E+02  0.7816164E-02  0.1312668E+00
        -11   -1    0    0    0    0  0.00000000000E+00  0.00000000000E+00  0.45593999997E+02  0.45594000000E+02  0.51100000000E-03 0.  1.
         11   -1    0    0    0    0 -0.00000000000E+00 -0.00000000000E+00 -0.45593999997E+02  0.45594000000E+02  0.51100000000E-03 0. -1.
    9900012    2    1    2    0    0 -0.14902487512E+02  0.40103505027E+02  0.72971365498E+01  0.47787269001E+02  0.19999990682E+02 0.  0.
         12    1    1    2    0    0  0.14902487512E+02 -0.40103505027E+02 -0.72971365498E+01  0.43400730999E+02  0.00000000000E+00 0. -1.
         11    1    3    3    0    0 -0.17378963542E+01  0.11263322125E+02  0.96034372778E+01  0.14903312278E+02  0.51100000000E-03 0. -1.
        -11    1    3    3    0    0 -0.15655812451E+01  0.88210492595E+01  0.23972329179E+01  0.92740865101E+01  0.51100000000E-03 0.  1.
         12    1    3    3    0    0 -0.11599009912E+02  0.20019133642E+02 -0.47035336459E+01  0.23609870213E+02  0.00000000000E+00 0. -1.
</event>
<event>
 7    1  0.2412036E-009  0.4778729E+02  0.7816164E-02  0.1312668E+00
        -11   -1    0    0    0    0  0.00000000000E+00  0.00000000000E+00  0.45593999997E+02  0.45594000000E+02  0.51100000000E-03 0.  1.
         11   -1    0    0    0    0 -0.00000000000E+00 -0.00000000000E+00 -0.45593999997E+02  0.45594000000E+02  0.51100000000E-03 0. -1.
    9900012    2    1    2    0    0  0.27060886794E+00  0.34703314590E+01  0.43260897531E+02  0.47787289352E+02  0.20000083470E+02 0.  0.
         12    1    1    2    0    0 -0.27060886794E+00 -0.34703314590E+01 -0.43260897531E+02  0.43400710648E+02  0.00000000000E+00 0. -1.
         11    1    3    3    0    0  0.38870912106E+01  0.24965595850E+01  0.38369013725E+02  0.38646131790E+02  0.51100000000E-03 0.  1.
        -11    1    3    3    0    0  0.98853850232E+00  0.22605038711E+01  0.25451477604E+00  0.24802951748E+01  0.51100000000E-03 0. -1.
         12    1    3    3    0    0 -0.46050208450E+01 -0.12867319971E+01  0.46373690301E+01  0.66608623868E+01  0.00000000000E+00 0. -1.
</event>
<event>
 7    1  0.2412036E-009  0.4778733E+02  0.7816164E-02  0.1312668E+00
        -11   -1    0    0    0    0  0.00000000000E+00  0.00000000000E+00  0.45593999997E+02  0.45594000000E+02  0.51100000000E-03 0. -1.
         11   -1    0    0    0    0 -0.00000000000E+00 -0.00000000000E+00 -0.45593999997E+02  0.45594000000E+02  0.51100000000E-03 0.  1.
    9900012    2    1    2    0    0 -0.12484610292E+02  0.26475134051E+01 -0.41481848183E+02  0.47787325465E+02  0.20000248125E+02 0.  0.
         12    1    1    2    0    0  0.12484610292E+02 -0.26475134051E+01  0.41481848183E+02  0.43400674535E+02  0.00000000000E+00 0. -1.
         11    1    3    3    0    0 -0.86488945206E+01 -0.36536686420E+01 -0.29093778885E+02  0.30571238788E+02  0.51100000000E-03 0. -1.
        -11    1    3    3    0    0 -0.68554829760E+01  0.55565957736E+01 -0.87068970344E+01  0.12396913312E+02  0.51100000000E-03 0.  1.
         12    1    3    3    0    0  0.30197672051E+01  0.74458627355E+00 -0.36811722640E+01  0.48191733657E+01  0.00000000000E+00 0. -1.
</event>
<event>
 7    1  0.2412036E-009  0.4778727E+02  0.7816164E-02  0.1312668E+00
        -11   -1    0    0    0    0  0.00000000000E+00  0.00000000000E+00  0.45593999997E+02  0.45594000000E+02  0.51100000000E-03 0.  1.
         11   -1    0    0    0    0 -0.00000000000E+00 -0.00000000000E+00 -0.45593999997E+02  0.45594000000E+02  0.51100000000E-03 0. -1.
    9900012    2    1    2    0    0 -0.11155962664E+02  0.37189120570E+02 -0.19394259933E+02  0.47787268323E+02  0.19999987590E+02 0.  0.
         12    1    1    2    0    0  0.11155962664E+02 -0.37189120570E+02  0.19394259933E+02  0.43400731677E+02  0.00000000000E+00 0. -1.
         11    1    3    3    0    0  0.12972038652E+01  0.23653227700E+01 -0.35976243352E+01  0.44967088846E+01  0.51100000000E-03 0. -1.
        -11    1    3    3    0    0 -0.11568639655E+02  0.11185932674E+02 -0.99655311247E+01  0.18928030117E+02  0.51100000000E-03 0.  1.
        -12    1    3    3    0    0 -0.88452687436E+00  0.23637865126E+02 -0.58311044736E+01  0.24362529321E+02  0.00000000000E+00 0.  1.
</event>
<event>
 7    1  0.2412036E-009  0.4778727E+02  0.7816164E-02  0.1312668E+00
        -11   -1    0    0    0    0  0.00000000000E+00  0.00000000000E+00  0.45593999997E+02  0.45594000000E+02  0.51100000000E-03 0.  1.
         11   -1    0    0    0    0 -0.00000000000E+00 -0.00000000000E+00 -0.45593999997E+02  0.45594000000E+02  0.51100000000E-03 0. -1.
    9900012    2    1    2    0    0 -0.74537378429E+01 -0.12926291366E+02  0.40755074145E+02  0.47787270918E+02  0.19999999422E+02 0.  0.
         12    1    1    2    0    0  0.74537378429E+01  0.12926291366E+02 -0.40755074145E+02  0.43400729082E+02  0.00000000000E+00 0. -1.
         11    1    3    3    0    0  0.10058283064E+01 -0.53467742705E+01  0.13616609534E+01  0.56083693258E+01  0.51100000000E-03 0. -1.
        -11    1    3    3    0    0 -0.57443176621E+01 -0.12370628038E+00  0.25862168442E+02  0.26492720612E+02  0.51100000000E-03 0.  1.
         12    1    3    3    0    0 -0.27152484872E+01 -0.74558108147E+01  0.13531244750E+02  0.15686180980E+02  0.00000000000E+00 0. -1.
</event>
<event>
 7    1  0.2412036E-009  0.4778727E+02  0.7816164E-02  0.1312668E+00
        -11   -1    0    0    0    0  0.00000000000E+00  0.00000000000E+00  0.45593999997E+02  0.45594000000E+02  0.51100000000E-03 0.  1.
         11   -1    0    0    0    0 -0.00000000000E+00 -0.00000000000E+00 -0.45593999997E+02  0.45594000000E+02  0.51100000000E-03 0. -1.
    9900012    2    1    2    0    0 -0.36422631646E+02 -0.29808177720E+01  0.23412168328E+02  0.47787274241E+02  0.20000014573E+02 0.  0.
         12    1    1    2    0    0  0.36422631646E+02  0.29808177720E+01 -0.23412168328E+02  0.43400725759E+02  0.00000000000E+00 0. -1.
         11    1    3    3    0    0 -0.18367383664E+02  0.35384057380E+01  0.16252844241E+02  0.24779750685E+02  0.51100000000E-03 0. -1.
        -11    1    3    3    0    0 -0.81483231142E+01 -0.15166572196E+01  0.84477137044E+01  0.11834664583E+02  0.51100000000E-03 0.  1.
         12    1    3    3    0    0 -0.99069248680E+01 -0.50025662904E+01 -0.12883896172E+01  0.11172858973E+02  0.00000000000E+00 0. -1.
</event>
<event>
 7    1  0.2412036E-009  0.4778727E+02  0.7816164E-02  0.1312668E+00
        -11   -1    0    0    0    0  0.00000000000E+00  0.00000000000E+00  0.45593999997E+02  0.45594000000E+02  0.51100000000E-03 0.  1.
         11   -1    0    0    0    0 -0.00000000000E+00 -0.00000000000E+00 -0.45593999997E+02  0.45594000000E+02  0.51100000000E-03 0. -1.
    9900012    2    1    2    0    0 -0.29557254551E+02  0.31050880676E+02  0.67701574729E+01  0.47787268214E+02  0.19999987094E+02 0.  0.
         12    1    1    2    0    0  0.29557254551E+02 -0.31050880676E+02 -0.67701574729E+01  0.43400731786E+02  0.00000000000E+00 0. -1.
         11    1    3    3    0    0  0.60068270274E-01  0.25084392120E+01 -0.90027035163E+00  0.26657761430E+01  0.51100000000E-03 0. -1.
        -11    1    3    3    0    0  0.18652999262E+00 -0.63710109919E+00  0.30903947731E+01  0.31608909130E+01  0.51100000000E-03 0.  1.
        -12    1    3    3    0    0 -0.29803852814E+02  0.29179542563E+02  0.45800330514E+01  0.41960601158E+02  0.00000000000E+00 0.  1.
</event>
<event>
 7    1  0.2412036E-009  0.4778727E+02  0.7816164E-02  0.1312668E+00
        -11   -1    0    0    0    0  0.00000000000E+00  0.00000000000E+00  0.45593999997E+02  0.45594000000E+02  0.51100000000E-03 0. -1.
         11   -1    0    0    0    0 -0.00000000000E+00 -0.00000000000E+00 -0.45593999997E+02  0.45594000000E+02  0.51100000000E-03 0.  1.
    9900012    2    1    2    0    0  0.37659349355E+02 -0.71652170195E+01 -0.20348366419E+02  0.47787274836E+02  0.20000017289E+02 0.  0.
         12    1    1    2    0    0 -0.37659349355E+02  0.71652170195E+01  0.20348366419E+02  0.43400725164E+02  0.00000000000E+00 0. -1.
         11    1    3    3    0    0  0.13071557896E+02  0.50503571556E+01 -0.17506315362E+01  0.14122196864E+02  0.51100000000E-03 0. -1.
        -11    1    3    3    0    0  0.11609027377E+02 -0.81384069920E+01 -0.71152071380E+01  0.15862829441E+02  0.51100000000E-03 0.  1.
         12    1    3    3    0    0  0.12978764082E+02 -0.40771671831E+01 -0.11482527745E+02  0.17802248531E+02  0.00000000000E+00 0. -1.
</event>
<event>
 7    1  0.2412036E-009  0.4778727E+02  0.7816164E-02  0.1312668E+00
        -11   -1    0    0    0    0  0.00000000000E+00  0.00000000000E+00  0.45593999997E+02  0.45594000000E+02  0.51100000000E-03 0.  1.
         11   -1    0    0    0    0 -0.00000000000E+00 -0.00000000000E+00 -0.45593999997E+02  0.45594000000E+02  0.51100000000E-03 0. -1.
    9900012    2    1    2    0    0 -0.23746469793E+02 -0.35617817546E+02  0.71484132480E+01  0.47787267675E+02  0.19999984639E+02 0.  0.
         12    1    1    2    0    0  0.23746469793E+02  0.35617817546E+02 -0.71484132480E+01  0.43400732325E+02  0.00000000000E+00 0. -1.
         11    1    3    3    0    0 -0.53282737807E+01 -0.63394048672E+01 -0.62775497733E+01  0.10391640244E+02  0.51100000000E-03 0. -1.
        -11    1    3    3    0    0 -0.14485629893E+02 -0.20135708135E+02  0.11098211630E+02  0.27174446032E+02  0.51100000000E-03 0.  1.
         12    1    3    3    0    0 -0.39325661196E+01 -0.91427045430E+01  0.23277513913E+01  0.10221181399E+02  0.00000000000E+00 0. -1.
</event>
<event>
 7    1  0.2412036E-009  0.4778727E+02  0.7816164E-02  0.1312668E+00
        -11   -1    0    0    0    0  0.00000000000E+00  0.00000000000E+00  0.45593999997E+02  0.45594000000E+02  0.51100000000E-03 0.  1.
         11   -1    0    0    0    0 -0.00000000000E+00 -0.00000000000E+00 -0.45593999997E+02  0.45594000000E+02  0.51100000000E-03 0. -1.
    9900012    2    1    2    0    0  0.18014296019E+01 -0.50405362715E+01  0.43069378035E+02  0.47787268683E+02  0.19999989235E+02 0.  0.
         12    1    1    2    0    0 -0.18014296019E+01  0.50405362715E+01 -0.43069378035E+02  0.43400731317E+02  0.00000000000E+00 0. -1.
         11    1    3    3    0    0  0.38948567596E+01 -0.89750414255E+01  0.95157624428E+01  0.13648113895E+02  0.51100000000E-03 0. -1.
        -11    1    3    3    0    0 -0.11874173745E+01  0.48084034173E+01  0.24236874001E+02  0.24737759904E+02  0.51100000000E-03 0.  1.
        -12    1    3    3    0    0 -0.90600978320E+00 -0.87389826323E+00  0.93167415910E+01  0.94013948846E+01  0.00000000000E+00 0.  1.
</event>
<event>
 7    1  0.2412036E-009  0.4778727E+02  0.7816164E-02  0.1312668E+00
        -11   -1    0    0    0    0  0.00000000000E+00  0.00000000000E+00  0.45593999997E+02  0.45594000000E+02  0.51100000000E-03 0.  1.
         11   -1    0    0    0    0 -0.00000000000E+00 -0.00000000000E+00 -0.45593999997E+02  0.45594000000E+02  0.51100000000E-03 0. -1.
    9900012    2    1    2    0    0  0.19653345535E+02  0.18641166291E+02  0.33909827952E+02  0.47787268403E+02  0.19999987956E+02 0.  0.
         12    1    1    2    0    0 -0.19653345535E+02 -0.18641166291E+02 -0.33909827952E+02  0.43400731597E+02  0.00000000000E+00 0. -1.
         11    1    3    3    0    0  0.36257892975E+01 -0.23831304813E+01  0.32977108311E+00  0.43513685375E+01  0.51100000000E-03 0. -1.
        -11    1    3    3    0    0  0.13136786225E+02  0.15970183724E+02  0.20498854104E+02  0.29117433616E+02  0.51100000000E-03 0.  1.
         12    1    3    3    0    0  0.28907700127E+01  0.50541130480E+01  0.13081202765E+02  0.14318466250E+02  0.00000000000E+00 0. -1.
</event>
<event>
 7    1  0.2412036E-009  0.4778727E+02  0.7816164E-02  0.1312668E+00
        -11   -1    0    0    0    0  0.00000000000E+00  0.00000000000E+00  0.45593999997E+02  0.45594000000E+02  0.51100000000E-03 0.  1.
         11   -1    0    0    0    0 -0.00000000000E+00 -0.00000000000E+00 -0.45593999997E+02  0.45594000000E+02  0.51100000000E-03 0. -1.
    9900012    2    1    2    0    0  0.25709020001E+02 -0.17058955031E+02  0.30523126947E+02  0.47787274951E+02  0.20000017813E+02 0.  0.
         12    1    1    2    0    0 -0.25709020001E+02  0.17058955031E+02 -0.30523126947E+02  0.43400725049E+02  0.00000000000E+00 0. -1.
         11    1    3    3    0    0 -0.51812815514E+00 -0.40513718716E+01  0.27670319348E+01  0.49334102623E+01  0.51100000000E-03 0. -1.
        -11    1    3    3    0    0  0.20475508789E+02 -0.59820168822E+01  0.25957212715E+02  0.33597736209E+02  0.51100000000E-03 0.  1.
        -12    1    3    3    0    0  0.57516393667E+01 -0.70255662773E+01  0.17988822967E+01  0.92561284800E+01  0.00000000000E+00 0.  1.
</event>
<event>
 7    1  0.2412036E-009  0.4778727E+02  0.7816164E-02  0.1312668E+00
        -11   -1    0    0    0    0  0.00000000000E+00  0.00000000000E+00  0.45593999997E+02  0.45594000000E+02  0.51100000000E-03 0.  1.
         11   -1    0    0    0    0 -0.00000000000E+00 -0.00000000000E+00 -0.45593999997E+02  0.45594000000E+02  0.51100000000E-03 0. -1.
    9900012    2    1    2    0    0  0.38272666276E+01 -0.40764431029E+02  0.14395713964E+02  0.47787269735E+02  0.19999994032E+02 0.  0.
         12    1    1    2    0    0 -0.38272666276E+01  0.40764431029E+02 -0.14395713964E+02  0.43400730265E+02  0.00000000000E+00 0. -1.
         11    1    3    3    0    0 -0.40225058590E+00 -0.20677044375E+02  0.13586769126E+02  0.24744742172E+02  0.51100000000E-03 0. -1.
        -11    1    3    3    0    0  0.67911646802E+01 -0.14475434932E+02 -0.22670201265E+01  0.16149226443E+02  0.51100000000E-03 0.  1.
        -12    1    3    3    0    0 -0.25616474667E+01 -0.56119517217E+01  0.30759649641E+01  0.68933011200E+01  0.00000000000E+00 0.  1.
</event>
<event>
 7    1  0.2412036E-009  0.4778727E+02  0.7816164E-02  0.1312668E+00
        -11   -1    0    0    0    0  0.00000000000E+00  0.00000000000E+00  0.45593999997E+02  0.45594000000E+02  0.51100000000E-03 0.  1.
         11   -1    0    0    0    0 -0.00000000000E+00 -0.00000000000E+00 -0.45593999997E+02  0.45594000000E+02  0.51100000000E-03 0. -1.
    9900012    2    1    2    0    0  0.36401130972E+00 -0.13364065142E+02  0.41290343589E+02  0.47787271722E+02  0.20000003091E+02 0.  0.
         12    1    1    2    0    0 -0.36401130972E+00  0.13364065142E+02 -0.41290343589E+02  0.43400728278E+02  0.00000000000E+00 0. -1.
         11    1    3    3    0    0  0.50554055984E+01  0.30538563281E+01  0.15192004366E+02  0.16299698192E+02  0.51100000000E-03 0. -1.
        -11    1    3    3    0    0 -0.30956338962E+01 -0.12083876630E+02  0.22106408414E+02  0.25382992670E+02  0.51100000000E-03 0.  1.
         12    1    3    3    0    0 -0.15957603925E+01 -0.43340448393E+01  0.39919308084E+01  0.61045808602E+01  0.00000000000E+00 0. -1.
</event>
<event>
 7    1  0.2412036E-009  0.4778726E+02  0.7816164E-02  0.1312668E+00
        -11   -1    0    0    0    0  0.00000000000E+00  0.00000000000E+00  0.45593999997E+02  0.45594000000E+02  0.51100000000E-03 0.  1.
         11   -1    0    0    0    0 -0.00000000000E+00 -0.00000000000E+00 -0.45593999997E+02  0.45594000000E+02  0.51100000000E-03 0. -1.
    9900012    2    1    2    0    0  0.36319157264E+01 -0.22528920076E+02  0.36917223317E+02  0.47787257736E+02  0.19999939322E+02 0.  0.
         12    1    1    2    0    0 -0.36319157264E+01  0.22528920076E+02 -0.36917223317E+02  0.43400742264E+02  0.00000000000E+00 0. -1.
         11    1    3    3    0    0 -0.35120608052E+01 -0.45077961094E+01  0.55794635970E+01  0.79865644150E+01  0.51100000000E-03 0. -1.
        -11    1    3    3    0    0 -0.32576807904E+00 -0.14567781943E+02  0.26534250259E+02  0.30271980983E+02  0.51100000000E-03 0.  1.
         12    1    3    3    0    0  0.74697446106E+01 -0.34533420235E+01  0.48035094612E+01  0.95287123381E+01  0.00000000000E+00 0. -1.
</event>
<event>
 7    1  0.2412036E-009  0.4778727E+02  0.7816164E-02  0.1312668E+00
        -11   -1    0    0    0    0  0.00000000000E+00  0.00000000000E+00  0.45593999997E+02  0.45594000000E+02  0.51100000000E-03 0.  1.
         11   -1    0    0    0    0 -0.00000000000E+00 -0.00000000000E+00 -0.45593999997E+02  0.45594000000E+02  0.51100000000E-03 0. -1.
    9900012    2    1    2    0    0 -0.92033342784E+01 -0.42104217564E+02  0.51143631967E+01  0.47787271787E+02  0.20000003386E+02 0.  0.
         12    1    1    2    0    0  0.92033342784E+01  0.42104217564E+02 -0.51143631967E+01  0.43400728213E+02  0.00000000000E+00 0. -1.
         11    1    3    3    0    0  0.40867295389E+01 -0.10244138611E+02  0.62774607041E+01  0.12690557409E+02  0.51100000000E-03 0.  1.
        -11    1    3    3    0    0 -0.11950831483E+02 -0.22312320113E+02  0.48334322383E+00  0.25315916394E+02  0.51100000000E-03 0. -1.
        -12    1    3    3    0    0 -0.13392323347E+01 -0.95477588403E+01 -0.16464407312E+01  0.97807979838E+01  0.00000000000E+00 0.  1.
</event>
<event>
 7    1  0.2412036E-009  0.4778727E+02  0.7816164E-02  0.1312668E+00
        -11   -1    0    0    0    0  0.00000000000E+00  0.00000000000E+00  0.45593999997E+02  0.45594000000E+02  0.51100000000E-03 0.  1.
         11   -1    0    0    0    0 -0.00000000000E+00 -0.00000000000E+00 -0.45593999997E+02  0.45594000000E+02  0.51100000000E-03 0. -1.
    9900012    2    1    2    0    0  0.27892628696E+02  0.33095625819E+02 -0.32100416947E+01  0.47787267845E+02  0.19999985414E+02 0.  0.
         12    1    1    2    0    0 -0.27892628696E+02 -0.33095625819E+02  0.32100416947E+01  0.43400732155E+02  0.00000000000E+00 0. -1.
         11    1    3    3    0    0  0.15172611871E+02  0.27309897421E+02 -0.22424150439E+01  0.31321990257E+02  0.51100000000E-03 0. -1.
        -11    1    3    3    0    0 -0.26413330499E+00 -0.14932924251E+01  0.22144416278E+00  0.15325555286E+01  0.51100000000E-03 0.  1.
        -12    1    3    3    0    0  0.12984150130E+02  0.72790208227E+01 -0.11890708135E+01  0.14932722060E+02  0.00000000000E+00 0.  1.
</event>
<event>
 7    1  0.2412036E-009  0.4778727E+02  0.7816164E-02  0.1312668E+00
        -11   -1    0    0    0    0  0.00000000000E+00  0.00000000000E+00  0.45593999997E+02  0.45594000000E+02  0.51100000000E-03 0.  1.
         11   -1    0    0    0    0 -0.00000000000E+00 -0.00000000000E+00 -0.45593999997E+02  0.45594000000E+02  0.51100000000E-03 0. -1.
    9900012    2    1    2    0    0  0.90963408416E+01 -0.32826582572E+02  0.26894149356E+02  0.47787271785E+02  0.20000003375E+02 0.  0.
         12    1    1    2    0    0 -0.90963408416E+01  0.32826582572E+02 -0.26894149356E+02  0.43400728215E+02  0.00000000000E+00 0. -1.
         11    1    3    3    0    0 -0.92121417267E+00 -0.23211139643E+02  0.15301379285E+02  0.27816143647E+02  0.51100000000E-03 0. -1.
        -11    1    3    3    0    0  0.31177796483E+01 -0.87120933809E+01  0.73878891700E+01  0.11840693715E+02  0.51100000000E-03 0.  1.
         12    1    3    3    0    0  0.68997753659E+01 -0.90334954764E+00  0.42048809010E+01  0.81304344224E+01  0.00000000000E+00 0. -1.
</event>
<event>
 7    1  0.2412036E-009  0.4778727E+02  0.7816164E-02  0.1312668E+00
        -11   -1    0    0    0    0  0.00000000000E+00  0.00000000000E+00  0.45593999997E+02  0.45594000000E+02  0.51100000000E-03 0.  1.
         11   -1    0    0    0    0 -0.00000000000E+00 -0.00000000000E+00 -0.45593999997E+02  0.45594000000E+02  0.51100000000E-03 0. -1.
    9900012    2    1    2    0    0 -0.11024973346E+02  0.25093643111E+02  0.33650883766E+02  0.47787274890E+02  0.20000017534E+02 0.  0.
         12    1    1    2    0    0  0.11024973346E+02 -0.25093643111E+02 -0.33650883766E+02  0.43400725110E+02  0.00000000000E+00 0. -1.
         11    1    3    3    0    0 -0.25163955747E+01  0.51859798362E+01  0.17627173147E+02  0.18545723684E+02  0.51100000000E-03 0.  1.
        -11    1    3    3    0    0 -0.65146222303E+01  0.50816751545E+01  0.15110769918E+01  0.83992308645E+01  0.51100000000E-03 0. -1.
        -12    1    3    3    0    0 -0.19939555409E+01  0.14825988120E+02  0.14512633627E+02  0.20842320341E+02  0.00000000000E+00 0.  1.
</event>
<event>
 7    1  0.2412036E-009  0.4778727E+02  0.7816164E-02  0.1312668E+00
        -11   -1    0    0    0    0  0.00000000000E+00  0.00000000000E+00  0.45593999997E+02  0.45594000000E+02  0.51100000000E-03 0.  1.
         11   -1    0    0    0    0 -0.00000000000E+00 -0.00000000000E+00 -0.45593999997E+02  0.45594000000E+02  0.51100000000E-03 0. -1.
    9900012    2    1    2    0    0  0.19667691984E+02 -0.27042179015E+02  0.27668136630E+02  0.47787270301E+02  0.19999996610E+02 0.  0.
         12    1    1    2    0    0 -0.19667691984E+02  0.27042179015E+02 -0.27668136630E+02  0.43400729699E+02  0.00000000000E+00 0. -1.
         11    1    3    3    0    0  0.10981770242E+02 -0.17957203598E+02  0.26750225104E+02  0.34038727680E+02  0.51100000000E-03 0. -1.
        -11    1    3    3    0    0  0.66066335567E+01 -0.95158986793E+01  0.96457633854E+00  0.11624557729E+02  0.51100000000E-03 0.  1.
         12    1    3    3    0    0  0.20792881850E+01  0.43092326197E+00 -0.46664813161E-01  0.21239848914E+01  0.00000000000E+00 0. -1.
</event>
<event>
 7    1  0.2412036E-009  0.4778727E+02  0.7816164E-02  0.1312668E+00
        -11   -1    0    0    0    0  0.00000000000E+00  0.00000000000E+00  0.45593999997E+02  0.45594000000E+02  0.51100000000E-03 0. -1.
         11   -1    0    0    0    0 -0.00000000000E+00 -0.00000000000E+00 -0.45593999997E+02  0.45594000000E+02  0.51100000000E-03 0.  1.
    9900012    2    1    2    0    0 -0.25696161358E+02 -0.15852303509E+02 -0.31177476577E+02  0.47787270965E+02  0.19999999640E+02 0.  0.
         12    1    1    2    0    0  0.25696161358E+02  0.15852303509E+02  0.31177476577E+02  0.43400729035E+02  0.00000000000E+00 0. -1.
         11    1    3    3    0    0 -0.10643308556E+02 -0.13780446366E+01 -0.46082168211E+01  0.11679669797E+02  0.51100000000E-03 0. -1.
        -11    1    3    3    0    0 -0.66339400704E+01 -0.13237134012E+02 -0.11294205480E+02  0.18622297264E+02  0.51100000000E-03 0.  1.
        -12    1    3    3    0    0 -0.84189127313E+01 -0.12371248598E+01 -0.15275054276E+02  0.17485303904E+02  0.00000000000E+00 0.  1.
</event>
<event>
 7    1  0.2412036E-009  0.4778727E+02  0.7816164E-02  0.1312668E+00
        -11   -1    0    0    0    0  0.00000000000E+00  0.00000000000E+00  0.45593999997E+02  0.45594000000E+02  0.51100000000E-03 0.  1.
         11   -1    0    0    0    0 -0.00000000000E+00 -0.00000000000E+00 -0.45593999997E+02  0.45594000000E+02  0.51100000000E-03 0. -1.
    9900012    2    1    2    0    0  0.90862823546E+01 -0.36254348972E+01  0.42283790704E+02  0.47787271187E+02  0.20000000650E+02 0.  0.
         12    1    1    2    0    0 -0.90862823546E+01  0.36254348972E+01 -0.42283790704E+02  0.43400728813E+02  0.00000000000E+00 0. -1.
         11    1    3    3    0    0  0.40106314988E+01 -0.10510103535E+02  0.12888339882E+02  0.17107213289E+02  0.51100000000E-03 0. -1.
        -11    1    3    3    0    0  0.13324792859E+01  0.34165975287E+01  0.13177245146E+02  0.13678027257E+02  0.51100000000E-03 0.  1.
         12    1    3    3    0    0  0.37431715699E+01  0.34680711086E+01  0.16218205675E+02  0.17002030642E+02  0.00000000000E+00 0. -1.
</event>
<event>
 7    1  0.2412036E-009  0.4778728E+02  0.7816164E-02  0.1312668E+00
        -11   -1    0    0    0    0  0.00000000000E+00  0.00000000000E+00  0.45593999997E+02  0.45594000000E+02  0.51100000000E-03 0.  1.
         11   -1    0    0    0    0 -0.00000000000E+00 -0.00000000000E+00 -0.45593999997E+02  0.45594000000E+02  0.51100000000E-03 0. -1.
    9900012    2    1    2    0    0 -0.36256434920E+02 -0.86304631735E+01  0.22239799824E+02  0.47787278071E+02  0.20000032039E+02 0.  0.
         12    1    1    2    0    0  0.36256434920E+02  0.86304631735E+01 -0.22239799824E+02  0.43400721929E+02  0.00000000000E+00 0. -1.
         11    1    3    3    0    0 -0.32507618315E+01  0.23226502677E+01 -0.14064406840E+01  0.42355911523E+01  0.51100000000E-03 0. -1.
        -11    1    3    3    0    0 -0.17918126570E+02 -0.11264525157E+02  0.16593927795E+02  0.26894371655E+02  0.51100000000E-03 0.  1.
        -12    1    3    3    0    0 -0.15087546519E+02  0.31141171594E+00  0.70523127139E+01  0.16657315265E+02  0.00000000000E+00 0.  1.
</event>
<event>
 7    1  0.2412036E-009  0.4778727E+02  0.7816164E-02  0.1312668E+00
        -11   -1    0    0    0    0  0.00000000000E+00  0.00000000000E+00  0.45593999997E+02  0.45594000000E+02  0.51100000000E-03 0. -1.
         11   -1    0    0    0    0 -0.00000000000E+00 -0.00000000000E+00 -0.45593999997E+02  0.45594000000E+02  0.51100000000E-03 0.  1.
    9900012    2    1    2    0    0  0.29209613312E+02  0.30527762327E+02 -0.99235801048E+01  0.47787271612E+02  0.20000002586E+02 0.  0.
         12    1    1    2    0    0 -0.29209613312E+02 -0.30527762327E+02  0.99235801048E+01  0.43400728388E+02  0.00000000000E+00 0. -1.
         11    1    3    3    0    0  0.95104881937E+01  0.23814386510E+02 -0.74894476293E+01  0.26714531936E+02  0.51100000000E-03 0. -1.
        -11    1    3    3    0    0  0.10035879770E+02  0.36280188004E+01 -0.23564101333E+01  0.10928589669E+02  0.51100000000E-03 0.  1.
         12    1    3    3    0    0  0.96632453491E+01  0.30853570166E+01 -0.77722342146E-01  0.10144150007E+02  0.00000000000E+00 0. -1.
</event>
<event>
 7    1  0.2412036E-009  0.4778727E+02  0.7816164E-02  0.1312668E+00
        -11   -1    0    0    0    0  0.00000000000E+00  0.00000000000E+00  0.45593999997E+02  0.45594000000E+02  0.51100000000E-03 0. -1.
         11   -1    0    0    0    0 -0.00000000000E+00 -0.00000000000E+00 -0.45593999997E+02  0.45594000000E+02  0.51100000000E-03 0.  1.
    9900012    2    1    2    0    0 -0.24076152208E+02  0.22711077427E+02 -0.28074351576E+02  0.47787270059E+02  0.19999995507E+02 0.  0.
         12    1    1    2    0    0  0.24076152208E+02 -0.22711077427E+02  0.28074351576E+02  0.43400729941E+02  0.00000000000E+00 0. -1.
         11    1    3    3    0    0 -0.66634605948E+01 -0.50100977732E+00 -0.63676520654E+00  0.67125396151E+01  0.51100000000E-03 0. -1.
        -11    1    3    3    0    0 -0.17816536322E+02  0.22870073430E+02 -0.27998434969E+02  0.40303617532E+02  0.51100000000E-03 0.  1.
        -12    1    3    3    0    0  0.40384470941E+00  0.34201377398E+00  0.56084859943E+00  0.77111291157E+00  0.00000000000E+00 0.  1.
</event>
<event>
 7    1  0.2412036E-009  0.4778728E+02  0.7816164E-02  0.1312668E+00
        -11   -1    0    0    0    0  0.00000000000E+00  0.00000000000E+00  0.45593999997E+02  0.45594000000E+02  0.51100000000E-03 0.  1.
         11   -1    0    0    0    0 -0.00000000000E+00 -0.00000000000E+00 -0.45593999997E+02  0.45594000000E+02  0.51100000000E-03 0. -1.
    9900012    2    1    2    0    0 -0.32444829645E+02 -0.24519875003E+02 -0.15156892874E+02  0.47787278319E+02  0.20000033167E+02 0.  0.
         12    1    1    2    0    0  0.32444829645E+02  0.24519875003E+02  0.15156892874E+02  0.43400721681E+02  0.00000000000E+00 0. -1.
         11    1    3    3    0    0 -0.20725753357E+02 -0.11981838855E+02  0.57037510344E+00  0.23946745971E+02  0.51100000000E-03 0. -1.
        -11    1    3    3    0    0 -0.76052261867E+01 -0.81235543975E+01 -0.67224707844E+01  0.13000892858E+02  0.51100000000E-03 0.  1.
         12    1    3    3    0    0 -0.41138501008E+01 -0.44144817507E+01 -0.90047971934E+01  0.10839639490E+02  0.00000000000E+00 0. -1.
</event>
<event>
 7    1  0.2412036E-009  0.4778727E+02  0.7816164E-02  0.1312668E+00
        -11   -1    0    0    0    0  0.00000000000E+00  0.00000000000E+00  0.45593999997E+02  0.45594000000E+02  0.51100000000E-03 0. -1.
         11   -1    0    0    0    0 -0.00000000000E+00 -0.00000000000E+00 -0.45593999997E+02  0.45594000000E+02  0.51100000000E-03 0.  1.
    9900012    2    1    2    0    0  0.19655946788E+02 -0.24931717139E+02 -0.29591832050E+02  0.47787270885E+02  0.19999999271E+02 0.  0.
         12    1    1    2    0    0 -0.19655946788E+02  0.24931717139E+02  0.29591832050E+02  0.43400729115E+02  0.00000000000E+00 0. -1.
         11    1    3    3    0    0  0.15913899976E+02 -0.97891356705E+01 -0.74459449777E+01  0.20112719520E+02  0.51100000000E-03 0. -1.
        -11    1    3    3    0    0 -0.31468337383E+00 -0.69289970550E+01 -0.62945915930E+01  0.93665313429E+01  0.51100000000E-03 0.  1.
         12    1    3    3    0    0  0.40567301855E+01 -0.82135844140E+01 -0.15851295480E+02  0.18308020021E+02  0.00000000000E+00 0. -1.
</event>
<event>
 7    1  0.2412036E-009  0.4778727E+02  0.7816164E-02  0.1312668E+00
        -11   -1    0    0    0    0  0.00000000000E+00  0.00000000000E+00  0.45593999997E+02  0.45594000000E+02  0.51100000000E-03 0.  1.
         11   -1    0    0    0    0 -0.00000000000E+00 -0.00000000000E+00 -0.45593999997E+02  0.45594000000E+02  0.51100000000E-03 0. -1.
    9900012    2    1    2    0    0 -0.10940219533E+02 -0.41858335382E+02  0.34372375683E+01  0.47787271360E+02  0.20000001441E+02 0.  0.
         12    1    1    2    0    0  0.10940219533E+02  0.41858335382E+02 -0.34372375683E+01  0.43400728640E+02  0.00000000000E+00 0. -1.
         11    1    3    3    0    0 -0.27913883266E+01  0.29066473468E+00  0.74122067188E+00  0.29027130625E+01  0.51100000000E-03 0. -1.
        -11    1    3    3    0    0 -0.97074606911E-01 -0.26981213858E+02  0.53544938661E+01  0.27507561316E+02  0.51100000000E-03 0.  1.
        -12    1    3    3    0    0 -0.80517565991E+01 -0.15167786259E+02 -0.26584769696E+01  0.17376996982E+02  0.00000000000E+00 0.  1.
</event>
<event>
 7    1  0.2412036E-009  0.4778727E+02  0.7816164E-02  0.1312668E+00
        -11   -1    0    0    0    0  0.00000000000E+00  0.00000000000E+00  0.45593999997E+02  0.45594000000E+02  0.51100000000E-03 0.  1.
         11   -1    0    0    0    0 -0.00000000000E+00 -0.00000000000E+00 -0.45593999997E+02  0.45594000000E+02  0.51100000000E-03 0. -1.
    9900012    2    1    2    0    0 -0.31945837986E+02 -0.27134546095E+02  0.11260686120E+02  0.47787271800E+02  0.20000003446E+02 0.  0.
         12    1    1    2    0    0  0.31945837986E+02  0.27134546095E+02 -0.11260686120E+02  0.43400728200E+02  0.00000000000E+00 0. -1.
         11    1    3    3    0    0 -0.31374140640E+02 -0.20998615612E+02  0.78591715100E+01  0.38562224205E+02  0.51100000000E-03 0. -1.
        -11    1    3    3    0    0  0.10271190184E+01 -0.11912150768E+01  0.36992516456E+01  0.40197549472E+01  0.51100000000E-03 0.  1.
         12    1    3    3    0    0 -0.15988163639E+01 -0.49447154061E+01 -0.29773703588E+00  0.52052926484E+01  0.00000000000E+00 0. -1.
</event>
<event>
 7    1  0.2412036E-009  0.4778727E+02  0.7816164E-02  0.1312668E+00
        -11   -1    0    0    0    0  0.00000000000E+00  0.00000000000E+00  0.45593999997E+02  0.45594000000E+02  0.51100000000E-03 0. -1.
         11   -1    0    0    0    0 -0.00000000000E+00 -0.00000000000E+00 -0.45593999997E+02  0.45594000000E+02  0.51100000000E-03 0.  1.
    9900012    2    1    2    0    0  0.96303550079E+01 -0.31265646814E+02 -0.28519099227E+02  0.47787269257E+02  0.19999991851E+02 0.  0.
         12    1    1    2    0    0 -0.96303550079E+01  0.31265646814E+02  0.28519099227E+02  0.43400730743E+02  0.00000000000E+00 0. -1.
         11    1    3    3    0    0  0.78436566038E+01 -0.11460046387E+02 -0.24597626221E+01  0.14103405423E+02  0.51100000000E-03 0. -1.
        -11    1    3    3    0    0 -0.19175227815E+01 -0.62947220580E+01 -0.12811088063E+02  0.14402235834E+02  0.51100000000E-03 0.  1.
         12    1    3    3    0    0  0.37042211856E+01 -0.13510878369E+02 -0.13248248542E+02  0.19281628000E+02  0.00000000000E+00 0. -1.
</event>
<event>
 7    1  0.2412036E-009  0.4778729E+02  0.7816164E-02  0.1312668E+00
        -11   -1    0    0    0    0  0.00000000000E+00  0.00000000000E+00  0.45593999997E+02  0.45594000000E+02  0.51100000000E-03 0.  1.
         11   -1    0    0    0    0 -0.00000000000E+00 -0.00000000000E+00 -0.45593999997E+02  0.45594000000E+02  0.51100000000E-03 0. -1.
    9900012    2    1    2    0    0  0.80206154597E+01  0.93849237226E+01  0.41607871689E+02  0.47787285120E+02  0.20000064174E+02 0.  0.
         12    1    1    2    0    0 -0.80206154597E+01 -0.93849237226E+01 -0.41607871689E+02  0.43400714880E+02  0.00000000000E+00 0. -1.
         11    1    3    3    0    0  0.40100084465E+01  0.48751472440E+01  0.16569518989E+01  0.65263096960E+01  0.51100000000E-03 0. -1.
        -11    1    3    3    0    0  0.15569880735E+01  0.36690258689E+01  0.37438188238E+02  0.37649753007E+02  0.51100000000E-03 0.  1.
        -12    1    3    3    0    0  0.24536189396E+01  0.84075060962E+00  0.25127315525E+01  0.36112224168E+01  0.00000000000E+00 0.  1.
</event>
<event>
 7    1  0.2412036E-009  0.4778728E+02  0.7816164E-02  0.1312668E+00
        -11   -1    0    0    0    0  0.00000000000E+00  0.00000000000E+00  0.45593999997E+02  0.45594000000E+02  0.51100000000E-03 0.  1.
         11   -1    0    0    0    0 -0.00000000000E+00 -0.00000000000E+00 -0.45593999997E+02  0.45594000000E+02  0.51100000000E-03 0. -1.
    9900012    2    1    2    0    0  0.10364465092E+02 -0.27626268001E+02  0.31827503904E+02  0.47787276215E+02  0.20000023576E+02 0.  0.
         12    1    1    2    0    0 -0.10364465092E+02  0.27626268001E+02 -0.31827503904E+02  0.43400723785E+02  0.00000000000E+00 0. -1.
         11    1    3    3    0    0  0.75514707527E+01 -0.17078979128E+02  0.90028546808E+01  0.20730837688E+02  0.51100000000E-03 0. -1.
        -11    1    3    3    0    0  0.48157463332E+01 -0.26682087028E+01  0.48833521692E+01  0.73592037000E+01  0.51100000000E-03 0.  1.
         12    1    3    3    0    0 -0.20027519938E+01 -0.78790801702E+01  0.17941297053E+02  0.19697234827E+02  0.00000000000E+00 0. -1.
</event>
<event>
 7    1  0.2412036E-009  0.4778729E+02  0.7816164E-02  0.1312668E+00
        -11   -1    0    0    0    0  0.00000000000E+00  0.00000000000E+00  0.45593999997E+02  0.45594000000E+02  0.51100000000E-03 0. -1.
         11   -1    0    0    0    0 -0.00000000000E+00 -0.00000000000E+00 -0.45593999997E+02  0.45594000000E+02  0.51100000000E-03 0.  1.
    9900012    2    1    2    0    0 -0.16212080239E+02  0.38266737604E+02  0.12507871845E+02  0.47787290206E+02  0.20000087366E+02 0.  0.
         12    1    1    2    0    0  0.16212080239E+02 -0.38266737604E+02 -0.12507871845E+02  0.43400709794E+02  0.00000000000E+00 0. -1.
         11    1    3    3    0    0 -0.62211636267E+01  0.68016965692E+00  0.38015040277E+01  0.73223589619E+01  0.51100000000E-03 0. -1.
        -11    1    3    3    0    0 -0.97423719362E+00  0.17096057366E+02  0.41449104354E+01  0.17618302936E+02  0.51100000000E-03 0.  1.
        -12    1    3    3    0    0 -0.90166794186E+01  0.20490510581E+02  0.45614573815E+01  0.22846628308E+02  0.00000000000E+00 0.  1.
</event>
<event>
 7    1  0.2412036E-009  0.4778727E+02  0.7816164E-02  0.1312668E+00
        -11   -1    0    0    0    0  0.00000000000E+00  0.00000000000E+00  0.45593999997E+02  0.45594000000E+02  0.51100000000E-03 0.  1.
         11   -1    0    0    0    0 -0.00000000000E+00 -0.00000000000E+00 -0.45593999997E+02  0.45594000000E+02  0.51100000000E-03 0. -1.
    9900012    2    1    2    0    0  0.22838449024E+02 -0.17950819699E+02  0.32245877872E+02  0.47787270497E+02  0.19999997503E+02 0.  0.
         12    1    1    2    0    0 -0.22838449024E+02  0.17950819699E+02 -0.32245877872E+02  0.43400729503E+02  0.00000000000E+00 0. -1.
         11    1    3    3    0    0  0.20722604125E+02 -0.16972651686E+02  0.25969010888E+02  0.37307998522E+02  0.51100000000E-03 0. -1.
        -11    1    3    3    0    0  0.90402957164E+00 -0.38899093397E+01  0.61374343970E+01  0.73223469855E+01  0.51100000000E-03 0.  1.
         12    1    3    3    0    0  0.12118153272E+01  0.29117413266E+01  0.13943258687E+00  0.31569249891E+01  0.00000000000E+00 0. -1.
</event>
<event>
 7    1  0.2412036E-009  0.4778727E+02  0.7816164E-02  0.1312668E+00
        -11   -1    0    0    0    0  0.00000000000E+00  0.00000000000E+00  0.45593999997E+02  0.45594000000E+02  0.51100000000E-03 0.  1.
         11   -1    0    0    0    0 -0.00000000000E+00 -0.00000000000E+00 -0.45593999997E+02  0.45594000000E+02  0.51100000000E-03 0. -1.
    9900012    2    1    2    0    0  0.84117857814E+01  0.16065682872E+02  0.39430430727E+02  0.47787272201E+02  0.20000005275E+02 0.  0.
         12    1    1    2    0    0 -0.84117857814E+01 -0.16065682872E+02 -0.39430430727E+02  0.43400727799E+02  0.00000000000E+00 0. -1.
         11    1    3    3    0    0 -0.64175870265E+01  0.64147063516E+01  0.11441608751E+02  0.14602886423E+02  0.51100000000E-03 0.  1.
        -11    1    3    3    0    0  0.11359218090E+02  0.73626106900E+01  0.19572559438E+02  0.23797582966E+02  0.51100000000E-03 0. -1.
        -12    1    3    3    0    0  0.34701547179E+01  0.22883658303E+01  0.84162625375E+01  0.93868028124E+01  0.00000000000E+00 0.  1.
</event>
<event>
 7    1  0.2412036E-009  0.4778727E+02  0.7816164E-02  0.1312668E+00
        -11   -1    0    0    0    0  0.00000000000E+00  0.00000000000E+00  0.45593999997E+02  0.45594000000E+02  0.51100000000E-03 0.  1.
         11   -1    0    0    0    0 -0.00000000000E+00 -0.00000000000E+00 -0.45593999997E+02  0.45594000000E+02  0.51100000000E-03 0. -1.
    9900012    2    1    2    0    0  0.32497685592E+02 -0.50894965660E+01  0.28312906833E+02  0.47787271464E+02  0.20000001913E+02 0.  0.
         12    1    1    2    0    0 -0.32497685592E+02  0.50894965660E+01 -0.28312906833E+02  0.43400728536E+02  0.00000000000E+00 0. -1.
         11    1    3    3    0    0  0.22273465792E+02  0.33062730224E+01  0.21217201455E+02  0.30938784034E+02  0.51100000000E-03 0.  1.
        -11    1    3    3    0    0 -0.56008742117E+00 -0.32944674422E+01  0.13067400834E+01  0.35881448625E+01  0.51100000000E-03 0. -1.
         12    1    3    3    0    0  0.10784307221E+02 -0.51013021461E+01  0.57889652949E+01  0.13260342567E+02  0.00000000000E+00 0. -1.
</event>
<event>
 7    1  0.2412036E-009  0.4778726E+02  0.7816164E-02  0.1312668E+00
        -11   -1    0    0    0    0  0.00000000000E+00  0.00000000000E+00  0.45593999997E+02  0.45594000000E+02  0.51100000000E-03 0. -1.
         11   -1    0    0    0    0 -0.00000000000E+00 -0.00000000000E+00 -0.45593999997E+02  0.45594000000E+02  0.51100000000E-03 0.  1.
    9900012    2    1    2    0    0 -0.17589268245E+02 -0.29639588495E+01 -0.39565850320E+02  0.47787263589E+02  0.19999966007E+02 0.  0.
         12    1    1    2    0    0  0.17589268245E+02  0.29639588495E+01  0.39565850320E+02  0.43400736411E+02  0.00000000000E+00 0. -1.
         11    1    3    3    0    0 -0.16691090811E+02 -0.35895795334E+01 -0.17574547999E+02  0.24501884240E+02  0.51100000000E-03 0. -1.
        -11    1    3    3    0    0 -0.14068881563E+01 -0.17629384457E+01 -0.16415632334E+01  0.27896265624E+01  0.51100000000E-03 0.  1.
         12    1    3    3    0    0  0.50871072244E+00  0.23885591295E+01 -0.20349739088E+02  0.20495752786E+02  0.00000000000E+00 0. -1.
</event>
<event>
 7    1  0.2412036E-009  0.4778727E+02  0.7816164E-02  0.1312668E+00
        -11   -1    0    0    0    0  0.00000000000E+00  0.00000000000E+00  0.45593999997E+02  0.45594000000E+02  0.51100000000E-03 0. -1.
         11   -1    0    0    0    0 -0.00000000000E+00 -0.00000000000E+00 -0.45593999997E+02  0.45594000000E+02  0.51100000000E-03 0.  1.
    9900012    2    1    2    0    0 -0.19136172940E+01 -0.65985659325E+01 -0.42853473939E+02  0.47787271525E+02  0.20000002190E+02 0.  0.
         12    1    1    2    0    0  0.19136172940E+01  0.65985659325E+01  0.42853473939E+02  0.43400728475E+02  0.00000000000E+00 0. -1.
         11    1    3    3    0    0  0.21664190915E+00  0.38377996549E+01 -0.10905777356E+01  0.39956226006E+01  0.51100000000E-03 0. -1.
        -11    1    3    3    0    0 -0.48948939120E+01 -0.60256282775E+01 -0.21090863504E+02  0.22474267645E+02  0.51100000000E-03 0.  1.
        -12    1    3    3    0    0  0.27646347089E+01 -0.44107373100E+01 -0.20672032700E+02  0.21317381280E+02  0.00000000000E+00 0.  1.
</event>
<event>
 7    1  0.2412036E-009  0.4778727E+02  0.7816164E-02  0.1312668E+00
        -11   -1    0    0    0    0  0.00000000000E+00  0.00000000000E+00  0.45593999997E+02  0.45594000000E+02  0.51100000000E-03 0.  1.
         11   -1    0    0    0    0 -0.00000000000E+00 -0.00000000000E+00 -0.45593999997E+02  0.45594000000E+02  0.51100000000E-03 0. -1.
    9900012    2    1    2    0    0 -0.27394026206E+02 -0.54645022471E-01  0.33662857379E+02  0.47787267002E+02  0.19999981570E+02 0.  0.
         12    1    1    2    0    0  0.27394026206E+02  0.54645022471E-01 -0.33662857379E+02  0.43400732998E+02  0.00000000000E+00 0. -1.
         11    1    3    3    0    0 -0.83926467625E+00 -0.22329654627E+01  0.30425230219E+01  0.38661927725E+01  0.51100000000E-03 0. -1.
        -11    1    3    3    0    0 -0.10360218954E+02  0.44073059161E-01  0.24282046600E+02  0.26399883836E+02  0.51100000000E-03 0.  1.
        -12    1    3    3    0    0 -0.16194542576E+02  0.21342473811E+01  0.63382877568E+01  0.17521190394E+02  0.00000000000E+00 0.  1.
</event>
<event>
 7    1  0.2412036E-009  0.4778728E+02  0.7816164E-02  0.1312668E+00
        -11   -1    0    0    0    0  0.00000000000E+00  0.00000000000E+00  0.45593999997E+02  0.45594000000E+02  0.51100000000E-03 0.  1.
         11   -1    0    0    0    0 -0.00000000000E+00 -0.00000000000E+00 -0.45593999997E+02  0.45594000000E+02  0.51100000000E-03 0. -1.
    9900012    2    1    2    0    0  0.81599849318E+01  0.35003462113E+02  0.24326837721E+02  0.47787277109E+02  0.20000027649E+02 0.  0.
         12    1    1    2    0    0 -0.81599849318E+01 -0.35003462113E+02 -0.24326837721E+02  0.43400722891E+02  0.00000000000E+00 0. -1.
         11    1    3    3    0    0  0.77940801875E+01  0.39089271354E+01  0.88728647953E+01  0.12440061385E+02  0.51100000000E-03 0. -1.
        -11    1    3    3    0    0  0.34606414898E+01  0.16696259737E+02  0.78134883391E+01  0.18756111778E+02  0.51100000000E-03 0.  1.
         12    1    3    3    0    0 -0.30947367455E+01  0.14398275241E+02  0.76404845863E+01  0.16591103946E+02  0.00000000000E+00 0. -1.
</event>
<event>
 7    1  0.2412036E-009  0.4778727E+02  0.7816164E-02  0.1312668E+00
        -11   -1    0    0    0    0  0.00000000000E+00  0.00000000000E+00  0.45593999997E+02  0.45594000000E+02  0.51100000000E-03 0.  1.
         11   -1    0    0    0    0 -0.00000000000E+00 -0.00000000000E+00 -0.45593999997E+02  0.45594000000E+02  0.51100000000E-03 0. -1.
    9900012    2    1    2    0    0  0.18249039172E+02  0.30109551648E+02  0.25377368596E+02  0.47787269960E+02  0.19999995054E+02 0.  0.
         12    1    1    2    0    0 -0.18249039172E+02 -0.30109551648E+02 -0.25377368596E+02  0.43400730040E+02  0.00000000000E+00 0. -1.
         11    1    3    3    0    0  0.30476530669E+01  0.79106711663E+01  0.10500430293E+02  0.13495404556E+02  0.51100000000E-03 0. -1.
        -11    1    3    3    0    0  0.11681162152E+02  0.73084187106E+01  0.13078363564E+01  0.13840988746E+02  0.51100000000E-03 0.  1.
        -12    1    3    3    0    0  0.35202239537E+01  0.14890461771E+02  0.13569101947E+02  0.20450876658E+02  0.00000000000E+00 0.  1.
</event>
<event>
 7    1  0.2412036E-009  0.4778727E+02  0.7816164E-02  0.1312668E+00
        -11   -1    0    0    0    0  0.00000000000E+00  0.00000000000E+00  0.45593999997E+02  0.45594000000E+02  0.51100000000E-03 0. -1.
         11   -1    0    0    0    0 -0.00000000000E+00 -0.00000000000E+00 -0.45593999997E+02  0.45594000000E+02  0.51100000000E-03 0.  1.
    9900012    2    1    2    0    0 -0.22730398798E+02  0.34208589011E+02 -0.14025851133E+02  0.47787273144E+02  0.20000009574E+02 0.  0.
         12    1    1    2    0    0  0.22730398798E+02 -0.34208589011E+02  0.14025851133E+02  0.43400726856E+02  0.00000000000E+00 0. -1.
         11    1    3    3    0    0  0.21095850108E+01  0.76651536734E+01  0.13281754059E+01  0.80603337354E+01  0.51100000000E-03 0. -1.
        -11    1    3    3    0    0 -0.12730240197E+02  0.16588690548E+02 -0.98327348273E+01  0.23106846258E+02  0.51100000000E-03 0.  1.
         12    1    3    3    0    0 -0.12109743612E+02  0.99547447895E+01 -0.55212917114E+01  0.16620093151E+02  0.00000000000E+00 0. -1.
</event>
<event>
 7    1  0.2412036E-009  0.4778728E+02  0.7816164E-02  0.1312668E+00
        -11   -1    0    0    0    0  0.00000000000E+00  0.00000000000E+00  0.45593999997E+02  0.45594000000E+02  0.51100000000E-03 0.  1.
         11   -1    0    0    0    0 -0.00000000000E+00 -0.00000000000E+00 -0.45593999997E+02  0.45594000000E+02  0.51100000000E-03 0. -1.
    9900012    2    1    2    0    0 -0.28344698438E+02 -0.23742283406E+02  0.22726745063E+02  0.47787275444E+02  0.20000020059E+02 0.  0.
         12    1    1    2    0    0  0.28344698438E+02  0.23742283406E+02 -0.22726745063E+02  0.43400724556E+02  0.00000000000E+00 0. -1.
         11    1    3    3    0    0 -0.26869208664E+00 -0.33693511055E+01 -0.31825623940E+00  0.33949977326E+01  0.51100000000E-03 0. -1.
        -11    1    3    3    0    0 -0.22207614383E+02 -0.13912269380E+02  0.87208790456E+01  0.27618528337E+02  0.51100000000E-03 0.  1.
        -12    1    3    3    0    0 -0.58683919676E+01 -0.64606629208E+01  0.14324122257E+02  0.16773749375E+02  0.00000000000E+00 0.  1.
</event>
<event>
 7    1  0.2412036E-009  0.4778728E+02  0.7816164E-02  0.1312668E+00
        -11   -1    0    0    0    0  0.00000000000E+00  0.00000000000E+00  0.45593999997E+02  0.45594000000E+02  0.51100000000E-03 0.  1.
         11   -1    0    0    0    0 -0.00000000000E+00 -0.00000000000E+00 -0.45593999997E+02  0.45594000000E+02  0.51100000000E-03 0. -1.
    9900012    2    1    2    0    0  0.32139077034E+02 -0.13468439629E+02  0.25870902858E+02  0.47787277041E+02  0.20000027341E+02 0.  0.
         12    1    1    2    0    0 -0.32139077034E+02  0.13468439629E+02 -0.25870902858E+02  0.43400722959E+02  0.00000000000E+00 0. -1.
         11    1    3    3    0    0  0.16421445023E+00  0.10074013852E+01  0.11590838149E+01  0.15444414808E+01  0.51100000000E-03 0. -1.
        -11    1    3    3    0    0  0.31112536388E+00 -0.69258281020E+00 -0.22857879750E+01  0.24085881484E+01  0.51100000000E-03 0.  1.
        -12    1    3    3    0    0  0.31663737220E+02 -0.13783258204E+02  0.26997607018E+02  0.43834247412E+02  0.00000000000E+00 0.  1.
</event>
<event>
 7    1  0.2412036E-009  0.4778728E+02  0.7816164E-02  0.1312668E+00
        -11   -1    0    0    0    0  0.00000000000E+00  0.00000000000E+00  0.45593999997E+02  0.45594000000E+02  0.51100000000E-03 0.  1.
         11   -1    0    0    0    0 -0.00000000000E+00 -0.00000000000E+00 -0.45593999997E+02  0.45594000000E+02  0.51100000000E-03 0. -1.
    9900012    2    1    2    0    0 -0.12970727243E+02 -0.37504399937E+02  0.17572795722E+02  0.47787275014E+02  0.20000018100E+02 0.  0.
         12    1    1    2    0    0  0.12970727243E+02  0.37504399937E+02 -0.17572795722E+02  0.43400724986E+02  0.00000000000E+00 0. -1.
         11    1    3    3    0    0 -0.57121102677E+01 -0.13162067549E+02 -0.99053860499E+00  0.14382259658E+02  0.51100000000E-03 0. -1.
        -11    1    3    3    0    0  0.12369329122E+01 -0.15354787780E+02  0.10206639388E+02  0.18479042147E+02  0.51100000000E-03 0.  1.
         12    1    3    3    0    0 -0.84955498876E+01 -0.89875446075E+01  0.83566949389E+01  0.14925973210E+02  0.00000000000E+00 0. -1.
</event>
<event>
 7    1  0.2412036E-009  0.4778727E+02  0.7816164E-02  0.1312668E+00
        -11   -1    0    0    0    0  0.00000000000E+00  0.00000000000E+00  0.45593999997E+02  0.45594000000E+02  0.51100000000E-03 0.  1.
         11   -1    0    0    0    0 -0.00000000000E+00 -0.00000000000E+00 -0.45593999997E+02  0.45594000000E+02  0.51100000000E-03 0. -1.
    9900012    2    1    2    0    0 -0.41102639864E+02 -0.13877331710E+02  0.12712745364E+01  0.47787268692E+02  0.19999989272E+02 0.  0.
         12    1    1    2    0    0  0.41102639864E+02  0.13877331710E+02 -0.12712745364E+01  0.43400731308E+02  0.00000000000E+00 0. -1.
         11    1    3    3    0    0 -0.28983885033E+02 -0.10141638905E+02  0.53951077015E+01  0.31177325393E+02  0.51100000000E-03 0.  1.
        -11    1    3    3    0    0 -0.83806906280E+01  0.23417489422E+01 -0.37199788121E+01  0.94635091871E+01  0.51100000000E-03 0. -1.
        -12    1    3    3    0    0 -0.37380642033E+01 -0.60774417472E+01 -0.40385435304E+00  0.71464341119E+01  0.00000000000E+00 0.  1.
</event>
<event>
 7    1  0.2412036E-009  0.4778727E+02  0.7816164E-02  0.1312668E+00
        -11   -1    0    0    0    0  0.00000000000E+00  0.00000000000E+00  0.45593999997E+02  0.45594000000E+02  0.51100000000E-03 0.  1.
         11   -1    0    0    0    0 -0.00000000000E+00 -0.00000000000E+00 -0.45593999997E+02  0.45594000000E+02  0.51100000000E-03 0. -1.
    9900012    2    1    2    0    0  0.32042802906E+02 -0.22068167102E+02  0.19232213872E+02  0.47787271115E+02  0.20000000323E+02 0.  0.
         12    1    1    2    0    0 -0.32042802906E+02  0.22068167102E+02 -0.19232213872E+02  0.43400728885E+02  0.00000000000E+00 0. -1.
         11    1    3    3    0    0  0.22873817432E+02 -0.16453443155E+02  0.46877177812E+01  0.28563998562E+02  0.51100000000E-03 0. -1.
        -11    1    3    3    0    0  0.27979853571E+00 -0.23686403945E+01  0.76048490984E+00  0.25034140885E+01  0.51100000000E-03 0.  1.
         12    1    3    3    0    0  0.88891869380E+01 -0.32460835522E+01  0.13784011181E+02  0.16719858465E+02  0.00000000000E+00 0. -1.
</event>
<event>
 7    1  0.2412036E-009  0.4778728E+02  0.7816164E-02  0.1312668E+00
        -11   -1    0    0    0    0  0.00000000000E+00  0.00000000000E+00  0.45593999997E+02  0.45594000000E+02  0.51100000000E-03 0.  1.
         11   -1    0    0    0    0 -0.00000000000E+00 -0.00000000000E+00 -0.45593999997E+02  0.45594000000E+02  0.51100000000E-03 0. -1.
    9900012    2    1    2    0    0  0.21659850046E+02 -0.26566235279E+02  0.26621578508E+02  0.47787281076E+02  0.20000045737E+02 0.  0.
         12    1    1    2    0    0 -0.21659850046E+02  0.26566235279E+02 -0.26621578508E+02  0.43400718924E+02  0.00000000000E+00 0. -1.
         11    1    3    3    0    0 -0.10000383965E+01 -0.24045255896E+01 -0.17852910533E+01  0.31573857084E+01  0.51100000000E-03 0. -1.
        -11    1    3    3    0    0  0.52504762703E+01 -0.35990256609E+01  0.10501111072E+02  0.12279813548E+02  0.51100000000E-03 0.  1.
         12    1    3    3    0    0  0.17409412172E+02 -0.20562684028E+02  0.17905758489E+02  0.32350081819E+02  0.00000000000E+00 0. -1.
</event>
<event>
 7    1  0.2412036E-009  0.4778727E+02  0.7816164E-02  0.1312668E+00
        -11   -1    0    0    0    0  0.00000000000E+00  0.00000000000E+00  0.45593999997E+02  0.45594000000E+02  0.51100000000E-03 0. -1.
         11   -1    0    0    0    0 -0.00000000000E+00 -0.00000000000E+00 -0.45593999997E+02  0.45594000000E+02  0.51100000000E-03 0.  1.
    9900012    2    1    2    0    0  0.41482457119E+02  0.12402697168E+02 -0.30004142703E+01  0.47787266925E+02  0.19999981219E+02 0.  0.
         12    1    1    2    0    0 -0.41482457119E+02 -0.12402697168E+02  0.30004142703E+01  0.43400733075E+02  0.00000000000E+00 0. -1.
         11    1    3    3    0    0  0.21222037499E+02  0.12776301019E+02 -0.14636716305E+01  0.24814332113E+02  0.51100000000E-03 0. -1.
        -11    1    3    3    0    0  0.83118827435E+01 -0.50500141053E+01 -0.26878879345E+01  0.10090330967E+02  0.51100000000E-03 0.  1.
         12    1    3    3    0    0  0.11948536876E+02  0.46764102544E+01  0.11511452947E+01  0.12882603845E+02  0.00000000000E+00 0. -1.
</event>
<event>
 7    1  0.2412036E-009  0.4778727E+02  0.7816164E-02  0.1312668E+00
        -11   -1    0    0    0    0  0.00000000000E+00  0.00000000000E+00  0.45593999997E+02  0.45594000000E+02  0.51100000000E-03 0.  1.
         11   -1    0    0    0    0 -0.00000000000E+00 -0.00000000000E+00 -0.45593999997E+02  0.45594000000E+02  0.51100000000E-03 0. -1.
    9900012    2    1    2    0    0  0.14104200982E+02 -0.19041784425E+02  0.36360765752E+02  0.47787270450E+02  0.19999997290E+02 0.  0.
         12    1    1    2    0    0 -0.14104200982E+02  0.19041784425E+02 -0.36360765752E+02  0.43400729550E+02  0.00000000000E+00 0. -1.
         11    1    3    3    0    0  0.13115697862E+02 -0.10197073455E+02  0.14681440236E+02  0.22170848543E+02  0.51100000000E-03 0. -1.
        -11    1    3    3    0    0  0.21485641064E+01 -0.58876009722E+01  0.21543904242E+02  0.22437022600E+02  0.51100000000E-03 0.  1.
         12    1    3    3    0    0 -0.11600609863E+01 -0.29571099978E+01  0.13542127394E+00  0.31793993069E+01  0.00000000000E+00 0. -1.
</event>
<event>
 7    1  0.2412036E-009  0.4778727E+02  0.7816164E-02  0.1312668E+00
        -11   -1    0    0    0    0  0.00000000000E+00  0.00000000000E+00  0.45593999997E+02  0.45594000000E+02  0.51100000000E-03 0. -1.
         11   -1    0    0    0    0 -0.00000000000E+00 -0.00000000000E+00 -0.45593999997E+02  0.45594000000E+02  0.51100000000E-03 0.  1.
    9900012    2    1    2    0    0  0.24968284262E+02 -0.13219629824E+02 -0.32946159896E+02  0.47787270933E+02  0.19999999491E+02 0.  0.
         12    1    1    2    0    0 -0.24968284262E+02  0.13219629824E+02  0.32946159896E+02  0.43400729067E+02  0.00000000000E+00 0. -1.
         11    1    3    3    0    0 -0.28590584949E+01 -0.66183018751E+00 -0.59821431714E+01  0.66632028229E+01  0.51100000000E-03 0. -1.
        -11    1    3    3    0    0  0.17064992776E+02 -0.73671189245E+01 -0.19957951524E+02  0.27272848201E+02  0.51100000000E-03 0.  1.
         12    1    3    3    0    0  0.10762349981E+02 -0.51906807122E+01 -0.70060652003E+01  0.13851219909E+02  0.00000000000E+00 0. -1.
</event>
<event>
 7    1  0.2412036E-009  0.4778727E+02  0.7816164E-02  0.1312668E+00
        -11   -1    0    0    0    0  0.00000000000E+00  0.00000000000E+00  0.45593999997E+02  0.45594000000E+02  0.51100000000E-03 0.  1.
         11   -1    0    0    0    0 -0.00000000000E+00 -0.00000000000E+00 -0.45593999997E+02  0.45594000000E+02  0.51100000000E-03 0. -1.
    9900012    2    1    2    0    0  0.49133909884E+01  0.29175415015E+02  0.31753375937E+02  0.47787272637E+02  0.20000007260E+02 0.  0.
         12    1    1    2    0    0 -0.49133909884E+01 -0.29175415015E+02 -0.31753375937E+02  0.43400727363E+02  0.00000000000E+00 0. -1.
         11    1    3    3    0    0 -0.31026187548E+01  0.67790284001E+01  0.16255429729E+02  0.17883524964E+02  0.51100000000E-03 0.  1.
        -11    1    3    3    0    0  0.34544594915E+01  0.65417613223E+01  0.19352176446E+00  0.74003636742E+01  0.51100000000E-03 0. -1.
        -12    1    3    3    0    0  0.45615502516E+01  0.15854625292E+02  0.15304424443E+02  0.22503383998E+02  0.00000000000E+00 0.  1.
</event>
<event>
 7    1  0.2412036E-009  0.4778727E+02  0.7816164E-02  0.1312668E+00
        -11   -1    0    0    0    0  0.00000000000E+00  0.00000000000E+00  0.45593999997E+02  0.45594000000E+02  0.51100000000E-03 0.  1.
         11   -1    0    0    0    0 -0.00000000000E+00 -0.00000000000E+00 -0.45593999997E+02  0.45594000000E+02  0.51100000000E-03 0. -1.
    9900012    2    1    2    0    0  0.56835986602E+01 -0.41854580902E+02  0.99756905498E+01  0.47787266848E+02  0.19999980867E+02 0.  0.
         12    1    1    2    0    0 -0.56835986602E+01  0.41854580902E+02 -0.99756905498E+01  0.43400733152E+02  0.00000000000E+00 0. -1.
         11    1    3    3    0    0 -0.26786725988E+01 -0.81597295727E+01 -0.22163263782E+01  0.88695307918E+01  0.51100000000E-03 0. -1.
        -11    1    3    3    0    0  0.86072461097E+01 -0.18071668196E+02  0.11906090561E+02  0.23290016525E+02  0.51100000000E-03 0.  1.
        -12    1    3    3    0    0 -0.24497485071E+00 -0.15623183133E+02  0.28592636651E+00  0.15627719532E+02  0.00000000000E+00 0.  1.
</event>
<event>
 7    1  0.2412036E-009  0.4778727E+02  0.7816164E-02  0.1312668E+00
        -11   -1    0    0    0    0  0.00000000000E+00  0.00000000000E+00  0.45593999997E+02  0.45594000000E+02  0.51100000000E-03 0.  1.
         11   -1    0    0    0    0 -0.00000000000E+00 -0.00000000000E+00 -0.45593999997E+02  0.45594000000E+02  0.51100000000E-03 0. -1.
    9900012    2    1    2    0    0 -0.21952204220E+02 -0.10280551206E+02  0.36000474314E+02  0.47787272425E+02  0.20000006294E+02 0.  0.
         12    1    1    2    0    0  0.21952204220E+02  0.10280551206E+02 -0.36000474314E+02  0.43400727575E+02  0.00000000000E+00 0. -1.
         11    1    3    3    0    0 -0.18345359980E+02 -0.56845005134E+01  0.17541976217E+02  0.26011280413E+02  0.51100000000E-03 0.  1.
        -11    1    3    3    0    0  0.82438555505E+00 -0.58002185681E+01  0.14758885823E+02  0.15879132785E+02  0.51100000000E-03 0. -1.
         12    1    3    3    0    0 -0.44312297949E+01  0.12041678751E+01  0.36996122735E+01  0.58968592269E+01  0.00000000000E+00 0. -1.
</event>
<event>
 7    1  0.2412036E-009  0.4778727E+02  0.7816164E-02  0.1312668E+00
        -11   -1    0    0    0    0  0.00000000000E+00  0.00000000000E+00  0.45593999997E+02  0.45594000000E+02  0.51100000000E-03 0.  1.
         11   -1    0    0    0    0 -0.00000000000E+00 -0.00000000000E+00 -0.45593999997E+02  0.45594000000E+02  0.51100000000E-03 0. -1.
    9900012    2    1    2    0    0 -0.48506465787E+01 -0.16562248390E+02  0.39821933453E+02  0.47787271574E+02  0.20000002413E+02 0.  0.
         12    1    1    2    0    0  0.48506465787E+01  0.16562248390E+02 -0.39821933453E+02  0.43400728426E+02  0.00000000000E+00 0. -1.
         11    1    3    3    0    0  0.15315576844E+01 -0.84717125568E+00 -0.12265354896E+01  0.21372313037E+01  0.51100000000E-03 0. -1.
        -11    1    3    3    0    0 -0.86569355473E+01 -0.12909350662E+02  0.37468309779E+02  0.40564369901E+02  0.51100000000E-03 0.  1.
        -12    1    3    3    0    0  0.22747312841E+01 -0.28057264728E+01  0.35801591645E+01  0.50856703686E+01  0.00000000000E+00 0.  1.
</event>
<event>
 7    1  0.2412036E-009  0.4778727E+02  0.7816164E-02  0.1312668E+00
        -11   -1    0    0    0    0  0.00000000000E+00  0.00000000000E+00  0.45593999997E+02  0.45594000000E+02  0.51100000000E-03 0. -1.
         11   -1    0    0    0    0 -0.00000000000E+00 -0.00000000000E+00 -0.45593999997E+02  0.45594000000E+02  0.51100000000E-03 0.  1.
    9900012    2    1    2    0    0  0.28299966360E+02 -0.97677468766E+00 -0.32890440787E+02  0.47787270975E+02  0.19999999684E+02 0.  0.
         12    1    1    2    0    0 -0.28299966360E+02  0.97677468766E+00  0.32890440787E+02  0.43400729025E+02  0.00000000000E+00 0. -1.
         11    1    3    3    0    0  0.22490900950E+02 -0.56137931809E+00 -0.26022366959E+02  0.34399409220E+02  0.51100000000E-03 0. -1.
        -11    1    3    3    0    0  0.46073787855E+01  0.19337882672E+01 -0.87985444232E+01  0.10118392193E+02  0.51100000000E-03 0.  1.
         12    1    3    3    0    0  0.12016866242E+01 -0.23491836367E+01  0.19304705954E+01  0.32694695627E+01  0.00000000000E+00 0. -1.
</event>
<event>
 7    1  0.2412036E-009  0.4778727E+02  0.7816164E-02  0.1312668E+00
        -11   -1    0    0    0    0  0.00000000000E+00  0.00000000000E+00  0.45593999997E+02  0.45594000000E+02  0.51100000000E-03 0. -1.
         11   -1    0    0    0    0 -0.00000000000E+00 -0.00000000000E+00 -0.45593999997E+02  0.45594000000E+02  0.51100000000E-03 0.  1.
    9900012    2    1    2    0    0 -0.38241550891E+02  0.20181263079E+02  0.37314649590E+01  0.47787269306E+02  0.19999992075E+02 0.  0.
         12    1    1    2    0    0  0.38241550891E+02 -0.20181263079E+02 -0.37314649590E+01  0.43400730694E+02  0.00000000000E+00 0. -1.
         11    1    3    3    0    0 -0.27509760506E+01  0.60565660031E+00  0.24691303423E+01  0.37458368967E+01  0.51100000000E-03 0. -1.
        -11    1    3    3    0    0 -0.28804807722E+02  0.10527629886E+02  0.69340564155E+01  0.31442472511E+02  0.51100000000E-03 0.  1.
        -12    1    3    3    0    0 -0.66857671179E+01  0.90479765923E+01 -0.56717217988E+01  0.12598959899E+02  0.00000000000E+00 0.  1.
</event>
<event>
 7    1  0.2412036E-009  0.4778726E+02  0.7816164E-02  0.1312668E+00
        -11   -1    0    0    0    0  0.00000000000E+00  0.00000000000E+00  0.45593999997E+02  0.45594000000E+02  0.51100000000E-03 0. -1.
         11   -1    0    0    0    0 -0.00000000000E+00 -0.00000000000E+00 -0.45593999997E+02  0.45594000000E+02  0.51100000000E-03 0.  1.
    9900012    2    1    2    0    0  0.18361484128E+02  0.11752588857E+02 -0.37528079247E+02  0.47787260649E+02  0.19999952605E+02 0.  0.
         12    1    1    2    0    0 -0.18361484128E+02 -0.11752588857E+02  0.37528079247E+02  0.43400739351E+02  0.00000000000E+00 0. -1.
         11    1    3    3    0    0  0.18871511546E+02  0.22489116670E+01 -0.26177527771E+02  0.32348949167E+02  0.51100000000E-03 0. -1.
        -11    1    3    3    0    0 -0.89339419706E+00  0.79549892095E+01 -0.11292291865E+02  0.13841815717E+02  0.51100000000E-03 0.  1.
         12    1    3    3    0    0  0.38336677926E+00  0.15486879802E+01 -0.58259610175E-01  0.15964957656E+01  0.00000000000E+00 0. -1.
</event>
<event>
 7    1  0.2412036E-009  0.4778726E+02  0.7816164E-02  0.1312668E+00
        -11   -1    0    0    0    0  0.00000000000E+00  0.00000000000E+00  0.45593999997E+02  0.45594000000E+02  0.51100000000E-03 0. -1.
         11   -1    0    0    0    0 -0.00000000000E+00 -0.00000000000E+00 -0.45593999997E+02  0.45594000000E+02  0.51100000000E-03 0.  1.
    9900012    2    1    2    0    0 -0.16956383871E+02  0.36366476976E+02 -0.16540405004E+02  0.47787255774E+02  0.19999930378E+02 0.  0.
         12    1    1    2    0    0  0.16956383871E+02 -0.36366476976E+02  0.16540405004E+02  0.43400744226E+02  0.00000000000E+00 0. -1.
         11    1    3    3    0    0 -0.10635741146E+02  0.22895770612E+02 -0.18417346159E+02  0.31249543060E+02  0.51100000000E-03 0.  1.
        -11    1    3    3    0    0 -0.41217135636E+01  0.13596475365E+02  0.13389736193E+01  0.14270442028E+02  0.51100000000E-03 0. -1.
        -12    1    3    3    0    0 -0.21989291615E+01 -0.12576900045E+00  0.53796753625E+00  0.22672706871E+01  0.00000000000E+00 0.  1.
</event>
<event>
 7    1  0.2412036E-009  0.4778727E+02  0.7816164E-02  0.1312668E+00
        -11   -1    0    0    0    0  0.00000000000E+00  0.00000000000E+00  0.45593999997E+02  0.45594000000E+02  0.51100000000E-03 0.  1.
         11   -1    0    0    0    0 -0.00000000000E+00 -0.00000000000E+00 -0.45593999997E+02  0.45594000000E+02  0.51100000000E-03 0. -1.
    9900012    2    1    2    0    0  0.18714700356E+02  0.19799051093E+02  0.33784325403E+02  0.47787273318E+02  0.20000010367E+02 0.  0.
         12    1    1    2    0    0 -0.18714700356E+02 -0.19799051093E+02 -0.33784325403E+02  0.43400726682E+02  0.00000000000E+00 0. -1.
         11    1    3    3    0    0  0.53001842359E+01  0.10344568406E+02  0.62863072227E+01  0.13214375021E+02  0.51100000000E-03 0. -1.
        -11    1    3    3    0    0  0.88821200407E+01  0.28239078549E+01  0.24123126357E+02  0.25861008052E+02  0.51100000000E-03 0.  1.
        -12    1    3    3    0    0  0.45323960791E+01  0.66305748322E+01  0.33748918239E+01  0.87118902452E+01  0.00000000000E+00 0.  1.
</event>
<event>
 7    1  0.2412036E-009  0.4778727E+02  0.7816164E-02  0.1312668E+00
        -11   -1    0    0    0    0  0.00000000000E+00  0.00000000000E+00  0.45593999997E+02  0.45594000000E+02  0.51100000000E-03 0. -1.
         11   -1    0    0    0    0 -0.00000000000E+00 -0.00000000000E+00 -0.45593999997E+02  0.45594000000E+02  0.51100000000E-03 0.  1.
    9900012    2    1    2    0    0 -0.84139339906E+01  0.36945714128E+02 -0.21162305710E+02  0.47787271197E+02  0.20000000697E+02 0.  0.
         12    1    1    2    0    0  0.84139339906E+01 -0.36945714128E+02  0.21162305710E+02  0.43400728803E+02  0.00000000000E+00 0. -1.
         11    1    3    3    0    0  0.51005501850E+00  0.65662313147E+01 -0.37111104106E+01  0.75596223809E+01  0.51100000000E-03 0. -1.
        -11    1    3    3    0    0 -0.62329803130E+01  0.30630127442E+02 -0.19495214993E+02  0.36839084660E+02  0.51100000000E-03 0.  1.
        -12    1    3    3    0    0 -0.26910086961E+01 -0.25064462894E+00  0.20440196938E+01  0.33885641563E+01  0.00000000000E+00 0.  1.
</event>
<event>
 7    1  0.2412036E-009  0.4778727E+02  0.7816164E-02  0.1312668E+00
        -11   -1    0    0    0    0  0.00000000000E+00  0.00000000000E+00  0.45593999997E+02  0.45594000000E+02  0.51100000000E-03 0.  1.
         11   -1    0    0    0    0 -0.00000000000E+00 -0.00000000000E+00 -0.45593999997E+02  0.45594000000E+02  0.51100000000E-03 0. -1.
    9900012    2    1    2    0    0 -0.13355185614E+02  0.10517770858E+00  0.41294688419E+02  0.47787270320E+02  0.19999996696E+02 0.  0.
         12    1    1    2    0    0  0.13355185614E+02 -0.10517770858E+00 -0.41294688419E+02  0.43400729680E+02  0.00000000000E+00 0. -1.
         11    1    3    3    0    0 -0.45916378471E-01 -0.20694979982E+01  0.40674221154E+01  0.45638638460E+01  0.51100000000E-03 0. -1.
        -11    1    3    3    0    0 -0.78992952149E+00  0.60301226635E+00 -0.18824736261E+01  0.21286896571E+01  0.51100000000E-03 0.  1.
        -12    1    3    3    0    0 -0.12519339714E+02  0.15716634404E+01  0.39109739930E+02  0.41094716817E+02  0.00000000000E+00 0.  1.
</event>
<event>
 7    1  0.2412036E-009  0.4778728E+02  0.7816164E-02  0.1312668E+00
        -11   -1    0    0    0    0  0.00000000000E+00  0.00000000000E+00  0.45593999997E+02  0.45594000000E+02  0.51100000000E-03 0. -1.
         11   -1    0    0    0    0 -0.00000000000E+00 -0.00000000000E+00 -0.45593999997E+02  0.45594000000E+02  0.51100000000E-03 0.  1.
    9900012    2    1    2    0    0 -0.42044787610E+02  0.83457521289E+01 -0.67975837966E+01  0.47787275476E+02  0.20000020204E+02 0.  0.
         12    1    1    2    0    0  0.42044787610E+02 -0.83457521289E+01  0.67975837966E+01  0.43400724524E+02  0.00000000000E+00 0. -1.
         11    1    3    3    0    0 -0.26306491031E+02  0.11899742327E+01 -0.15212657337E+00  0.26333830936E+02  0.51100000000E-03 0. -1.
        -11    1    3    3    0    0 -0.10331823610E+02  0.54016574144E+01 -0.95496944790E+01  0.15070539036E+02  0.51100000000E-03 0.  1.
        -12    1    3    3    0    0 -0.54064729696E+01  0.17541204818E+01  0.29042372557E+01  0.63829055040E+01  0.00000000000E+00 0.  1.
</event>
<event>
 7    1  0.2412036E-009  0.4778727E+02  0.7816164E-02  0.1312668E+00
        -11   -1    0    0    0    0  0.00000000000E+00  0.00000000000E+00  0.45593999997E+02  0.45594000000E+02  0.51100000000E-03 0.  1.
         11   -1    0    0    0    0 -0.00000000000E+00 -0.00000000000E+00 -0.45593999997E+02  0.45594000000E+02  0.51100000000E-03 0. -1.
    9900012    2    1    2    0    0  0.30637088683E+02 -0.20569602098E+02  0.22844774320E+02  0.47787269048E+02  0.19999990897E+02 0.  0.
         12    1    1    2    0    0 -0.30637088683E+02  0.20569602098E+02 -0.22844774320E+02  0.43400730952E+02  0.00000000000E+00 0. -1.
         11    1    3    3    0    0 -0.11730276973E+00 -0.69406509873E+00 -0.14344462295E+00  0.71837519587E+00  0.51100000000E-03 0. -1.
        -11    1    3    3    0    0  0.86637091854E+01 -0.16367250016E+02  0.12655476571E+02  0.22430065035E+02  0.51100000000E-03 0.  1.
        -12    1    3    3    0    0  0.22090682267E+02 -0.35082869831E+01  0.10332742372E+02  0.24638828818E+02  0.00000000000E+00 0.  1.
</event>
<event>
 7    1  0.2412036E-009  0.4778727E+02  0.7816164E-02  0.1312668E+00
        -11   -1    0    0    0    0  0.00000000000E+00  0.00000000000E+00  0.45593999997E+02  0.45594000000E+02  0.51100000000E-03 0.  1.
         11   -1    0    0    0    0 -0.00000000000E+00 -0.00000000000E+00 -0.45593999997E+02  0.45594000000E+02  0.51100000000E-03 0. -1.
    9900012    2    1    2    0    0  0.17762414945E+02  0.26479824193E+02  0.29443822855E+02  0.47787272146E+02  0.20000005021E+02 0.  0.
         12    1    1    2    0    0 -0.17762414945E+02 -0.26479824193E+02 -0.29443822855E+02  0.43400727854E+02  0.00000000000E+00 0. -1.
         11    1    3    3    0    0  0.20486942651E+01  0.14697661388E+01  0.11517590204E+02  0.11790345417E+02  0.51100000000E-03 0. -1.
        -11    1    3    3    0    0  0.88605249069E+01  0.59172481743E+01  0.84923295421E+01  0.13625064730E+02  0.51100000000E-03 0.  1.
         12    1    3    3    0    0  0.68531957730E+01  0.19092809880E+02  0.94339031091E+01  0.22371861998E+02  0.00000000000E+00 0. -1.
</event>
<event>
 7    1  0.2412036E-009  0.4778727E+02  0.7816164E-02  0.1312668E+00
        -11   -1    0    0    0    0  0.00000000000E+00  0.00000000000E+00  0.45593999997E+02  0.45594000000E+02  0.51100000000E-03 0.  1.
         11   -1    0    0    0    0 -0.00000000000E+00 -0.00000000000E+00 -0.45593999997E+02  0.45594000000E+02  0.51100000000E-03 0. -1.
    9900012    2    1    2    0    0  0.18088197123E+02  0.31988867396E+02  0.23090102523E+02  0.47787270203E+02  0.19999996162E+02 0.  0.
         12    1    1    2    0    0 -0.18088197123E+02 -0.31988867396E+02 -0.23090102523E+02  0.43400729797E+02  0.00000000000E+00 0. -1.
         11    1    3    3    0    0  0.17830045227E+02  0.14649112758E+02  0.78096267698E+01  0.24361799768E+02  0.51100000000E-03 0. -1.
        -11    1    3    3    0    0 -0.61984938433E-01  0.14842255693E+02  0.11056313766E+02  0.18507794859E+02  0.51100000000E-03 0.  1.
         12    1    3    3    0    0  0.32013683443E+00  0.24974989446E+01  0.42241619876E+01  0.49176755758E+01  0.00000000000E+00 0. -1.
</event>
<event>
 7    1  0.2412036E-009  0.4778727E+02  0.7816164E-02  0.1312668E+00
        -11   -1    0    0    0    0  0.00000000000E+00  0.00000000000E+00  0.45593999997E+02  0.45594000000E+02  0.51100000000E-03 0. -1.
         11   -1    0    0    0    0 -0.00000000000E+00 -0.00000000000E+00 -0.45593999997E+02  0.45594000000E+02  0.51100000000E-03 0.  1.
    9900012    2    1    2    0    0 -0.41137626639E+02  0.87414289492E+01  0.10719428638E+02  0.47787273555E+02  0.20000011448E+02 0.  0.
         12    1    1    2    0    0  0.41137626639E+02 -0.87414289492E+01 -0.10719428638E+02  0.43400726445E+02  0.00000000000E+00 0. -1.
         11    1    3    3    0    0 -0.86432468019E+01 -0.49226986935E+01  0.33936838552E+01  0.10509793912E+02  0.51100000000E-03 0. -1.
        -11    1    3    3    0    0 -0.33094004367E+02  0.13025056942E+02  0.66749208292E+01  0.36185906120E+02  0.51100000000E-03 0.  1.
        -12    1    3    3    0    0  0.59962452996E+00  0.63907070066E+00  0.65082395355E+00  0.10915735229E+01  0.00000000000E+00 0.  1.
</event>
<event>
 7    1  0.2412036E-009  0.4778727E+02  0.7816164E-02  0.1312668E+00
        -11   -1    0    0    0    0  0.00000000000E+00  0.00000000000E+00  0.45593999997E+02  0.45594000000E+02  0.51100000000E-03 0. -1.
         11   -1    0    0    0    0 -0.00000000000E+00 -0.00000000000E+00 -0.45593999997E+02  0.45594000000E+02  0.51100000000E-03 0.  1.
    9900012    2    1    2    0    0  0.38112813819E+02 -0.20533032116E+02 -0.30709966890E+01  0.47787274134E+02  0.20000014086E+02 0.  0.
         12    1    1    2    0    0 -0.38112813819E+02  0.20533032116E+02  0.30709966890E+01  0.43400725866E+02  0.00000000000E+00 0. -1.
         11    1    3    3    0    0  0.62034980710E+01 -0.82069873006E+01  0.58347841412E+01  0.11827203182E+02  0.51100000000E-03 0. -1.
        -11    1    3    3    0    0  0.27637191089E+02 -0.12215252780E+02 -0.60386369884E+01  0.30813825934E+02  0.51100000000E-03 0.  1.
         12    1    3    3    0    0  0.42721246592E+01 -0.11079203548E+00 -0.28671438419E+01  0.51462450183E+01  0.00000000000E+00 0. -1.
</event>
<event>
 7    1  0.2412036E-009  0.4778727E+02  0.7816164E-02  0.1312668E+00
        -11   -1    0    0    0    0  0.00000000000E+00  0.00000000000E+00  0.45593999997E+02  0.45594000000E+02  0.51100000000E-03 0.  1.
         11   -1    0    0    0    0 -0.00000000000E+00 -0.00000000000E+00 -0.45593999997E+02  0.45594000000E+02  0.51100000000E-03 0. -1.
    9900012    2    1    2    0    0  0.33037421391E+02  0.72491676669E+00  0.28135863362E+02  0.47787268167E+02  0.19999986882E+02 0.  0.
         12    1    1    2    0    0 -0.33037421391E+02 -0.72491676669E+00 -0.28135863362E+02  0.43400731833E+02  0.00000000000E+00 0. -1.
         11    1    3    3    0    0  0.18289098220E+02 -0.22006839375E+01  0.64039489702E+01  0.19502427699E+02  0.51100000000E-03 0. -1.
        -11    1    3    3    0    0  0.13059150354E+01  0.26091810240E+01  0.10075943718E+02  0.10489894268E+02  0.51100000000E-03 0.  1.
        -12    1    3    3    0    0  0.13442408136E+02  0.31641968014E+00  0.11655970674E+02  0.17794946200E+02  0.00000000000E+00 0.  1.
</event>
<event>
 7    1  0.2561625E-009  0.4778727E+02  0.7816164E-02  0.1312668E+00
        -11   -1    0    0    0    0  0.00000000000E+00  0.00000000000E+00  0.45593999997E+02  0.45594000000E+02  0.51100000000E-03 0.  1.
         11   -1    0    0    0    0 -0.00000000000E+00 -0.00000000000E+00 -0.45593999997E+02  0.45594000000E+02  0.51100000000E-03 0. -1.
    9900012    2    1    2    0    0 -0.34982710763E+02  0.21960340140E+02 -0.13325793700E+02  0.47787269948E+02  0.19999994999E+02 0.  0.
         12    1    1    2    0    0  0.34982710763E+02 -0.21960340140E+02  0.13325793700E+02  0.43400730052E+02  0.00000000000E+00 0. -1.
         11    1    3    3    0    0 -0.76090229602E+00 -0.16863179624E+01 -0.34931232937E+01  0.39527903031E+01  0.51100000000E-03 0. -1.
        -11    1    3    3    0    0 -0.14835982865E+02  0.11658538833E+02  0.34605204420E+00  0.18871875041E+02  0.51100000000E-03 0.  1.
        -12    1    3    3    0    0 -0.19385825601E+02  0.11988119269E+02 -0.10178722450E+02  0.24962604603E+02  0.00000000000E+00 0.  1.
</event>
<event>
 7    1  0.2412036E-009  0.4778727E+02  0.7816164E-02  0.1312668E+00
        -11   -1    0    0    0    0  0.00000000000E+00  0.00000000000E+00  0.45593999997E+02  0.45594000000E+02  0.51100000000E-03 0.  1.
         11   -1    0    0    0    0 -0.00000000000E+00 -0.00000000000E+00 -0.45593999997E+02  0.45594000000E+02  0.51100000000E-03 0. -1.
    9900012    2    1    2    0    0 -0.21945204688E+02 -0.14901616548E+02  0.34350739163E+02  0.47787268836E+02  0.19999989929E+02 0.  0.
         12    1    1    2    0    0  0.21945204688E+02  0.14901616548E+02 -0.34350739163E+02  0.43400731164E+02  0.00000000000E+00 0. -1.
         11    1    3    3    0    0 -0.19862733586E+02 -0.11385075804E+02  0.27227503212E+02  0.35573656938E+02  0.51100000000E-03 0.  1.
        -11    1    3    3    0    0 -0.28265739521E+01 -0.40716354178E+01 -0.73616510270E-01  0.49571317245E+01  0.51100000000E-03 0. -1.
         12    1    3    3    0    0  0.74410284959E+00  0.55509467308E+00  0.71968524612E+01  0.72564801726E+01  0.00000000000E+00 0. -1.
</event>
<event>
 7    1  0.2412036E-009  0.4778727E+02  0.7816164E-02  0.1312668E+00
        -11   -1    0    0    0    0  0.00000000000E+00  0.00000000000E+00  0.45593999997E+02  0.45594000000E+02  0.51100000000E-03 0.  1.
         11   -1    0    0    0    0 -0.00000000000E+00 -0.00000000000E+00 -0.45593999997E+02  0.45594000000E+02  0.51100000000E-03 0. -1.
    9900012    2    1    2    0    0  0.13558865770E+02 -0.40095169833E+02  0.95998750052E+01  0.47787273220E+02  0.20000009921E+02 0.  0.
         12    1    1    2    0    0 -0.13558865770E+02  0.40095169833E+02 -0.95998750052E+01  0.43400726780E+02  0.00000000000E+00 0. -1.
         11    1    3    3    0    0  0.33474966527E+01  0.63687077009E+00 -0.87495737959E+00  0.35180802855E+01  0.51100000000E-03 0. -1.
        -11    1    3    3    0    0  0.10652303125E+02 -0.24260969197E+02  0.55448630454E+01  0.27070494911E+02  0.51100000000E-03 0.  1.
         12    1    3    3    0    0 -0.44093400734E+00 -0.16471071406E+02  0.49299693395E+01  0.17198698024E+02  0.00000000000E+00 0. -1.
</event>
<event>
 7    1  0.2412036E-009  0.4778727E+02  0.7816164E-02  0.1312668E+00
        -11   -1    0    0    0    0  0.00000000000E+00  0.00000000000E+00  0.45593999997E+02  0.45594000000E+02  0.51100000000E-03 0. -1.
         11   -1    0    0    0    0 -0.00000000000E+00 -0.00000000000E+00 -0.45593999997E+02  0.45594000000E+02  0.51100000000E-03 0.  1.
    9900012    2    1    2    0    0  0.17074193497E+02 -0.37600967073E+02  0.13351487636E+02  0.47787273849E+02  0.20000012785E+02 0.  0.
         12    1    1    2    0    0 -0.17074193497E+02  0.37600967073E+02 -0.13351487636E+02  0.43400726151E+02  0.00000000000E+00 0. -1.
         11    1    3    3    0    0  0.11608687076E+01 -0.22776085157E+01  0.66298131970E+01  0.71055992003E+01  0.51100000000E-03 0. -1.
        -11    1    3    3    0    0  0.44578545764E+01 -0.21599497445E+02  0.56819477659E+01  0.22774882831E+02  0.51100000000E-03 0.  1.
         12    1    3    3    0    0  0.11455470213E+02 -0.13723861112E+02  0.10397266730E+01  0.17906791817E+02  0.00000000000E+00 0. -1.
</event>
<event>
 7    1  0.2412036E-009  0.4778727E+02  0.7816164E-02  0.1312668E+00
        -11   -1    0    0    0    0  0.00000000000E+00  0.00000000000E+00  0.45593999997E+02  0.45594000000E+02  0.51100000000E-03 0.  1.
         11   -1    0    0    0    0 -0.00000000000E+00 -0.00000000000E+00 -0.45593999997E+02  0.45594000000E+02  0.51100000000E-03 0. -1.
    9900012    2    1    2    0    0 -0.45762941165E+01 -0.14298880523E+02  0.40721282128E+02  0.47787271087E+02  0.20000000193E+02 0.  0.
         12    1    1    2    0    0  0.45762941165E+01  0.14298880523E+02 -0.40721282128E+02  0.43400728913E+02  0.00000000000E+00 0. -1.
         11    1    3    3    0    0 -0.17450633511E+01 -0.91229011494E+00 -0.39456357778E+00  0.20082828564E+01  0.51100000000E-03 0. -1.
        -11    1    3    3    0    0 -0.11992779091E+01 -0.93387948014E+01  0.40240934301E+02  0.41327764874E+02  0.51100000000E-03 0.  1.
        -12    1    3    3    0    0 -0.16319528563E+01 -0.40477956068E+01  0.87491140508E+00  0.44512233562E+01  0.00000000000E+00 0.  1.
</event>
<event>
 7    1  0.2412036E-009  0.4778727E+02  0.7816164E-02  0.1312668E+00
        -11   -1    0    0    0    0  0.00000000000E+00  0.00000000000E+00  0.45593999997E+02  0.45594000000E+02  0.51100000000E-03 0. -1.
         11   -1    0    0    0    0 -0.00000000000E+00 -0.00000000000E+00 -0.45593999997E+02  0.45594000000E+02  0.51100000000E-03 0.  1.
    9900012    2    1    2    0    0 -0.10433283037E+01  0.43064467654E+02  0.52902219357E+01  0.47787270094E+02  0.19999995667E+02 0.  0.
         12    1    1    2    0    0  0.10433283037E+01 -0.43064467654E+02 -0.52902219357E+01  0.43400729906E+02  0.00000000000E+00 0. -1.
         11    1    3    3    0    0 -0.21848480964E+01  0.11749337327E+02  0.10685192976E+01  0.11998425837E+02  0.51100000000E-03 0. -1.
        -11    1    3    3    0    0  0.13514618745E+01  0.21006225903E+02 -0.53510869938E+01  0.21719164536E+02  0.51100000000E-03 0.  1.
        -12    1    3    3    0    0 -0.20994208179E+00  0.10308904424E+02  0.95727896320E+01  0.14069679721E+02  0.00000000000E+00 0.  1.
</event>
<event>
 7    1  0.2412036E-009  0.4778726E+02  0.7816164E-02  0.1312668E+00
        -11   -1    0    0    0    0  0.00000000000E+00  0.00000000000E+00  0.45593999997E+02  0.45594000000E+02  0.51100000000E-03 0. -1.
         11   -1    0    0    0    0 -0.00000000000E+00 -0.00000000000E+00 -0.45593999997E+02  0.45594000000E+02  0.51100000000E-03 0.  1.
    9900012    2    1    2    0    0  0.35701396804E+02  0.22472340395E+02  0.10199429265E+02  0.47787260675E+02  0.19999952722E+02 0.  0.
         12    1    1    2    0    0 -0.35701396804E+02 -0.22472340395E+02 -0.10199429265E+02  0.43400739325E+02  0.00000000000E+00 0. -1.
         11    1    3    3    0    0 -0.11326434750E+01 -0.17396412448E+01  0.15775259139E+00  0.20818547123E+01  0.51100000000E-03 0. -1.
        -11    1    3    3    0    0  0.34623116829E+02  0.20419118873E+02  0.89034211857E+01  0.41170032105E+02  0.51100000000E-03 0.  1.
         12    1    3    3    0    0  0.22109234509E+01  0.37928627665E+01  0.11382554875E+01  0.45353738574E+01  0.00000000000E+00 0. -1.
</event>
<event>
 7    1  0.2412036E-009  0.4778727E+02  0.7816164E-02  0.1312668E+00
        -11   -1    0    0    0    0  0.00000000000E+00  0.00000000000E+00  0.45593999997E+02  0.45594000000E+02  0.51100000000E-03 0.  1.
         11   -1    0    0    0    0 -0.00000000000E+00 -0.00000000000E+00 -0.45593999997E+02  0.45594000000E+02  0.51100000000E-03 0. -1.
    9900012    2    1    2    0    0  0.23981722609E+02  0.97124328575E+01  0.34844930533E+02  0.47787267804E+02  0.19999985225E+02 0.  0.
         12    1    1    2    0    0 -0.23981722609E+02 -0.97124328575E+01 -0.34844930533E+02  0.43400732196E+02  0.00000000000E+00 0. -1.
         11    1    3    3    0    0  0.13221408131E+02  0.44573869613E+00  0.68243684449E+01  0.14885439896E+02  0.51100000000E-03 0. -1.
        -11    1    3    3    0    0  0.39203978778E+01  0.95310417434E+01  0.15128021535E+02  0.18304843951E+02  0.51100000000E-03 0.  1.
        -12    1    3    3    0    0  0.68399165997E+01 -0.26434758202E+00  0.12892540553E+02  0.14596983957E+02  0.00000000000E+00 0.  1.
</event>
<event>
 7    1  0.2412036E-009  0.4778727E+02  0.7816164E-02  0.1312668E+00
        -11   -1    0    0    0    0  0.00000000000E+00  0.00000000000E+00  0.45593999997E+02  0.45594000000E+02  0.51100000000E-03 0. -1.
         11   -1    0    0    0    0 -0.00000000000E+00 -0.00000000000E+00 -0.45593999997E+02  0.45594000000E+02  0.51100000000E-03 0.  1.
    9900012    2    1    2    0    0  0.46501300529E+01 -0.26453611390E+02 -0.34091140364E+02  0.47787272859E+02  0.20000008273E+02 0.  0.
         12    1    1    2    0    0 -0.46501300529E+01  0.26453611390E+02  0.34091140364E+02  0.43400727141E+02  0.00000000000E+00 0. -1.
         11    1    3    3    0    0  0.11721887260E-01 -0.47876284307E+01  0.17973793875E+01  0.51139120365E+01  0.51100000000E-03 0. -1.
        -11    1    3    3    0    0  0.50347913480E+01 -0.12761579878E+02 -0.17481267762E+02  0.22221650878E+02  0.51100000000E-03 0.  1.
         12    1    3    3    0    0 -0.39638318236E+00 -0.89044030808E+01 -0.18407251990E+02  0.20451709945E+02  0.00000000000E+00 0. -1.
</event>
<event>
 7    1  0.2412036E-009  0.4778727E+02  0.7816164E-02  0.1312668E+00
        -11   -1    0    0    0    0  0.00000000000E+00  0.00000000000E+00  0.45593999997E+02  0.45594000000E+02  0.51100000000E-03 0. -1.
         11   -1    0    0    0    0 -0.00000000000E+00 -0.00000000000E+00 -0.45593999997E+02  0.45594000000E+02  0.51100000000E-03 0.  1.
    9900012    2    1    2    0    0  0.24915037946E+02  0.13480636053E+02 -0.32880646221E+02  0.47787267746E+02  0.19999984962E+02 0.  0.
         12    1    1    2    0    0 -0.24915037946E+02 -0.13480636053E+02  0.32880646221E+02  0.43400732254E+02  0.00000000000E+00 0. -1.
         11    1    3    3    0    0  0.12166270124E+02  0.16638559898E+02 -0.14869723148E+02  0.25415909800E+02  0.51100000000E-03 0. -1.
        -11    1    3    3    0    0  0.48382608696E+01 -0.11684543500E+01 -0.84175891949E+01  0.97790521997E+01  0.51100000000E-03 0.  1.
         12    1    3    3    0    0  0.79105069529E+01 -0.19894694949E+01 -0.95933338781E+01  0.12592305747E+02  0.00000000000E+00 0. -1.
</event>
<event>
 7    1  0.2412036E-009  0.4778727E+02  0.7816164E-02  0.1312668E+00
        -11   -1    0    0    0    0  0.00000000000E+00  0.00000000000E+00  0.45593999997E+02  0.45594000000E+02  0.51100000000E-03 0. -1.
         11   -1    0    0    0    0 -0.00000000000E+00 -0.00000000000E+00 -0.45593999997E+02  0.45594000000E+02  0.51100000000E-03 0.  1.
    9900012    2    1    2    0    0 -0.40347048567E+02  0.56033547808E+00 -0.15982022782E+02  0.47787270097E+02  0.19999995680E+02 0.  0.
         12    1    1    2    0    0  0.40347048567E+02 -0.56033547808E+00  0.15982022782E+02  0.43400729903E+02  0.00000000000E+00 0. -1.
         11    1    3    3    0    0 -0.12245280855E+02 -0.12021930959E+01  0.30220475026E+01  0.12669843836E+02  0.51100000000E-03 0. -1.
        -11    1    3    3    0    0 -0.81713702475E+01  0.25112821263E+01 -0.10221049666E+02  0.13324702104E+02  0.51100000000E-03 0.  1.
        -12    1    3    3    0    0 -0.19930397464E+02 -0.74875355232E+00 -0.87830206193E+01  0.21792724156E+02  0.00000000000E+00 0.  1.
</event>
<event>
 7    1  0.2412036E-009  0.4778727E+02  0.7816164E-02  0.1312668E+00
        -11   -1    0    0    0    0  0.00000000000E+00  0.00000000000E+00  0.45593999997E+02  0.45594000000E+02  0.51100000000E-03 0.  1.
         11   -1    0    0    0    0 -0.00000000000E+00 -0.00000000000E+00 -0.45593999997E+02  0.45594000000E+02  0.51100000000E-03 0. -1.
    9900012    2    1    2    0    0 -0.92543108644E+01  0.52241458635E+00  0.42399389042E+02  0.47787269848E+02  0.19999994544E+02 0.  0.
         12    1    1    2    0    0  0.92543108644E+01 -0.52241458635E+00 -0.42399389042E+02  0.43400730152E+02  0.00000000000E+00 0. -1.
         11    1    3    3    0    0 -0.14949097203E+01 -0.15937949087E+01  0.36958211858E+01  0.42934871354E+01  0.51100000000E-03 0. -1.
        -11    1    3    3    0    0 -0.12606875206E+02 -0.90222626138E+00  0.17844447201E+02  0.21867135406E+02  0.51100000000E-03 0.  1.
        -12    1    3    3    0    0  0.48474740618E+01  0.30184357564E+01  0.20859120656E+02  0.21626647307E+02  0.00000000000E+00 0.  1.
</event>
<event>
 7    1  0.2412036E-009  0.4778727E+02  0.7816164E-02  0.1312668E+00
        -11   -1    0    0    0    0  0.00000000000E+00  0.00000000000E+00  0.45593999997E+02  0.45594000000E+02  0.51100000000E-03 0.  1.
         11   -1    0    0    0    0 -0.00000000000E+00 -0.00000000000E+00 -0.45593999997E+02  0.45594000000E+02  0.51100000000E-03 0. -1.
    9900012    2    1    2    0    0 -0.14368035561E+02  0.33171141707E+02  0.24017871542E+02  0.47787271418E+02  0.20000001705E+02 0.  0.
         12    1    1    2    0    0  0.14368035561E+02 -0.33171141707E+02 -0.24017871542E+02  0.43400728582E+02  0.00000000000E+00 0. -1.
         11    1    3    3    0    0 -0.61336048160E+01  0.35666220208E+01 -0.40924638524E+00  0.71069953949E+01  0.51100000000E-03 0. -1.
        -11    1    3    3    0    0 -0.10281441076E+02  0.24355565832E+02  0.22532171750E+02  0.34736153812E+02  0.51100000000E-03 0.  1.
        -12    1    3    3    0    0  0.20470103313E+01  0.52489538537E+01  0.18949461773E+01  0.59441222118E+01  0.00000000000E+00 0.  1.
</event>
<event>
 7    1  0.2412036E-009  0.4778730E+02  0.7816164E-02  0.1312668E+00
        -11   -1    0    0    0    0  0.00000000000E+00  0.00000000000E+00  0.45593999997E+02  0.45594000000E+02  0.51100000000E-03 0.  1.
         11   -1    0    0    0    0 -0.00000000000E+00 -0.00000000000E+00 -0.45593999997E+02  0.45594000000E+02  0.51100000000E-03 0. -1.
    9900012    2    1    2    0    0  0.18697688793E+02  0.31459639296E+02  0.23330418599E+02  0.47787298360E+02  0.20000124542E+02 0.  0.
         12    1    1    2    0    0 -0.18697688793E+02 -0.31459639296E+02 -0.23330418599E+02  0.43400701640E+02  0.00000000000E+00 0. -1.
         11    1    3    3    0    0  0.12582725385E+02  0.19773339001E+02  0.48342572538E+01  0.23930732475E+02  0.51100000000E-03 0. -1.
        -11    1    3    3    0    0  0.62999126842E+01  0.11319520995E+02  0.19128583816E+02  0.23102449534E+02  0.51100000000E-03 0.  1.
        -12    1    3    3    0    0 -0.18494927620E+00  0.36677930018E+00 -0.63242247055E+00  0.75411635114E+00  0.00000000000E+00 0.  1.
</event>
<event>
 7    1  0.2412036E-009  0.4778727E+02  0.7816164E-02  0.1312668E+00
        -11   -1    0    0    0    0  0.00000000000E+00  0.00000000000E+00  0.45593999997E+02  0.45594000000E+02  0.51100000000E-03 0. -1.
         11   -1    0    0    0    0 -0.00000000000E+00 -0.00000000000E+00 -0.45593999997E+02  0.45594000000E+02  0.51100000000E-03 0.  1.
    9900012    2    1    2    0    0 -0.90545169091E+01  0.23494924055E+02 -0.35350068893E+02  0.47787273007E+02  0.20000008946E+02 0.  0.
         12    1    1    2    0    0  0.90545169091E+01 -0.23494924055E+02  0.35350068893E+02  0.43400726993E+02  0.00000000000E+00 0. -1.
         11    1    3    3    0    0  0.17941961950E+01  0.82650604371E+01 -0.20956675372E+01  0.87133338455E+01  0.51100000000E-03 0. -1.
        -11    1    3    3    0    0 -0.41441547675E+01  0.78711313234E+01 -0.81369808675E+01  0.12055670240E+02  0.51100000000E-03 0.  1.
         12    1    3    3    0    0 -0.67045583367E+01  0.73587322945E+01 -0.25117420488E+02  0.27018268921E+02  0.00000000000E+00 0. -1.
</event>
<event>
 7    1  0.2412036E-009  0.4778728E+02  0.7816164E-02  0.1312668E+00
        -11   -1    0    0    0    0  0.00000000000E+00  0.00000000000E+00  0.45593999997E+02  0.45594000000E+02  0.51100000000E-03 0.  1.
         11   -1    0    0    0    0 -0.00000000000E+00 -0.00000000000E+00 -0.45593999997E+02  0.45594000000E+02  0.51100000000E-03 0. -1.
    9900012    2    1    2    0    0 -0.24429098122E+02 -0.22710138624E+02  0.27768534161E+02  0.47787277415E+02  0.20000029048E+02 0.  0.
         12    1    1    2    0    0  0.24429098122E+02  0.22710138624E+02 -0.27768534161E+02  0.43400722585E+02  0.00000000000E+00 0. -1.
         11    1    3    3    0    0 -0.22979298588E+01  0.46196824768E+00  0.59861109154E+00  0.24191386480E+01  0.51100000000E-03 0. -1.
        -11    1    3    3    0    0 -0.98673334210E+01 -0.76433250883E+01  0.94711324451E+00  0.12517256529E+02  0.51100000000E-03 0.  1.
        -12    1    3    3    0    0 -0.12263834842E+02 -0.15528781784E+02  0.26222809825E+02  0.32850882239E+02  0.00000000000E+00 0.  1.
</event>
<event>
 7    1  0.2412036E-009  0.4778728E+02  0.7816164E-02  0.1312668E+00
        -11   -1    0    0    0    0  0.00000000000E+00  0.00000000000E+00  0.45593999997E+02  0.45594000000E+02  0.51100000000E-03 0.  1.
         11   -1    0    0    0    0 -0.00000000000E+00 -0.00000000000E+00 -0.45593999997E+02  0.45594000000E+02  0.51100000000E-03 0. -1.
    9900012    2    1    2    0    0 -0.25082786277E+02 -0.10139849309E+01  0.35404069075E+02  0.47787280652E+02  0.20000043803E+02 0.  0.
         12    1    1    2    0    0  0.25082786277E+02  0.10139849309E+01 -0.35404069075E+02  0.43400719348E+02  0.00000000000E+00 0. -1.
         11    1    3    3    0    0 -0.69169828128E+01  0.36557469799E+01  0.58204300193E+01  0.97512329008E+01  0.51100000000E-03 0. -1.
        -11    1    3    3    0    0 -0.10569551001E+02 -0.98032238587E+01  0.14955245226E+02  0.20772047718E+02  0.51100000000E-03 0.  1.
        -12    1    3    3    0    0 -0.75962524634E+01  0.51334919478E+01  0.14628393830E+02  0.17264000033E+02  0.00000000000E+00 0.  1.
</event>
<event>
 7    1  0.2412036E-009  0.4778727E+02  0.7816164E-02  0.1312668E+00
        -11   -1    0    0    0    0  0.00000000000E+00  0.00000000000E+00  0.45593999997E+02  0.45594000000E+02  0.51100000000E-03 0. -1.
         11   -1    0    0    0    0 -0.00000000000E+00 -0.00000000000E+00 -0.45593999997E+02  0.45594000000E+02  0.51100000000E-03 0.  1.
    9900012    2    1    2    0    0 -0.40251717371E+02  0.93370852564E+01  0.13275589264E+02  0.47787272095E+02  0.20000004790E+02 0.  0.
         12    1    1    2    0    0  0.40251717371E+02 -0.93370852564E+01 -0.13275589264E+02  0.43400727905E+02  0.00000000000E+00 0. -1.
         11    1    3    3    0    0 -0.84879507625E+01  0.45640299577E+01 -0.26857400273E+01  0.10004442881E+02  0.51100000000E-03 0. -1.
        -11    1    3    3    0    0 -0.82776768747E+01 -0.37468002505E+01  0.59891597583E+01  0.10882485076E+02  0.51100000000E-03 0.  1.
        -12    1    3    3    0    0 -0.23486089733E+02  0.85198555492E+01  0.99721695331E+01  0.26900344138E+02  0.00000000000E+00 0.  1.
</event>
<event>
 7    1  0.2412036E-009  0.4778727E+02  0.7816164E-02  0.1312668E+00
        -11   -1    0    0    0    0  0.00000000000E+00  0.00000000000E+00  0.45593999997E+02  0.45594000000E+02  0.51100000000E-03 0. -1.
         11   -1    0    0    0    0 -0.00000000000E+00 -0.00000000000E+00 -0.45593999997E+02  0.45594000000E+02  0.51100000000E-03 0.  1.
    9900012    2    1    2    0    0  0.35730642810E+02 -0.15375236900E+02 -0.19249588526E+02  0.47787269548E+02  0.19999993176E+02 0.  0.
         12    1    1    2    0    0 -0.35730642810E+02  0.15375236900E+02  0.19249588526E+02  0.43400730452E+02  0.00000000000E+00 0. -1.
         11    1    3    3    0    0  0.44675302129E+01 -0.89151892771E+01 -0.49503318914E+01  0.11133068407E+02  0.51100000000E-03 0. -1.
        -11    1    3    3    0    0  0.19082607576E+02  0.15767749896E+01 -0.76865092662E+01  0.20632851384E+02  0.51100000000E-03 0.  1.
        -12    1    3    3    0    0  0.12180505021E+02 -0.80368226122E+01 -0.66127473688E+01  0.16021349757E+02  0.00000000000E+00 0.  1.
</event>
<event>
 7    1  0.2412036E-009  0.4778728E+02  0.7816164E-02  0.1312668E+00
        -11   -1    0    0    0    0  0.00000000000E+00  0.00000000000E+00  0.45593999997E+02  0.45594000000E+02  0.51100000000E-03 0.  1.
         11   -1    0    0    0    0 -0.00000000000E+00 -0.00000000000E+00 -0.45593999997E+02  0.45594000000E+02  0.51100000000E-03 0. -1.
    9900012    2    1    2    0    0  0.13301778371E+02  0.26612094286E+02  0.31598766462E+02  0.47787275213E+02  0.20000019007E+02 0.  0.
         12    1    1    2    0    0 -0.13301778371E+02 -0.26612094286E+02 -0.31598766462E+02  0.43400724787E+02  0.00000000000E+00 0. -1.
         11    1    3    3    0    0 -0.69967283435E+00  0.11849953256E+01  0.11000114161E+01  0.17617551968E+01  0.51100000000E-03 0. -1.
        -11    1    3    3    0    0  0.63224563598E+01  0.20576600799E+02  0.30007069712E+02  0.36929584181E+02  0.51100000000E-03 0.  1.
        -12    1    3    3    0    0  0.76789948455E+01  0.48504981611E+01  0.49168533425E+00  0.90959358351E+01  0.00000000000E+00 0.  1.
</event>
<event>
 7    1  0.2412036E-009  0.4778726E+02  0.7816164E-02  0.1312668E+00
        -11   -1    0    0    0    0  0.00000000000E+00  0.00000000000E+00  0.45593999997E+02  0.45594000000E+02  0.51100000000E-03 0.  1.
         11   -1    0    0    0    0 -0.00000000000E+00 -0.00000000000E+00 -0.45593999997E+02  0.45594000000E+02  0.51100000000E-03 0. -1.
    9900012    2    1    2    0    0 -0.88108191876E+01  0.76691809310E+01  0.41799254730E+02  0.47787256148E+02  0.19999932082E+02 0.  0.
         12    1    1    2    0    0  0.88108191876E+01 -0.76691809310E+01 -0.41799254730E+02  0.43400743852E+02  0.00000000000E+00 0. -1.
         11    1    3    3    0    0 -0.22394073935E+01  0.96031451042E+00  0.43801220131E+01  0.50122468559E+01  0.51100000000E-03 0. -1.
        -11    1    3    3    0    0  0.25858542575E+01 -0.40644683260E+00  0.27177556980E+02  0.27303322965E+02  0.51100000000E-03 0.  1.
        -12    1    3    3    0    0 -0.91572660516E+01  0.71153132532E+01  0.10241575736E+02  0.15471686327E+02  0.00000000000E+00 0.  1.
</event>
<event>
 7    1  0.2412036E-009  0.4778727E+02  0.7816164E-02  0.1312668E+00
        -11   -1    0    0    0    0  0.00000000000E+00  0.00000000000E+00  0.45593999997E+02  0.45594000000E+02  0.51100000000E-03 0.  1.
         11   -1    0    0    0    0 -0.00000000000E+00 -0.00000000000E+00 -0.45593999997E+02  0.45594000000E+02  0.51100000000E-03 0. -1.
    9900012    2    1    2    0    0 -0.30306530366E+02  0.30702060672E+02 -0.47456257052E+01  0.47787271024E+02  0.19999999906E+02 0.  0.
         12    1    1    2    0    0  0.30306530366E+02 -0.30702060672E+02  0.47456257052E+01  0.43400728976E+02  0.00000000000E+00 0. -1.
         11    1    3    3    0    0 -0.17025671925E+02  0.14467129000E+02 -0.80742287095E+01  0.23756356950E+02  0.51100000000E-03 0. -1.
        -11    1    3    3    0    0 -0.10882280858E+02  0.52769502650E+01  0.41425238400E+01  0.12784003473E+02  0.51100000000E-03 0.  1.
        -12    1    3    3    0    0 -0.23985775823E+01  0.10957981407E+02 -0.81392083574E+00  0.11246910601E+02  0.00000000000E+00 0.  1.
</event>
<event>
 7    1  0.2412036E-009  0.4778727E+02  0.7816164E-02  0.1312668E+00
        -11   -1    0    0    0    0  0.00000000000E+00  0.00000000000E+00  0.45593999997E+02  0.45594000000E+02  0.51100000000E-03 0. -1.
         11   -1    0    0    0    0 -0.00000000000E+00 -0.00000000000E+00 -0.45593999997E+02  0.45594000000E+02  0.51100000000E-03 0.  1.
    9900012    2    1    2    0    0 -0.18608816013E+01 -0.35762847682E+02 -0.24518956485E+02  0.47787269802E+02  0.19999994333E+02 0.  0.
         12    1    1    2    0    0  0.18608816013E+01  0.35762847682E+02  0.24518956485E+02  0.43400730198E+02  0.00000000000E+00 0. -1.
         11    1    3    3    0    0 -0.32720318988E+01  0.56429784004E+00 -0.87294733583E+00  0.34331708538E+01  0.51100000000E-03 0. -1.
        -11    1    3    3    0    0  0.98929636249E+00 -0.32802288296E+02 -0.24181236179E+02  0.40763967032E+02  0.51100000000E-03 0.  1.
        -12    1    3    3    0    0  0.42185393496E+00 -0.35248572254E+01  0.53522702961E+00  0.35901319161E+01  0.00000000000E+00 0.  1.
</event>
<event>
 7    1  0.2412036E-009  0.4778727E+02  0.7816164E-02  0.1312668E+00
        -11   -1    0    0    0    0  0.00000000000E+00  0.00000000000E+00  0.45593999997E+02  0.45594000000E+02  0.51100000000E-03 0.  1.
         11   -1    0    0    0    0 -0.00000000000E+00 -0.00000000000E+00 -0.45593999997E+02  0.45594000000E+02  0.51100000000E-03 0. -1.
    9900012    2    1    2    0    0 -0.14887718425E+02 -0.40683705961E+02  0.26105391902E+01  0.47787274136E+02  0.20000014098E+02 0.  0.
         12    1    1    2    0    0  0.14887718425E+02  0.40683705961E+02 -0.26105391902E+01  0.43400725864E+02  0.00000000000E+00 0. -1.
         11    1    3    3    0    0  0.12248752795E+01  0.13110718279E+01 -0.55629399632E+00  0.18784813173E+01  0.51100000000E-03 0. -1.
        -11    1    3    3    0    0 -0.99568156391E+01 -0.19789621337E+02  0.52666108023E+01  0.22770693444E+02  0.51100000000E-03 0.  1.
         12    1    3    3    0    0 -0.61557780655E+01 -0.22205156452E+02 -0.20997776158E+01  0.23138099375E+02  0.00000000000E+00 0. -1.
</event>
<event>
 7    1  0.2412036E-009  0.4778727E+02  0.7816164E-02  0.1312668E+00
        -11   -1    0    0    0    0  0.00000000000E+00  0.00000000000E+00  0.45593999997E+02  0.45594000000E+02  0.51100000000E-03 0.  1.
         11   -1    0    0    0    0 -0.00000000000E+00 -0.00000000000E+00 -0.45593999997E+02  0.45594000000E+02  0.51100000000E-03 0. -1.
    9900012    2    1    2    0    0 -0.15669626211E+02  0.30785311998E+02  0.26274524504E+02  0.47787271224E+02  0.20000000817E+02 0.  0.
         12    1    1    2    0    0  0.15669626211E+02 -0.30785311998E+02 -0.26274524504E+02  0.43400728776E+02  0.00000000000E+00 0. -1.
         11    1    3    3    0    0 -0.13177619411E+02  0.21604640926E+02  0.21142429134E+02  0.32975937785E+02  0.51100000000E-03 0. -1.
        -11    1    3    3    0    0 -0.49394365530E+00  0.82601868093E+01 -0.96356456252E+00  0.83308537010E+01  0.51100000000E-03 0.  1.
         12    1    3    3    0    0 -0.19980631449E+01  0.92048426251E+00  0.60956599329E+01  0.64804797373E+01  0.00000000000E+00 0. -1.
</event>
<event>
 7    1  0.2412036E-009  0.4778727E+02  0.7816164E-02  0.1312668E+00
        -11   -1    0    0    0    0  0.00000000000E+00  0.00000000000E+00  0.45593999997E+02  0.45594000000E+02  0.51100000000E-03 0.  1.
         11   -1    0    0    0    0 -0.00000000000E+00 -0.00000000000E+00 -0.45593999997E+02  0.45594000000E+02  0.51100000000E-03 0. -1.
    9900012    2    1    2    0    0 -0.43203193131E+02 -0.24147853781E+01  0.33580015075E+01  0.47787271213E+02  0.20000000769E+02 0.  0.
         12    1    1    2    0    0  0.43203193131E+02  0.24147853781E+01 -0.33580015075E+01  0.43400728787E+02  0.00000000000E+00 0. -1.
         11    1    3    3    0    0  0.50434701430E+00 -0.23757838412E+01 -0.91170768234E+00  0.25942100782E+01  0.51100000000E-03 0. -1.
        -11    1    3    3    0    0 -0.40358481802E+02  0.23933982245E+01  0.56665061197E+01  0.40824560014E+02  0.51100000000E-03 0.  1.
         12    1    3    3    0    0 -0.33490583429E+01 -0.24323997614E+01 -0.13967969299E+01  0.43685011213E+01  0.00000000000E+00 0. -1.
</event>
<event>
 7    1 -0.2412036E-009  0.4778727E+02  0.7816164E-02  0.1312668E+00
        -11   -1    0    0    0    0  0.00000000000E+00  0.00000000000E+00  0.45593999997E+02  0.45594000000E+02  0.51100000000E-03 0.  1.
         11   -1    0    0    0    0 -0.00000000000E+00 -0.00000000000E+00 -0.45593999997E+02  0.45594000000E+02  0.51100000000E-03 0. -1.
    9900012    2    1    2    0    0 -0.41052360096E+02 -0.25146911442E+01  0.13856529213E+02  0.47787270250E+02  0.19999996379E+02 0.  0.
         12    1    1    2    0    0  0.41052360096E+02  0.25146911442E+01 -0.13856529213E+02  0.43400729750E+02  0.00000000000E+00 0. -1.
         11    1    3    3    0    0 -0.47804713010E+01 -0.52984482537E+01 -0.16484958346E+00  0.71381815193E+01  0.51100000000E-03 0. -1.
        -11    1    3    3    0    0 -0.21129386369E+02 -0.39757999486E+01  0.91447342458E+01  0.23364163119E+02  0.51100000000E-03 0.  1.
         12    1    3    3    0    0 -0.15142502426E+02  0.67595570580E+01  0.48766445504E+01  0.17284925612E+02  0.00000000000E+00 0. -1.
</event>
<event>
 7    1  0.2412036E-009  0.4778728E+02  0.7816164E-02  0.1312668E+00
        -11   -1    0    0    0    0  0.00000000000E+00  0.00000000000E+00  0.45593999997E+02  0.45594000000E+02  0.51100000000E-03 0. -1.
         11   -1    0    0    0    0 -0.00000000000E+00 -0.00000000000E+00 -0.45593999997E+02  0.45594000000E+02  0.51100000000E-03 0.  1.
    9900012    2    1    2    0    0 -0.18353925396E+02 -0.19861669533E+02 -0.33945098735E+02  0.47787283160E+02  0.20000055241E+02 0.  0.
         12    1    1    2    0    0  0.18353925396E+02  0.19861669533E+02  0.33945098735E+02  0.43400716840E+02  0.00000000000E+00 0. -1.
         11    1    3    3    0    0 -0.34827684222E+01  0.65184313146E+00  0.60104451270E+00  0.35938600582E+01  0.51100000000E-03 0. -1.
        -11    1    3    3    0    0 -0.53687644951E+01 -0.16136784581E+02 -0.19599878852E+02  0.25949464351E+02  0.51100000000E-03 0.  1.
         12    1    3    3    0    0 -0.95023924784E+01 -0.43767280829E+01 -0.14946264396E+02  0.18243958751E+02  0.00000000000E+00 0. -1.
</event>
<event>
 7    1  0.2412036E-009  0.4778727E+02  0.7816164E-02  0.1312668E+00
        -11   -1    0    0    0    0  0.00000000000E+00  0.00000000000E+00  0.45593999997E+02  0.45594000000E+02  0.51100000000E-03 0. -1.
         11   -1    0    0    0    0 -0.00000000000E+00 -0.00000000000E+00 -0.45593999997E+02  0.45594000000E+02  0.51100000000E-03 0.  1.
    9900012    2    1    2    0    0  0.24649719023E+02 -0.19363934011E+02 -0.30017539421E+02  0.47787271191E+02  0.20000000667E+02 0.  0.
         12    1    1    2    0    0 -0.24649719023E+02  0.19363934011E+02  0.30017539421E+02  0.43400728809E+02  0.00000000000E+00 0. -1.
         11    1    3    3    0    0  0.61447032956E+01  0.37650685284E+01 -0.70246066386E+01  0.10063707980E+02  0.51100000000E-03 0. -1.
        -11    1    3    3    0    0  0.12720116408E+02 -0.15169491920E+02 -0.12905551194E+02  0.23631929638E+02  0.51100000000E-03 0.  1.
         12    1    3    3    0    0  0.57848993191E+01 -0.79595106196E+01 -0.10087381588E+02  0.14091633573E+02  0.00000000000E+00 0. -1.
</event>
<event>
 7    1  0.2412036E-009  0.4778727E+02  0.7816164E-02  0.1312668E+00
        -11   -1    0    0    0    0  0.00000000000E+00  0.00000000000E+00  0.45593999997E+02  0.45594000000E+02  0.51100000000E-03 0.  1.
         11   -1    0    0    0    0 -0.00000000000E+00 -0.00000000000E+00 -0.45593999997E+02  0.45594000000E+02  0.51100000000E-03 0. -1.
    9900012    2    1    2    0    0  0.41658806631E+01  0.39437909209E+02  0.17632920770E+02  0.47787272594E+02  0.20000007067E+02 0.  0.
         12    1    1    2    0    0 -0.41658806631E+01 -0.39437909209E+02 -0.17632920770E+02  0.43400727406E+02  0.00000000000E+00 0. -1.
         11    1    3    3    0    0 -0.14373626011E+01  0.12145681881E+02 -0.35959458848E+01  0.12748114631E+02  0.51100000000E-03 0. -1.
        -11    1    3    3    0    0  0.42090246104E+01  0.21583008345E+02  0.17121405144E+02  0.27869062628E+02  0.51100000000E-03 0.  1.
         12    1    3    3    0    0  0.13942186537E+01  0.57092189829E+01  0.41074615104E+01  0.71700953347E+01  0.00000000000E+00 0. -1.
</event>
<event>
 7    1  0.2412036E-009  0.4778727E+02  0.7816164E-02  0.1312668E+00
        -11   -1    0    0    0    0  0.00000000000E+00  0.00000000000E+00  0.45593999997E+02  0.45594000000E+02  0.51100000000E-03 0.  1.
         11   -1    0    0    0    0 -0.00000000000E+00 -0.00000000000E+00 -0.45593999997E+02  0.45594000000E+02  0.51100000000E-03 0. -1.
    9900012    2    1    2    0    0 -0.14543798101E+02  0.13565789561E+02  0.38575523431E+02  0.47787265933E+02  0.19999976693E+02 0.  0.
         12    1    1    2    0    0  0.14543798101E+02 -0.13565789561E+02 -0.38575523431E+02  0.43400734067E+02  0.00000000000E+00 0. -1.
         11    1    3    3    0    0 -0.22628037812E+00  0.77478464674E+01  0.10967390122E+02  0.13429965527E+02  0.51100000000E-03 0. -1.
        -11    1    3    3    0    0 -0.16336985950E+02  0.43834329583E+01  0.19182042813E+02  0.25574642933E+02  0.51100000000E-03 0.  1.
        -12    1    3    3    0    0  0.20194682265E+01  0.14345101351E+01  0.84260904958E+01  0.87826574730E+01  0.00000000000E+00 0.  1.
</event>
<event>
 7    1  0.2412036E-009  0.4778727E+02  0.7816164E-02  0.1312668E+00
        -11   -1    0    0    0    0  0.00000000000E+00  0.00000000000E+00  0.45593999997E+02  0.45594000000E+02  0.51100000000E-03 0. -1.
         11   -1    0    0    0    0 -0.00000000000E+00 -0.00000000000E+00 -0.45593999997E+02  0.45594000000E+02  0.51100000000E-03 0.  1.
    9900012    2    1    2    0    0  0.21163593074E+02 -0.14109177575E+02 -0.35166134366E+02  0.47787267634E+02  0.19999984450E+02 0.  0.
         12    1    1    2    0    0 -0.21163593074E+02  0.14109177575E+02  0.35166134366E+02  0.43400732366E+02  0.00000000000E+00 0. -1.
         11    1    3    3    0    0  0.49017473177E+01 -0.42705679469E+01 -0.77615702359E+00  0.65473122227E+01  0.51100000000E-03 0. -1.
        -11    1    3    3    0    0  0.12166959669E+01 -0.46550311892E+01 -0.17001055669E+02  0.17668773545E+02  0.51100000000E-03 0.  1.
        -12    1    3    3    0    0  0.15045149789E+02 -0.51835784391E+01 -0.17388921674E+02  0.23571181866E+02  0.00000000000E+00 0.  1.
</event>
<event>
 7    1  0.2412036E-009  0.4778727E+02  0.7816164E-02  0.1312668E+00
        -11   -1    0    0    0    0  0.00000000000E+00  0.00000000000E+00  0.45593999997E+02  0.45594000000E+02  0.51100000000E-03 0. -1.
         11   -1    0    0    0    0 -0.00000000000E+00 -0.00000000000E+00 -0.45593999997E+02  0.45594000000E+02  0.51100000000E-03 0.  1.
    9900012    2    1    2    0    0 -0.24754053328E+02 -0.34600450837E+02  0.85830574881E+01  0.47787271548E+02  0.20000002298E+02 0.  0.
         12    1    1    2    0    0  0.24754053328E+02  0.34600450837E+02 -0.85830574881E+01  0.43400728452E+02  0.00000000000E+00 0. -1.
         11    1    3    3    0    0 -0.47459703948E+01 -0.67976024643E+01 -0.54223488883E+01  0.99062355100E+01  0.51100000000E-03 0. -1.
        -11    1    3    3    0    0 -0.73560567959E+01 -0.16780345140E+02  0.59194505591E+01  0.19254387806E+02  0.51100000000E-03 0.  1.
         12    1    3    3    0    0 -0.12652026138E+02 -0.11022503232E+02  0.80859558173E+01  0.18626648232E+02  0.00000000000E+00 0. -1.
</event>
<event>
 7    1  0.2412036E-009  0.4778728E+02  0.7816164E-02  0.1312668E+00
        -11   -1    0    0    0    0  0.00000000000E+00  0.00000000000E+00  0.45593999997E+02  0.45594000000E+02  0.51100000000E-03 0.  1.
         11   -1    0    0    0    0 -0.00000000000E+00 -0.00000000000E+00 -0.45593999997E+02  0.45594000000E+02  0.51100000000E-03 0. -1.
    9900012    2    1    2    0    0 -0.21043714002E+02 -0.26739017797E+02  0.26940858869E+02  0.47787275947E+02  0.20000022352E+02 0.  0.
         12    1    1    2    0    0  0.21043714002E+02  0.26739017797E+02 -0.26940858869E+02  0.43400724053E+02  0.00000000000E+00 0. -1.
         11    1    3    3    0    0 -0.68343657043E+01 -0.10246542230E+02  0.10796680195E+02  0.16378903680E+02  0.51100000000E-03 0.  1.
        -11    1    3    3    0    0 -0.51590289487E+00 -0.12647743351E+02  0.65550128417E+01  0.14254815372E+02  0.51100000000E-03 0. -1.
        -12    1    3    3    0    0 -0.13693445403E+02 -0.38447322160E+01  0.95891658319E+01  0.17153556895E+02  0.00000000000E+00 0.  1.
</event>
<event>
 7    1  0.2412036E-009  0.4778726E+02  0.7816164E-02  0.1312668E+00
        -11   -1    0    0    0    0  0.00000000000E+00  0.00000000000E+00  0.45593999997E+02  0.45594000000E+02  0.51100000000E-03 0.  1.
         11   -1    0    0    0    0 -0.00000000000E+00 -0.00000000000E+00 -0.45593999997E+02  0.45594000000E+02  0.51100000000E-03 0. -1.
    9900012    2    1    2    0    0  0.17868545155E+01  0.89406267041E+01  0.42432260344E+02  0.47787258384E+02  0.19999942276E+02 0.  0.
         12    1    1    2    0    0 -0.17868545155E+01 -0.89406267041E+01 -0.42432260344E+02  0.43400741616E+02  0.00000000000E+00 0. -1.
         11    1    3    3    0    0 -0.12740148720E+01 -0.14969457998E+01 -0.15009121674E+01  0.24731959520E+01  0.51100000000E-03 0. -1.
        -11    1    3    3    0    0  0.22734348561E+01  0.62255690926E+01  0.30589560306E+02  0.31299319746E+02  0.51100000000E-03 0.  1.
        -12    1    3    3    0    0  0.78743453136E+00  0.42120034114E+01  0.13343612205E+02  0.14014742686E+02  0.00000000000E+00 0.  1.
</event>
<event>
 7    1  0.2412036E-009  0.4778726E+02  0.7816164E-02  0.1312668E+00
        -11   -1    0    0    0    0  0.00000000000E+00  0.00000000000E+00  0.45593999997E+02  0.45594000000E+02  0.51100000000E-03 0.  1.
         11   -1    0    0    0    0 -0.00000000000E+00 -0.00000000000E+00 -0.45593999997E+02  0.45594000000E+02  0.51100000000E-03 0. -1.
    9900012    2    1    2    0    0  0.69389196227E+01 -0.31453343911E+01  0.42726834465E+02  0.47787261327E+02  0.19999955696E+02 0.  0.
         12    1    1    2    0    0 -0.69389196227E+01  0.31453343911E+01 -0.42726834465E+02  0.43400738673E+02  0.00000000000E+00 0. -1.
         11    1    3    3    0    0  0.53413022674E-01  0.11586047833E+01 -0.91076142368E+00  0.14746879761E+01  0.51100000000E-03 0. -1.
        -11    1    3    3    0    0  0.70725708474E+01  0.10361008919E+01  0.37498917471E+02  0.38174121800E+02  0.51100000000E-03 0.  1.
        -12    1    3    3    0    0 -0.18706424738E+00 -0.53400400662E+01  0.61386784171E+01  0.81384515511E+01  0.00000000000E+00 0.  1.
</event>
<event>
 7    1  0.2605459E-009  0.4778728E+02  0.7816164E-02  0.1312668E+00
        -11   -1    0    0    0    0  0.00000000000E+00  0.00000000000E+00  0.45593999997E+02  0.45594000000E+02  0.51100000000E-03 0.  1.
         11   -1    0    0    0    0 -0.00000000000E+00 -0.00000000000E+00 -0.45593999997E+02  0.45594000000E+02  0.51100000000E-03 0. -1.
    9900012    2    1    2    0    0  0.14145805208E+02  0.30700102553E+02  0.27221727743E+02  0.47787279234E+02  0.20000037337E+02 0.  0.
         12    1    1    2    0    0 -0.14145805208E+02 -0.30700102553E+02 -0.27221727743E+02  0.43400720766E+02  0.00000000000E+00 0. -1.
         11    1    3    3    0    0  0.31696376702E+00  0.52757272604E+01 -0.20276386884E+01  0.56608376648E+01  0.51100000000E-03 0. -1.
        -11    1    3    3    0    0  0.55557872186E+01  0.66407800507E+01  0.14365459350E+02  0.16772988818E+02  0.51100000000E-03 0.  1.
        -12    1    3    3    0    0  0.82730542220E+01  0.18783595241E+02  0.14883907082E+02  0.25353452751E+02  0.00000000000E+00 0.  1.
</event>
<event>
 7    1  0.2412036E-009  0.4778727E+02  0.7816164E-02  0.1312668E+00
        -11   -1    0    0    0    0  0.00000000000E+00  0.00000000000E+00  0.45593999997E+02  0.45594000000E+02  0.51100000000E-03 0. -1.
         11   -1    0    0    0    0 -0.00000000000E+00 -0.00000000000E+00 -0.45593999997E+02  0.45594000000E+02  0.51100000000E-03 0.  1.
    9900012    2    1    2    0    0  0.43249645551E+01 -0.52122765966E+01 -0.42868986903E+02  0.47787272082E+02  0.20000004730E+02 0.  0.
         12    1    1    2    0    0 -0.43249645551E+01  0.52122765966E+01  0.42868986903E+02  0.43400727918E+02  0.00000000000E+00 0. -1.
         11    1    3    3    0    0 -0.54048673015E+01  0.39334518592E+01 -0.13033760107E+02  0.14647987468E+02  0.51100000000E-03 0. -1.
        -11    1    3    3    0    0 -0.20868584680E+00 -0.98372304286E+00 -0.57338271693E+01  0.58213430646E+01  0.51100000000E-03 0.  1.
         12    1    3    3    0    0  0.99385177034E+01 -0.81620054130E+01 -0.24101399627E+02  0.27317941549E+02  0.00000000000E+00 0. -1.
</event>
<event>
 7    1  0.2412036E-009  0.4778727E+02  0.7816164E-02  0.1312668E+00
        -11   -1    0    0    0    0  0.00000000000E+00  0.00000000000E+00  0.45593999997E+02  0.45594000000E+02  0.51100000000E-03 0.  1.
         11   -1    0    0    0    0 -0.00000000000E+00 -0.00000000000E+00 -0.45593999997E+02  0.45594000000E+02  0.51100000000E-03 0. -1.
    9900012    2    1    2    0    0 -0.37583974505E+02  0.16341455281E+02  0.14283745387E+02  0.47787266336E+02  0.19999978531E+02 0.  0.
         12    1    1    2    0    0  0.37583974505E+02 -0.16341455281E+02 -0.14283745387E+02  0.43400733664E+02  0.00000000000E+00 0. -1.
         11    1    3    3    0    0 -0.26292932265E+02  0.50379761194E+01  0.99024526222E+00  0.26789551628E+02  0.51100000000E-03 0. -1.
        -11    1    3    3    0    0 -0.10687993398E+02  0.98577900119E+01  0.12754003884E+02  0.19340988654E+02  0.51100000000E-03 0.  1.
         12    1    3    3    0    0 -0.60304884188E+00  0.14456891493E+01  0.53949624131E+00  0.16567260535E+01  0.00000000000E+00 0. -1.
</event>
<event>
 7    1  0.2412036E-009  0.4778727E+02  0.7816164E-02  0.1312668E+00
        -11   -1    0    0    0    0  0.00000000000E+00  0.00000000000E+00  0.45593999997E+02  0.45594000000E+02  0.51100000000E-03 0.  1.
         11   -1    0    0    0    0 -0.00000000000E+00 -0.00000000000E+00 -0.45593999997E+02  0.45594000000E+02  0.51100000000E-03 0. -1.
    9900012    2    1    2    0    0 -0.40740653001E+02  0.14808742662E+02  0.21269744192E+01  0.47787266293E+02  0.19999978335E+02 0.  0.
         12    1    1    2    0    0  0.40740653001E+02 -0.14808742662E+02 -0.21269744192E+01  0.43400733707E+02  0.00000000000E+00 0. -1.
         11    1    3    3    0    0 -0.18252476134E+02  0.12432538764E+01 -0.72236990014E+01  0.19669275349E+02  0.51100000000E-03 0.  1.
        -11    1    3    3    0    0 -0.20779993611E+02  0.11286170921E+02  0.79826175817E+01  0.24958124373E+02  0.51100000000E-03 0. -1.
        -12    1    3    3    0    0 -0.17081832555E+01  0.22793178649E+01  0.13680558388E+01  0.31598665702E+01  0.00000000000E+00 0.  1.
</event>
<event>
 7    1  0.2412036E-009  0.4778727E+02  0.7816164E-02  0.1312668E+00
        -11   -1    0    0    0    0  0.00000000000E+00  0.00000000000E+00  0.45593999997E+02  0.45594000000E+02  0.51100000000E-03 0.  1.
         11   -1    0    0    0    0 -0.00000000000E+00 -0.00000000000E+00 -0.45593999997E+02  0.45594000000E+02  0.51100000000E-03 0. -1.
    9900012    2    1    2    0    0 -0.13919627962E+01 -0.15172640663E+02  0.40638362438E+02  0.47787273200E+02  0.20000009829E+02 0.  0.
         12    1    1    2    0    0  0.13919627962E+01  0.15172640663E+02 -0.40638362438E+02  0.43400726800E+02  0.00000000000E+00 0. -1.
         11    1    3    3    0    0  0.39567264661E+01 -0.63611130828E+01  0.56241423784E+01  0.93675195080E+01  0.51100000000E-03 0.  1.
        -11    1    3    3    0    0 -0.86861662915E+01 -0.65477191930E+01  0.18881993943E+02  0.21791094672E+02  0.51100000000E-03 0. -1.
         12    1    3    3    0    0  0.33374770291E+01 -0.22638083876E+01  0.16132226117E+02  0.16628659021E+02  0.00000000000E+00 0. -1.
</event>
<event>
 7    1  0.2412036E-009  0.4778727E+02  0.7816164E-02  0.1312668E+00
        -11   -1    0    0    0    0  0.00000000000E+00  0.00000000000E+00  0.45593999997E+02  0.45594000000E+02  0.51100000000E-03 0.  1.
         11   -1    0    0    0    0 -0.00000000000E+00 -0.00000000000E+00 -0.45593999997E+02  0.45594000000E+02  0.51100000000E-03 0. -1.
    9900012    2    1    2    0    0  0.32393749011E+02  0.19762108363E+02  0.21064833693E+02  0.47787272812E+02  0.20000008059E+02 0.  0.
         12    1    1    2    0    0 -0.32393749011E+02 -0.19762108363E+02 -0.21064833693E+02  0.43400727188E+02  0.00000000000E+00 0. -1.
         11    1    3    3    0    0  0.87746873511E+01 -0.34397036866E+01  0.68341556750E+01  0.11641837639E+02  0.51100000000E-03 0. -1.
        -11    1    3    3    0    0  0.12570853909E+02  0.14196315648E+02  0.85752188900E+01  0.20810961661E+02  0.51100000000E-03 0.  1.
         12    1    3    3    0    0  0.11048207751E+02  0.90054964008E+01  0.56554591284E+01  0.15334473512E+02  0.00000000000E+00 0. -1.
</event>
<event>
 7    1  0.2412036E-009  0.4778726E+02  0.7816164E-02  0.1312668E+00
        -11   -1    0    0    0    0  0.00000000000E+00  0.00000000000E+00  0.45593999997E+02  0.45594000000E+02  0.51100000000E-03 0.  1.
         11   -1    0    0    0    0 -0.00000000000E+00 -0.00000000000E+00 -0.45593999997E+02  0.45594000000E+02  0.51100000000E-03 0. -1.
    9900012    2    1    2    0    0  0.41172689932E+02  0.10031322013E+02  0.93704974324E+01  0.47787262222E+02  0.19999959774E+02 0.  0.
         12    1    1    2    0    0 -0.41172689932E+02 -0.10031322013E+02 -0.93704974324E+01  0.43400737778E+02  0.00000000000E+00 0. -1.
         11    1    3    3    0    0 -0.17017695827E-01 -0.32183840576E+01  0.12011487663E+01  0.34352647881E+01  0.51100000000E-03 0. -1.
        -11    1    3    3    0    0  0.39650737421E+02  0.12139993744E+02  0.68221514256E+01  0.42025018459E+02  0.51100000000E-03 0.  1.
        -12    1    3    3    0    0  0.15389702072E+01  0.11097123263E+01  0.13471972405E+01  0.23269789751E+01  0.00000000000E+00 0.  1.
</event>
<event>
 7    1  0.2412036E-009  0.4778727E+02  0.7816164E-02  0.1312668E+00
        -11   -1    0    0    0    0  0.00000000000E+00  0.00000000000E+00  0.45593999997E+02  0.45594000000E+02  0.51100000000E-03 0.  1.
         11   -1    0    0    0    0 -0.00000000000E+00 -0.00000000000E+00 -0.45593999997E+02  0.45594000000E+02  0.51100000000E-03 0. -1.
    9900012    2    1    2    0    0  0.20362746858E+02 -0.38180132081E+02  0.33554673140E+01  0.47787272976E+02  0.20000008805E+02 0.  0.
         12    1    1    2    0    0 -0.20362746858E+02  0.38180132081E+02 -0.33554673140E+01  0.43400727024E+02  0.00000000000E+00 0. -1.
         11    1    3    3    0    0  0.41496784318E+01 -0.11352538014E+02  0.89915475983E+01  0.15064789375E+02  0.51100000000E-03 0. -1.
        -11    1    3    3    0    0  0.89157925220E+01 -0.19342950929E+02 -0.10993079982E+01  0.21327202941E+02  0.51100000000E-03 0.  1.
         12    1    3    3    0    0  0.72972759045E+01 -0.74846431380E+01 -0.45367722861E+01  0.11395280659E+02  0.00000000000E+00 0. -1.
</event>
<event>
 7    1  0.2412036E-009  0.4778727E+02  0.7816164E-02  0.1312668E+00
        -11   -1    0    0    0    0  0.00000000000E+00  0.00000000000E+00  0.45593999997E+02  0.45594000000E+02  0.51100000000E-03 0. -1.
         11   -1    0    0    0    0 -0.00000000000E+00 -0.00000000000E+00 -0.45593999997E+02  0.45594000000E+02  0.51100000000E-03 0.  1.
    9900012    2    1    2    0    0  0.31598463082E+02  0.29170773281E+02 -0.58503383449E+01  0.47787270263E+02  0.19999996438E+02 0.  0.
         12    1    1    2    0    0 -0.31598463082E+02 -0.29170773281E+02  0.58503383449E+01  0.43400729737E+02  0.00000000000E+00 0. -1.
         11    1    3    3    0    0  0.13322549432E+02  0.49406879322E+01 -0.24412736292E+01  0.14417369309E+02  0.51100000000E-03 0. -1.
        -11    1    3    3    0    0  0.16589853796E+02  0.25888152667E+02 -0.25472239009E+01  0.30853007104E+02  0.51100000000E-03 0.  1.
        -12    1    3    3    0    0  0.16860598537E+01 -0.16580673184E+01 -0.86184081486E+00  0.25168938501E+01  0.00000000000E+00 0.  1.
</event>
<event>
 7    1  0.2412036E-009  0.4778727E+02  0.7816164E-02  0.1312668E+00
        -11   -1    0    0    0    0  0.00000000000E+00  0.00000000000E+00  0.45593999997E+02  0.45594000000E+02  0.51100000000E-03 0.  1.
         11   -1    0    0    0    0 -0.00000000000E+00 -0.00000000000E+00 -0.45593999997E+02  0.45594000000E+02  0.51100000000E-03 0. -1.
    9900012    2    1    2    0    0  0.27318244490E+02 -0.63197986695E+01  0.33126984791E+02  0.47787268917E+02  0.19999990299E+02 0.  0.
         12    1    1    2    0    0 -0.27318244490E+02  0.63197986695E+01 -0.33126984791E+02  0.43400731083E+02  0.00000000000E+00 0. -1.
         11    1    3    3    0    0  0.60620275918E+01 -0.16208683552E+00  0.40058903305E+01  0.72678475677E+01  0.51100000000E-03 0. -1.
        -11    1    3    3    0    0  0.18223790962E+02 -0.32565392498E+00  0.28614744839E+02  0.33926630100E+02  0.51100000000E-03 0.  1.
        -12    1    3    3    0    0  0.30324259359E+01 -0.58320579090E+01  0.50634962178E+00  0.65927912488E+01  0.00000000000E+00 0.  1.
</event>
<event>
 7    1  0.2412036E-009  0.4778727E+02  0.7816164E-02  0.1312668E+00
        -11   -1    0    0    0    0  0.00000000000E+00  0.00000000000E+00  0.45593999997E+02  0.45594000000E+02  0.51100000000E-03 0.  1.
         11   -1    0    0    0    0 -0.00000000000E+00 -0.00000000000E+00 -0.45593999997E+02  0.45594000000E+02  0.51100000000E-03 0. -1.
    9900012    2    1    2    0    0 -0.31331492106E+01 -0.41196245601E+02  0.13291939803E+02  0.47787274899E+02  0.20000017574E+02 0.  0.
         12    1    1    2    0    0  0.31331492106E+01  0.41196245601E+02 -0.13291939803E+02  0.43400725101E+02  0.00000000000E+00 0. -1.
         11    1    3    3    0    0  0.39689741959E+01 -0.19303852827E+02  0.39397127526E+01  0.20097582615E+02  0.51100000000E-03 0. -1.
        -11    1    3    3    0    0 -0.83032011070E+01 -0.14302386910E+02  0.13462929120E+01  0.16592586441E+02  0.51100000000E-03 0.  1.
         12    1    3    3    0    0  0.12010777006E+01 -0.75900058639E+01  0.80059341381E+01  0.11097105843E+02  0.00000000000E+00 0. -1.
</event>
<event>
 7    1  0.2412036E-009  0.4778728E+02  0.7816164E-02  0.1312668E+00
        -11   -1    0    0    0    0  0.00000000000E+00  0.00000000000E+00  0.45593999997E+02  0.45594000000E+02  0.51100000000E-03 0.  1.
         11   -1    0    0    0    0 -0.00000000000E+00 -0.00000000000E+00 -0.45593999997E+02  0.45594000000E+02  0.51100000000E-03 0. -1.
    9900012    2    1    2    0    0 -0.84773515305E+01  0.73122587072E+01  0.41931943788E+02  0.47787279658E+02  0.20000039273E+02 0.  0.
         12    1    1    2    0    0  0.84773515305E+01 -0.73122587072E+01 -0.41931943788E+02  0.43400720342E+02  0.00000000000E+00 0. -1.
         11    1    3    3    0    0 -0.11333356964E+01  0.54251941297E+01  0.51496626393E+01  0.75654614337E+01  0.51100000000E-03 0. -1.
        -11    1    3    3    0    0  0.29698597278E+01 -0.34942413282E+01  0.89608141296E+01  0.10066080637E+02  0.51100000000E-03 0.  1.
        -12    1    3    3    0    0 -0.10313875562E+02  0.53813059057E+01  0.27821467019E+02  0.30155737587E+02  0.00000000000E+00 0.  1.
</event>
<event>
 7    1  0.2412036E-009  0.4778727E+02  0.7816164E-02  0.1312668E+00
        -11   -1    0    0    0    0  0.00000000000E+00  0.00000000000E+00  0.45593999997E+02  0.45594000000E+02  0.51100000000E-03 0. -1.
         11   -1    0    0    0    0 -0.00000000000E+00 -0.00000000000E+00 -0.45593999997E+02  0.45594000000E+02  0.51100000000E-03 0.  1.
    9900012    2    1    2    0    0 -0.13575460992E+02  0.25484631881E+01 -0.41144082844E+02  0.47787270065E+02  0.19999995536E+02 0.  0.
         12    1    1    2    0    0  0.13575460992E+02 -0.25484631881E+01  0.41144082844E+02  0.43400729935E+02  0.00000000000E+00 0. -1.
         11    1    3    3    0    0 -0.14262584338E+02 -0.21571490233E+01 -0.13948270242E+02  0.20065613545E+02  0.51100000000E-03 0. -1.
        -11    1    3    3    0    0  0.23334329912E+00  0.43856525812E+01 -0.26325375110E+02  0.26689207043E+02  0.51100000000E-03 0.  1.
         12    1    3    3    0    0  0.45378004687E+00  0.31995963012E+00 -0.87043749204E+00  0.10324494774E+01  0.00000000000E+00 0. -1.
</event>
<event>
 7    1  0.2412036E-009  0.4778727E+02  0.7816164E-02  0.1312668E+00
        -11   -1    0    0    0    0  0.00000000000E+00  0.00000000000E+00  0.45593999997E+02  0.45594000000E+02  0.51100000000E-03 0. -1.
         11   -1    0    0    0    0 -0.00000000000E+00 -0.00000000000E+00 -0.45593999997E+02  0.45594000000E+02  0.51100000000E-03 0.  1.
    9900012    2    1    2    0    0 -0.16901677700E+02 -0.38555906715E+02 -0.10554552896E+02  0.47787271452E+02  0.20000001857E+02 0.  0.
         12    1    1    2    0    0  0.16901677700E+02  0.38555906715E+02  0.10554552896E+02  0.43400728548E+02  0.00000000000E+00 0. -1.
         11    1    3    3    0    0 -0.38684445013E+01 -0.12373975933E+02  0.10505157476E+01  0.13007064498E+02  0.51100000000E-03 0. -1.
        -11    1    3    3    0    0 -0.58775889520E+01 -0.24815237535E+02 -0.89798633996E+01  0.27036642039E+02  0.51100000000E-03 0.  1.
        -12    1    3    3    0    0 -0.71556442469E+01 -0.13666932468E+01 -0.26252052442E+01  0.77435649150E+01  0.00000000000E+00 0.  1.
</event>
<event>
 7    1  0.2412036E-009  0.4778727E+02  0.7816164E-02  0.1312668E+00
        -11   -1    0    0    0    0  0.00000000000E+00  0.00000000000E+00  0.45593999997E+02  0.45594000000E+02  0.51100000000E-03 0. -1.
         11   -1    0    0    0    0 -0.00000000000E+00 -0.00000000000E+00 -0.45593999997E+02  0.45594000000E+02  0.51100000000E-03 0.  1.
    9900012    2    1    2    0    0 -0.15720572385E+02  0.15335182727E+02 -0.37434194510E+02  0.47787272541E+02  0.20000006822E+02 0.  0.
         12    1    1    2    0    0  0.15720572385E+02 -0.15335182727E+02  0.37434194510E+02  0.43400727459E+02  0.00000000000E+00 0. -1.
         11    1    3    3    0    0 -0.11773840952E+01  0.11175471117E+02 -0.16943893549E+02  0.20331574382E+02  0.51100000000E-03 0. -1.
        -11    1    3    3    0    0 -0.10664022295E+02  0.18018000168E+01 -0.20192419839E+02  0.22906367543E+02  0.51100000000E-03 0.  1.
         12    1    3    3    0    0 -0.38791659940E+01  0.23579115929E+01 -0.29788112297E+00  0.45493306159E+01  0.00000000000E+00 0. -1.
</event>
<event>
 7    1  0.2412036E-009  0.4778731E+02  0.7816164E-02  0.1312668E+00
        -11   -1    0    0    0    0  0.00000000000E+00  0.00000000000E+00  0.45593999997E+02  0.45594000000E+02  0.51100000000E-03 0.  1.
         11   -1    0    0    0    0 -0.00000000000E+00 -0.00000000000E+00 -0.45593999997E+02  0.45594000000E+02  0.51100000000E-03 0. -1.
    9900012    2    1    2    0    0  0.39743421281E+01  0.43211248378E+02 -0.78256869918E+00  0.47787311117E+02  0.20000182706E+02 0.  0.
         12    1    1    2    0    0 -0.39743421281E+01 -0.43211248378E+02  0.78256869918E+00  0.43400688883E+02  0.00000000000E+00 0. -1.
         11    1    3    3    0    0  0.53753206779E+01  0.20649796210E+02  0.28355100203E+01  0.21525526085E+02  0.51100000000E-03 0.  1.
        -11    1    3    3    0    0 -0.14596175931E+01  0.12172749162E+01 -0.45149683738E+01  0.48986918067E+01  0.51100000000E-03 0. -1.
         12    1    3    3    0    0  0.58639043315E-01  0.21344177252E+02  0.89688965428E+00  0.21363093225E+02  0.00000000000E+00 0. -1.
</event>
<event>
 7    1  0.2412036E-009  0.4778727E+02  0.7816164E-02  0.1312668E+00
        -11   -1    0    0    0    0  0.00000000000E+00  0.00000000000E+00  0.45593999997E+02  0.45594000000E+02  0.51100000000E-03 0.  1.
         11   -1    0    0    0    0 -0.00000000000E+00 -0.00000000000E+00 -0.45593999997E+02  0.45594000000E+02  0.51100000000E-03 0. -1.
    9900012    2    1    2    0    0  0.42093217385E+01 -0.40771677860E+02  0.14267968475E+02  0.47787273860E+02  0.20000012839E+02 0.  0.
         12    1    1    2    0    0 -0.42093217385E+01  0.40771677860E+02 -0.14267968475E+02  0.43400726140E+02  0.00000000000E+00 0. -1.
         11    1    3    3    0    0  0.97620556981E+00 -0.33195775839E+02  0.72988826122E+01  0.34002738103E+02  0.51100000000E-03 0. -1.
        -11    1    3    3    0    0  0.58384712751E+01 -0.65156450178E+01  0.65754170269E+01  0.10944290117E+02  0.51100000000E-03 0.  1.
        -12    1    3    3    0    0 -0.26053551064E+01 -0.10602570032E+01  0.39366883626E+00  0.28402456400E+01  0.00000000000E+00 0.  1.
</event>
<event>
 7    1  0.2412036E-009  0.4778727E+02  0.7816164E-02  0.1312668E+00
        -11   -1    0    0    0    0  0.00000000000E+00  0.00000000000E+00  0.45593999997E+02  0.45594000000E+02  0.51100000000E-03 0. -1.
         11   -1    0    0    0    0 -0.00000000000E+00 -0.00000000000E+00 -0.45593999997E+02  0.45594000000E+02  0.51100000000E-03 0.  1.
    9900012    2    1    2    0    0  0.13399781504E+02  0.41009220617E+02 -0.47236710033E+01  0.47787269733E+02  0.19999994022E+02 0.  0.
         12    1    1    2    0    0 -0.13399781504E+02 -0.41009220617E+02  0.47236710033E+01  0.43400730267E+02  0.00000000000E+00 0. -1.
         11    1    3    3    0    0  0.10812904570E+02  0.20573195548E+02  0.38038941427E+01  0.23550900009E+02  0.51100000000E-03 0. -1.
        -11    1    3    3    0    0  0.57850491164E+01  0.15798022657E+02 -0.48519359727E+01  0.17509585835E+02  0.51100000000E-03 0.  1.
         12    1    3    3    0    0 -0.31981721831E+01  0.46380024110E+01 -0.36756291733E+01  0.67267838896E+01  0.00000000000E+00 0. -1.
</event>
<event>
 7    1  0.2412036E-009  0.4778725E+02  0.7816164E-02  0.1312668E+00
        -11   -1    0    0    0    0  0.00000000000E+00  0.00000000000E+00  0.45593999997E+02  0.45594000000E+02  0.51100000000E-03 0.  1.
         11   -1    0    0    0    0 -0.00000000000E+00 -0.00000000000E+00 -0.45593999997E+02  0.45594000000E+02  0.51100000000E-03 0. -1.
    9900012    2    1    2    0    0 -0.22257491515E+01  0.19570572217E+02  0.38673817469E+02  0.47787246391E+02  0.19999887595E+02 0.  0.
         12    1    1    2    0    0  0.22257491515E+01 -0.19570572217E+02 -0.38673817469E+02  0.43400753609E+02  0.00000000000E+00 0. -1.
         11    1    3    3    0    0 -0.44536534833E+01  0.37935299523E+00  0.21165814973E+02  0.21632629563E+02  0.51100000000E-03 0. -1.
        -11    1    3    3    0    0  0.89350027436E+00  0.11631858305E+02  0.11759279414E+02  0.16564393227E+02  0.51100000000E-03 0.  1.
         12    1    3    3    0    0  0.13344040574E+01  0.75593609166E+01  0.57487230816E+01  0.95902236014E+01  0.00000000000E+00 0. -1.
</event>
<event>
 7    1  0.2412036E-009  0.4778727E+02  0.7816164E-02  0.1312668E+00
        -11   -1    0    0    0    0  0.00000000000E+00  0.00000000000E+00  0.45593999997E+02  0.45594000000E+02  0.51100000000E-03 0.  1.
         11   -1    0    0    0    0 -0.00000000000E+00 -0.00000000000E+00 -0.45593999997E+02  0.45594000000E+02  0.51100000000E-03 0. -1.
    9900012    2    1    2    0    0  0.27679265697E+02  0.22308066411E+02  0.24896417271E+02  0.47787272248E+02  0.20000005485E+02 0.  0.
         12    1    1    2    0    0 -0.27679265697E+02 -0.22308066411E+02 -0.24896417271E+02  0.43400727752E+02  0.00000000000E+00 0. -1.
         11    1    3    3    0    0  0.30515778878E+01 -0.10255541959E+01 -0.55400815107E+00  0.32666212371E+01  0.51100000000E-03 0. -1.
        -11    1    3    3    0    0  0.12043300480E+02  0.80415627824E+01  0.18583374214E+02  0.23559490994E+02  0.51100000000E-03 0.  1.
        -12    1    3    3    0    0  0.12584387330E+02  0.15292057824E+02  0.68670512076E+01  0.20961160017E+02  0.00000000000E+00 0.  1.
</event>
<event>
 7    1  0.2412036E-009  0.4778727E+02  0.7816164E-02  0.1312668E+00
        -11   -1    0    0    0    0  0.00000000000E+00  0.00000000000E+00  0.45593999997E+02  0.45594000000E+02  0.51100000000E-03 0.  1.
         11   -1    0    0    0    0 -0.00000000000E+00 -0.00000000000E+00 -0.45593999997E+02  0.45594000000E+02  0.51100000000E-03 0. -1.
    9900012    2    1    2    0    0 -0.22378513848E+02 -0.14562547264E+02  0.34216336489E+02  0.47787270195E+02  0.19999996129E+02 0.  0.
         12    1    1    2    0    0  0.22378513848E+02  0.14562547264E+02 -0.34216336489E+02  0.43400729805E+02  0.00000000000E+00 0. -1.
         11    1    3    3    0    0 -0.32621194544E+01 -0.62263028615E+00  0.95656699420E+01  0.10125765823E+02  0.51100000000E-03 0. -1.
        -11    1    3    3    0    0 -0.90466849622E+01  0.20514766672E+01  0.56413451448E+01  0.10857064089E+02  0.51100000000E-03 0.  1.
        -12    1    3    3    0    0 -0.10069709431E+02 -0.15991393645E+02  0.19009321402E+02  0.26804440283E+02  0.00000000000E+00 0.  1.
</event>
<event>
 7    1  0.2412036E-009  0.4778726E+02  0.7816164E-02  0.1312668E+00
        -11   -1    0    0    0    0  0.00000000000E+00  0.00000000000E+00  0.45593999997E+02  0.45594000000E+02  0.51100000000E-03 0.  1.
         11   -1    0    0    0    0 -0.00000000000E+00 -0.00000000000E+00 -0.45593999997E+02  0.45594000000E+02  0.51100000000E-03 0. -1.
    9900012    2    1    2    0    0 -0.37612510141E+02  0.21537968227E+02  0.22447707306E+01  0.47787262794E+02  0.19999962381E+02 0.  0.
         12    1    1    2    0    0  0.37612510141E+02 -0.21537968227E+02 -0.22447707306E+01  0.43400737206E+02  0.00000000000E+00 0. -1.
         11    1    3    3    0    0 -0.14410604642E+02  0.17832997026E+02  0.59710026573E+00  0.22935514777E+02  0.51100000000E-03 0. -1.
        -11    1    3    3    0    0 -0.21280122696E+02  0.30215449231E+01 -0.99129524483E+00  0.21516412856E+02  0.51100000000E-03 0.  1.
         12    1    3    3    0    0 -0.19217828026E+01  0.68342627752E+00  0.26389657097E+01  0.33353351607E+01  0.00000000000E+00 0. -1.
</event>
<event>
 7    1  0.2412036E-009  0.4778730E+02  0.7816164E-02  0.1312668E+00
        -11   -1    0    0    0    0  0.00000000000E+00  0.00000000000E+00  0.45593999997E+02  0.45594000000E+02  0.51100000000E-03 0.  1.
         11   -1    0    0    0    0 -0.00000000000E+00 -0.00000000000E+00 -0.45593999997E+02  0.45594000000E+02  0.51100000000E-03 0. -1.
    9900012    2    1    2    0    0 -0.35064917298E+02 -0.25573272808E+02  0.28309522333E+00  0.47787298967E+02  0.20000127309E+02 0.  0.
         12    1    1    2    0    0  0.35064917298E+02  0.25573272808E+02 -0.28309522333E+00  0.43400701033E+02  0.00000000000E+00 0. -1.
         11    1    3    3    0    0 -0.29782170881E+01 -0.10535477371E+02  0.22255101384E+00  0.10950597686E+02  0.51100000000E-03 0. -1.
        -11    1    3    3    0    0 -0.19597308232E+02 -0.89664907375E+01  0.49533466571E+01  0.22113075079E+02  0.51100000000E-03 0.  1.
         12    1    3    3    0    0 -0.12489391978E+02 -0.60713046995E+01 -0.48928024476E+01  0.14723626202E+02  0.00000000000E+00 0. -1.
</event>
<event>
 7    1  0.2412036E-009  0.4778727E+02  0.7816164E-02  0.1312668E+00
        -11   -1    0    0    0    0  0.00000000000E+00  0.00000000000E+00  0.45593999997E+02  0.45594000000E+02  0.51100000000E-03 0.  1.
         11   -1    0    0    0    0 -0.00000000000E+00 -0.00000000000E+00 -0.45593999997E+02  0.45594000000E+02  0.51100000000E-03 0. -1.
    9900012    2    1    2    0    0 -0.32760982941E+02 -0.20713336744E+02  0.19526879772E+02  0.47787270098E+02  0.19999995686E+02 0.  0.
         12    1    1    2    0    0  0.32760982941E+02  0.20713336744E+02 -0.19526879772E+02  0.43400729902E+02  0.00000000000E+00 0. -1.
         11    1    3    3    0    0 -0.25892640754E+01 -0.67223892776E+01 -0.27132107918E+01  0.76978126188E+01  0.51100000000E-03 0. -1.
        -11    1    3    3    0    0 -0.22746491889E+02 -0.10350398392E+02  0.15374475956E+02  0.29341236363E+02  0.51100000000E-03 0.  1.
         12    1    3    3    0    0 -0.74252269768E+01 -0.36405490745E+01  0.68656146084E+01  0.10748221117E+02  0.00000000000E+00 0. -1.
</event>
<event>
 7    1  0.2412036E-009  0.4778727E+02  0.7816164E-02  0.1312668E+00
        -11   -1    0    0    0    0  0.00000000000E+00  0.00000000000E+00  0.45593999997E+02  0.45594000000E+02  0.51100000000E-03 0. -1.
         11   -1    0    0    0    0 -0.00000000000E+00 -0.00000000000E+00 -0.45593999997E+02  0.45594000000E+02  0.51100000000E-03 0.  1.
    9900012    2    1    2    0    0 -0.31335250941E+02 -0.20635282446E+02 -0.21815372675E+02  0.47787270535E+02  0.19999997677E+02 0.  0.
         12    1    1    2    0    0  0.31335250941E+02  0.20635282446E+02  0.21815372675E+02  0.43400729465E+02  0.00000000000E+00 0. -1.
         11    1    3    3    0    0 -0.13622760257E+02 -0.13933449276E+02 -0.34081518562E+01  0.19782216890E+02  0.51100000000E-03 0. -1.
        -11    1    3    3    0    0 -0.16377986568E+02 -0.79426089138E+01 -0.13190280877E+02  0.22479034460E+02  0.51100000000E-03 0.  1.
         12    1    3    3    0    0 -0.13345041156E+01  0.12407757432E+01 -0.52169399415E+01  0.55260191850E+01  0.00000000000E+00 0. -1.
</event>
<event>
 7    1  0.2412036E-009  0.4778727E+02  0.7816164E-02  0.1312668E+00
        -11   -1    0    0    0    0  0.00000000000E+00  0.00000000000E+00  0.45593999997E+02  0.45594000000E+02  0.51100000000E-03 0.  1.
         11   -1    0    0    0    0 -0.00000000000E+00 -0.00000000000E+00 -0.45593999997E+02  0.45594000000E+02  0.51100000000E-03 0. -1.
    9900012    2    1    2    0    0 -0.12613347097E+02  0.15641873537E+02  0.38468933755E+02  0.47787267322E+02  0.19999983028E+02 0.  0.
         12    1    1    2    0    0  0.12613347097E+02 -0.15641873537E+02 -0.38468933755E+02  0.43400732678E+02  0.00000000000E+00 0. -1.
         11    1    3    3    0    0 -0.48053138240E+01 -0.19339653284E+01  0.60439853759E+01  0.79599637137E+01  0.51100000000E-03 0. -1.
        -11    1    3    3    0    0  0.26627127360E+01  0.80087114749E+01  0.82706175158E+01  0.11816624432E+02  0.51100000000E-03 0.  1.
        -12    1    3    3    0    0 -0.10470746009E+02  0.95671273904E+01  0.24154330863E+02  0.28010679177E+02  0.00000000000E+00 0.  1.
</event>
<event>
 7    1  0.2412036E-009  0.4778727E+02  0.7816164E-02  0.1312668E+00
        -11   -1    0    0    0    0  0.00000000000E+00  0.00000000000E+00  0.45593999997E+02  0.45594000000E+02  0.51100000000E-03 0.  1.
         11   -1    0    0    0    0 -0.00000000000E+00 -0.00000000000E+00 -0.45593999997E+02  0.45594000000E+02  0.51100000000E-03 0. -1.
    9900012    2    1    2    0    0 -0.39325023230E+02  0.11017729030E+02  0.14689291167E+02  0.47787273278E+02  0.20000010182E+02 0.  0.
         12    1    1    2    0    0  0.39325023230E+02 -0.11017729030E+02 -0.14689291167E+02  0.43400726722E+02  0.00000000000E+00 0. -1.
         11    1    3    3    0    0 -0.67223698273E+01  0.29525015239E+01  0.10781630928E+02  0.13044197449E+02  0.51100000000E-03 0.  1.
        -11    1    3    3    0    0 -0.19963762340E+02  0.88202432578E+01  0.17094846917E+01  0.21892255162E+02  0.51100000000E-03 0. -1.
        -12    1    3    3    0    0 -0.12638891063E+02 -0.75501575184E+00  0.21981755473E+01  0.12850820667E+02  0.00000000000E+00 0.  1.
</event>
<event>
 7    1  0.2412036E-009  0.4778727E+02  0.7816164E-02  0.1312668E+00
        -11   -1    0    0    0    0  0.00000000000E+00  0.00000000000E+00  0.45593999997E+02  0.45594000000E+02  0.51100000000E-03 0.  1.
         11   -1    0    0    0    0 -0.00000000000E+00 -0.00000000000E+00 -0.45593999997E+02  0.45594000000E+02  0.51100000000E-03 0. -1.
    9900012    2    1    2    0    0 -0.76726548685E+01 -0.24174639756E+02  0.35218465611E+02  0.47787272355E+02  0.20000005977E+02 0.  0.
         12    1    1    2    0    0  0.76726548685E+01  0.24174639756E+02 -0.35218465611E+02  0.43400727645E+02  0.00000000000E+00 0. -1.
         11    1    3    3    0    0 -0.74784370803E+01 -0.18196282032E+02  0.18501020442E+02  0.27005915253E+02  0.51100000000E-03 0. -1.
        -11    1    3    3    0    0 -0.43444460308E+01 -0.66626431287E+01  0.12563709950E+02  0.14869829614E+02  0.51100000000E-03 0.  1.
         12    1    3    3    0    0  0.41502282426E+01  0.68428540500E+00  0.41537352193E+01  0.59115274890E+01  0.00000000000E+00 0. -1.
</event>
<event>
 7    1  0.2412036E-009  0.4778727E+02  0.7816164E-02  0.1312668E+00
        -11   -1    0    0    0    0  0.00000000000E+00  0.00000000000E+00  0.45593999997E+02  0.45594000000E+02  0.51100000000E-03 0.  1.
         11   -1    0    0    0    0 -0.00000000000E+00 -0.00000000000E+00 -0.45593999997E+02  0.45594000000E+02  0.51100000000E-03 0. -1.
    9900012    2    1    2    0    0 -0.25670062786E+02 -0.25460608820E+02  0.24008930661E+02  0.47787268711E+02  0.19999989363E+02 0.  0.
         12    1    1    2    0    0  0.25670062786E+02  0.25460608820E+02 -0.24008930661E+02  0.43400731289E+02  0.00000000000E+00 0. -1.
         11    1    3    3    0    0 -0.41186159727E+01  0.12755947988E+01  0.13751749916E+00  0.43138209218E+01  0.51100000000E-03 0. -1.
        -11    1    3    3    0    0 -0.71128749254E+01 -0.91942126167E+01  0.17360861667E+01  0.11753319990E+02  0.51100000000E-03 0.  1.
        -12    1    3    3    0    0 -0.14438571888E+02 -0.17541991002E+02  0.22135326995E+02  0.31720127800E+02  0.00000000000E+00 0.  1.
</event>
<event>
 7    1  0.2412036E-009  0.4778727E+02  0.7816164E-02  0.1312668E+00
        -11   -1    0    0    0    0  0.00000000000E+00  0.00000000000E+00  0.45593999997E+02  0.45594000000E+02  0.51100000000E-03 0. -1.
         11   -1    0    0    0    0 -0.00000000000E+00 -0.00000000000E+00 -0.45593999997E+02  0.45594000000E+02  0.51100000000E-03 0.  1.
    9900012    2    1    2    0    0  0.20295607781E+02  0.23666997086E+02 -0.30192459691E+02  0.47787273410E+02  0.20000010787E+02 0.  0.
         12    1    1    2    0    0 -0.20295607781E+02 -0.23666997086E+02  0.30192459691E+02  0.43400726590E+02  0.00000000000E+00 0. -1.
         11    1    3    3    0    0  0.49509947046E+01  0.79720735791E+01 -0.16901177280E+01  0.95353449813E+01  0.51100000000E-03 0. -1.
        -11    1    3    3    0    0  0.11199566581E+02  0.39065673981E+01 -0.19598508382E+02  0.22908362916E+02  0.51100000000E-03 0.  1.
        -12    1    3    3    0    0  0.41450464957E+01  0.11788356109E+02 -0.89038335811E+01  0.15343565513E+02  0.00000000000E+00 0.  1.
</event>
<event>
 7    1  0.2412036E-009  0.4778727E+02  0.7816164E-02  0.1312668E+00
        -11   -1    0    0    0    0  0.00000000000E+00  0.00000000000E+00  0.45593999997E+02  0.45594000000E+02  0.51100000000E-03 0.  1.
         11   -1    0    0    0    0 -0.00000000000E+00 -0.00000000000E+00 -0.45593999997E+02  0.45594000000E+02  0.51100000000E-03 0. -1.
    9900012    2    1    2    0    0  0.29317928728E+02 -0.19579723066E+00  0.32000687488E+02  0.47787270961E+02  0.19999999618E+02 0.  0.
         12    1    1    2    0    0 -0.29317928728E+02  0.19579723066E+00 -0.32000687488E+02  0.43400729039E+02  0.00000000000E+00 0. -1.
         11    1    3    3    0    0  0.48867164308E+01  0.76375058576E+01  0.89985396562E+01  0.12774396636E+02  0.51100000000E-03 0. -1.
        -11    1    3    3    0    0  0.21220875873E+02 -0.60395681588E+01  0.22095704715E+02  0.31225344250E+02  0.51100000000E-03 0.  1.
         12    1    3    3    0    0  0.32103364232E+01 -0.17937349295E+01  0.90644311647E+00  0.37875300753E+01  0.00000000000E+00 0. -1.
</event>
<event>
 7    1  0.2412036E-009  0.4778728E+02  0.7816164E-02  0.1312668E+00
        -11   -1    0    0    0    0  0.00000000000E+00  0.00000000000E+00  0.45593999997E+02  0.45594000000E+02  0.51100000000E-03 0.  1.
         11   -1    0    0    0    0 -0.00000000000E+00 -0.00000000000E+00 -0.45593999997E+02  0.45594000000E+02  0.51100000000E-03 0. -1.
    9900012    2    1    2    0    0 -0.42811675219E+02  0.37465391723E+01  0.60619125889E+01  0.47787275639E+02  0.20000020949E+02 0.  0.
         12    1    1    2    0    0  0.42811675219E+02 -0.37465391723E+01 -0.60619125889E+01  0.43400724361E+02  0.00000000000E+00 0. -1.
         11    1    3    3    0    0 -0.59190289486E+01  0.30657035458E+01  0.36763508587E+01  0.76124239124E+01  0.51100000000E-03 0.  1.
        -11    1    3    3    0    0 -0.66469156100E+01  0.58171210050E+01  0.34371115390E+01  0.94780862998E+01  0.51100000000E-03 0. -1.
        -12    1    3    3    0    0 -0.30245730660E+02 -0.51362853786E+01 -0.10515498088E+01  0.30696765427E+02  0.00000000000E+00 0.  1.
</event>
<event>
 7    1  0.2412036E-009  0.4778729E+02  0.7816164E-02  0.1312668E+00
        -11   -1    0    0    0    0  0.00000000000E+00  0.00000000000E+00  0.45593999997E+02  0.45594000000E+02  0.51100000000E-03 0. -1.
         11   -1    0    0    0    0 -0.00000000000E+00 -0.00000000000E+00 -0.45593999997E+02  0.45594000000E+02  0.51100000000E-03 0.  1.
    9900012    2    1    2    0    0 -0.27560162094E+02  0.31593631351E+02 -0.11220596311E+02  0.47787287354E+02  0.20000074360E+02 0.  0.
         12    1    1    2    0    0  0.27560162094E+02 -0.31593631351E+02  0.11220596311E+02  0.43400712646E+02  0.00000000000E+00 0. -1.
         11    1    3    3    0    0 -0.24699402474E+02  0.21432462414E+02 -0.37240363074E+01  0.32913209725E+02  0.51100000000E-03 0. -1.
        -11    1    3    3    0    0 -0.43093297643E+01  0.88698011064E+01 -0.35581573699E+01  0.10483519391E+02  0.51100000000E-03 0.  1.
         12    1    3    3    0    0  0.14485701439E+01  0.12913678308E+01 -0.39384026337E+01  0.43905582380E+01  0.00000000000E+00 0. -1.
</event>
<event>
 7    1  0.2412036E-009  0.4778727E+02  0.7816164E-02  0.1312668E+00
        -11   -1    0    0    0    0  0.00000000000E+00  0.00000000000E+00  0.45593999997E+02  0.45594000000E+02  0.51100000000E-03 0. -1.
         11   -1    0    0    0    0 -0.00000000000E+00 -0.00000000000E+00 -0.45593999997E+02  0.45594000000E+02  0.51100000000E-03 0.  1.
    9900012    2    1    2    0    0  0.41287567517E+02  0.10458710888E+02  0.83411793598E+01  0.47787272610E+02  0.20000007136E+02 0.  0.
         12    1    1    2    0    0 -0.41287567517E+02 -0.10458710888E+02 -0.83411793598E+01  0.43400727390E+02  0.00000000000E+00 0. -1.
         11    1    3    3    0    0  0.17468840087E+02 -0.50861508249E+01  0.54704702811E+01  0.18998824952E+02  0.51100000000E-03 0. -1.
        -11    1    3    3    0    0  0.11213881269E+02  0.89866419030E+01  0.24169477290E+01  0.14572319733E+02  0.51100000000E-03 0.  1.
        -12    1    3    3    0    0  0.12604846161E+02  0.65582198100E+01  0.45376134967E+00  0.14216127925E+02  0.00000000000E+00 0.  1.
</event>
<event>
 7    1  0.2412036E-009  0.4778727E+02  0.7816164E-02  0.1312668E+00
        -11   -1    0    0    0    0  0.00000000000E+00  0.00000000000E+00  0.45593999997E+02  0.45594000000E+02  0.51100000000E-03 0.  1.
         11   -1    0    0    0    0 -0.00000000000E+00 -0.00000000000E+00 -0.45593999997E+02  0.45594000000E+02  0.51100000000E-03 0. -1.
    9900012    2    1    2    0    0  0.46454585841E+01  0.17662651148E+02  0.39370977131E+02  0.47787269923E+02  0.19999994886E+02 0.  0.
         12    1    1    2    0    0 -0.46454585841E+01 -0.17662651148E+02 -0.39370977131E+02  0.43400730077E+02  0.00000000000E+00 0. -1.
         11    1    3    3    0    0 -0.31206847179E+01  0.99063091519E+01  0.47657676752E+01  0.11427430854E+02  0.51100000000E-03 0. -1.
        -11    1    3    3    0    0  0.34959049780E+01  0.47930422645E+01  0.19735478257E+02  0.20607855494E+02  0.51100000000E-03 0.  1.
         12    1    3    3    0    0  0.42702383240E+01  0.29632997313E+01  0.14869731198E+02  0.15751983575E+02  0.00000000000E+00 0. -1.
</event>
<event>
 7    1  0.2412036E-009  0.4778727E+02  0.7816164E-02  0.1312668E+00
        -11   -1    0    0    0    0  0.00000000000E+00  0.00000000000E+00  0.45593999997E+02  0.45594000000E+02  0.51100000000E-03 0. -1.
         11   -1    0    0    0    0 -0.00000000000E+00 -0.00000000000E+00 -0.45593999997E+02  0.45594000000E+02  0.51100000000E-03 0.  1.
    9900012    2    1    2    0    0 -0.53717191008E+01 -0.33366024517E+02 -0.27230058864E+02  0.47787273464E+02  0.20000011030E+02 0.  0.
         12    1    1    2    0    0  0.53717191008E+01  0.33366024517E+02  0.27230058864E+02  0.43400726536E+02  0.00000000000E+00 0. -1.
         11    1    3    3    0    0  0.81939909120E+00 -0.44137197864E+01 -0.11849936667E+02  0.12671753489E+02  0.51100000000E-03 0. -1.
        -11    1    3    3    0    0 -0.58686764628E+01 -0.20311091676E+02 -0.52258845804E+01  0.21778238644E+02  0.51100000000E-03 0.  1.
        -12    1    3    3    0    0 -0.32244172926E+00 -0.86412130540E+01 -0.10154237617E+02  0.13337281331E+02  0.00000000000E+00 0.  1.
</event>
<event>
 7    1  0.2412036E-009  0.4778727E+02  0.7816164E-02  0.1312668E+00
        -11   -1    0    0    0    0  0.00000000000E+00  0.00000000000E+00  0.45593999997E+02  0.45594000000E+02  0.51100000000E-03 0. -1.
         11   -1    0    0    0    0 -0.00000000000E+00 -0.00000000000E+00 -0.45593999997E+02  0.45594000000E+02  0.51100000000E-03 0.  1.
    9900012    2    1    2    0    0 -0.40001583649E+02 -0.30737741185E+01  0.16554418600E+02  0.47787267783E+02  0.19999985129E+02 0.  0.
         12    1    1    2    0    0  0.40001583649E+02  0.30737741185E+01 -0.16554418600E+02  0.43400732217E+02  0.00000000000E+00 0. -1.
         11    1    3    3    0    0 -0.18796007848E+02 -0.83524839932E+01  0.14160944477E+02  0.24971708964E+02  0.51100000000E-03 0. -1.
        -11    1    3    3    0    0 -0.12178308962E+02  0.54590230630E+01 -0.43764003010E+00  0.13353039768E+02  0.51100000000E-03 0.  1.
         12    1    3    3    0    0 -0.90272668396E+01 -0.18031318831E+00  0.28311141538E+01  0.94625190511E+01  0.00000000000E+00 0. -1.
</event>
<event>
 7    1  0.2412036E-009  0.4778727E+02  0.7816164E-02  0.1312668E+00
        -11   -1    0    0    0    0  0.00000000000E+00  0.00000000000E+00  0.45593999997E+02  0.45594000000E+02  0.51100000000E-03 0.  1.
         11   -1    0    0    0    0 -0.00000000000E+00 -0.00000000000E+00 -0.45593999997E+02  0.45594000000E+02  0.51100000000E-03 0. -1.
    9900012    2    1    2    0    0 -0.57414989105E+01  0.97757742834E+00  0.43008172956E+02  0.47787269495E+02  0.19999992935E+02 0.  0.
         12    1    1    2    0    0  0.57414989105E+01 -0.97757742834E+00 -0.43008172956E+02  0.43400730505E+02  0.00000000000E+00 0. -1.
         11    1    3    3    0    0 -0.66363833987E+01 -0.52743390793E+01  0.11513139890E+02  0.14297294420E+02  0.51100000000E-03 0. -1.
        -11    1    3    3    0    0 -0.24624205269E+01  0.52813829052E+01  0.27799522314E+02  0.28403696263E+02  0.51100000000E-03 0.  1.
         12    1    3    3    0    0  0.33573050152E+01  0.97053360249E+00  0.36955107515E+01  0.50862788120E+01  0.00000000000E+00 0. -1.
</event>
<event>
 7    1  0.2412036E-009  0.4778727E+02  0.7816164E-02  0.1312668E+00
        -11   -1    0    0    0    0  0.00000000000E+00  0.00000000000E+00  0.45593999997E+02  0.45594000000E+02  0.51100000000E-03 0.  1.
         11   -1    0    0    0    0 -0.00000000000E+00 -0.00000000000E+00 -0.45593999997E+02  0.45594000000E+02  0.51100000000E-03 0. -1.
    9900012    2    1    2    0    0 -0.22888229835E+02 -0.24781982691E+02  0.27305778458E+02  0.47787271109E+02  0.20000000294E+02 0.  0.
         12    1    1    2    0    0  0.22888229835E+02  0.24781982691E+02 -0.27305778458E+02  0.43400728891E+02  0.00000000000E+00 0. -1.
         11    1    3    3    0    0 -0.13347479906E+02 -0.87835357614E+01  0.20014363726E+02  0.25610163528E+02  0.51100000000E-03 0. -1.
        -11    1    3    3    0    0 -0.24649027149E+01 -0.11642440019E+02  0.71166273161E+01  0.13866093163E+02  0.51100000000E-03 0.  1.
        -12    1    3    3    0    0 -0.70758472145E+01 -0.43560069103E+01  0.17478741563E+00  0.83110144174E+01  0.00000000000E+00 0.  1.
</event>
<event>
 7    1  0.2412036E-009  0.4778727E+02  0.7816164E-02  0.1312668E+00
        -11   -1    0    0    0    0  0.00000000000E+00  0.00000000000E+00  0.45593999997E+02  0.45594000000E+02  0.51100000000E-03 0.  1.
         11   -1    0    0    0    0 -0.00000000000E+00 -0.00000000000E+00 -0.45593999997E+02  0.45594000000E+02  0.51100000000E-03 0. -1.
    9900012    2    1    2    0    0 -0.68832159394E+01  0.21989628803E+02  0.36779080933E+02  0.47787271541E+02  0.20000002262E+02 0.  0.
         12    1    1    2    0    0  0.68832159394E+01 -0.21989628803E+02 -0.36779080933E+02  0.43400728459E+02  0.00000000000E+00 0. -1.
         11    1    3    3    0    0  0.28578830814E+01  0.10932867477E+00  0.26803474380E+01  0.39196570150E+01  0.51100000000E-03 0. -1.
        -11    1    3    3    0    0 -0.12985689999E+02  0.19446647384E+02  0.27246852100E+02  0.35905308645E+02  0.51100000000E-03 0.  1.
        -12    1    3    3    0    0  0.32445909783E+01  0.24336527440E+01  0.68518813944E+01  0.79623058807E+01  0.00000000000E+00 0.  1.
</event>
<event>
 7    1  0.2412036E-009  0.4778727E+02  0.7816164E-02  0.1312668E+00
        -11   -1    0    0    0    0  0.00000000000E+00  0.00000000000E+00  0.45593999997E+02  0.45594000000E+02  0.51100000000E-03 0.  1.
         11   -1    0    0    0    0 -0.00000000000E+00 -0.00000000000E+00 -0.45593999997E+02  0.45594000000E+02  0.51100000000E-03 0. -1.
    9900012    2    1    2    0    0  0.48839394088E+01 -0.36077611568E+02  0.23625760538E+02  0.47787268652E+02  0.19999989091E+02 0.  0.
         12    1    1    2    0    0 -0.48839394088E+01  0.36077611568E+02 -0.23625760538E+02  0.43400731348E+02  0.00000000000E+00 0. -1.
         11    1    3    3    0    0 -0.27539949844E+01 -0.46153642349E+01  0.71096960763E+00  0.54213977385E+01  0.51100000000E-03 0. -1.
        -11    1    3    3    0    0 -0.16143190649E+01 -0.22351906712E+02  0.16830327541E+02  0.28026303450E+02  0.51100000000E-03 0.  1.
        -12    1    3    3    0    0  0.92522534582E+01 -0.91103406214E+01  0.60844633885E+01  0.14339567463E+02  0.00000000000E+00 0.  1.
</event>
<event>
 7    1  0.2412036E-009  0.4778733E+02  0.7816164E-02  0.1312667E+00
        -11   -1    0    0    0    0  0.00000000000E+00  0.00000000000E+00  0.45593999997E+02  0.45594000000E+02  0.51100000000E-03 0.  1.
         11   -1    0    0    0    0 -0.00000000000E+00 -0.00000000000E+00 -0.45593999997E+02  0.45594000000E+02  0.51100000000E-03 0. -1.
    9900012    2    1    2    0    0  0.37162792314E+02 -0.21213089608E+02  0.72491081607E+01  0.47787333272E+02  0.20000283720E+02 0.  0.
         12    1    1    2    0    0 -0.37162792314E+02  0.21213089608E+02 -0.72491081607E+01  0.43400666728E+02  0.00000000000E+00 0. -1.
         11    1    3    3    0    0  0.69483370452E+01 -0.85756071756E+01  0.71336377406E+01  0.13141887756E+02  0.51100000000E-03 0. -1.
        -11    1    3    3    0    0  0.24388287323E+02 -0.14575146151E+02  0.10696849843E+01  0.28431807366E+02  0.51100000000E-03 0.  1.
        -12    1    3    3    0    0  0.58261679464E+01  0.19376637190E+01 -0.95421456425E+00  0.62136381503E+01  0.00000000000E+00 0.  1.
</event>
<event>
 7    1  0.2412036E-009  0.4778727E+02  0.7816164E-02  0.1312668E+00
        -11   -1    0    0    0    0  0.00000000000E+00  0.00000000000E+00  0.45593999997E+02  0.45594000000E+02  0.51100000000E-03 0.  1.
         11   -1    0    0    0    0 -0.00000000000E+00 -0.00000000000E+00 -0.45593999997E+02  0.45594000000E+02  0.51100000000E-03 0. -1.
    9900012    2    1    2    0    0 -0.26334957578E+02  0.32093138036E+02  0.12654017670E+02  0.47787266564E+02  0.19999979570E+02 0.  0.
         12    1    1    2    0    0  0.26334957578E+02 -0.32093138036E+02 -0.12654017670E+02  0.43400733436E+02  0.00000000000E+00 0. -1.
         11    1    3    3    0    0 -0.78260906051E+01  0.16550702565E+02  0.12058392433E+02  0.21922095655E+02  0.51100000000E-03 0. -1.
        -11    1    3    3    0    0 -0.12061538475E+02  0.59386766188E+01  0.35926273910E+01  0.13916018188E+02  0.51100000000E-03 0.  1.
         12    1    3    3    0    0 -0.64473284982E+01  0.96037588518E+01 -0.29970021544E+01  0.11949152721E+02  0.00000000000E+00 0. -1.
</event>
<event>
 7    1  0.2412036E-009  0.4778727E+02  0.7816164E-02  0.1312668E+00
        -11   -1    0    0    0    0  0.00000000000E+00  0.00000000000E+00  0.45593999997E+02  0.45594000000E+02  0.51100000000E-03 0.  1.
         11   -1    0    0    0    0 -0.00000000000E+00 -0.00000000000E+00 -0.45593999997E+02  0.45594000000E+02  0.51100000000E-03 0. -1.
    9900012    2    1    2    0    0  0.20642892464E+00  0.80240915714E+01  0.42652020490E+02  0.47787268320E+02  0.19999987579E+02 0.  0.
         12    1    1    2    0    0 -0.20642892464E+00 -0.80240915714E+01 -0.42652020490E+02  0.43400731680E+02  0.00000000000E+00 0. -1.
         11    1    3    3    0    0 -0.33782587611E+01  0.48123384553E+01  0.13376091149E+01  0.60299611998E+01  0.51100000000E-03 0. -1.
        -11    1    3    3    0    0  0.34383094184E+01  0.24746494340E+01  0.20691170423E+02  0.21120378671E+02  0.51100000000E-03 0.  1.
         12    1    3    3    0    0  0.14637826736E+00  0.73710368201E+00  0.20623240953E+02  0.20636928449E+02  0.00000000000E+00 0. -1.
</event>
<event>
 7    1  0.2412036E-009  0.4778728E+02  0.7816164E-02  0.1312668E+00
        -11   -1    0    0    0    0  0.00000000000E+00  0.00000000000E+00  0.45593999997E+02  0.45594000000E+02  0.51100000000E-03 0.  1.
         11   -1    0    0    0    0 -0.00000000000E+00 -0.00000000000E+00 -0.45593999997E+02  0.45594000000E+02  0.51100000000E-03 0. -1.
    9900012    2    1    2    0    0 -0.38214346053E+02 -0.20186639667E+02  0.39731563631E+01  0.47787278384E+02  0.20000033463E+02 0.  0.
         12    1    1    2    0    0  0.38214346053E+02  0.20186639667E+02 -0.39731563631E+01  0.43400721616E+02  0.00000000000E+00 0. -1.
         11    1    3    3    0    0 -0.42931613550E+01 -0.80670067462E+01  0.24292042464E+01  0.94556261450E+01  0.51100000000E-03 0. -1.
        -11    1    3    3    0    0 -0.18501908634E+02 -0.11118195570E+01  0.47081295770E+01  0.19123892130E+02  0.51100000000E-03 0.  1.
        -12    1    3    3    0    0 -0.15419276065E+02 -0.11007813364E+02 -0.31641774604E+01  0.19207760109E+02  0.00000000000E+00 0.  1.
</event>
<event>
 7    1  0.2412036E-009  0.4778723E+02  0.7816164E-02  0.1312668E+00
        -11   -1    0    0    0    0  0.00000000000E+00  0.00000000000E+00  0.45593999997E+02  0.45594000000E+02  0.51100000000E-03 0.  1.
         11   -1    0    0    0    0 -0.00000000000E+00 -0.00000000000E+00 -0.45593999997E+02  0.45594000000E+02  0.51100000000E-03 0. -1.
    9900012    2    1    2    0    0 -0.17565401898E+02 -0.31998982453E+02 -0.23476561406E+02  0.47787226305E+02  0.19999796013E+02 0.  0.
         12    1    1    2    0    0  0.17565401898E+02  0.31998982453E+02  0.23476561406E+02  0.43400773695E+02  0.00000000000E+00 0. -1.
         11    1    3    3    0    0 -0.15462703027E+02 -0.24920965715E+02 -0.79477492470E+01  0.30386122415E+02  0.51100000000E-03 0. -1.
        -11    1    3    3    0    0  0.48260798564E-01 -0.99919039966E+00 -0.67143979457E+00  0.12047996590E+01  0.51100000000E-03 0.  1.
         12    1    3    3    0    0 -0.21509596699E+01 -0.60788263384E+01 -0.14857372365E+02  0.16196304231E+02  0.00000000000E+00 0. -1.
</event>
<event>
 7    1  0.2412036E-009  0.4778727E+02  0.7816164E-02  0.1312668E+00
        -11   -1    0    0    0    0  0.00000000000E+00  0.00000000000E+00  0.45593999997E+02  0.45594000000E+02  0.51100000000E-03 0.  1.
         11   -1    0    0    0    0 -0.00000000000E+00 -0.00000000000E+00 -0.45593999997E+02  0.45594000000E+02  0.51100000000E-03 0. -1.
    9900012    2    1    2    0    0 -0.31166492842E+01 -0.25563136723E+02  0.34934738693E+02  0.47787269252E+02  0.19999991828E+02 0.  0.
         12    1    1    2    0    0  0.31166492842E+01  0.25563136723E+02 -0.34934738693E+02  0.43400730748E+02  0.00000000000E+00 0. -1.
         11    1    3    3    0    0 -0.83960687103E+01 -0.22593297773E+02  0.30715376016E+02  0.39043378416E+02  0.51100000000E-03 0.  1.
        -11    1    3    3    0    0  0.34493501623E+01 -0.81939162469E+00  0.46920171810E+01  0.58808540762E+01  0.51100000000E-03 0. -1.
        -12    1    3    3    0    0  0.18300692638E+01 -0.21504473248E+01 -0.47265450390E+00  0.28630367596E+01  0.00000000000E+00 0.  1.
</event>
<event>
 7    1  0.2412036E-009  0.4778727E+02  0.7816164E-02  0.1312668E+00
        -11   -1    0    0    0    0  0.00000000000E+00  0.00000000000E+00  0.45593999997E+02  0.45594000000E+02  0.51100000000E-03 0.  1.
         11   -1    0    0    0    0 -0.00000000000E+00 -0.00000000000E+00 -0.45593999997E+02  0.45594000000E+02  0.51100000000E-03 0. -1.
    9900012    2    1    2    0    0 -0.16759795118E+02 -0.19445383243E+02  0.34994424116E+02  0.47787269810E+02  0.19999994371E+02 0.  0.
         12    1    1    2    0    0  0.16759795118E+02  0.19445383243E+02 -0.34994424116E+02  0.43400730190E+02  0.00000000000E+00 0. -1.
         11    1    3    3    0    0  0.26416379903E+01 -0.49441342677E+01  0.32367673576E+01  0.64729728964E+01  0.51100000000E-03 0. -1.
        -11    1    3    3    0    0 -0.15299073846E+02 -0.14487365783E+02  0.30410194151E+02  0.36996288144E+02  0.51100000000E-03 0.  1.
         12    1    3    3    0    0 -0.41023592616E+01 -0.13883192696E-01  0.13474626072E+01  0.43180087694E+01  0.00000000000E+00 0. -1.
</event>
<event>
 7    1  0.2412036E-009  0.4778726E+02  0.7816164E-02  0.1312668E+00
        -11   -1    0    0    0    0  0.00000000000E+00  0.00000000000E+00  0.45593999997E+02  0.45594000000E+02  0.51100000000E-03 0.  1.
         11   -1    0    0    0    0 -0.00000000000E+00 -0.00000000000E+00 -0.45593999997E+02  0.45594000000E+02  0.51100000000E-03 0. -1.
    9900012    2    1    2    0    0  0.13881814172E+02  0.30316404708E+02  0.27781912927E+02  0.47787264465E+02  0.19999970001E+02 0.  0.
         12    1    1    2    0    0 -0.13881814172E+02 -0.30316404708E+02 -0.27781912927E+02  0.43400735535E+02  0.00000000000E+00 0. -1.
         11    1    3    3    0    0 -0.22683333718E+01 -0.55520279542E+00  0.79098748829E+00  0.24656130875E+01  0.51100000000E-03 0. -1.
        -11    1    3    3    0    0  0.73819244331E+01  0.22673093502E+02  0.21558981911E+02  0.32145787883E+02  0.51100000000E-03 0.  1.
         12    1    3    3    0    0  0.87682231103E+01  0.81985140013E+01  0.54319435274E+01  0.13175863495E+02  0.00000000000E+00 0. -1.
</event>
<event>
 7    1  0.2412036E-009  0.4778727E+02  0.7816164E-02  0.1312668E+00
        -11   -1    0    0    0    0  0.00000000000E+00  0.00000000000E+00  0.45593999997E+02  0.45594000000E+02  0.51100000000E-03 0. -1.
         11   -1    0    0    0    0 -0.00000000000E+00 -0.00000000000E+00 -0.45593999997E+02  0.45594000000E+02  0.51100000000E-03 0.  1.
    9900012    2    1    2    0    0 -0.18423396209E+02  0.53040646653E+01 -0.38936725574E+02  0.47787271570E+02  0.20000002396E+02 0.  0.
         12    1    1    2    0    0  0.18423396209E+02 -0.53040646653E+01  0.38936725574E+02  0.43400728430E+02  0.00000000000E+00 0. -1.
         11    1    3    3    0    0 -0.59697627064E+01  0.72014779736E+01 -0.51295131010E+01  0.10668235875E+02  0.51100000000E-03 0. -1.
        -11    1    3    3    0    0 -0.35352711951E+01 -0.17202185920E+01 -0.21851352189E+02  0.22202227077E+02  0.51100000000E-03 0.  1.
        -12    1    3    3    0    0 -0.89183623072E+01 -0.17719471629E+00 -0.11955860284E+02  0.14916808618E+02  0.00000000000E+00 0.  1.
</event>
<event>
 7    1  0.2412036E-009  0.4778727E+02  0.7816164E-02  0.1312668E+00
        -11   -1    0    0    0    0  0.00000000000E+00  0.00000000000E+00  0.45593999997E+02  0.45594000000E+02  0.51100000000E-03 0.  1.
         11   -1    0    0    0    0 -0.00000000000E+00 -0.00000000000E+00 -0.45593999997E+02  0.45594000000E+02  0.51100000000E-03 0. -1.
    9900012    2    1    2    0    0 -0.41859488829E+02 -0.73334109206E+01  0.88106521282E+01  0.47787270609E+02  0.19999998013E+02 0.  0.
         12    1    1    2    0    0  0.41859488829E+02  0.73334109206E+01 -0.88106521282E+01  0.43400729391E+02  0.00000000000E+00 0. -1.
         11    1    3    3    0    0  0.77570079208E+00 -0.15405659790E+01  0.11536939837E+01  0.20751060994E+01  0.51100000000E-03 0. -1.
        -11    1    3    3    0    0 -0.39091064145E+02 -0.49476595420E+01  0.10847885355E+02  0.40868903189E+02  0.51100000000E-03 0.  1.
        -12    1    3    3    0    0 -0.35441254764E+01 -0.84518539954E+00 -0.31909272109E+01  0.48432613204E+01  0.00000000000E+00 0.  1.
</event>
<event>
 7    1  0.2412036E-009  0.4778727E+02  0.7816164E-02  0.1312668E+00
        -11   -1    0    0    0    0  0.00000000000E+00  0.00000000000E+00  0.45593999997E+02  0.45594000000E+02  0.51100000000E-03 0.  1.
         11   -1    0    0    0    0 -0.00000000000E+00 -0.00000000000E+00 -0.45593999997E+02  0.45594000000E+02  0.51100000000E-03 0. -1.
    9900012    2    1    2    0    0 -0.26001538787E+02 -0.39571148160E-01  0.34749703373E+02  0.47787268789E+02  0.19999989715E+02 0.  0.
         12    1    1    2    0    0  0.26001538787E+02  0.39571148160E-01 -0.34749703373E+02  0.43400731211E+02  0.00000000000E+00 0. -1.
         11    1    3    3    0    0  0.23127050364E+00 -0.88698157022E+00 -0.32952112725E+00  0.97406713638E+00  0.51100000000E-03 0. -1.
        -11    1    3    3    0    0 -0.14017373092E+02 -0.60006640712E+01  0.10463236218E+02  0.18492539850E+02  0.51100000000E-03 0.  1.
        -12    1    3    3    0    0 -0.12215436198E+02  0.68480744933E+01  0.24615988283E+02  0.28320661802E+02  0.00000000000E+00 0.  1.
</event>
<event>
 7    1  0.2412036E-009  0.4778727E+02  0.7816164E-02  0.1312668E+00
        -11   -1    0    0    0    0  0.00000000000E+00  0.00000000000E+00  0.45593999997E+02  0.45594000000E+02  0.51100000000E-03 0.  1.
         11   -1    0    0    0    0 -0.00000000000E+00 -0.00000000000E+00 -0.45593999997E+02  0.45594000000E+02  0.51100000000E-03 0. -1.
    9900012    2    1    2    0    0  0.41184478294E+02 -0.11672361008E+02  0.71566761731E+01  0.47787271000E+02  0.19999999799E+02 0.  0.
         12    1    1    2    0    0 -0.41184478294E+02  0.11672361008E+02 -0.71566761731E+01  0.43400729000E+02  0.00000000000E+00 0. -1.
         11    1    3    3    0    0  0.34762163383E+01  0.12837607718E+00  0.27422198789E+01  0.44294842333E+01  0.51100000000E-03 0. -1.
        -11    1    3    3    0    0  0.21974291310E+02 -0.92655247527E+01  0.10812524788E+02  0.26184539715E+02  0.51100000000E-03 0.  1.
        -12    1    3    3    0    0  0.15733970646E+02 -0.25352123321E+01 -0.63980684942E+01  0.17173247052E+02  0.00000000000E+00 0.  1.
</event>
<event>
 7    1  0.2412036E-009  0.4778727E+02  0.7816164E-02  0.1312668E+00
        -11   -1    0    0    0    0  0.00000000000E+00  0.00000000000E+00  0.45593999997E+02  0.45594000000E+02  0.51100000000E-03 0.  1.
         11   -1    0    0    0    0 -0.00000000000E+00 -0.00000000000E+00 -0.45593999997E+02  0.45594000000E+02  0.51100000000E-03 0. -1.
    9900012    2    1    2    0    0  0.75142705115E+00 -0.26487208170E+02  0.34372763238E+02  0.47787266229E+02  0.19999978044E+02 0.  0.
         12    1    1    2    0    0 -0.75142705115E+00  0.26487208170E+02 -0.34372763238E+02  0.43400733771E+02  0.00000000000E+00 0. -1.
         11    1    3    3    0    0  0.98912603187E+01 -0.15012645367E+02  0.16856692314E+02  0.24644768769E+02  0.51100000000E-03 0. -1.
        -11    1    3    3    0    0 -0.62443135663E+01 -0.79950150363E+01  0.93020145737E+01  0.13763691101E+02  0.51100000000E-03 0.  1.
         12    1    3    3    0    0 -0.28955197013E+01 -0.34795477669E+01  0.82140563497E+01  0.93788063590E+01  0.00000000000E+00 0. -1.
</event>
<event>
 7    1  0.2412036E-009  0.4778727E+02  0.7816164E-02  0.1312668E+00
        -11   -1    0    0    0    0  0.00000000000E+00  0.00000000000E+00  0.45593999997E+02  0.45594000000E+02  0.51100000000E-03 0.  1.
         11   -1    0    0    0    0 -0.00000000000E+00 -0.00000000000E+00 -0.45593999997E+02  0.45594000000E+02  0.51100000000E-03 0. -1.
    9900012    2    1    2    0    0 -0.42157458120E+02  0.41688025028E+01  0.94336008845E+01  0.47787274026E+02  0.20000013593E+02 0.  0.
         12    1    1    2    0    0  0.42157458120E+02 -0.41688025028E+01 -0.94336008845E+01  0.43400725974E+02  0.00000000000E+00 0. -1.
         11    1    3    3    0    0 -0.16032131695E+02 -0.12906358883E+00  0.12703804570E+02  0.20455624042E+02  0.51100000000E-03 0. -1.
        -11    1    3    3    0    0 -0.26159917570E+02  0.44328194780E+01 -0.26145289576E+01  0.26661337883E+02  0.51100000000E-03 0.  1.
         12    1    3    3    0    0  0.34591145106E-01 -0.13495338640E+00 -0.65567472820E+00  0.67031210120E+00  0.00000000000E+00 0. -1.
</event>
<event>
 7    1  0.2412036E-009  0.4778727E+02  0.7816164E-02  0.1312668E+00
        -11   -1    0    0    0    0  0.00000000000E+00  0.00000000000E+00  0.45593999997E+02  0.45594000000E+02  0.51100000000E-03 0.  1.
         11   -1    0    0    0    0 -0.00000000000E+00 -0.00000000000E+00 -0.45593999997E+02  0.45594000000E+02  0.51100000000E-03 0. -1.
    9900012    2    1    2    0    0  0.40105263340E+02  0.16280164164E+02  0.31855685954E+01  0.47787265674E+02  0.19999975514E+02 0.  0.
         12    1    1    2    0    0 -0.40105263340E+02 -0.16280164164E+02 -0.31855685954E+01  0.43400734326E+02  0.00000000000E+00 0. -1.
         11    1    3    3    0    0  0.17617695161E+02  0.65055884435E+01 -0.32581942848E+01  0.19060999293E+02  0.51100000000E-03 0. -1.
        -11    1    3    3    0    0  0.97906796357E+01  0.55513785883E+01  0.98081140709E+01  0.14928975646E+02  0.51100000000E-03 0.  1.
        -12    1    3    3    0    0  0.12696888543E+02  0.42231971326E+01 -0.33643511908E+01  0.13797290735E+02  0.00000000000E+00 0.  1.
</event>
<event>
 7    1  0.2412036E-009  0.4778727E+02  0.7816164E-02  0.1312668E+00
        -11   -1    0    0    0    0  0.00000000000E+00  0.00000000000E+00  0.45593999997E+02  0.45594000000E+02  0.51100000000E-03 0. -1.
         11   -1    0    0    0    0 -0.00000000000E+00 -0.00000000000E+00 -0.45593999997E+02  0.45594000000E+02  0.51100000000E-03 0.  1.
    9900012    2    1    2    0    0  0.33761498200E+02  0.21127584022E+01 -0.27190453328E+02  0.47787271194E+02  0.20000000681E+02 0.  0.
         12    1    1    2    0    0 -0.33761498200E+02 -0.21127584022E+01  0.27190453328E+02  0.43400728806E+02  0.00000000000E+00 0. -1.
         11    1    3    3    0    0  0.17376639991E+02  0.77732764677E-01 -0.35285479847E+01  0.17731449768E+02  0.51100000000E-03 0. -1.
        -11    1    3    3    0    0  0.13744202115E+02  0.46715952989E+01 -0.20744447024E+02  0.25319142501E+02  0.51100000000E-03 0.  1.
         12    1    3    3    0    0  0.26406560944E+01 -0.26365696615E+01 -0.29174583193E+01  0.47366789245E+01  0.00000000000E+00 0. -1.
</event>
<event>
 7    1  0.2412036E-009  0.4778727E+02  0.7816164E-02  0.1312668E+00
        -11   -1    0    0    0    0  0.00000000000E+00  0.00000000000E+00  0.45593999997E+02  0.45594000000E+02  0.51100000000E-03 0. -1.
         11   -1    0    0    0    0 -0.00000000000E+00 -0.00000000000E+00 -0.45593999997E+02  0.45594000000E+02  0.51100000000E-03 0.  1.
    9900012    2    1    2    0    0  0.35996553845E+02  0.23955327784E+02 -0.37435043990E+01  0.47787269094E+02  0.19999991108E+02 0.  0.
         12    1    1    2    0    0 -0.35996553845E+02 -0.23955327784E+02  0.37435043990E+01  0.43400730906E+02  0.00000000000E+00 0. -1.
         11    1    3    3    0    0  0.69634847174E+01  0.75927577227E+00 -0.58156253026E+01  0.91042911327E+01  0.51100000000E-03 0. -1.
        -11    1    3    3    0    0  0.14152358569E+02  0.17025826744E+02  0.38640039088E+01  0.22474397786E+02  0.51100000000E-03 0.  1.
         12    1    3    3    0    0  0.14880710559E+02  0.61702252679E+01 -0.17918830053E+01  0.16208580175E+02  0.00000000000E+00 0. -1.
</event>
<event>
 7    1  0.2412036E-009  0.4778727E+02  0.7816164E-02  0.1312668E+00
        -11   -1    0    0    0    0  0.00000000000E+00  0.00000000000E+00  0.45593999997E+02  0.45594000000E+02  0.51100000000E-03 0.  1.
         11   -1    0    0    0    0 -0.00000000000E+00 -0.00000000000E+00 -0.45593999997E+02  0.45594000000E+02  0.51100000000E-03 0. -1.
    9900012    2    1    2    0    0 -0.95337223331E+01  0.39852348075E+02  0.14301115237E+02  0.47787269527E+02  0.19999993080E+02 0.  0.
         12    1    1    2    0    0  0.95337223331E+01 -0.39852348075E+02 -0.14301115237E+02  0.43400730473E+02  0.00000000000E+00 0. -1.
         11    1    3    3    0    0 -0.16071350205E+01  0.38407254537E+00  0.32512998088E+01  0.36471009586E+01  0.51100000000E-03 0. -1.
        -11    1    3    3    0    0 -0.57760700528E+01  0.30801115328E+02  0.14547064565E+02  0.34549801424E+02  0.51100000000E-03 0.  1.
        -12    1    3    3    0    0 -0.21505172599E+01  0.86671602011E+01 -0.34972491365E+01  0.95903671441E+01  0.00000000000E+00 0.  1.
</event>
<event>
 7    1  0.2412036E-009  0.4778727E+02  0.7816164E-02  0.1312668E+00
        -11   -1    0    0    0    0  0.00000000000E+00  0.00000000000E+00  0.45593999997E+02  0.45594000000E+02  0.51100000000E-03 0. -1.
         11   -1    0    0    0    0 -0.00000000000E+00 -0.00000000000E+00 -0.45593999997E+02  0.45594000000E+02  0.51100000000E-03 0.  1.
    9900012    2    1    2    0    0 -0.40238274170E+02  0.94806255687E+01 -0.13214463750E+02  0.47787273952E+02  0.20000013254E+02 0.  0.
         12    1    1    2    0    0  0.40238274170E+02 -0.94806255687E+01  0.13214463750E+02  0.43400726048E+02  0.00000000000E+00 0. -1.
         11    1    3    3    0    0 -0.50737384875E+01 -0.48210284195E+01 -0.56874897370E+01  0.90184631191E+01  0.51100000000E-03 0. -1.
        -11    1    3    3    0    0 -0.13568581206E+02  0.60175600201E+01 -0.19028894650E+01  0.14964571933E+02  0.51100000000E-03 0.  1.
         12    1    3    3    0    0 -0.21595954476E+02  0.82840939681E+01 -0.56240845484E+01  0.23804238900E+02  0.00000000000E+00 0. -1.
</event>
<event>
 7    1  0.2412036E-009  0.4778727E+02  0.7816164E-02  0.1312668E+00
        -11   -1    0    0    0    0  0.00000000000E+00  0.00000000000E+00  0.45593999997E+02  0.45594000000E+02  0.51100000000E-03 0.  1.
         11   -1    0    0    0    0 -0.00000000000E+00 -0.00000000000E+00 -0.45593999997E+02  0.45594000000E+02  0.51100000000E-03 0. -1.
    9900012    2    1    2    0    0 -0.11823233780E+02 -0.39911424826E+02  0.12284640405E+02  0.47787273294E+02  0.20000010258E+02 0.  0.
         12    1    1    2    0    0  0.11823233780E+02  0.39911424826E+02 -0.12284640405E+02  0.43400726706E+02  0.00000000000E+00 0. -1.
         11    1    3    3    0    0  0.23878850575E+01 -0.33062255217E+01  0.18613519034E+01  0.44830517973E+01  0.51100000000E-03 0. -1.
        -11    1    3    3    0    0 -0.66206199148E+01 -0.27369288439E+02  0.13094802737E+02  0.31054539389E+02  0.51100000000E-03 0.  1.
        -12    1    3    3    0    0 -0.75904989231E+01 -0.92359108660E+01 -0.26715142359E+01  0.12249682108E+02  0.00000000000E+00 0.  1.
</event>
<event>
 7    1  0.2412036E-009  0.4778727E+02  0.7816164E-02  0.1312668E+00
        -11   -1    0    0    0    0  0.00000000000E+00  0.00000000000E+00  0.45593999997E+02  0.45594000000E+02  0.51100000000E-03 0.  1.
         11   -1    0    0    0    0 -0.00000000000E+00 -0.00000000000E+00 -0.45593999997E+02  0.45594000000E+02  0.51100000000E-03 0. -1.
    9900012    2    1    2    0    0  0.35917288895E+02 -0.23161631093E+02 -0.75571487330E+01  0.47787270819E+02  0.19999998973E+02 0.  0.
         12    1    1    2    0    0 -0.35917288895E+02  0.23161631093E+02  0.75571487330E+01  0.43400729181E+02  0.00000000000E+00 0. -1.
         11    1    3    3    0    0  0.28321065891E+01 -0.49341967025E+01  0.24080501711E+01  0.61778500078E+01  0.51100000000E-03 0. -1.
        -11    1    3    3    0    0  0.34302058137E+02 -0.16680923472E+02 -0.83092411143E+01  0.39037518984E+02  0.51100000000E-03 0.  1.
         12    1    3    3    0    0 -0.12168758305E+01 -0.15465109178E+01 -0.16559577898E+01  0.25719018269E+01  0.00000000000E+00 0. -1.
</event>
<event>
 7    1  0.2412036E-009  0.4778727E+02  0.7816164E-02  0.1312668E+00
        -11   -1    0    0    0    0  0.00000000000E+00  0.00000000000E+00  0.45593999997E+02  0.45594000000E+02  0.51100000000E-03 0. -1.
         11   -1    0    0    0    0 -0.00000000000E+00 -0.00000000000E+00 -0.45593999997E+02  0.45594000000E+02  0.51100000000E-03 0.  1.
    9900012    2    1    2    0    0 -0.22840959427E+02 -0.27582677984E+02 -0.24517536701E+02  0.47787272377E+02  0.20000006078E+02 0.  0.
         12    1    1    2    0    0  0.22840959427E+02  0.27582677984E+02  0.24517536701E+02  0.43400727623E+02  0.00000000000E+00 0. -1.
         11    1    3    3    0    0 -0.70884979896E+01 -0.21594160635E+01 -0.92711715857E+01  0.11868635318E+02  0.51100000000E-03 0. -1.
        -11    1    3    3    0    0 -0.17296565110E+02 -0.20567975253E+02 -0.10191466799E+02  0.28741586011E+02  0.51100000000E-03 0.  1.
        -12    1    3    3    0    0  0.15441036728E+01 -0.48552866668E+01 -0.50548983156E+01  0.71770510483E+01  0.00000000000E+00 0.  1.
</event>
<event>
 7    1  0.2412036E-009  0.4778727E+02  0.7816164E-02  0.1312668E+00
        -11   -1    0    0    0    0  0.00000000000E+00  0.00000000000E+00  0.45593999997E+02  0.45594000000E+02  0.51100000000E-03 0. -1.
         11   -1    0    0    0    0 -0.00000000000E+00 -0.00000000000E+00 -0.45593999997E+02  0.45594000000E+02  0.51100000000E-03 0.  1.
    9900012    2    1    2    0    0 -0.36733203602E+02  0.10657056860E+02 -0.20511507924E+02  0.47787273450E+02  0.20000010967E+02 0.  0.
         12    1    1    2    0    0  0.36733203602E+02 -0.10657056860E+02  0.20511507924E+02  0.43400726550E+02  0.00000000000E+00 0. -1.
         11    1    3    3    0    0 -0.16797116803E+02  0.11324821659E+02 -0.15240990222E+02  0.25351183438E+02  0.51100000000E-03 0. -1.
        -11    1    3    3    0    0 -0.10002466623E+02 -0.11666075729E+01 -0.71020558827E+01  0.12322723310E+02  0.51100000000E-03 0.  1.
         12    1    3    3    0    0 -0.99336201764E+01  0.49884277368E+00  0.18315381811E+01  0.10113366701E+02  0.00000000000E+00 0. -1.
</event>
<event>
 7    1  0.2412036E-009  0.4778727E+02  0.7816164E-02  0.1312668E+00
        -11   -1    0    0    0    0  0.00000000000E+00  0.00000000000E+00  0.45593999997E+02  0.45594000000E+02  0.51100000000E-03 0. -1.
         11   -1    0    0    0    0 -0.00000000000E+00 -0.00000000000E+00 -0.45593999997E+02  0.45594000000E+02  0.51100000000E-03 0.  1.
    9900012    2    1    2    0    0 -0.28350384794E+02 -0.12064165013E+02 -0.30566899505E+02  0.47787265666E+02  0.19999975476E+02 0.  0.
         12    1    1    2    0    0  0.28350384794E+02  0.12064165013E+02  0.30566899505E+02  0.43400734334E+02  0.00000000000E+00 0. -1.
         11    1    3    3    0    0  0.15624196395E+01 -0.16900355712E+01 -0.72230409653E+01  0.75808770211E+01  0.51100000000E-03 0. -1.
        -11    1    3    3    0    0 -0.19664261120E+02 -0.26058799988E+01 -0.13192308927E+02  0.23822484989E+02  0.51100000000E-03 0.  1.
         12    1    3    3    0    0 -0.10248543313E+02 -0.77682494432E+01 -0.10151549613E+02  0.16383903656E+02  0.00000000000E+00 0. -1.
</event>
<event>
 7    1  0.2412036E-009  0.4778730E+02  0.7816164E-02  0.1312668E+00
        -11   -1    0    0    0    0  0.00000000000E+00  0.00000000000E+00  0.45593999997E+02  0.45594000000E+02  0.51100000000E-03 0.  1.
         11   -1    0    0    0    0 -0.00000000000E+00 -0.00000000000E+00 -0.45593999997E+02  0.45594000000E+02  0.51100000000E-03 0. -1.
    9900012    2    1    2    0    0 -0.19955905184E+02  0.38522627596E+02  0.11788271115E+01  0.47787301596E+02  0.20000139296E+02 0.  0.
         12    1    1    2    0    0  0.19955905184E+02 -0.38522627596E+02 -0.11788271115E+01  0.43400698404E+02  0.00000000000E+00 0. -1.
         11    1    3    3    0    0 -0.10653746102E+02  0.11242061396E+02 -0.71664745305E+01  0.17065890187E+02  0.51100000000E-03 0. -1.
        -11    1    3    3    0    0 -0.91973489808E+01  0.17508784042E+02  0.60651057161E+01  0.20686571840E+02  0.51100000000E-03 0.  1.
        -12    1    3    3    0    0 -0.10481010162E+00  0.97717821580E+01  0.22801959258E+01  0.10034839568E+02  0.00000000000E+00 0.  1.
</event>
<event>
 7    1  0.2412036E-009  0.4778727E+02  0.7816164E-02  0.1312668E+00
        -11   -1    0    0    0    0  0.00000000000E+00  0.00000000000E+00  0.45593999997E+02  0.45594000000E+02  0.51100000000E-03 0.  1.
         11   -1    0    0    0    0 -0.00000000000E+00 -0.00000000000E+00 -0.45593999997E+02  0.45594000000E+02  0.51100000000E-03 0. -1.
    9900012    2    1    2    0    0 -0.11621284540E+02  0.12454953749E+02  0.39917955212E+02  0.47787271025E+02  0.19999999913E+02 0.  0.
         12    1    1    2    0    0  0.11621284540E+02 -0.12454953749E+02 -0.39917955212E+02  0.43400728975E+02  0.00000000000E+00 0. -1.
         11    1    3    3    0    0 -0.14982269336E+01  0.13757055031E+02  0.22710109406E+02  0.26594178246E+02  0.51100000000E-03 0. -1.
        -11    1    3    3    0    0  0.92813014158E+00 -0.91440396575E+00  0.20857509992E+01  0.24592514438E+01  0.51100000000E-03 0.  1.
         12    1    3    3    0    0 -0.11051187748E+02 -0.38769731684E+00  0.15122094807E+02  0.18733841336E+02  0.00000000000E+00 0. -1.
</event>
<event>
 7    1  0.2412036E-009  0.4778728E+02  0.7816164E-02  0.1312668E+00
        -11   -1    0    0    0    0  0.00000000000E+00  0.00000000000E+00  0.45593999997E+02  0.45594000000E+02  0.51100000000E-03 0. -1.
         11   -1    0    0    0    0 -0.00000000000E+00 -0.00000000000E+00 -0.45593999997E+02  0.45594000000E+02  0.51100000000E-03 0.  1.
    9900012    2    1    2    0    0  0.12133127447E+02 -0.39501664877E+02 -0.13267566214E+02  0.47787278544E+02  0.20000034192E+02 0.  0.
         12    1    1    2    0    0 -0.12133127447E+02  0.39501664877E+02  0.13267566214E+02  0.43400721456E+02  0.00000000000E+00 0. -1.
         11    1    3    3    0    0  0.34130222975E+01 -0.32066605947E+02 -0.69588758428E+01  0.32990027151E+02  0.51100000000E-03 0. -1.
        -11    1    3    3    0    0  0.90050219334E+01 -0.73967029395E+01 -0.37783251559E+01  0.12250607154E+02  0.51100000000E-03 0.  1.
        -12    1    3    3    0    0 -0.28491678410E+00 -0.38355990484E-01 -0.25303652157E+01  0.25466442391E+01  0.00000000000E+00 0.  1.
</event>
<event>
 7    1  0.2412036E-009  0.4778727E+02  0.7816164E-02  0.1312668E+00
        -11   -1    0    0    0    0  0.00000000000E+00  0.00000000000E+00  0.45593999997E+02  0.45594000000E+02  0.51100000000E-03 0.  1.
         11   -1    0    0    0    0 -0.00000000000E+00 -0.00000000000E+00 -0.45593999997E+02  0.45594000000E+02  0.51100000000E-03 0. -1.
    9900012    2    1    2    0    0  0.25663441419E+02 -0.26060120674E+02  0.23364101520E+02  0.47787270111E+02  0.19999995746E+02 0.  0.
         12    1    1    2    0    0 -0.25663441419E+02  0.26060120674E+02 -0.23364101520E+02  0.43400729889E+02  0.00000000000E+00 0. -1.
         11    1    3    3    0    0 -0.15772428328E+01 -0.96390200939E+01  0.61143725852E+01  0.11523192079E+02  0.51100000000E-03 0. -1.
        -11    1    3    3    0    0  0.14877506398E+02 -0.88533686504E+01  0.10746046896E+02  0.20376453500E+02  0.51100000000E-03 0.  1.
         12    1    3    3    0    0  0.12363177854E+02 -0.75677319295E+01  0.65036820392E+01  0.15887624532E+02  0.00000000000E+00 0. -1.
</event>
<event>
 7    1  0.2412036E-009  0.4778727E+02  0.7816164E-02  0.1312668E+00
        -11   -1    0    0    0    0  0.00000000000E+00  0.00000000000E+00  0.45593999997E+02  0.45594000000E+02  0.51100000000E-03 0. -1.
         11   -1    0    0    0    0 -0.00000000000E+00 -0.00000000000E+00 -0.45593999997E+02  0.45594000000E+02  0.51100000000E-03 0.  1.
    9900012    2    1    2    0    0  0.30734609021E+02 -0.12674102539E+02 -0.27899362217E+02  0.47787268681E+02  0.19999989226E+02 0.  0.
         12    1    1    2    0    0 -0.30734609021E+02  0.12674102539E+02  0.27899362217E+02  0.43400731319E+02  0.00000000000E+00 0. -1.
         11    1    3    3    0    0  0.22915399981E+02 -0.77313441939E+01 -0.10321830484E+02  0.26295045619E+02  0.51100000000E-03 0. -1.
        -11    1    3    3    0    0  0.76866170329E+01 -0.69312456337E+01 -0.15210125989E+02  0.18397667795E+02  0.51100000000E-03 0.  1.
         12    1    3    3    0    0  0.13259200764E+00  0.19884872891E+01 -0.23674057446E+01  0.30945552667E+01  0.00000000000E+00 0. -1.
</event>
<event>
 7    1  0.2823623E-009  0.4778727E+02  0.7816164E-02  0.1312668E+00
        -11   -1    0    0    0    0  0.00000000000E+00  0.00000000000E+00  0.45593999997E+02  0.45594000000E+02  0.51100000000E-03 0.  1.
         11   -1    0    0    0    0 -0.00000000000E+00 -0.00000000000E+00 -0.45593999997E+02  0.45594000000E+02  0.51100000000E-03 0. -1.
    9900012    2    1    2    0    0 -0.93766567815E+01 -0.40727154179E+02  0.11704721780E+02  0.47787270837E+02  0.19999999055E+02 0.  0.
         12    1    1    2    0    0  0.93766567815E+01  0.40727154179E+02 -0.11704721780E+02  0.43400729163E+02  0.00000000000E+00 0. -1.
         11    1    3    3    0    0 -0.48468350587E+01 -0.37322599545E+01 -0.31705991053E+01  0.68901577196E+01  0.51100000000E-03 0. -1.
        -11    1    3    3    0    0 -0.26881854338E+00 -0.19524171857E+02  0.11307384907E+02  0.22563743125E+02  0.51100000000E-03 0.  1.
        -12    1    3    3    0    0 -0.42610031794E+01 -0.17470722367E+02  0.35679359775E+01  0.18333369992E+02  0.00000000000E+00 0.  1.
</event>
<event>
 7    1  0.2412036E-009  0.4778727E+02  0.7816164E-02  0.1312668E+00
        -11   -1    0    0    0    0  0.00000000000E+00  0.00000000000E+00  0.45593999997E+02  0.45594000000E+02  0.51100000000E-03 0.  1.
         11   -1    0    0    0    0 -0.00000000000E+00 -0.00000000000E+00 -0.45593999997E+02  0.45594000000E+02  0.51100000000E-03 0. -1.
    9900012    2    1    2    0    0  0.41192822420E+02  0.11529623945E+02  0.73377431717E+01  0.47787270489E+02  0.19999997469E+02 0.  0.
         12    1    1    2    0    0 -0.41192822420E+02 -0.11529623945E+02 -0.73377431717E+01  0.43400729511E+02  0.00000000000E+00 0. -1.
         11    1    3    3    0    0  0.23931075298E+02  0.91081403992E+01  0.12718666303E+01  0.25637321066E+02  0.51100000000E-03 0. -1.
        -11    1    3    3    0    0  0.10017306040E+02 -0.25729693486E+01  0.80783631868E+01  0.13123511101E+02  0.51100000000E-03 0.  1.
        -12    1    3    3    0    0  0.72444410814E+01  0.49944528941E+01 -0.20124866454E+01  0.90264383226E+01  0.00000000000E+00 0.  1.
</event>
<event>
 7    1  0.2412036E-009  0.4778727E+02  0.7816164E-02  0.1312668E+00
        -11   -1    0    0    0    0  0.00000000000E+00  0.00000000000E+00  0.45593999997E+02  0.45594000000E+02  0.51100000000E-03 0.  1.
         11   -1    0    0    0    0 -0.00000000000E+00 -0.00000000000E+00 -0.45593999997E+02  0.45594000000E+02  0.51100000000E-03 0. -1.
    9900012    2    1    2    0    0 -0.30101705722E+02 -0.30292777272E+02  0.77368121316E+01  0.47787270695E+02  0.19999998407E+02 0.  0.
         12    1    1    2    0    0  0.30101705722E+02  0.30292777272E+02 -0.77368121316E+01  0.43400729305E+02  0.00000000000E+00 0. -1.
         11    1    3    3    0    0 -0.34037306245E+01 -0.20554000470E+01 -0.27098290841E+01  0.48117798624E+01  0.51100000000E-03 0. -1.
        -11    1    3    3    0    0 -0.11866188305E+02 -0.22613860835E+02  0.39820422348E+01  0.25846659114E+02  0.51100000000E-03 0.  1.
        -12    1    3    3    0    0 -0.14831786792E+02 -0.56235163905E+01  0.64645989810E+01  0.17128831718E+02  0.00000000000E+00 0.  1.
</event>
<event>
 7    1  0.2412036E-009  0.4778728E+02  0.7816164E-02  0.1312668E+00
        -11   -1    0    0    0    0  0.00000000000E+00  0.00000000000E+00  0.45593999997E+02  0.45594000000E+02  0.51100000000E-03 0. -1.
         11   -1    0    0    0    0 -0.00000000000E+00 -0.00000000000E+00 -0.45593999997E+02  0.45594000000E+02  0.51100000000E-03 0.  1.
    9900012    2    1    2    0    0  0.17202699337E+02  0.35838897174E+02  0.17414453682E+02  0.47787278667E+02  0.20000034756E+02 0.  0.
         12    1    1    2    0    0 -0.17202699337E+02 -0.35838897174E+02 -0.17414453682E+02  0.43400721333E+02  0.00000000000E+00 0. -1.
         11    1    3    3    0    0 -0.10948821642E+01  0.92468763854E+01  0.10296337740E+02  0.13882293073E+02  0.51100000000E-03 0. -1.
        -11    1    3    3    0    0  0.93320436097E+01  0.19061033175E+02  0.64317613752E+01  0.22176058673E+02  0.51100000000E-03 0.  1.
         12    1    3    3    0    0  0.89655378918E+01  0.75309876136E+01  0.68635456646E+00  0.11728926921E+02  0.00000000000E+00 0. -1.
</event>
<event>
 7    1  0.2412036E-009  0.4778727E+02  0.7816164E-02  0.1312668E+00
        -11   -1    0    0    0    0  0.00000000000E+00  0.00000000000E+00  0.45593999997E+02  0.45594000000E+02  0.51100000000E-03 0.  1.
         11   -1    0    0    0    0 -0.00000000000E+00 -0.00000000000E+00 -0.45593999997E+02  0.45594000000E+02  0.51100000000E-03 0. -1.
    9900012    2    1    2    0    0  0.27153573132E+02 -0.22468403929E+02  0.25327405528E+02  0.47787272129E+02  0.20000004945E+02 0.  0.
         12    1    1    2    0    0 -0.27153573132E+02  0.22468403929E+02 -0.25327405528E+02  0.43400727871E+02  0.00000000000E+00 0. -1.
         11    1    3    3    0    0 -0.93205173725E+00 -0.57966419546E+01 -0.39936020506E+00  0.58846637308E+01  0.51100000000E-03 0.  1.
        -11    1    3    3    0    0  0.19263832063E+02 -0.12346524155E+02  0.15015977479E+02  0.27368073816E+02  0.51100000000E-03 0. -1.
        -12    1    3    3    0    0  0.88217928063E+01 -0.43252378190E+01  0.10710788254E+02  0.14534534583E+02  0.00000000000E+00 0.  1.
</event>
<event>
 7    1  0.2412036E-009  0.4778728E+02  0.7816164E-02  0.1312668E+00
        -11   -1    0    0    0    0  0.00000000000E+00  0.00000000000E+00  0.45593999997E+02  0.45594000000E+02  0.51100000000E-03 0.  1.
         11   -1    0    0    0    0 -0.00000000000E+00 -0.00000000000E+00 -0.45593999997E+02  0.45594000000E+02  0.51100000000E-03 0. -1.
    9900012    2    1    2    0    0 -0.28510941187E+02 -0.18095440209E+02  0.27263598673E+02  0.47787279541E+02  0.20000038741E+02 0.  0.
         12    1    1    2    0    0  0.28510941187E+02  0.18095440209E+02 -0.27263598673E+02  0.43400720459E+02  0.00000000000E+00 0. -1.
         11    1    3    3    0    0 -0.18034235851E+01 -0.30401878379E+01  0.49808822365E+01  0.61077219020E+01  0.51100000000E-03 0. -1.
        -11    1    3    3    0    0  0.43448074094E+00 -0.67114258601E+01  0.30570233180E+01  0.73876520233E+01  0.51100000000E-03 0.  1.
        -12    1    3    3    0    0 -0.27141998343E+02 -0.83438265107E+01  0.19225693118E+02  0.34291905616E+02  0.00000000000E+00 0.  1.
</event>
<event>
 7    1  0.2412036E-009  0.4778727E+02  0.7816164E-02  0.1312668E+00
        -11   -1    0    0    0    0  0.00000000000E+00  0.00000000000E+00  0.45593999997E+02  0.45594000000E+02  0.51100000000E-03 0. -1.
         11   -1    0    0    0    0 -0.00000000000E+00 -0.00000000000E+00 -0.45593999997E+02  0.45594000000E+02  0.51100000000E-03 0.  1.
    9900012    2    1    2    0    0 -0.14179340298E+02 -0.15881410616E+02 -0.37819977418E+02  0.47787267445E+02  0.19999983587E+02 0.  0.
         12    1    1    2    0    0  0.14179340298E+02  0.15881410616E+02  0.37819977418E+02  0.43400732555E+02  0.00000000000E+00 0. -1.
         11    1    3    3    0    0 -0.44951797705E+01 -0.86413712272E+01 -0.73287949305E+01  0.12189797917E+02  0.51100000000E-03 0. -1.
        -11    1    3    3    0    0 -0.16729812931E+01  0.86722938956E-01 -0.21320295375E+02  0.21386009034E+02  0.51100000000E-03 0.  1.
        -12    1    3    3    0    0 -0.80111792347E+01 -0.73267623279E+01 -0.91708871124E+01  0.14211460494E+02  0.00000000000E+00 0.  1.
</event>
<event>
 7    1  0.2412036E-009  0.4778727E+02  0.7816164E-02  0.1312668E+00
        -11   -1    0    0    0    0  0.00000000000E+00  0.00000000000E+00  0.45593999997E+02  0.45594000000E+02  0.51100000000E-03 0.  1.
         11   -1    0    0    0    0 -0.00000000000E+00 -0.00000000000E+00 -0.45593999997E+02  0.45594000000E+02  0.51100000000E-03 0. -1.
    9900012    2    1    2    0    0  0.66927369316E+01  0.42858469606E+02  0.14079917992E+01  0.47787267454E+02  0.19999983629E+02 0.  0.
         12    1    1    2    0    0 -0.66927369316E+01 -0.42858469606E+02 -0.14079917992E+01  0.43400732546E+02  0.00000000000E+00 0. -1.
         11    1    3    3    0    0 -0.14032792923E+01 -0.16499087722E+01  0.74130386537E+00  0.22893063165E+01  0.51100000000E-03 0. -1.
        -11    1    3    3    0    0  0.25923470994E+01  0.21843928272E+02  0.23034235845E+01  0.22117486890E+02  0.51100000000E-03 0.  1.
         12    1    3    3    0    0  0.55036691246E+01  0.22664450106E+02 -0.16367356507E+01  0.23380474247E+02  0.00000000000E+00 0. -1.
</event>
<event>
 7    1  0.2412036E-009  0.4778727E+02  0.7816164E-02  0.1312668E+00
        -11   -1    0    0    0    0  0.00000000000E+00  0.00000000000E+00  0.45593999997E+02  0.45594000000E+02  0.51100000000E-03 0. -1.
         11   -1    0    0    0    0 -0.00000000000E+00 -0.00000000000E+00 -0.45593999997E+02  0.45594000000E+02  0.51100000000E-03 0.  1.
    9900012    2    1    2    0    0 -0.66569344931E+00  0.38801274430E+02 -0.19432998824E+02  0.47787268572E+02  0.19999988729E+02 0.  0.
         12    1    1    2    0    0  0.66569344931E+00 -0.38801274430E+02  0.19432998824E+02  0.43400731428E+02  0.00000000000E+00 0. -1.
         11    1    3    3    0    0 -0.32114476568E+01 -0.59875310736E+00 -0.29517488927E+01  0.44028085494E+01  0.51100000000E-03 0. -1.
        -11    1    3    3    0    0  0.20031784702E+01  0.18105638530E+02 -0.11387489997E+02  0.21482592936E+02  0.51100000000E-03 0.  1.
         12    1    3    3    0    0  0.54257573734E+00  0.21294389007E+02 -0.50937599345E+01  0.21901867087E+02  0.00000000000E+00 0. -1.
</event>
<event>
 7    1  0.2412036E-009  0.4778727E+02  0.7816164E-02  0.1312668E+00
        -11   -1    0    0    0    0  0.00000000000E+00  0.00000000000E+00  0.45593999997E+02  0.45594000000E+02  0.51100000000E-03 0.  1.
         11   -1    0    0    0    0 -0.00000000000E+00 -0.00000000000E+00 -0.45593999997E+02  0.45594000000E+02  0.51100000000E-03 0. -1.
    9900012    2    1    2    0    0 -0.39397350771E+01 -0.10677982687E+02  0.41881771909E+02  0.47787266770E+02  0.19999980509E+02 0.  0.
         12    1    1    2    0    0  0.39397350771E+01  0.10677982687E+02 -0.41881771909E+02  0.43400733230E+02  0.00000000000E+00 0. -1.
         11    1    3    3    0    0  0.10130879086E+00  0.44602842464E+01  0.14289313305E+02  0.14969598325E+02  0.51100000000E-03 0. -1.
        -11    1    3    3    0    0 -0.18442019654E+01 -0.13189048566E+02  0.26547215581E+02  0.29700281788E+02  0.51100000000E-03 0.  1.
        -12    1    3    3    0    0 -0.21968419025E+01 -0.19492183670E+01  0.10452430234E+01  0.31173866563E+01  0.00000000000E+00 0.  1.
</event>
<event>
 7    1  0.2412036E-009  0.4778729E+02  0.7816164E-02  0.1312668E+00
        -11   -1    0    0    0    0  0.00000000000E+00  0.00000000000E+00  0.45593999997E+02  0.45594000000E+02  0.51100000000E-03 0.  1.
         11   -1    0    0    0    0 -0.00000000000E+00 -0.00000000000E+00 -0.45593999997E+02  0.45594000000E+02  0.51100000000E-03 0. -1.
    9900012    2    1    2    0    0 -0.22510980594E+02 -0.16542425762E+02  0.33214844623E+02  0.47787285712E+02  0.20000066875E+02 0.  0.
         12    1    1    2    0    0  0.22510980594E+02  0.16542425762E+02 -0.33214844623E+02  0.43400714288E+02  0.00000000000E+00 0. -1.
         11    1    3    3    0    0 -0.40040881422E+01 -0.12877235799E+02  0.12292747981E+02  0.18247399181E+02  0.51100000000E-03 0. -1.
        -11    1    3    3    0    0 -0.16537999650E+02 -0.85002328475E+00  0.20033022228E+02  0.25991343787E+02  0.51100000000E-03 0.  1.
        -12    1    3    3    0    0 -0.19688928014E+01 -0.28151666789E+01  0.88907441343E+00  0.35485427440E+01  0.00000000000E+00 0.  1.
</event>
<event>
 7    1  0.2412036E-009  0.4778727E+02  0.7816164E-02  0.1312668E+00
        -11   -1    0    0    0    0  0.00000000000E+00  0.00000000000E+00  0.45593999997E+02  0.45594000000E+02  0.51100000000E-03 0.  1.
         11   -1    0    0    0    0 -0.00000000000E+00 -0.00000000000E+00 -0.45593999997E+02  0.45594000000E+02  0.51100000000E-03 0. -1.
    9900012    2    1    2    0    0  0.27526917560E+02  0.21090489166E+02  0.26097569928E+02  0.47787273281E+02  0.20000010195E+02 0.  0.
         12    1    1    2    0    0 -0.27526917560E+02 -0.21090489166E+02 -0.26097569928E+02  0.43400726719E+02  0.00000000000E+00 0. -1.
         11    1    3    3    0    0  0.27023663246E+02  0.16516802084E+02  0.16419245545E+02  0.35674567283E+02  0.51100000000E-03 0. -1.
        -11    1    3    3    0    0 -0.18702814816E+01  0.45233791555E+01  0.61518665169E+01  0.78615757776E+01  0.51100000000E-03 0.  1.
         12    1    3    3    0    0  0.23735357958E+01  0.50307926198E-01  0.35264578663E+01  0.42511302196E+01  0.00000000000E+00 0. -1.
</event>
<event>
 7    1  0.2412036E-009  0.4778727E+02  0.7816164E-02  0.1312668E+00
        -11   -1    0    0    0    0  0.00000000000E+00  0.00000000000E+00  0.45593999997E+02  0.45594000000E+02  0.51100000000E-03 0.  1.
         11   -1    0    0    0    0 -0.00000000000E+00 -0.00000000000E+00 -0.45593999997E+02  0.45594000000E+02  0.51100000000E-03 0. -1.
    9900012    2    1    2    0    0  0.26690055443E+02  0.67714501447E+01  0.33547160165E+02  0.47787267843E+02  0.19999985404E+02 0.  0.
         12    1    1    2    0    0 -0.26690055443E+02 -0.67714501447E+01 -0.33547160165E+02  0.43400732157E+02  0.00000000000E+00 0. -1.
         11    1    3    3    0    0  0.52906855711E+01  0.89790434329E+01  0.17343238743E+02  0.20233697268E+02  0.51100000000E-03 0. -1.
        -11    1    3    3    0    0  0.21196619814E+02 -0.24464376370E+01  0.14445150075E+02  0.25767112946E+02  0.51100000000E-03 0.  1.
        -12    1    3    3    0    0  0.20275005871E+00  0.23884434878E+00  0.17587713469E+01  0.17864576289E+01  0.00000000000E+00 0.  1.
</event>
<event>
 7    1  0.2412036E-009  0.4778728E+02  0.7816164E-02  0.1312668E+00
        -11   -1    0    0    0    0  0.00000000000E+00  0.00000000000E+00  0.45593999997E+02  0.45594000000E+02  0.51100000000E-03 0.  1.
         11   -1    0    0    0    0 -0.00000000000E+00 -0.00000000000E+00 -0.45593999997E+02  0.45594000000E+02  0.51100000000E-03 0. -1.
    9900012    2    1    2    0    0 -0.37672558357E+02  0.21053407022E+02  0.45994826405E+01  0.47787276032E+02  0.20000022738E+02 0.  0.
         12    1    1    2    0    0  0.37672558357E+02 -0.21053407022E+02 -0.45994826405E+01  0.43400723968E+02  0.00000000000E+00 0. -1.
         11    1    3    3    0    0  0.59410532711E+00 -0.18978011458E+01  0.81756314550E+00  0.21501209470E+01  0.51100000000E-03 0. -1.
        -11    1    3    3    0    0 -0.15283075607E+02  0.64150496680E+01  0.49522650368E+01  0.17298849427E+02  0.51100000000E-03 0.  1.
         12    1    3    3    0    0 -0.22983588078E+02  0.16536158500E+02 -0.11703455418E+01  0.28338305658E+02  0.00000000000E+00 0. -1.
</event>
<event>
 7    1  0.2412036E-009  0.4778727E+02  0.7816164E-02  0.1312668E+00
        -11   -1    0    0    0    0  0.00000000000E+00  0.00000000000E+00  0.45593999997E+02  0.45594000000E+02  0.51100000000E-03 0. -1.
         11   -1    0    0    0    0 -0.00000000000E+00 -0.00000000000E+00 -0.45593999997E+02  0.45594000000E+02  0.51100000000E-03 0.  1.
    9900012    2    1    2    0    0 -0.43395676146E+02  0.20183842392E+00 -0.63065423753E+00  0.47787272222E+02  0.20000005370E+02 0.  0.
         12    1    1    2    0    0  0.43395676146E+02 -0.20183842392E+00  0.63065423753E+00  0.43400727778E+02  0.00000000000E+00 0. -1.
         11    1    3    3    0    0 -0.71535388467E+01  0.29413336939E+01  0.56956839102E+01  0.96054868381E+01  0.51100000000E-03 0. -1.
        -11    1    3    3    0    0 -0.11780004303E+02 -0.52220453186E+01 -0.39602358278E+01  0.13480420126E+02  0.51100000000E-03 0.  1.
         12    1    3    3    0    0 -0.24462132996E+02  0.24825500486E+01 -0.23661023199E+01  0.24701365259E+02  0.00000000000E+00 0. -1.
</event>
<event>
 7    1  0.2412036E-009  0.4778728E+02  0.7816164E-02  0.1312668E+00
        -11   -1    0    0    0    0  0.00000000000E+00  0.00000000000E+00  0.45593999997E+02  0.45594000000E+02  0.51100000000E-03 0.  1.
         11   -1    0    0    0    0 -0.00000000000E+00 -0.00000000000E+00 -0.45593999997E+02  0.45594000000E+02  0.51100000000E-03 0. -1.
    9900012    2    1    2    0    0  0.24958614612E+02 -0.35344610545E+02  0.33835645049E+01  0.47787280574E+02  0.20000043448E+02 0.  0.
         12    1    1    2    0    0 -0.24958614612E+02  0.35344610545E+02 -0.33835645049E+01  0.43400719426E+02  0.00000000000E+00 0. -1.
         11    1    3    3    0    0  0.12482767156E+02 -0.84382361146E+01  0.74490516027E+01  0.16808083610E+02  0.51100000000E-03 0. -1.
        -11    1    3    3    0    0  0.10253537133E+02 -0.15673809574E+02  0.28059426650E+00  0.18731846244E+02  0.51100000000E-03 0.  1.
         12    1    3    3    0    0  0.22223103227E+01 -0.11232564856E+02 -0.43460813643E+01  0.12247350720E+02  0.00000000000E+00 0. -1.
</event>
<event>
 7    1  0.2486913E-009  0.4778727E+02  0.7816164E-02  0.1312668E+00
        -11   -1    0    0    0    0  0.00000000000E+00  0.00000000000E+00  0.45593999997E+02  0.45594000000E+02  0.51100000000E-03 0.  1.
         11   -1    0    0    0    0 -0.00000000000E+00 -0.00000000000E+00 -0.45593999997E+02  0.45594000000E+02  0.51100000000E-03 0. -1.
    9900012    2    1    2    0    0 -0.20923462100E+01  0.17161697397E+02  0.39808565999E+02  0.47787266169E+02  0.19999977770E+02 0.  0.
         12    1    1    2    0    0  0.20923462100E+01 -0.17161697397E+02 -0.39808565999E+02  0.43400733831E+02  0.00000000000E+00 0. -1.
         11    1    3    3    0    0 -0.14199443659E+01  0.10530152670E+01  0.58611328149E-01  0.17687619127E+01  0.51100000000E-03 0. -1.
        -11    1    3    3    0    0  0.26046899366E+01  0.67408825197E+00 -0.54432582282E+00  0.27450128414E+01  0.51100000000E-03 0.  1.
        -12    1    3    3    0    0 -0.32770917807E+01  0.15434593878E+02  0.40294280493E+02  0.43273491415E+02  0.00000000000E+00 0.  1.
</event>
<event>
 7    1  0.2412036E-009  0.4778727E+02  0.7816164E-02  0.1312668E+00
        -11   -1    0    0    0    0  0.00000000000E+00  0.00000000000E+00  0.45593999997E+02  0.45594000000E+02  0.51100000000E-03 0.  1.
         11   -1    0    0    0    0 -0.00000000000E+00 -0.00000000000E+00 -0.45593999997E+02  0.45594000000E+02  0.51100000000E-03 0. -1.
    9900012    2    1    2    0    0 -0.37996642743E+02  0.77368724747E+01  0.19494082489E+02  0.47787270657E+02  0.19999998232E+02 0.  0.
         12    1    1    2    0    0  0.37996642743E+02 -0.77368724747E+01 -0.19494082489E+02  0.43400729343E+02  0.00000000000E+00 0. -1.
         11    1    3    3    0    0 -0.33796997564E+01  0.17803803616E+01 -0.19346112526E+01  0.42819207880E+01  0.51100000000E-03 0. -1.
        -11    1    3    3    0    0 -0.34643481276E+02  0.41289478994E+01  0.22375096571E+02  0.41447122367E+02  0.51100000000E-03 0.  1.
        -12    1    3    3    0    0  0.26538289075E-01  0.18275442137E+01 -0.94640282916E+00  0.20582275017E+01  0.00000000000E+00 0.  1.
</event>
<event>
 7    1  0.2412036E-009  0.4778728E+02  0.7816164E-02  0.1312668E+00
        -11   -1    0    0    0    0  0.00000000000E+00  0.00000000000E+00  0.45593999997E+02  0.45594000000E+02  0.51100000000E-03 0.  1.
         11   -1    0    0    0    0 -0.00000000000E+00 -0.00000000000E+00 -0.45593999997E+02  0.45594000000E+02  0.51100000000E-03 0. -1.
    9900012    2    1    2    0    0 -0.42820259841E+01 -0.43180030295E+02 -0.87859204158E+00  0.47787277808E+02  0.20000030837E+02 0.  0.
         12    1    1    2    0    0  0.42820259841E+01  0.43180030295E+02  0.87859204158E+00  0.43400722192E+02  0.00000000000E+00 0. -1.
         11    1    3    3    0    0  0.73879744569E+00 -0.11943311066E+02 -0.53586391834E+01  0.13111198078E+02  0.51100000000E-03 0. -1.
        -11    1    3    3    0    0 -0.44836427081E+01 -0.20710500830E+02  0.92325566628E+01  0.23114238022E+02  0.51100000000E-03 0.  1.
        -12    1    3    3    0    0 -0.53718072174E+00 -0.10526218399E+02 -0.47525095210E+01  0.11561841707E+02  0.00000000000E+00 0.  1.
</event>
<event>
 7    1  0.2412036E-009  0.4778727E+02  0.7816164E-02  0.1312668E+00
        -11   -1    0    0    0    0  0.00000000000E+00  0.00000000000E+00  0.45593999997E+02  0.45594000000E+02  0.51100000000E-03 0. -1.
         11   -1    0    0    0    0 -0.00000000000E+00 -0.00000000000E+00 -0.45593999997E+02  0.45594000000E+02  0.51100000000E-03 0.  1.
    9900012    2    1    2    0    0 -0.12895305312E+02  0.35131556894E+02 -0.21979727438E+02  0.47787267205E+02  0.19999982497E+02 0.  0.
         12    1    1    2    0    0  0.12895305312E+02 -0.35131556894E+02  0.21979727438E+02  0.43400732795E+02  0.00000000000E+00 0. -1.
         11    1    3    3    0    0 -0.10048544814E+01  0.23333956052E+02 -0.56101639988E+01  0.24019932929E+02  0.51100000000E-03 0. -1.
        -11    1    3    3    0    0 -0.35654990420E+01  0.37296761550E+01 -0.77946434422E+01  0.93477127840E+01  0.51100000000E-03 0.  1.
         12    1    3    3    0    0 -0.83249517884E+01  0.80679246864E+01 -0.85749199967E+01  0.14419621492E+02  0.00000000000E+00 0. -1.
</event>
<event>
 7    1  0.2412036E-009  0.4778727E+02  0.7816164E-02  0.1312668E+00
        -11   -1    0    0    0    0  0.00000000000E+00  0.00000000000E+00  0.45593999997E+02  0.45594000000E+02  0.51100000000E-03 0.  1.
         11   -1    0    0    0    0 -0.00000000000E+00 -0.00000000000E+00 -0.45593999997E+02  0.45594000000E+02  0.51100000000E-03 0. -1.
    9900012    2    1    2    0    0 -0.30105869018E+02  0.21805784591E+02  0.22400173941E+02  0.47787269781E+02  0.19999994239E+02 0.  0.
         12    1    1    2    0    0  0.30105869018E+02 -0.21805784591E+02 -0.22400173941E+02  0.43400730219E+02  0.00000000000E+00 0. -1.
         11    1    3    3    0    0  0.59037052103E+00  0.62299043648E+01  0.85197207182E+01  0.10570992722E+02  0.51100000000E-03 0. -1.
        -11    1    3    3    0    0 -0.25500597124E+02  0.12038635871E+02  0.10596554265E+02  0.30124677092E+02  0.51100000000E-03 0.  1.
        -12    1    3    3    0    0 -0.51956424148E+01  0.35372443554E+01  0.32838989582E+01  0.70915999676E+01  0.00000000000E+00 0.  1.
</event>
<event>
 7    1  0.2412036E-009  0.4778727E+02  0.7816164E-02  0.1312668E+00
        -11   -1    0    0    0    0  0.00000000000E+00  0.00000000000E+00  0.45593999997E+02  0.45594000000E+02  0.51100000000E-03 0.  1.
         11   -1    0    0    0    0 -0.00000000000E+00 -0.00000000000E+00 -0.45593999997E+02  0.45594000000E+02  0.51100000000E-03 0. -1.
    9900012    2    1    2    0    0 -0.20758009568E+02 -0.37501675916E+02  0.68082875076E+01  0.47787269170E+02  0.19999991455E+02 0.  0.
         12    1    1    2    0    0  0.20758009568E+02  0.37501675916E+02 -0.68082875076E+01  0.43400730830E+02  0.00000000000E+00 0. -1.
         11    1    3    3    0    0 -0.23176302257E+00 -0.34947798126E+01 -0.45786221260E+01  0.57646318937E+01  0.51100000000E-03 0. -1.
        -11    1    3    3    0    0 -0.18827837722E+02 -0.28406603290E+02  0.72133047694E+01  0.34834671660E+02  0.51100000000E-03 0.  1.
         12    1    3    3    0    0 -0.16984088237E+01 -0.56002928143E+01  0.41736048642E+01  0.71879656162E+01  0.00000000000E+00 0. -1.
</event>
<event>
 7    1  0.2412036E-009  0.4778727E+02  0.7816164E-02  0.1312668E+00
        -11   -1    0    0    0    0  0.00000000000E+00  0.00000000000E+00  0.45593999997E+02  0.45594000000E+02  0.51100000000E-03 0.  1.
         11   -1    0    0    0    0 -0.00000000000E+00 -0.00000000000E+00 -0.45593999997E+02  0.45594000000E+02  0.51100000000E-03 0. -1.
    9900012    2    1    2    0    0  0.22739512844E+02 -0.15370141759E+02  0.33619883820E+02  0.47787270857E+02  0.19999999148E+02 0.  0.
         12    1    1    2    0    0 -0.22739512844E+02  0.15370141759E+02 -0.33619883820E+02  0.43400729143E+02  0.00000000000E+00 0. -1.
         11    1    3    3    0    0  0.52788412236E+01 -0.53044463930E+01  0.21202243251E+01  0.77780889459E+01  0.51100000000E-03 0. -1.
        -11    1    3    3    0    0  0.78964475668E+01 -0.84845256786E+01  0.26876373248E+02  0.29269104862E+02  0.51100000000E-03 0.  1.
        -12    1    3    3    0    0  0.95642240532E+01 -0.15811696875E+01  0.46232862461E+01  0.10740077050E+02  0.00000000000E+00 0.  1.
</event>
<event>
 7    1  0.2412036E-009  0.4778728E+02  0.7816164E-02  0.1312668E+00
        -11   -1    0    0    0    0  0.00000000000E+00  0.00000000000E+00  0.45593999997E+02  0.45594000000E+02  0.51100000000E-03 0.  1.
         11   -1    0    0    0    0 -0.00000000000E+00 -0.00000000000E+00 -0.45593999997E+02  0.45594000000E+02  0.51100000000E-03 0. -1.
    9900012    2    1    2    0    0  0.12536012174E+02  0.19851164029E+02  0.36502080645E+02  0.47787283347E+02  0.20000056094E+02 0.  0.
         12    1    1    2    0    0 -0.12536012174E+02 -0.19851164029E+02 -0.36502080645E+02  0.43400716653E+02  0.00000000000E+00 0. -1.
         11    1    3    3    0    0 -0.19208640618E+01 -0.50463137773E+00 -0.92165811028E+00  0.21894806472E+01  0.51100000000E-03 0. -1.
        -11    1    3    3    0    0  0.43625639343E+01  0.12442170816E+02  0.17721568232E+02  0.22088312737E+02  0.51100000000E-03 0.  1.
        -12    1    3    3    0    0  0.10094312302E+02  0.79136245900E+01  0.19702170524E+02  0.23509489963E+02  0.00000000000E+00 0.  1.
</event>
<event>
 7    1  0.2412036E-009  0.4778728E+02  0.7816164E-02  0.1312668E+00
        -11   -1    0    0    0    0  0.00000000000E+00  0.00000000000E+00  0.45593999997E+02  0.45594000000E+02  0.51100000000E-03 0.  1.
         11   -1    0    0    0    0 -0.00000000000E+00 -0.00000000000E+00 -0.45593999997E+02  0.45594000000E+02  0.51100000000E-03 0. -1.
    9900012    2    1    2    0    0 -0.42067525781E+02 -0.67136802124E+01 -0.82989265773E+01  0.47787281001E+02  0.20000045394E+02 0.  0.
         12    1    1    2    0    0  0.42067525781E+02  0.67136802124E+01  0.82989265773E+01  0.43400718999E+02  0.00000000000E+00 0. -1.
         11    1    3    3    0    0 -0.96565190642E+01  0.79546415395E+00 -0.68555730826E+01  0.11869288362E+02  0.51100000000E-03 0. -1.
        -11    1    3    3    0    0 -0.29513295893E+02 -0.28979201209E+01  0.15645095987E+01  0.29696468915E+02  0.51100000000E-03 0.  1.
        -12    1    3    3    0    0 -0.28977108242E+01 -0.46112242455E+01 -0.30078630934E+01  0.62215237242E+01  0.00000000000E+00 0.  1.
</event>
<event>
 7    1  0.2412036E-009  0.4778727E+02  0.7816164E-02  0.1312668E+00
        -11   -1    0    0    0    0  0.00000000000E+00  0.00000000000E+00  0.45593999997E+02  0.45594000000E+02  0.51100000000E-03 0.  1.
         11   -1    0    0    0    0 -0.00000000000E+00 -0.00000000000E+00 -0.45593999997E+02  0.45594000000E+02  0.51100000000E-03 0. -1.
    9900012    2    1    2    0    0  0.38432101150E+02  0.50971584659E+01  0.19509380967E+02  0.47787269950E+02  0.19999995008E+02 0.  0.
         12    1    1    2    0    0 -0.38432101150E+02 -0.50971584659E+01 -0.19509380967E+02  0.43400730050E+02  0.00000000000E+00 0. -1.
         11    1    3    3    0    0  0.29358021820E+02  0.69939952860E+01  0.13944421218E+02  0.33245395149E+02  0.51100000000E-03 0.  1.
        -11    1    3    3    0    0  0.53740119516E+01 -0.52525579459E+01  0.58728198577E+01  0.95372628554E+01  0.51100000000E-03 0. -1.
         12    1    3    3    0    0  0.37000673776E+01  0.33557211259E+01 -0.30786010841E+00  0.50046119450E+01  0.00000000000E+00 0. -1.
</event>
<event>
 7    1  0.2412036E-009  0.4778727E+02  0.7816164E-02  0.1312668E+00
        -11   -1    0    0    0    0  0.00000000000E+00  0.00000000000E+00  0.45593999997E+02  0.45594000000E+02  0.51100000000E-03 0.  1.
         11   -1    0    0    0    0 -0.00000000000E+00 -0.00000000000E+00 -0.45593999997E+02  0.45594000000E+02  0.51100000000E-03 0. -1.
    9900012    2    1    2    0    0 -0.70768910220E+01  0.29497366523E+02  0.31039428542E+02  0.47787272557E+02  0.20000006898E+02 0.  0.
         12    1    1    2    0    0  0.70768910220E+01 -0.29497366523E+02 -0.31039428542E+02  0.43400727443E+02  0.00000000000E+00 0. -1.
         11    1    3    3    0    0  0.95022735650E+00  0.15870905026E+02  0.26946140368E+02  0.31287106599E+02  0.51100000000E-03 0.  1.
        -11    1    3    3    0    0 -0.37527903563E+01  0.50333752193E+01  0.68569980689E+00  0.63157332150E+01  0.51100000000E-03 0. -1.
        -12    1    3    3    0    0 -0.42743280223E+01  0.85930862773E+01  0.34075883677E+01  0.10184432743E+02  0.00000000000E+00 0.  1.
</event>
<event>
 7    1  0.2412036E-009  0.4778727E+02  0.7816164E-02  0.1312668E+00
        -11   -1    0    0    0    0  0.00000000000E+00  0.00000000000E+00  0.45593999997E+02  0.45594000000E+02  0.51100000000E-03 0. -1.
         11   -1    0    0    0    0 -0.00000000000E+00 -0.00000000000E+00 -0.45593999997E+02  0.45594000000E+02  0.51100000000E-03 0.  1.
    9900012    2    1    2    0    0  0.32093531521E+02 -0.29020433079E+02 -0.33826971768E+01  0.47787274870E+02  0.20000017444E+02 0.  0.
         12    1    1    2    0    0 -0.32093531521E+02  0.29020433079E+02  0.33826971768E+01  0.43400725130E+02  0.00000000000E+00 0. -1.
         11    1    3    3    0    0  0.11428147091E+01 -0.80161321937E+01  0.20381790745E+01  0.83497649672E+01  0.51100000000E-03 0. -1.
        -11    1    3    3    0    0  0.94729216745E+01 -0.13120312137E+02 -0.24105937356E+01  0.16361228501E+02  0.51100000000E-03 0.  1.
         12    1    3    3    0    0  0.21477795138E+02 -0.78839887481E+01 -0.30102825158E+01  0.23076281403E+02  0.00000000000E+00 0. -1.
</event>
<event>
 7    1  0.2412036E-009  0.4778730E+02  0.7816164E-02  0.1312668E+00
        -11   -1    0    0    0    0  0.00000000000E+00  0.00000000000E+00  0.45593999997E+02  0.45594000000E+02  0.51100000000E-03 0.  1.
         11   -1    0    0    0    0 -0.00000000000E+00 -0.00000000000E+00 -0.45593999997E+02  0.45594000000E+02  0.51100000000E-03 0. -1.
    9900012    2    1    2    0    0 -0.24526868201E+02  0.29267922609E+02  0.20626260656E+02  0.47787295096E+02  0.20000109659E+02 0.  0.
         12    1    1    2    0    0  0.24526868201E+02 -0.29267922609E+02 -0.20626260656E+02  0.43400704904E+02  0.00000000000E+00 0. -1.
         11    1    3    3    0    0 -0.55634829434E+01  0.67508361213E+00  0.99732577493E+01  0.11440015330E+02  0.51100000000E-03 0.  1.
        -11    1    3    3    0    0 -0.15301877327E+02  0.19611847952E+02  0.92900039751E+01  0.26553271059E+02  0.51100000000E-03 0. -1.
        -12    1    3    3    0    0 -0.36615079307E+01  0.89809910443E+01  0.13629989312E+01  0.97940087070E+01  0.00000000000E+00 0.  1.
</event>
<event>
 7    1  0.2412036E-009  0.4778727E+02  0.7816164E-02  0.1312668E+00
        -11   -1    0    0    0    0  0.00000000000E+00  0.00000000000E+00  0.45593999997E+02  0.45594000000E+02  0.51100000000E-03 0. -1.
         11   -1    0    0    0    0 -0.00000000000E+00 -0.00000000000E+00 -0.45593999997E+02  0.45594000000E+02  0.51100000000E-03 0.  1.
    9900012    2    1    2    0    0  0.42913887821E+02  0.39777960734E-01  0.64822964719E+01  0.47787268235E+02  0.19999987190E+02 0.  0.
         12    1    1    2    0    0 -0.42913887821E+02 -0.39777960734E-01 -0.64822964719E+01  0.43400731765E+02  0.00000000000E+00 0. -1.
         11    1    3    3    0    0  0.94617231772E+00  0.69860975171E+00  0.51551403628E+01  0.52876053239E+01  0.51100000000E-03 0. -1.
        -11    1    3    3    0    0  0.18335750757E+02 -0.33805911534E+01 -0.39766249090E+00  0.18649029146E+02  0.51100000000E-03 0.  1.
         12    1    3    3    0    0  0.23631964746E+02  0.27217593625E+01  0.17248186000E+01  0.23850633765E+02  0.00000000000E+00 0. -1.
</event>
<event>
 7    1  0.2412036E-009  0.4778732E+02  0.7816164E-02  0.1312668E+00
        -11   -1    0    0    0    0  0.00000000000E+00  0.00000000000E+00  0.45593999997E+02  0.45594000000E+02  0.51100000000E-03 0.  1.
         11   -1    0    0    0    0 -0.00000000000E+00 -0.00000000000E+00 -0.45593999997E+02  0.45594000000E+02  0.51100000000E-03 0. -1.
    9900012    2    1    2    0    0 -0.24423062912E+02  0.27762943619E+02 -0.22723371854E+02  0.47787324097E+02  0.20000241887E+02 0.  0.
         12    1    1    2    0    0  0.24423062912E+02 -0.27762943619E+02  0.22723371854E+02  0.43400675903E+02  0.00000000000E+00 0. -1.
         11    1    3    3    0    0  0.19820017786E+01  0.88515600764E+01 -0.54181649066E+01  0.10565744557E+02  0.51100000000E-03 0. -1.
        -11    1    3    3    0    0 -0.14017986069E+02  0.68906130612E+01 -0.69841122770E+01  0.17110298254E+02  0.51100000000E-03 0.  1.
         12    1    3    3    0    0 -0.12387078622E+02  0.12020770482E+02 -0.10321094670E+02  0.20111281285E+02  0.00000000000E+00 0. -1.
</event>
<event>
 7    1  0.2412036E-009  0.4778728E+02  0.7816164E-02  0.1312668E+00
        -11   -1    0    0    0    0  0.00000000000E+00  0.00000000000E+00  0.45593999997E+02  0.45594000000E+02  0.51100000000E-03 0.  1.
         11   -1    0    0    0    0 -0.00000000000E+00 -0.00000000000E+00 -0.45593999997E+02  0.45594000000E+02  0.51100000000E-03 0. -1.
    9900012    2    1    2    0    0 -0.32491902057E+02  0.27101924494E+01  0.28645314084E+02  0.47787275797E+02  0.20000021668E+02 0.  0.
         12    1    1    2    0    0  0.32491902057E+02 -0.27101924494E+01 -0.28645314084E+02  0.43400724203E+02  0.00000000000E+00 0. -1.
         11    1    3    3    0    0 -0.20466772797E+02  0.34735231081E+01  0.81343556106E+01  0.22296230465E+02  0.51100000000E-03 0.  1.
        -11    1    3    3    0    0 -0.36207252260E+01  0.84610613372E+00  0.14661627531E+02  0.15125768373E+02  0.51100000000E-03 0. -1.
         12    1    3    3    0    0 -0.84044040338E+01 -0.16094367924E+01  0.58493309432E+01  0.10365276959E+02  0.00000000000E+00 0. -1.
</event>
<event>
 7    1  0.2412036E-009  0.4778727E+02  0.7816164E-02  0.1312668E+00
        -11   -1    0    0    0    0  0.00000000000E+00  0.00000000000E+00  0.45593999997E+02  0.45594000000E+02  0.51100000000E-03 0.  1.
         11   -1    0    0    0    0 -0.00000000000E+00 -0.00000000000E+00 -0.45593999997E+02  0.45594000000E+02  0.51100000000E-03 0. -1.
    9900012    2    1    2    0    0 -0.31623147143E+02  0.19933605216E+02  0.22051099150E+02  0.47787273901E+02  0.20000013025E+02 0.  0.
         12    1    1    2    0    0  0.31623147143E+02 -0.19933605216E+02 -0.22051099150E+02  0.43400726099E+02  0.00000000000E+00 0. -1.
         11    1    3    3    0    0 -0.14910976819E+02  0.12755026480E+02  0.35229804941E+01  0.19935880267E+02  0.51100000000E-03 0. -1.
        -11    1    3    3    0    0 -0.97185214465E+01 -0.11352475118E+01  0.10429527520E+02  0.14300821325E+02  0.51100000000E-03 0.  1.
         12    1    3    3    0    0 -0.69936488773E+01  0.83138262484E+01  0.80985911368E+01  0.13550572309E+02  0.00000000000E+00 0. -1.
</event>
<event>
 7    1 -0.2412036E-009  0.4778727E+02  0.7816164E-02  0.1312668E+00
        -11   -1    0    0    0    0  0.00000000000E+00  0.00000000000E+00  0.45593999997E+02  0.45594000000E+02  0.51100000000E-03 0.  1.
         11   -1    0    0    0    0 -0.00000000000E+00 -0.00000000000E+00 -0.45593999997E+02  0.45594000000E+02  0.51100000000E-03 0. -1.
    9900012    2    1    2    0    0  0.85065912689E+00  0.39268768306E+02 -0.18462489623E+02  0.47787270648E+02  0.19999998190E+02 0.  0.
         12    1    1    2    0    0 -0.85065912689E+00 -0.39268768306E+02  0.18462489623E+02  0.43400729352E+02  0.00000000000E+00 0. -1.
         11    1    3    3    0    0  0.30112122871E+01  0.71092280414E+01 -0.70211484270E+01  0.10435758155E+02  0.51100000000E-03 0. -1.
        -11    1    3    3    0    0  0.55474865980E+00  0.22426205348E+01  0.31893564543E+01  0.39381579187E+01  0.51100000000E-03 0.  1.
        -12    1    3    3    0    0 -0.27153018200E+01  0.29916919730E+02 -0.14630697650E+02  0.33413354573E+02  0.00000000000E+00 0.  1.
</event>
<event>
 7    1  0.2412036E-009  0.4778728E+02  0.7816164E-02  0.1312668E+00
        -11   -1    0    0    0    0  0.00000000000E+00  0.00000000000E+00  0.45593999997E+02  0.45594000000E+02  0.51100000000E-03 0.  1.
         11   -1    0    0    0    0 -0.00000000000E+00 -0.00000000000E+00 -0.45593999997E+02  0.45594000000E+02  0.51100000000E-03 0. -1.
    9900012    2    1    2    0    0  0.16521283341E+02 -0.41735626382E+01  0.39915551858E+02  0.47787277558E+02  0.20000029699E+02 0.  0.
         12    1    1    2    0    0 -0.16521283341E+02  0.41735626382E+01 -0.39915551858E+02  0.43400722442E+02  0.00000000000E+00 0. -1.
         11    1    3    3    0    0 -0.51587048383E+00 -0.77106083266E+01  0.73560505678E+01  0.10669165072E+02  0.51100000000E-03 0. -1.
        -11    1    3    3    0    0  0.12345200050E+02  0.34627694786E+01  0.26634532760E+02  0.29559991074E+02  0.51100000000E-03 0.  1.
         12    1    3    3    0    0  0.46919537748E+01  0.74276209917E-01  0.59249685309E+01  0.75581214116E+01  0.00000000000E+00 0. -1.
</event>
<event>
 7    1  0.2412036E-009  0.4778729E+02  0.7816164E-02  0.1312668E+00
        -11   -1    0    0    0    0  0.00000000000E+00  0.00000000000E+00  0.45593999997E+02  0.45594000000E+02  0.51100000000E-03 0. -1.
         11   -1    0    0    0    0 -0.00000000000E+00 -0.00000000000E+00 -0.45593999997E+02  0.45594000000E+02  0.51100000000E-03 0.  1.
    9900012    2    1    2    0    0  0.39371556226E+01 -0.26220002635E+02 -0.34360326629E+02  0.47787288271E+02  0.20000078541E+02 0.  0.
         12    1    1    2    0    0 -0.39371556226E+01  0.26220002635E+02  0.34360326629E+02  0.43400711729E+02  0.00000000000E+00 0. -1.
         11    1    3    3    0    0  0.70396268922E+01 -0.25400711773E+02 -0.25926710328E+02  0.36972243833E+02  0.51100000000E-03 0. -1.
        -11    1    3    3    0    0  0.11903323312E+01 -0.97138173279E+00 -0.52450574686E+01  0.54654461519E+01  0.51100000000E-03 0.  1.
         12    1    3    3    0    0 -0.42928036008E+01  0.15209087151E+00 -0.31885588329E+01  0.53495982858E+01  0.00000000000E+00 0. -1.
</event>
<event>
 7    1  0.2412036E-009  0.4778727E+02  0.7816164E-02  0.1312668E+00
        -11   -1    0    0    0    0  0.00000000000E+00  0.00000000000E+00  0.45593999997E+02  0.45594000000E+02  0.51100000000E-03 0. -1.
         11   -1    0    0    0    0 -0.00000000000E+00 -0.00000000000E+00 -0.45593999997E+02  0.45594000000E+02  0.51100000000E-03 0.  1.
    9900012    2    1    2    0    0 -0.52317936383E+01 -0.41560690709E+02  0.11356100563E+02  0.47787266171E+02  0.19999977779E+02 0.  0.
         12    1    1    2    0    0  0.52317936383E+01  0.41560690709E+02 -0.11356100563E+02  0.43400733829E+02  0.00000000000E+00 0. -1.
         11    1    3    3    0    0 -0.34479642584E+01 -0.33851121501E+02  0.18369658424E+01  0.34075817352E+02  0.51100000000E-03 0.  1.
        -11    1    3    3    0    0 -0.35873402671E+01 -0.32871680946E+01  0.62636491188E+01  0.79314427956E+01  0.51100000000E-03 0. -1.
        -12    1    3    3    0    0  0.18035108873E+01 -0.44224011134E+01  0.32554856016E+01  0.57800060234E+01  0.00000000000E+00 0.  1.
</event>
<event>
 7    1  0.2412036E-009  0.4778725E+02  0.7816164E-02  0.1312668E+00
        -11   -1    0    0    0    0  0.00000000000E+00  0.00000000000E+00  0.45593999997E+02  0.45594000000E+02  0.51100000000E-03 0.  1.
         11   -1    0    0    0    0 -0.00000000000E+00 -0.00000000000E+00 -0.45593999997E+02  0.45594000000E+02  0.51100000000E-03 0. -1.
    9900012    2    1    2    0    0 -0.25574261208E+02 -0.21699140767E+02  0.27545039499E+02  0.47787254069E+02  0.19999922601E+02 0.  0.
         12    1    1    2    0    0  0.25574261208E+02  0.21699140767E+02 -0.27545039499E+02  0.43400745931E+02  0.00000000000E+00 0. -1.
         11    1    3    3    0    0 -0.10874966793E+02 -0.13628668039E+02  0.24635558205E+02  0.30181388696E+02  0.51100000000E-03 0.  1.
        -11    1    3    3    0    0 -0.12482242979E+02 -0.47599569957E+01  0.18797482833E+01  0.13490627645E+02  0.51100000000E-03 0. -1.
        -12    1    3    3    0    0 -0.22170514365E+01 -0.33105157323E+01  0.10297330106E+01  0.41152377281E+01  0.00000000000E+00 0.  1.
</event>
<event>
 7    1  0.2412036E-009  0.4778727E+02  0.7816164E-02  0.1312668E+00
        -11   -1    0    0    0    0  0.00000000000E+00  0.00000000000E+00  0.45593999997E+02  0.45594000000E+02  0.51100000000E-03 0.  1.
         11   -1    0    0    0    0 -0.00000000000E+00 -0.00000000000E+00 -0.45593999997E+02  0.45594000000E+02  0.51100000000E-03 0. -1.
    9900012    2    1    2    0    0  0.14403597420E+02 -0.40633371260E+02  0.50088782956E+01  0.47787270279E+02  0.19999996508E+02 0.  0.
         12    1    1    2    0    0 -0.14403597420E+02  0.40633371260E+02 -0.50088782956E+01  0.43400729721E+02  0.00000000000E+00 0. -1.
         11    1    3    3    0    0  0.22476585689E+00  0.66923376950E+00  0.28295615390E+01  0.29163011321E+01  0.51100000000E-03 0. -1.
        -11    1    3    3    0    0  0.11075954036E+02 -0.34792348673E+02  0.55116149071E+01  0.36926442872E+02  0.51100000000E-03 0.  1.
         12    1    3    3    0    0  0.31028775264E+01 -0.65102563559E+01 -0.33322981505E+01  0.79445262745E+01  0.00000000000E+00 0. -1.
</event>
<event>
 7    1  0.2412036E-009  0.4778728E+02  0.7816164E-02  0.1312668E+00
        -11   -1    0    0    0    0  0.00000000000E+00  0.00000000000E+00  0.45593999997E+02  0.45594000000E+02  0.51100000000E-03 0.  1.
         11   -1    0    0    0    0 -0.00000000000E+00 -0.00000000000E+00 -0.45593999997E+02  0.45594000000E+02  0.51100000000E-03 0. -1.
    9900012    2    1    2    0    0 -0.33179405901E+02  0.27703903542E+02 -0.39042979083E+01  0.47787276624E+02  0.20000025440E+02 0.  0.
         12    1    1    2    0    0  0.33179405901E+02 -0.27703903542E+02  0.39042979083E+01  0.43400723376E+02  0.00000000000E+00 0. -1.
         11    1    3    3    0    0 -0.21578637182E+02  0.18155913155E+02  0.45392036509E+01  0.28563598078E+02  0.51100000000E-03 0.  1.
        -11    1    3    3    0    0 -0.10797695455E+02  0.61697211405E+01 -0.94377265753E+01  0.15611738188E+02  0.51100000000E-03 0. -1.
         12    1    3    3    0    0 -0.80307326443E+00  0.33782692456E+01  0.99422501609E+00  0.36119403576E+01  0.00000000000E+00 0. -1.
</event>
<event>
 7    1  0.2412036E-009  0.4778726E+02  0.7816164E-02  0.1312668E+00
        -11   -1    0    0    0    0  0.00000000000E+00  0.00000000000E+00  0.45593999997E+02  0.45594000000E+02  0.51100000000E-03 0.  1.
         11   -1    0    0    0    0 -0.00000000000E+00 -0.00000000000E+00 -0.45593999997E+02  0.45594000000E+02  0.51100000000E-03 0. -1.
    9900012    2    1    2    0    0  0.18635397803E+02  0.10614518907E+02  0.37731656609E+02  0.47787262986E+02  0.19999963260E+02 0.  0.
         12    1    1    2    0    0 -0.18635397803E+02 -0.10614518907E+02 -0.37731656609E+02  0.43400737014E+02  0.00000000000E+00 0. -1.
         11    1    3    3    0    0  0.87051100112E+01  0.10311730221E+02  0.99163395617E+01  0.16746477570E+02  0.51100000000E-03 0. -1.
        -11    1    3    3    0    0  0.99920819524E+01  0.26525058288E+01  0.16404098180E+02  0.19389995520E+02  0.51100000000E-03 0.  1.
         12    1    3    3    0    0 -0.61794160745E-01 -0.23497171421E+01  0.11411218867E+02  0.11650789896E+02  0.00000000000E+00 0. -1.
</event>
<event>
 7    1  0.2412036E-009  0.4778727E+02  0.7816164E-02  0.1312668E+00
        -11   -1    0    0    0    0  0.00000000000E+00  0.00000000000E+00  0.45593999997E+02  0.45594000000E+02  0.51100000000E-03 0. -1.
         11   -1    0    0    0    0 -0.00000000000E+00 -0.00000000000E+00 -0.45593999997E+02  0.45594000000E+02  0.51100000000E-03 0.  1.
    9900012    2    1    2    0    0  0.31419983763E+02  0.29825862462E+02 -0.26126665196E+01  0.47787268697E+02  0.19999989297E+02 0.  0.
         12    1    1    2    0    0 -0.31419983763E+02 -0.29825862462E+02  0.26126665196E+01  0.43400731303E+02  0.00000000000E+00 0. -1.
         11    1    3    3    0    0  0.14264065093E+02  0.59524300643E+01 -0.46409544588E+00  0.15463193767E+02  0.51100000000E-03 0. -1.
        -11    1    3    3    0    0 -0.21517881205E+01  0.25888319214E+01 -0.11916496803E+01  0.35710323514E+01  0.51100000000E-03 0.  1.
        -12    1    3    3    0    0  0.19307706791E+02  0.21284600476E+02 -0.95692139341E+00  0.28753042578E+02  0.00000000000E+00 0.  1.
</event>
<event>
 7    1  0.2412036E-009  0.4778728E+02  0.7816164E-02  0.1312668E+00
        -11   -1    0    0    0    0  0.00000000000E+00  0.00000000000E+00  0.45593999997E+02  0.45594000000E+02  0.51100000000E-03 0.  1.
         11   -1    0    0    0    0 -0.00000000000E+00 -0.00000000000E+00 -0.45593999997E+02  0.45594000000E+02  0.51100000000E-03 0. -1.
    9900012    2    1    2    0    0 -0.14401241444E+02  0.36922558860E+02  0.17690440713E+02  0.47787276497E+02  0.20000024862E+02 0.  0.
         12    1    1    2    0    0  0.14401241444E+02 -0.36922558860E+02 -0.17690440713E+02  0.43400723503E+02  0.00000000000E+00 0. -1.
         11    1    3    3    0    0  0.27376671238E+01  0.79828004232E+00 -0.11117726562E+01  0.30607370039E+01  0.51100000000E-03 0. -1.
        -11    1    3    3    0    0 -0.16148323761E+02  0.27955259928E+02  0.16017871854E+02  0.36039383137E+02  0.51100000000E-03 0.  1.
         12    1    3    3    0    0 -0.99058480733E+00  0.81690188901E+01  0.27843415150E+01  0.86871563564E+01  0.00000000000E+00 0. -1.
</event>
<event>
 7    1  0.2412036E-009  0.4778727E+02  0.7816164E-02  0.1312668E+00
        -11   -1    0    0    0    0  0.00000000000E+00  0.00000000000E+00  0.45593999997E+02  0.45594000000E+02  0.51100000000E-03 0. -1.
         11   -1    0    0    0    0 -0.00000000000E+00 -0.00000000000E+00 -0.45593999997E+02  0.45594000000E+02  0.51100000000E-03 0.  1.
    9900012    2    1    2    0    0 -0.20575672779E+02  0.17057097148E+02 -0.34195323864E+02  0.47787273652E+02  0.20000011887E+02 0.  0.
         12    1    1    2    0    0  0.20575672779E+02 -0.17057097148E+02  0.34195323864E+02  0.43400726348E+02  0.00000000000E+00 0. -1.
         11    1    3    3    0    0 -0.11932423813E+02 -0.19912821878E+00 -0.12610145778E+02  0.17361974741E+02  0.51100000000E-03 0. -1.
        -11    1    3    3    0    0 -0.16634606211E+01  0.60014118644E+01 -0.13606879035E+02  0.14964331022E+02  0.51100000000E-03 0.  1.
         12    1    3    3    0    0 -0.69797883454E+01  0.11254813502E+02 -0.79782990503E+01  0.15460967889E+02  0.00000000000E+00 0. -1.
</event>
<event>
 7    1  0.2412036E-009  0.4778727E+02  0.7816164E-02  0.1312668E+00
        -11   -1    0    0    0    0  0.00000000000E+00  0.00000000000E+00  0.45593999997E+02  0.45594000000E+02  0.51100000000E-03 0.  1.
         11   -1    0    0    0    0 -0.00000000000E+00 -0.00000000000E+00 -0.45593999997E+02  0.45594000000E+02  0.51100000000E-03 0. -1.
    9900012    2    1    2    0    0 -0.16022173125E+02 -0.31361984466E+02  0.25364137217E+02  0.47787267770E+02  0.19999985073E+02 0.  0.
         12    1    1    2    0    0  0.16022173125E+02  0.31361984466E+02 -0.25364137217E+02  0.43400732230E+02  0.00000000000E+00 0. -1.
         11    1    3    3    0    0 -0.13511768280E+02 -0.26426735613E+02  0.16017218794E+02  0.33726718420E+02  0.51100000000E-03 0. -1.
        -11    1    3    3    0    0 -0.40092990937E+01  0.11065397157E+01  0.27264704995E+01  0.49731831870E+01  0.51100000000E-03 0.  1.
         12    1    3    3    0    0  0.14988942491E+01 -0.60417885683E+01  0.66204479243E+01  0.90873661637E+01  0.00000000000E+00 0. -1.
</event>
<event>
 7    1  0.2412036E-009  0.4778725E+02  0.7816164E-02  0.1312668E+00
        -11   -1    0    0    0    0  0.00000000000E+00  0.00000000000E+00  0.45593999997E+02  0.45594000000E+02  0.51100000000E-03 0.  1.
         11   -1    0    0    0    0 -0.00000000000E+00 -0.00000000000E+00 -0.45593999997E+02  0.45594000000E+02  0.51100000000E-03 0. -1.
    9900012    2    1    2    0    0  0.17930398242E+02 -0.15136135881E+02  0.36510587267E+02  0.47787253772E+02  0.19999921250E+02 0.  0.
         12    1    1    2    0    0 -0.17930398242E+02  0.15136135881E+02 -0.36510587267E+02  0.43400746228E+02  0.00000000000E+00 0. -1.
         11    1    3    3    0    0  0.85452136100E+00 -0.73690112107E-01  0.44642186215E+01  0.45458646208E+01  0.51100000000E-03 0. -1.
        -11    1    3    3    0    0  0.98217669013E+01  0.17565015028E+01  0.16176265645E+02  0.19005893114E+02  0.51100000000E-03 0.  1.
        -12    1    3    3    0    0  0.72541099794E+01 -0.16818947272E+02  0.15870103001E+02  0.24235496038E+02  0.00000000000E+00 0.  1.
</event>
<event>
 7    1  0.2412036E-009  0.4778727E+02  0.7816164E-02  0.1312668E+00
        -11   -1    0    0    0    0  0.00000000000E+00  0.00000000000E+00  0.45593999997E+02  0.45594000000E+02  0.51100000000E-03 0.  1.
         11   -1    0    0    0    0 -0.00000000000E+00 -0.00000000000E+00 -0.45593999997E+02  0.45594000000E+02  0.51100000000E-03 0. -1.
    9900012    2    1    2    0    0  0.18780030257E+02  0.12851357246E+02  0.36956412775E+02  0.47787269998E+02  0.19999995230E+02 0.  0.
         12    1    1    2    0    0 -0.18780030257E+02 -0.12851357246E+02 -0.36956412775E+02  0.43400730002E+02  0.00000000000E+00 0. -1.
         11    1    3    3    0    0  0.57754027531E+01  0.91472962628E+01  0.28797198286E+02  0.30762102257E+02  0.51100000000E-03 0. -1.
        -11    1    3    3    0    0  0.11613754292E+02  0.45204394404E+01  0.88350638551E+01  0.15276518421E+02  0.51100000000E-03 0.  1.
         12    1    3    3    0    0  0.13908732116E+01 -0.81637845755E+00 -0.67584936657E+00  0.17486493197E+01  0.00000000000E+00 0. -1.
</event>
<event>
 7    1  0.2412036E-009  0.4778727E+02  0.7816164E-02  0.1312668E+00
        -11   -1    0    0    0    0  0.00000000000E+00  0.00000000000E+00  0.45593999997E+02  0.45594000000E+02  0.51100000000E-03 0.  1.
         11   -1    0    0    0    0 -0.00000000000E+00 -0.00000000000E+00 -0.45593999997E+02  0.45594000000E+02  0.51100000000E-03 0. -1.
    9900012    2    1    2    0    0  0.25272148250E+02 -0.30236812245E+02  0.18184524974E+02  0.47787271430E+02  0.20000001757E+02 0.  0.
         12    1    1    2    0    0 -0.25272148250E+02  0.30236812245E+02 -0.18184524974E+02  0.43400728570E+02  0.00000000000E+00 0. -1.
         11    1    3    3    0    0  0.26200329521E+01  0.99574039379E+00 -0.11443793178E+01  0.30274867277E+01  0.51100000000E-03 0. -1.
        -11    1    3    3    0    0  0.16347834773E+02 -0.20473855171E+02  0.18858588053E+02  0.32281214211E+02  0.51100000000E-03 0.  1.
        -12    1    3    3    0    0  0.63042805246E+01 -0.10758697468E+02  0.47031623890E+00  0.12478570491E+02  0.00000000000E+00 0.  1.
</event>
<event>
 7    1  0.2412036E-009  0.4778727E+02  0.7816164E-02  0.1312668E+00
        -11   -1    0    0    0    0  0.00000000000E+00  0.00000000000E+00  0.45593999997E+02  0.45594000000E+02  0.51100000000E-03 0. -1.
         11   -1    0    0    0    0 -0.00000000000E+00 -0.00000000000E+00 -0.45593999997E+02  0.45594000000E+02  0.51100000000E-03 0.  1.
    9900012    2    1    2    0    0 -0.22546099893E+02 -0.11837521440E+01 -0.37066095421E+02  0.47787270521E+02  0.19999997615E+02 0.  0.
         12    1    1    2    0    0  0.22546099893E+02  0.11837521440E+01  0.37066095421E+02  0.43400729479E+02  0.00000000000E+00 0. -1.
         11    1    3    3    0    0 -0.13797173802E+01 -0.24641018467E+01 -0.12539008090E+02  0.12853098541E+02  0.51100000000E-03 0. -1.
        -11    1    3    3    0    0 -0.19206114987E+02  0.54952761959E+01 -0.17795514229E+02  0.26753565002E+02  0.51100000000E-03 0.  1.
        -12    1    3    3    0    0 -0.19602675256E+01 -0.42149264932E+01 -0.67315731015E+01  0.81806069784E+01  0.00000000000E+00 0.  1.
</event>
<event>
 7    1  0.2412036E-009  0.4778727E+02  0.7816164E-02  0.1312668E+00
        -11   -1    0    0    0    0  0.00000000000E+00  0.00000000000E+00  0.45593999997E+02  0.45594000000E+02  0.51100000000E-03 0.  1.
         11   -1    0    0    0    0 -0.00000000000E+00 -0.00000000000E+00 -0.45593999997E+02  0.45594000000E+02  0.51100000000E-03 0. -1.
    9900012    2    1    2    0    0 -0.19176481635E+02 -0.38865010046E+02  0.23231432220E+01  0.47787269036E+02  0.19999990842E+02 0.  0.
         12    1    1    2    0    0  0.19176481635E+02  0.38865010046E+02 -0.23231432220E+01  0.43400730964E+02  0.00000000000E+00 0. -1.
         11    1    3    3    0    0 -0.20238361189E+01 -0.21921618799E+02 -0.25776141225E+01  0.22165229036E+02  0.51100000000E-03 0. -1.
        -11    1    3    3    0    0 -0.51665828101E+01 -0.34070046815E+01  0.42919958473E+01  0.75314332930E+01  0.51100000000E-03 0.  1.
         12    1    3    3    0    0 -0.11986062706E+02 -0.13536386566E+02  0.60876149728E+00  0.18090606707E+02  0.00000000000E+00 0. -1.
</event>
<event>
 7    1  0.2412036E-009  0.4778727E+02  0.7816164E-02  0.1312668E+00
        -11   -1    0    0    0    0  0.00000000000E+00  0.00000000000E+00  0.45593999997E+02  0.45594000000E+02  0.51100000000E-03 0.  1.
         11   -1    0    0    0    0 -0.00000000000E+00 -0.00000000000E+00 -0.45593999997E+02  0.45594000000E+02  0.51100000000E-03 0. -1.
    9900012    2    1    2    0    0 -0.38770699396E+02  0.73130486522E+01  0.18082463012E+02  0.47787270964E+02  0.19999999635E+02 0.  0.
         12    1    1    2    0    0  0.38770699396E+02 -0.73130486522E+01 -0.18082463012E+02  0.43400729036E+02  0.00000000000E+00 0. -1.
         11    1    3    3    0    0 -0.13931786270E+02 -0.36783973485E+01  0.89073327732E+01  0.16940066503E+02  0.51100000000E-03 0. -1.
        -11    1    3    3    0    0 -0.20212811862E+02  0.10894439353E+02  0.11486818648E+02  0.25674765337E+02  0.51100000000E-03 0.  1.
         12    1    3    3    0    0 -0.46261012640E+01  0.97006647642E-01 -0.23116884095E+01  0.51724391245E+01  0.00000000000E+00 0. -1.
</event>
<event>
 7    1  0.2412036E-009  0.4778727E+02  0.7816164E-02  0.1312668E+00
        -11   -1    0    0    0    0  0.00000000000E+00  0.00000000000E+00  0.45593999997E+02  0.45594000000E+02  0.51100000000E-03 0.  1.
         11   -1    0    0    0    0 -0.00000000000E+00 -0.00000000000E+00 -0.45593999997E+02  0.45594000000E+02  0.51100000000E-03 0. -1.
    9900012    2    1    2    0    0  0.19632678799E+02 -0.38402589400E+02  0.48396686121E+01  0.47787270262E+02  0.19999996435E+02 0.  0.
         12    1    1    2    0    0 -0.19632678799E+02  0.38402589400E+02 -0.48396686121E+01  0.43400729738E+02  0.00000000000E+00 0. -1.
         11    1    3    3    0    0  0.95197416563E+01 -0.26778484518E+02 -0.14417596734E+01  0.28456833722E+02  0.51100000000E-03 0. -1.
        -11    1    3    3    0    0  0.97939484335E+01 -0.10247840391E+02  0.86256554789E+01  0.16593420121E+02  0.51100000000E-03 0.  1.
        -12    1    3    3    0    0  0.31898870896E+00 -0.13762644914E+01 -0.23442271934E+01  0.27370164195E+01  0.00000000000E+00 0.  1.
</event>
<event>
 7    1  0.2412036E-009  0.4778727E+02  0.7816164E-02  0.1312668E+00
        -11   -1    0    0    0    0  0.00000000000E+00  0.00000000000E+00  0.45593999997E+02  0.45594000000E+02  0.51100000000E-03 0.  1.
         11   -1    0    0    0    0 -0.00000000000E+00 -0.00000000000E+00 -0.45593999997E+02  0.45594000000E+02  0.51100000000E-03 0. -1.
    9900012    2    1    2    0    0  0.27952605404E+02  0.30633173445E+02  0.12801719329E+02  0.47787268647E+02  0.19999989068E+02 0.  0.
         12    1    1    2    0    0 -0.27952605404E+02 -0.30633173445E+02 -0.12801719329E+02  0.43400731353E+02  0.00000000000E+00 0. -1.
         11    1    3    3    0    0  0.10164469410E+02  0.57114890068E+01  0.72169960914E+01  0.13712132508E+02  0.51100000000E-03 0. -1.
        -11    1    3    3    0    0  0.18233829759E+02  0.22065653910E+02  0.98371632429E+00  0.28641461698E+02  0.51100000000E-03 0.  1.
        -12    1    3    3    0    0 -0.44569376464E+00  0.28560305286E+01  0.46010069135E+01  0.54336744409E+01  0.00000000000E+00 0.  1.
</event>
<event>
 7    1  0.2412036E-009  0.4778727E+02  0.7816164E-02  0.1312668E+00
        -11   -1    0    0    0    0  0.00000000000E+00  0.00000000000E+00  0.45593999997E+02  0.45594000000E+02  0.51100000000E-03 0.  1.
         11   -1    0    0    0    0 -0.00000000000E+00 -0.00000000000E+00 -0.45593999997E+02  0.45594000000E+02  0.51100000000E-03 0. -1.
    9900012    2    1    2    0    0  0.30787873116E+02 -0.21009214128E+02  0.22233833735E+02  0.47787267612E+02  0.19999984350E+02 0.  0.
         12    1    1    2    0    0 -0.30787873116E+02  0.21009214128E+02 -0.22233833735E+02  0.43400732388E+02  0.00000000000E+00 0. -1.
         11    1    3    3    0    0  0.67868227319E+01 -0.63408258923E+01  0.13178707377E+02  0.16122821223E+02  0.51100000000E-03 0. -1.
        -11    1    3    3    0    0  0.21467969235E+02 -0.16358077321E+02  0.94444840837E+01  0.28594731623E+02  0.51100000000E-03 0.  1.
        -12    1    3    3    0    0  0.25330811488E+01  0.16896890853E+01 -0.38935772532E+00  0.30697147668E+01  0.00000000000E+00 0.  1.
</event>
<event>
 7    1  0.2412036E-009  0.4778727E+02  0.7816164E-02  0.1312668E+00
        -11   -1    0    0    0    0  0.00000000000E+00  0.00000000000E+00  0.45593999997E+02  0.45594000000E+02  0.51100000000E-03 0.  1.
         11   -1    0    0    0    0 -0.00000000000E+00 -0.00000000000E+00 -0.45593999997E+02  0.45594000000E+02  0.51100000000E-03 0. -1.
    9900012    2    1    2    0    0  0.69039580236E-02  0.13639895370E+02  0.41201656218E+02  0.47787271107E+02  0.20000000283E+02 0.  0.
         12    1    1    2    0    0 -0.69039580236E-02 -0.13639895370E+02 -0.41201656218E+02  0.43400728893E+02  0.00000000000E+00 0. -1.
         11    1    3    3    0    0 -0.71129005267E+01  0.91196373458E+01  0.12731742224E+02  0.17200534862E+02  0.51100000000E-03 0. -1.
        -11    1    3    3    0    0 -0.34976404614E+00  0.29582191991E+01  0.13001321495E+02  0.13338206648E+02  0.51100000000E-03 0.  1.
         12    1    3    3    0    0  0.74695685309E+01  0.15620388253E+01  0.15468592499E+02  0.17248529596E+02  0.00000000000E+00 0. -1.
</event>
<event>
 7    1  0.2412036E-009  0.4778728E+02  0.7816164E-02  0.1312668E+00
        -11   -1    0    0    0    0  0.00000000000E+00  0.00000000000E+00  0.45593999997E+02  0.45594000000E+02  0.51100000000E-03 0.  1.
         11   -1    0    0    0    0 -0.00000000000E+00 -0.00000000000E+00 -0.45593999997E+02  0.45594000000E+02  0.51100000000E-03 0. -1.
    9900012    2    1    2    0    0 -0.11374425262E+02  0.17904631031E+00  0.41883328706E+02  0.47787276146E+02  0.20000023258E+02 0.  0.
         12    1    1    2    0    0  0.11374425262E+02 -0.17904631031E+00 -0.41883328706E+02  0.43400723854E+02  0.00000000000E+00 0. -1.
         11    1    3    3    0    0  0.23489696574E+01 -0.30844958971E+01  0.80627674268E+00  0.39600323026E+01  0.51100000000E-03 0. -1.
        -11    1    3    3    0    0 -0.13341477938E+02  0.24350230801E+01  0.32701523747E+02  0.35402175450E+02  0.51100000000E-03 0.  1.
         12    1    3    3    0    0 -0.38191698118E+00  0.82851912736E+00  0.83755282159E+01  0.84250683926E+01  0.00000000000E+00 0. -1.
</event>
<event>
 7    1  0.2412036E-009  0.4778727E+02  0.7816164E-02  0.1312668E+00
        -11   -1    0    0    0    0  0.00000000000E+00  0.00000000000E+00  0.45593999997E+02  0.45594000000E+02  0.51100000000E-03 0.  1.
         11   -1    0    0    0    0 -0.00000000000E+00 -0.00000000000E+00 -0.45593999997E+02  0.45594000000E+02  0.51100000000E-03 0. -1.
    9900012    2    1    2    0    0 -0.42595612135E+02  0.50492368274E+01 -0.66138117852E+01  0.47787268762E+02  0.19999989593E+02 0.  0.
         12    1    1    2    0    0  0.42595612135E+02 -0.50492368274E+01  0.66138117852E+01  0.43400731238E+02  0.00000000000E+00 0. -1.
         11    1    3    3    0    0 -0.33443061013E+02  0.79018918779E+01 -0.79253287466E+01  0.35265975971E+02  0.51100000000E-03 0. -1.
        -11    1    3    3    0    0 -0.70680810715E+01 -0.55719991849E+01  0.58850887667E+00  0.90194948811E+01  0.51100000000E-03 0.  1.
         12    1    3    3    0    0 -0.20844700504E+01  0.27193441344E+01  0.72300808472E+00  0.35017979101E+01  0.00000000000E+00 0. -1.
</event>
<event>
 7    1  0.2412036E-009  0.4778727E+02  0.7816164E-02  0.1312668E+00
        -11   -1    0    0    0    0  0.00000000000E+00  0.00000000000E+00  0.45593999997E+02  0.45594000000E+02  0.51100000000E-03 0.  1.
         11   -1    0    0    0    0 -0.00000000000E+00 -0.00000000000E+00 -0.45593999997E+02  0.45594000000E+02  0.51100000000E-03 0. -1.
    9900012    2    1    2    0    0  0.32668418416E+02  0.27520547079E+02  0.76822704186E+01  0.47787270143E+02  0.19999995890E+02 0.  0.
         12    1    1    2    0    0 -0.32668418416E+02 -0.27520547079E+02 -0.76822704186E+01  0.43400729857E+02  0.00000000000E+00 0. -1.
         11    1    3    3    0    0  0.15636980628E+02  0.18870284496E+02  0.10883969674E+02  0.26815361199E+02  0.51100000000E-03 0.  1.
        -11    1    3    3    0    0  0.54782378416E+01 -0.34852056099E-02 -0.35587681016E+01  0.65326818886E+01  0.51100000000E-03 0. -1.
         12    1    3    3    0    0  0.11553199947E+02  0.86537477889E+01  0.35706884640E+00  0.14439227056E+02  0.00000000000E+00 0. -1.
</event>
<event>
 7    1  0.2412036E-009  0.4778726E+02  0.7816164E-02  0.1312668E+00
        -11   -1    0    0    0    0  0.00000000000E+00  0.00000000000E+00  0.45593999997E+02  0.45594000000E+02  0.51100000000E-03 0.  1.
         11   -1    0    0    0    0 -0.00000000000E+00 -0.00000000000E+00 -0.45593999997E+02  0.45594000000E+02  0.51100000000E-03 0. -1.
    9900012    2    1    2    0    0 -0.29453911047E+02 -0.12836756850E+00  0.31875931514E+02  0.47787258484E+02  0.19999942733E+02 0.  0.
         12    1    1    2    0    0  0.29453911047E+02  0.12836756850E+00 -0.31875931514E+02  0.43400741516E+02  0.00000000000E+00 0. -1.
         11    1    3    3    0    0 -0.80533445382E+01  0.43676831784E+01  0.13242180516E+02  0.16102433347E+02  0.51100000000E-03 0. -1.
        -11    1    3    3    0    0 -0.15875362379E+02 -0.69960497869E+01  0.18847733334E+02  0.25616574623E+02  0.51100000000E-03 0.  1.
        -12    1    3    3    0    0 -0.55252041297E+01  0.24999990400E+01 -0.21398233597E+00  0.60682505152E+01  0.00000000000E+00 0.  1.
</event>
<event>
 7    1  0.2412036E-009  0.4778727E+02  0.7816164E-02  0.1312668E+00
        -11   -1    0    0    0    0  0.00000000000E+00  0.00000000000E+00  0.45593999997E+02  0.45594000000E+02  0.51100000000E-03 0. -1.
         11   -1    0    0    0    0 -0.00000000000E+00 -0.00000000000E+00 -0.45593999997E+02  0.45594000000E+02  0.51100000000E-03 0.  1.
    9900012    2    1    2    0    0 -0.18420385707E+02 -0.31174993757E+02 -0.23925558806E+02  0.47787271786E+02  0.20000003380E+02 0.  0.
         12    1    1    2    0    0  0.18420385707E+02  0.31174993757E+02  0.23925558806E+02  0.43400728214E+02  0.00000000000E+00 0. -1.
         11    1    3    3    0    0 -0.99429901050E+01 -0.79968331856E+01 -0.44270951514E+01  0.13505982562E+02  0.51100000000E-03 0. -1.
        -11    1    3    3    0    0 -0.13579707596E+01 -0.17487071982E+02 -0.17838050730E+02  0.25016750892E+02  0.51100000000E-03 0.  1.
        -12    1    3    3    0    0 -0.71194248423E+01 -0.56910885897E+01 -0.16604129244E+01  0.92645383318E+01  0.00000000000E+00 0.  1.
</event>
<event>
 7    1  0.2412036E-009  0.4778727E+02  0.7816164E-02  0.1312668E+00
        -11   -1    0    0    0    0  0.00000000000E+00  0.00000000000E+00  0.45593999997E+02  0.45594000000E+02  0.51100000000E-03 0.  1.
         11   -1    0    0    0    0 -0.00000000000E+00 -0.00000000000E+00 -0.45593999997E+02  0.45594000000E+02  0.51100000000E-03 0. -1.
    9900012    2    1    2    0    0  0.23789019753E+02 -0.18251105188E+02  0.31378383062E+02  0.47787271608E+02  0.20000002570E+02 0.  0.
         12    1    1    2    0    0 -0.23789019753E+02  0.18251105188E+02 -0.31378383062E+02  0.43400728392E+02  0.00000000000E+00 0. -1.
         11    1    3    3    0    0  0.69242216406E+01  0.17685224599E+01  0.31586687190E+01  0.78134310873E+01  0.51100000000E-03 0. -1.
        -11    1    3    3    0    0  0.45867371220E+01 -0.13402772973E+02  0.11856323863E+02  0.18472815070E+02  0.51100000000E-03 0.  1.
         12    1    3    3    0    0  0.12278060990E+02 -0.66168546748E+01  0.16363390479E+02  0.21501025451E+02  0.00000000000E+00 0. -1.
</event>
<event>
 7    1  0.2412036E-009  0.4778727E+02  0.7816164E-02  0.1312668E+00
        -11   -1    0    0    0    0  0.00000000000E+00  0.00000000000E+00  0.45593999997E+02  0.45594000000E+02  0.51100000000E-03 0.  1.
         11   -1    0    0    0    0 -0.00000000000E+00 -0.00000000000E+00 -0.45593999997E+02  0.45594000000E+02  0.51100000000E-03 0. -1.
    9900012    2    1    2    0    0  0.72590226717E+01  0.28686801437E+02  0.31748978175E+02  0.47787267264E+02  0.19999982764E+02 0.  0.
         12    1    1    2    0    0 -0.72590226717E+01 -0.28686801437E+02 -0.31748978175E+02  0.43400732736E+02  0.00000000000E+00 0. -1.
         11    1    3    3    0    0  0.10327640433E+02  0.91577508479E+01  0.58048955711E+01  0.14974023185E+02  0.51100000000E-03 0. -1.
        -11    1    3    3    0    0 -0.18141608192E+01  0.17990343517E+02  0.22880697278E+02  0.29162817894E+02  0.51100000000E-03 0.  1.
         12    1    3    3    0    0 -0.12544569419E+01  0.15387070724E+01  0.30633853266E+01  0.36504261852E+01  0.00000000000E+00 0. -1.
</event>
<event>
 7    1  0.2637103E-009  0.4778726E+02  0.7816164E-02  0.1312668E+00
        -11   -1    0    0    0    0  0.00000000000E+00  0.00000000000E+00  0.45593999997E+02  0.45594000000E+02  0.51100000000E-03 0.  1.
         11   -1    0    0    0    0 -0.00000000000E+00 -0.00000000000E+00 -0.45593999997E+02  0.45594000000E+02  0.51100000000E-03 0. -1.
    9900012    2    1    2    0    0 -0.12522609155E+02  0.35645195192E+02  0.21359506079E+02  0.47787260603E+02  0.19999952393E+02 0.  0.
         12    1    1    2    0    0  0.12522609155E+02 -0.35645195192E+02 -0.21359506079E+02  0.43400739397E+02  0.00000000000E+00 0. -1.
         11    1    3    3    0    0  0.89245499140E+00  0.20710197780E+01 -0.17271675946E+01  0.28405469532E+01  0.51100000000E-03 0. -1.
        -11    1    3    3    0    0 -0.14274471807E+02  0.25711431611E+02  0.13064833300E+02  0.32179622905E+02  0.51100000000E-03 0.  1.
        -12    1    3    3    0    0  0.85940766055E+00  0.78627438024E+01  0.10021840373E+02  0.12767090745E+02  0.00000000000E+00 0.  1.
</event>
<event>
 7    1  0.2412036E-009  0.4778727E+02  0.7816164E-02  0.1312668E+00
        -11   -1    0    0    0    0  0.00000000000E+00  0.00000000000E+00  0.45593999997E+02  0.45594000000E+02  0.51100000000E-03 0.  1.
         11   -1    0    0    0    0 -0.00000000000E+00 -0.00000000000E+00 -0.45593999997E+02  0.45594000000E+02  0.51100000000E-03 0. -1.
    9900012    2    1    2    0    0  0.37906475840E+01 -0.28392851485E+02  0.32605224467E+02  0.47787266284E+02  0.19999978294E+02 0.  0.
         12    1    1    2    0    0 -0.37906475840E+01  0.28392851485E+02 -0.32605224467E+02  0.43400733716E+02  0.00000000000E+00 0. -1.
         11    1    3    3    0    0 -0.16794091043E+01 -0.12730904431E+02  0.42175517009E+01  0.13516067667E+02  0.51100000000E-03 0. -1.
        -11    1    3    3    0    0  0.87148824871E+00 -0.14045304927E+02  0.23340198804E+02  0.27254265037E+02  0.51100000000E-03 0.  1.
         12    1    3    3    0    0  0.45985684396E+01 -0.16166421278E+01  0.50474739628E+01  0.70169335801E+01  0.00000000000E+00 0. -1.
</event>
<event>
 7    1  0.2412036E-009  0.4778729E+02  0.7816164E-02  0.1312668E+00
        -11   -1    0    0    0    0  0.00000000000E+00  0.00000000000E+00  0.45593999997E+02  0.45594000000E+02  0.51100000000E-03 0. -1.
         11   -1    0    0    0    0 -0.00000000000E+00 -0.00000000000E+00 -0.45593999997E+02  0.45594000000E+02  0.51100000000E-03 0.  1.
    9900012    2    1    2    0    0  0.13043212077E+02  0.59983535855E+00 -0.41390056325E+02  0.47787286339E+02  0.20000069733E+02 0.  0.
         12    1    1    2    0    0 -0.13043212077E+02 -0.59983535855E+00  0.41390056325E+02  0.43400713661E+02  0.00000000000E+00 0. -1.
         11    1    3    3    0    0 -0.22325135912E+01  0.11082717663E+00 -0.71687557697E+01  0.75091583513E+01  0.51100000000E-03 0. -1.
        -11    1    3    3    0    0  0.88611735371E+01  0.75071050811E+01 -0.16664624319E+02  0.20312230973E+02  0.51100000000E-03 0.  1.
        -12    1    3    3    0    0  0.64145521307E+01 -0.70180968991E+01 -0.17556676236E+02  0.19965897014E+02  0.00000000000E+00 0.  1.
</event>
<event>
 7    1  0.2412036E-009  0.4778728E+02  0.7816164E-02  0.1312668E+00
        -11   -1    0    0    0    0  0.00000000000E+00  0.00000000000E+00  0.45593999997E+02  0.45594000000E+02  0.51100000000E-03 0. -1.
         11   -1    0    0    0    0 -0.00000000000E+00 -0.00000000000E+00 -0.45593999997E+02  0.45594000000E+02  0.51100000000E-03 0.  1.
    9900012    2    1    2    0    0  0.27200311937E+02 -0.33151834891E+02  0.66874225582E+01  0.47787277119E+02  0.20000027695E+02 0.  0.
         12    1    1    2    0    0 -0.27200311937E+02  0.33151834891E+02 -0.66874225582E+01  0.43400722881E+02  0.00000000000E+00 0. -1.
         11    1    3    3    0    0  0.18386311445E+02 -0.24981834997E+02  0.10831295748E+02  0.32855220228E+02  0.51100000000E-03 0. -1.
        -11    1    3    3    0    0  0.48065077974E+01 -0.71679078891E+01 -0.58886099381E+01  0.10447829821E+02  0.51100000000E-03 0.  1.
        -12    1    3    3    0    0  0.40074926953E+01 -0.10020920049E+01  0.17447367487E+01  0.44842270696E+01  0.00000000000E+00 0.  1.
</event>
<event>
 7    1  0.2412036E-009  0.4778728E+02  0.7816164E-02  0.1312668E+00
        -11   -1    0    0    0    0  0.00000000000E+00  0.00000000000E+00  0.45593999997E+02  0.45594000000E+02  0.51100000000E-03 0. -1.
         11   -1    0    0    0    0 -0.00000000000E+00 -0.00000000000E+00 -0.45593999997E+02  0.45594000000E+02  0.51100000000E-03 0.  1.
    9900012    2    1    2    0    0 -0.15607208540E+02  0.40351649950E+02  0.34324356266E+01  0.47787283111E+02  0.20000055018E+02 0.  0.
         12    1    1    2    0    0  0.15607208540E+02 -0.40351649950E+02 -0.34324356266E+01  0.43400716889E+02  0.00000000000E+00 0. -1.
         11    1    3    3    0    0 -0.12898470020E+02  0.21182840577E+02  0.29267008739E+01  0.24972962220E+02  0.51100000000E-03 0. -1.
        -11    1    3    3    0    0  0.39039627721E+01  0.74631681251E+01  0.33639908080E+01  0.90695224906E+01  0.51100000000E-03 0.  1.
        -12    1    3    3    0    0 -0.66127012918E+01  0.11705641248E+02 -0.28582560552E+01  0.13744798401E+02  0.00000000000E+00 0.  1.
</event>
<event>
 7    1  0.2412036E-009  0.4778728E+02  0.7816164E-02  0.1312668E+00
        -11   -1    0    0    0    0  0.00000000000E+00  0.00000000000E+00  0.45593999997E+02  0.45594000000E+02  0.51100000000E-03 0. -1.
         11   -1    0    0    0    0 -0.00000000000E+00 -0.00000000000E+00 -0.45593999997E+02  0.45594000000E+02  0.51100000000E-03 0.  1.
    9900012    2    1    2    0    0  0.24245129186E+02 -0.35904045145E+02  0.25875409887E+01  0.47787284391E+02  0.20000060852E+02 0.  0.
         12    1    1    2    0    0 -0.24245129186E+02  0.35904045145E+02 -0.25875409887E+01  0.43400715609E+02  0.00000000000E+00 0. -1.
         11    1    3    3    0    0  0.16270301549E+02 -0.19441886595E+02 -0.39862435343E+01  0.25663199423E+02  0.51100000000E-03 0. -1.
        -11    1    3    3    0    0  0.76021501515E+01 -0.17953572424E+02  0.66088552154E+01  0.20586413414E+02  0.51100000000E-03 0.  1.
         12    1    3    3    0    0  0.37267748592E+00  0.14914138747E+01 -0.35070692405E-01  0.15376715539E+01  0.00000000000E+00 0. -1.
</event>
<event>
 7    1  0.2412036E-009  0.4778727E+02  0.7816164E-02  0.1312668E+00
        -11   -1    0    0    0    0  0.00000000000E+00  0.00000000000E+00  0.45593999997E+02  0.45594000000E+02  0.51100000000E-03 0.  1.
         11   -1    0    0    0    0 -0.00000000000E+00 -0.00000000000E+00 -0.45593999997E+02  0.45594000000E+02  0.51100000000E-03 0. -1.
    9900012    2    1    2    0    0 -0.27664242062E+02 -0.95401368682E+01  0.32051506470E+02  0.47787267664E+02  0.19999984587E+02 0.  0.
         12    1    1    2    0    0  0.27664242062E+02  0.95401368682E+01 -0.32051506470E+02  0.43400732336E+02  0.00000000000E+00 0. -1.
         11    1    3    3    0    0 -0.69800838328E+01 -0.45965184190E+01 -0.52139889163E+00  0.83738526948E+01  0.51100000000E-03 0. -1.
        -11    1    3    3    0    0 -0.19773691994E+02 -0.47281782432E+01  0.32662758229E+02  0.38473501790E+02  0.51100000000E-03 0.  1.
        -12    1    3    3    0    0 -0.91046623478E+00 -0.21544020607E+00 -0.89852867454E-01  0.93991317942E+00  0.00000000000E+00 0.  1.
</event>
<event>
 7    1  0.2412036E-009  0.4778726E+02  0.7816164E-02  0.1312668E+00
        -11   -1    0    0    0    0  0.00000000000E+00  0.00000000000E+00  0.45593999997E+02  0.45594000000E+02  0.51100000000E-03 0.  1.
         11   -1    0    0    0    0 -0.00000000000E+00 -0.00000000000E+00 -0.45593999997E+02  0.45594000000E+02  0.51100000000E-03 0. -1.
    9900012    2    1    2    0    0  0.22435741860E+02 -0.12223121785E+02  0.35083567697E+02  0.47787263355E+02  0.19999964941E+02 0.  0.
         12    1    1    2    0    0 -0.22435741860E+02  0.12223121785E+02 -0.35083567697E+02  0.43400736645E+02  0.00000000000E+00 0. -1.
         11    1    3    3    0    0  0.47668701224E+01 -0.11430103921E+00 -0.48385872098E+00  0.47927273044E+01  0.51100000000E-03 0. -1.
        -11    1    3    3    0    0  0.11420935277E+02 -0.22492683525E+01  0.23389423099E+02  0.26125889150E+02  0.51100000000E-03 0.  1.
         12    1    3    3    0    0  0.62479364605E+01 -0.98595523933E+01  0.12178003319E+02  0.16868646900E+02  0.00000000000E+00 0. -1.
</event>
<event>
 7    1  0.2412036E-009  0.4778726E+02  0.7816164E-02  0.1312668E+00
        -11   -1    0    0    0    0  0.00000000000E+00  0.00000000000E+00  0.45593999997E+02  0.45594000000E+02  0.51100000000E-03 0.  1.
         11   -1    0    0    0    0 -0.00000000000E+00 -0.00000000000E+00 -0.45593999997E+02  0.45594000000E+02  0.51100000000E-03 0. -1.
    9900012    2    1    2    0    0  0.10208761346E+02 -0.15740611935E+02  0.39136153401E+02  0.47787260659E+02  0.19999952648E+02 0.  0.
         12    1    1    2    0    0 -0.10208761346E+02  0.15740611935E+02 -0.39136153401E+02  0.43400739341E+02  0.00000000000E+00 0. -1.
         11    1    3    3    0    0  0.45965077029E+01 -0.79600180117E+01  0.33219872355E+02  0.34468096689E+02  0.51100000000E-03 0. -1.
        -11    1    3    3    0    0  0.18044473361E+01 -0.56875696344E+01  0.66256791819E+01  0.89165073553E+01  0.51100000000E-03 0.  1.
         12    1    3    3    0    0  0.38078063072E+01 -0.20930242891E+01 -0.70939813610E+00  0.44026566143E+01  0.00000000000E+00 0. -1.
</event>
<event>
 7    1  0.2412036E-009  0.4778727E+02  0.7816164E-02  0.1312668E+00
        -11   -1    0    0    0    0  0.00000000000E+00  0.00000000000E+00  0.45593999997E+02  0.45594000000E+02  0.51100000000E-03 0. -1.
         11   -1    0    0    0    0 -0.00000000000E+00 -0.00000000000E+00 -0.45593999997E+02  0.45594000000E+02  0.51100000000E-03 0.  1.
    9900012    2    1    2    0    0 -0.16558789422E+00  0.42429597481E+02 -0.91282569735E+01  0.47787271468E+02  0.20000001929E+02 0.  0.
         12    1    1    2    0    0  0.16558789422E+00 -0.42429597481E+02  0.91282569735E+01  0.43400728532E+02  0.00000000000E+00 0. -1.
         11    1    3    3    0    0 -0.27576502831E+01  0.37304285209E+00 -0.33665122878E+01  0.43677455624E+01  0.51100000000E-03 0. -1.
        -11    1    3    3    0    0  0.54182643877E+01  0.28458191373E+02 -0.57294428620E+01  0.29530539463E+02  0.51100000000E-03 0.  1.
         12    1    3    3    0    0 -0.28262019988E+01  0.13598363256E+02 -0.32301823742E-01  0.13888986442E+02  0.00000000000E+00 0. -1.
</event>
<event>
 7    1  0.2412036E-009  0.4778728E+02  0.7816164E-02  0.1312668E+00
        -11   -1    0    0    0    0  0.00000000000E+00  0.00000000000E+00  0.45593999997E+02  0.45594000000E+02  0.51100000000E-03 0.  1.
         11   -1    0    0    0    0 -0.00000000000E+00 -0.00000000000E+00 -0.45593999997E+02  0.45594000000E+02  0.51100000000E-03 0. -1.
    9900012    2    1    2    0    0 -0.11363015576E+02  0.57427549678E+01  0.41491270991E+02  0.47787275051E+02  0.20000018269E+02 0.  0.
         12    1    1    2    0    0  0.11363015576E+02 -0.57427549678E+01 -0.41491270991E+02  0.43400724949E+02  0.00000000000E+00 0. -1.
         11    1    3    3    0    0 -0.28246357243E+01 -0.37242922333E+01  0.88372265444E+01  0.99972742721E+01  0.51100000000E-03 0. -1.
        -11    1    3    3    0    0  0.23542105910E+01  0.57324252052E+01  0.18689753525E+02  0.19690350259E+02  0.51100000000E-03 0.  1.
        -12    1    3    3    0    0 -0.10892590442E+02  0.37346219958E+01  0.13964290922E+02  0.18099650520E+02  0.00000000000E+00 0.  1.
</event>
<event>
 7    1  0.2412036E-009  0.4778727E+02  0.7816164E-02  0.1312668E+00
        -11   -1    0    0    0    0  0.00000000000E+00  0.00000000000E+00  0.45593999997E+02  0.45594000000E+02  0.51100000000E-03 0. -1.
         11   -1    0    0    0    0 -0.00000000000E+00 -0.00000000000E+00 -0.45593999997E+02  0.45594000000E+02  0.51100000000E-03 0.  1.
    9900012    2    1    2    0    0  0.15391861342E+02  0.40394170050E+02  0.38761939050E+01  0.47787271333E+02  0.20000001318E+02 0.  0.
         12    1    1    2    0    0 -0.15391861342E+02 -0.40394170050E+02 -0.38761939050E+01  0.43400728667E+02  0.00000000000E+00 0. -1.
         11    1    3    3    0    0 -0.30472286767E+01  0.69558748078E+00  0.24315865742E+01  0.39600578380E+01  0.51100000000E-03 0. -1.
        -11    1    3    3    0    0  0.29550610715E+01  0.78605668037E+01  0.44730028993E+00  0.84095763402E+01  0.51100000000E-03 0.  1.
         12    1    3    3    0    0  0.15484028947E+02  0.31838015765E+02  0.99730704090E+00  0.35417637155E+02  0.00000000000E+00 0. -1.
</event>
<event>
 7    1  0.2412036E-009  0.4778727E+02  0.7816164E-02  0.1312668E+00
        -11   -1    0    0    0    0  0.00000000000E+00  0.00000000000E+00  0.45593999997E+02  0.45594000000E+02  0.51100000000E-03 0. -1.
         11   -1    0    0    0    0 -0.00000000000E+00 -0.00000000000E+00 -0.45593999997E+02  0.45594000000E+02  0.51100000000E-03 0.  1.
    9900012    2    1    2    0    0  0.28258719485E+02  0.26677506923E+02 -0.19323008330E+02  0.47787271280E+02  0.20000001073E+02 0.  0.
         12    1    1    2    0    0 -0.28258719485E+02 -0.26677506923E+02  0.19323008330E+02  0.43400728720E+02  0.00000000000E+00 0. -1.
         11    1    3    3    0    0  0.70520599767E+01  0.58927600758E+00  0.20628705279E+01  0.73711757003E+01  0.51100000000E-03 0. -1.
        -11    1    3    3    0    0  0.17826570106E+02  0.17352803646E+02 -0.16494993257E+02  0.29849475689E+02  0.51100000000E-03 0.  1.
        -12    1    3    3    0    0  0.33800894022E+01  0.87354272692E+01 -0.48908856008E+01  0.10566619890E+02  0.00000000000E+00 0.  1.
</event>
<event>
 7    1  0.2412036E-009  0.4778727E+02  0.7816164E-02  0.1312668E+00
        -11   -1    0    0    0    0  0.00000000000E+00  0.00000000000E+00  0.45593999997E+02  0.45594000000E+02  0.51100000000E-03 0.  1.
         11   -1    0    0    0    0 -0.00000000000E+00 -0.00000000000E+00 -0.45593999997E+02  0.45594000000E+02  0.51100000000E-03 0. -1.
    9900012    2    1    2    0    0  0.27134742312E+02  0.27653804641E+02  0.19560068069E+02  0.47787269426E+02  0.19999992621E+02 0.  0.
         12    1    1    2    0    0 -0.27134742312E+02 -0.27653804641E+02 -0.19560068069E+02  0.43400730574E+02  0.00000000000E+00 0. -1.
         11    1    3    3    0    0 -0.38776157104E+00  0.60607268586E+01  0.84917378879E+01  0.10439941653E+02  0.51100000000E-03 0. -1.
        -11    1    3    3    0    0  0.22560680737E+01  0.67575116547E+00  0.25225500414E+01  0.34510493714E+01  0.51100000000E-03 0.  1.
         12    1    3    3    0    0  0.25266435809E+02  0.20917326617E+02  0.85457801397E+01  0.33896278402E+02  0.00000000000E+00 0. -1.
</event>
<event>
 7    1  0.2412036E-009  0.4778728E+02  0.7816164E-02  0.1312668E+00
        -11   -1    0    0    0    0  0.00000000000E+00  0.00000000000E+00  0.45593999997E+02  0.45594000000E+02  0.51100000000E-03 0. -1.
         11   -1    0    0    0    0 -0.00000000000E+00 -0.00000000000E+00 -0.45593999997E+02  0.45594000000E+02  0.51100000000E-03 0.  1.
    9900012    2    1    2    0    0  0.12861916222E+02 -0.14114725496E+02 -0.38973946715E+02  0.47787275499E+02  0.20000020310E+02 0.  0.
         12    1    1    2    0    0 -0.12861916222E+02  0.14114725496E+02  0.38973946715E+02  0.43400724501E+02  0.00000000000E+00 0. -1.
         11    1    3    3    0    0  0.12553547640E+02 -0.14340735971E+02 -0.31458262857E+02  0.36781388892E+02  0.51100000000E-03 0. -1.
        -11    1    3    3    0    0  0.26622828802E+01 -0.67207695153E+00 -0.79843047663E+01  0.84432553216E+01  0.51100000000E-03 0.  1.
         12    1    3    3    0    0 -0.23539142983E+01  0.89808742675E+00  0.46862090921E+00  0.25626312856E+01  0.00000000000E+00 0. -1.
</event>
<event>
 7    1  0.2412036E-009  0.4778727E+02  0.7816164E-02  0.1312668E+00
        -11   -1    0    0    0    0  0.00000000000E+00  0.00000000000E+00  0.45593999997E+02  0.45594000000E+02  0.51100000000E-03 0. -1.
         11   -1    0    0    0    0 -0.00000000000E+00 -0.00000000000E+00 -0.45593999997E+02  0.45594000000E+02  0.51100000000E-03 0.  1.
    9900012    2    1    2    0    0 -0.29117744103E+02  0.31319763226E+02 -0.74062519988E+01  0.47787272370E+02  0.20000006044E+02 0.  0.
         12    1    1    2    0    0  0.29117744103E+02 -0.31319763226E+02  0.74062519988E+01  0.43400727630E+02  0.00000000000E+00 0. -1.
         11    1    3    3    0    0  0.72354970243E+00  0.30680957262E+01 -0.38776759741E+01  0.49973099542E+01  0.51100000000E-03 0. -1.
        -11    1    3    3    0    0 -0.25542288311E+02  0.19853660508E+02  0.90994918528E+00  0.32363626736E+02  0.51100000000E-03 0.  1.
        -12    1    3    3    0    0 -0.42990054941E+01  0.83980069916E+01 -0.44385252100E+01  0.10426335680E+02  0.00000000000E+00 0.  1.
</event>
<event>
 7    1  0.2412036E-009  0.4778727E+02  0.7816164E-02  0.1312668E+00
        -11   -1    0    0    0    0  0.00000000000E+00  0.00000000000E+00  0.45593999997E+02  0.45594000000E+02  0.51100000000E-03 0.  1.
         11   -1    0    0    0    0 -0.00000000000E+00 -0.00000000000E+00 -0.45593999997E+02  0.45594000000E+02  0.51100000000E-03 0. -1.
    9900012    2    1    2    0    0 -0.23314510910E+02 -0.11764784514E+02  0.34664775658E+02  0.47787271376E+02  0.20000001512E+02 0.  0.
         12    1    1    2    0    0  0.23314510910E+02  0.11764784514E+02 -0.34664775658E+02  0.43400728624E+02  0.00000000000E+00 0. -1.
         11    1    3    3    0    0 -0.66455902629E+01 -0.44874797093E+01  0.60883423637E+00  0.80418917844E+01  0.51100000000E-03 0. -1.
        -11    1    3    3    0    0 -0.16843336530E+02 -0.67763445570E+01  0.34544093393E+02  0.39024495123E+02  0.51100000000E-03 0.  1.
        -12    1    3    3    0    0  0.17441588276E+00 -0.50096024783E+00 -0.48815197108E+00  0.72088446851E+00  0.00000000000E+00 0.  1.
</event>
<event>
 7    1  0.2412036E-009  0.4778729E+02  0.7816164E-02  0.1312668E+00
        -11   -1    0    0    0    0  0.00000000000E+00  0.00000000000E+00  0.45593999997E+02  0.45594000000E+02  0.51100000000E-03 0.  1.
         11   -1    0    0    0    0 -0.00000000000E+00 -0.00000000000E+00 -0.45593999997E+02  0.45594000000E+02  0.51100000000E-03 0. -1.
    9900012    2    1    2    0    0 -0.42688349038E+02  0.73857575195E+01 -0.26032993120E+01  0.47787288887E+02  0.20000081353E+02 0.  0.
         12    1    1    2    0    0  0.42688349038E+02 -0.73857575195E+01  0.26032993120E+01  0.43400711113E+02  0.00000000000E+00 0. -1.
         11    1    3    3    0    0 -0.11630407955E+02 -0.37968039857E+01  0.40670346590E+01  0.12892745281E+02  0.51100000000E-03 0. -1.
        -11    1    3    3    0    0 -0.29718819321E+02  0.11536686442E+02 -0.43261569987E+01  0.32171711029E+02  0.51100000000E-03 0.  1.
         12    1    3    3    0    0 -0.13391217629E+01 -0.35412493726E+00 -0.23441769724E+01  0.27228325774E+01  0.00000000000E+00 0. -1.
</event>
<event>
 7    1  0.2412036E-009  0.4778727E+02  0.7816164E-02  0.1312668E+00
        -11   -1    0    0    0    0  0.00000000000E+00  0.00000000000E+00  0.45593999997E+02  0.45594000000E+02  0.51100000000E-03 0.  1.
         11   -1    0    0    0    0 -0.00000000000E+00 -0.00000000000E+00 -0.45593999997E+02  0.45594000000E+02  0.51100000000E-03 0. -1.
    9900012    2    1    2    0    0  0.12517133907E+01 -0.42310748808E+02  0.95842289820E+01  0.47787266178E+02  0.19999977813E+02 0.  0.
         12    1    1    2    0    0 -0.12517133907E+01  0.42310748808E+02 -0.95842289820E+01  0.43400733822E+02  0.00000000000E+00 0. -1.
         11    1    3    3    0    0  0.87434805524E+01 -0.25048709289E+02  0.43657189712E+01  0.26887651285E+02  0.51100000000E-03 0. -1.
        -11    1    3    3    0    0 -0.53544734647E+01 -0.14472486777E+02  0.70172195236E+01  0.16951832635E+02  0.51100000000E-03 0.  1.
        -12    1    3    3    0    0 -0.21372936970E+01 -0.27895527421E+01 -0.17987095128E+01  0.39477822584E+01  0.00000000000E+00 0.  1.
</event>
<event>
 7    1  0.2412036E-009  0.4778727E+02  0.7816164E-02  0.1312668E+00
        -11   -1    0    0    0    0  0.00000000000E+00  0.00000000000E+00  0.45593999997E+02  0.45594000000E+02  0.51100000000E-03 0.  1.
         11   -1    0    0    0    0 -0.00000000000E+00 -0.00000000000E+00 -0.45593999997E+02  0.45594000000E+02  0.51100000000E-03 0. -1.
    9900012    2    1    2    0    0  0.82051128603E+01  0.35861669459E+02 -0.23026936445E+02  0.47787274022E+02  0.20000013576E+02 0.  0.
         12    1    1    2    0    0 -0.82051128603E+01 -0.35861669459E+02  0.23026936445E+02  0.43400725978E+02  0.00000000000E+00 0. -1.
         11    1    3    3    0    0 -0.10276034712E+01  0.25981013469E+02 -0.11765688335E+02  0.28539454305E+02  0.51100000000E-03 0. -1.
        -11    1    3    3    0    0  0.14413205952E+01  0.22167052453E+01 -0.70604935950E+01  0.75393472708E+01  0.51100000000E-03 0.  1.
         12    1    3    3    0    0  0.77913957364E+01  0.76639507442E+01 -0.42007545143E+01  0.11708472446E+02  0.00000000000E+00 0. -1.
</event>
<event>
 7    1  0.2412036E-009  0.4778727E+02  0.7816164E-02  0.1312668E+00
        -11   -1    0    0    0    0  0.00000000000E+00  0.00000000000E+00  0.45593999997E+02  0.45594000000E+02  0.51100000000E-03 0.  1.
         11   -1    0    0    0    0 -0.00000000000E+00 -0.00000000000E+00 -0.45593999997E+02  0.45594000000E+02  0.51100000000E-03 0. -1.
    9900012    2    1    2    0    0  0.13424969052E+02  0.40076428437E+02 -0.98627384420E+01  0.47787268211E+02  0.19999987079E+02 0.  0.
         12    1    1    2    0    0 -0.13424969052E+02 -0.40076428437E+02  0.98627384420E+01  0.43400731789E+02  0.00000000000E+00 0. -1.
         11    1    3    3    0    0 -0.12286124746E+01  0.14905283756E+01  0.35678733294E+01  0.40572014747E+01  0.51100000000E-03 0. -1.
        -11    1    3    3    0    0  0.55557485731E+01  0.21104031066E+02 -0.84587721591E+01  0.23405069881E+02  0.51100000000E-03 0.  1.
         12    1    3    3    0    0  0.90978329537E+01  0.17481868995E+02 -0.49718396122E+01  0.20324996855E+02  0.00000000000E+00 0. -1.
</event>
<event>
 7    1  0.2546948E-009  0.4778727E+02  0.7816164E-02  0.1312668E+00
        -11   -1    0    0    0    0  0.00000000000E+00  0.00000000000E+00  0.45593999997E+02  0.45594000000E+02  0.51100000000E-03 0.  1.
         11   -1    0    0    0    0 -0.00000000000E+00 -0.00000000000E+00 -0.45593999997E+02  0.45594000000E+02  0.51100000000E-03 0. -1.
    9900012    2    1    2    0    0 -0.30879050761E+02 -0.12834397257E+02  0.27665603455E+02  0.47787272548E+02  0.20000006857E+02 0.  0.
         12    1    1    2    0    0  0.30879050761E+02  0.12834397257E+02 -0.27665603455E+02  0.43400727452E+02  0.00000000000E+00 0. -1.
         11    1    3    3    0    0  0.41760578566E+00  0.98849096756E+00 -0.17096598414E+01  0.20185257045E+01  0.51100000000E-03 0. -1.
        -11    1    3    3    0    0 -0.23255477501E+02 -0.93784171853E+01  0.16753475348E+02  0.30157103296E+02  0.51100000000E-03 0.  1.
        -12    1    3    3    0    0 -0.80411790451E+01 -0.44444710390E+01  0.12621787948E+02  0.15611643548E+02  0.00000000000E+00 0.  1.
</event>
<event>
 7    1  0.2412036E-009  0.4778727E+02  0.7816164E-02  0.1312668E+00
        -11   -1    0    0    0    0  0.00000000000E+00  0.00000000000E+00  0.45593999997E+02  0.45594000000E+02  0.51100000000E-03 0. -1.
         11   -1    0    0    0    0 -0.00000000000E+00 -0.00000000000E+00 -0.45593999997E+02  0.45594000000E+02  0.51100000000E-03 0.  1.
    9900012    2    1    2    0    0  0.12121669100E+02 -0.20352811661E+02 -0.36365528521E+02  0.47787268798E+02  0.19999989758E+02 0.  0.
         12    1    1    2    0    0 -0.12121669100E+02  0.20352811661E+02  0.36365528521E+02  0.43400731202E+02  0.00000000000E+00 0. -1.
         11    1    3    3    0    0 -0.37475113176E+01 -0.45088161854E+01 -0.12083675895E+02  0.13430878150E+02  0.51100000000E-03 0.  1.
        -11    1    3    3    0    0  0.98987131198E+01 -0.15343857718E+02 -0.17264909747E+02  0.25129576199E+02  0.51100000000E-03 0. -1.
         12    1    3    3    0    0  0.59704672980E+01 -0.50013775768E+00 -0.70169428783E+01  0.92268144498E+01  0.00000000000E+00 0. -1.
</event>
<event>
 7    1  0.2412036E-009  0.4778727E+02  0.7816164E-02  0.1312668E+00
        -11   -1    0    0    0    0  0.00000000000E+00  0.00000000000E+00  0.45593999997E+02  0.45594000000E+02  0.51100000000E-03 0.  1.
         11   -1    0    0    0    0 -0.00000000000E+00 -0.00000000000E+00 -0.45593999997E+02  0.45594000000E+02  0.51100000000E-03 0. -1.
    9900012    2    1    2    0    0 -0.26860802852E+02 -0.33450738927E+02 -0.65702807296E+01  0.47787271280E+02  0.20000001072E+02 0.  0.
         12    1    1    2    0    0  0.26860802852E+02  0.33450738927E+02  0.65702807296E+01  0.43400728720E+02  0.00000000000E+00 0. -1.
         11    1    3    3    0    0 -0.23432752437E+02 -0.23452288841E+02 -0.53535453045E+01  0.33582200438E+02  0.51100000000E-03 0.  1.
        -11    1    3    3    0    0  0.21686575658E+01  0.50537319911E+00 -0.49668022452E+00  0.22814839940E+01  0.51100000000E-03 0. -1.
        -12    1    3    3    0    0 -0.55967079811E+01 -0.10503823285E+02 -0.72005520058E+00  0.11923586848E+02  0.00000000000E+00 0.  1.
</event>
<event>
 7    1  0.2412036E-009  0.4778728E+02  0.7816164E-02  0.1312668E+00
        -11   -1    0    0    0    0  0.00000000000E+00  0.00000000000E+00  0.45593999997E+02  0.45594000000E+02  0.51100000000E-03 0.  1.
         11   -1    0    0    0    0 -0.00000000000E+00 -0.00000000000E+00 -0.45593999997E+02  0.45594000000E+02  0.51100000000E-03 0. -1.
    9900012    2    1    2    0    0 -0.11590985273E+02  0.14208572192E+02  0.39336852074E+02  0.47787281176E+02  0.20000046193E+02 0.  0.
         12    1    1    2    0    0  0.11590985273E+02 -0.14208572192E+02 -0.39336852074E+02  0.43400718824E+02  0.00000000000E+00 0. -1.
         11    1    3    3    0    0  0.31202304761E+01  0.41123916784E+01  0.47204631869E+01  0.69950251251E+01  0.51100000000E-03 0. -1.
        -11    1    3    3    0    0 -0.16609537487E+02  0.10078670060E+02  0.29383459382E+02  0.35225615839E+02  0.51100000000E-03 0.  1.
        -12    1    3    3    0    0  0.18983217381E+01  0.17510453747E-01  0.52329295054E+01  0.55666402116E+01  0.00000000000E+00 0.  1.
</event>
<event>
 7    1  0.2412036E-009  0.4778726E+02  0.7816164E-02  0.1312668E+00
        -11   -1    0    0    0    0  0.00000000000E+00  0.00000000000E+00  0.45593999997E+02  0.45594000000E+02  0.51100000000E-03 0.  1.
         11   -1    0    0    0    0 -0.00000000000E+00 -0.00000000000E+00 -0.45593999997E+02  0.45594000000E+02  0.51100000000E-03 0. -1.
    9900012    2    1    2    0    0 -0.35582715102E+02  0.16180926685E+02  0.18859266904E+02  0.47787263248E+02  0.19999964454E+02 0.  0.
         12    1    1    2    0    0  0.35582715102E+02 -0.16180926685E+02 -0.18859266904E+02  0.43400736752E+02  0.00000000000E+00 0. -1.
         11    1    3    3    0    0 -0.20492817871E+02  0.15254503868E+02  0.72787724145E+01  0.26563809980E+02  0.51100000000E-03 0. -1.
        -11    1    3    3    0    0 -0.82058781408E+01  0.50957771021E+01  0.73013823922E+01  0.12108408873E+02  0.51100000000E-03 0.  1.
         12    1    3    3    0    0 -0.68840190910E+01 -0.41693542843E+01  0.42791120970E+01  0.91150443955E+01  0.00000000000E+00 0. -1.
</event>
<event>
 7    1  0.2412036E-009  0.4778727E+02  0.7816164E-02  0.1312668E+00
        -11   -1    0    0    0    0  0.00000000000E+00  0.00000000000E+00  0.45593999997E+02  0.45594000000E+02  0.51100000000E-03 0.  1.
         11   -1    0    0    0    0 -0.00000000000E+00 -0.00000000000E+00 -0.45593999997E+02  0.45594000000E+02  0.51100000000E-03 0. -1.
    9900012    2    1    2    0    0  0.32290273817E+02  0.28301557037E+02  0.63232507138E+01  0.47787269436E+02  0.19999992669E+02 0.  0.
         12    1    1    2    0    0 -0.32290273817E+02 -0.28301557037E+02 -0.63232507138E+01  0.43400730564E+02  0.00000000000E+00 0. -1.
         11    1    3    3    0    0  0.18999367960E+02  0.78827900011E+01  0.34325199656E+01  0.20854173555E+02  0.51100000000E-03 0. -1.
        -11    1    3    3    0    0  0.12994629639E+00  0.93296539132E+01  0.27327428451E+01  0.97225105759E+01  0.51100000000E-03 0.  1.
        -12    1    3    3    0    0  0.13160959561E+02  0.11089113122E+02  0.15798790311E+00  0.17210585306E+02  0.00000000000E+00 0.  1.
</event>
<event>
 7    1  0.2412036E-009  0.4778726E+02  0.7816164E-02  0.1312668E+00
        -11   -1    0    0    0    0  0.00000000000E+00  0.00000000000E+00  0.45593999997E+02  0.45594000000E+02  0.51100000000E-03 0.  1.
         11   -1    0    0    0    0 -0.00000000000E+00 -0.00000000000E+00 -0.45593999997E+02  0.45594000000E+02  0.51100000000E-03 0. -1.
    9900012    2    1    2    0    0  0.17017517890E+02 -0.38322205926E+02 -0.11199856174E+02  0.47787260830E+02  0.19999953429E+02 0.  0.
         12    1    1    2    0    0 -0.17017517890E+02  0.38322205926E+02  0.11199856174E+02  0.43400739170E+02  0.00000000000E+00 0. -1.
         11    1    3    3    0    0  0.14028064128E+02 -0.31832005367E+02 -0.11534106287E+02  0.36648311788E+02  0.51100000000E-03 0.  1.
        -11    1    3    3    0    0  0.47021549243E+01 -0.31187049568E+00  0.37628144598E+00  0.47274847568E+01  0.51100000000E-03 0. -1.
        -12    1    3    3    0    0 -0.17127011622E+01 -0.61783300635E+01 -0.42031333519E-01  0.64114642849E+01  0.00000000000E+00 0.  1.
</event>
<event>
 7    1  0.2412036E-009  0.4778727E+02  0.7816164E-02  0.1312668E+00
        -11   -1    0    0    0    0  0.00000000000E+00  0.00000000000E+00  0.45593999997E+02  0.45594000000E+02  0.51100000000E-03 0.  1.
         11   -1    0    0    0    0 -0.00000000000E+00 -0.00000000000E+00 -0.45593999997E+02  0.45594000000E+02  0.51100000000E-03 0. -1.
    9900012    2    1    2    0    0  0.36343237392E+02 -0.44639433060E+01  0.23299477679E+02  0.47787270120E+02  0.19999995787E+02 0.  0.
         12    1    1    2    0    0 -0.36343237392E+02  0.44639433060E+01 -0.23299477679E+02  0.43400729880E+02  0.00000000000E+00 0. -1.
         11    1    3    3    0    0  0.27470095130E+02  0.16385181046E+01  0.18004401684E+02  0.32885397189E+02  0.51100000000E-03 0.  1.
        -11    1    3    3    0    0  0.66906604207E+01 -0.78818960641E+01  0.60600212019E+01  0.11983867475E+02  0.51100000000E-03 0. -1.
         12    1    3    3    0    0  0.21824818417E+01  0.17794346535E+01 -0.76494520697E+00  0.29180054567E+01  0.00000000000E+00 0. -1.
</event>
<event>
 7    1  0.2412036E-009  0.4778727E+02  0.7816164E-02  0.1312668E+00
        -11   -1    0    0    0    0  0.00000000000E+00  0.00000000000E+00  0.45593999997E+02  0.45594000000E+02  0.51100000000E-03 0.  1.
         11   -1    0    0    0    0 -0.00000000000E+00 -0.00000000000E+00 -0.45593999997E+02  0.45594000000E+02  0.51100000000E-03 0. -1.
    9900012    2    1    2    0    0  0.18679615178E+02 -0.27983647674E+02  0.27415523093E+02  0.47787268821E+02  0.19999989864E+02 0.  0.
         12    1    1    2    0    0 -0.18679615178E+02  0.27983647674E+02 -0.27415523093E+02  0.43400731179E+02  0.00000000000E+00 0. -1.
         11    1    3    3    0    0  0.11737489206E+02 -0.17546351554E+02  0.22374457193E+02  0.30761330281E+02  0.51100000000E-03 0.  1.
        -11    1    3    3    0    0  0.10212073612E+01  0.13014619071E+00 -0.25368187847E+01  0.27377458452E+01  0.51100000000E-03 0. -1.
         12    1    3    3    0    0  0.59209186109E+01 -0.10567442311E+02  0.75778846847E+01  0.14288192695E+02  0.00000000000E+00 0. -1.
</event>
<event>
 7    1  0.2412036E-009  0.4778726E+02  0.7816164E-02  0.1312668E+00
        -11   -1    0    0    0    0  0.00000000000E+00  0.00000000000E+00  0.45593999997E+02  0.45594000000E+02  0.51100000000E-03 0.  1.
         11   -1    0    0    0    0 -0.00000000000E+00 -0.00000000000E+00 -0.45593999997E+02  0.45594000000E+02  0.51100000000E-03 0. -1.
    9900012    2    1    2    0    0 -0.58327442098E+01  0.27341516714E+02  0.33197054967E+02  0.47787263834E+02  0.19999967126E+02 0.  0.
         12    1    1    2    0    0  0.58327442098E+01 -0.27341516714E+02 -0.33197054967E+02  0.43400736166E+02  0.00000000000E+00 0. -1.
         11    1    3    3    0    0  0.33519508702E+01  0.27680186319E+01  0.86235982328E+00  0.44318355688E+01  0.51100000000E-03 0. -1.
        -11    1    3    3    0    0 -0.44253548008E+01  0.16903804684E+02  0.28749581767E+02  0.33643139419E+02  0.51100000000E-03 0.  1.
        -12    1    3    3    0    0 -0.47593402792E+01  0.76696933978E+01  0.35851133765E+01  0.97122888462E+01  0.00000000000E+00 0.  1.
</event>
<event>
 7    1  0.2412036E-009  0.4778727E+02  0.7816164E-02  0.1312668E+00
        -11   -1    0    0    0    0  0.00000000000E+00  0.00000000000E+00  0.45593999997E+02  0.45594000000E+02  0.51100000000E-03 0.  1.
         11   -1    0    0    0    0 -0.00000000000E+00 -0.00000000000E+00 -0.45593999997E+02  0.45594000000E+02  0.51100000000E-03 0. -1.
    9900012    2    1    2    0    0 -0.71924820383E+01  0.22211831085E+02  0.36585871443E+02  0.47787271581E+02  0.20000002447E+02 0.  0.
         12    1    1    2    0    0  0.71924820383E+01 -0.22211831085E+02 -0.36585871443E+02  0.43400728419E+02  0.00000000000E+00 0. -1.
         11    1    3    3    0    0  0.42442760404E+01  0.14065681391E+02  0.15164750957E+02  0.21114614464E+02  0.51100000000E-03 0. -1.
        -11    1    3    3    0    0  0.69238254289E+00  0.53789955677E+00  0.41349024681E+01  0.42268366660E+01  0.51100000000E-03 0.  1.
         12    1    3    3    0    0 -0.12129140622E+02  0.76082501368E+01  0.17286218018E+02  0.22445820451E+02  0.00000000000E+00 0. -1.
</event>
<event>
 7    1  0.2412036E-009  0.4778727E+02  0.7816164E-02  0.1312668E+00
        -11   -1    0    0    0    0  0.00000000000E+00  0.00000000000E+00  0.45593999997E+02  0.45594000000E+02  0.51100000000E-03 0.  1.
         11   -1    0    0    0    0 -0.00000000000E+00 -0.00000000000E+00 -0.45593999997E+02  0.45594000000E+02  0.51100000000E-03 0. -1.
    9900012    2    1    2    0    0 -0.25538299241E+01  0.83306197748E+01  0.42517079548E+02  0.47787270439E+02  0.19999997241E+02 0.  0.
         12    1    1    2    0    0  0.25538299241E+01 -0.83306197748E+01 -0.42517079548E+02  0.43400729561E+02  0.00000000000E+00 0. -1.
         11    1    3    3    0    0 -0.22059424540E+01  0.52625135092E+01  0.10007573862E+02  0.11520059262E+02  0.51100000000E-03 0. -1.
        -11    1    3    3    0    0  0.58781179174E+01  0.65917457029E+01  0.19850004107E+02  0.21726160383E+02  0.51100000000E-03 0.  1.
        -12    1    3    3    0    0 -0.62260053876E+01 -0.35236394373E+01  0.12659501579E+02  0.14541050795E+02  0.00000000000E+00 0.  1.
</event>
<event>
 7    1  0.2412036E-009  0.4778727E+02  0.7816164E-02  0.1312668E+00
        -11   -1    0    0    0    0  0.00000000000E+00  0.00000000000E+00  0.45593999997E+02  0.45594000000E+02  0.51100000000E-03 0. -1.
         11   -1    0    0    0    0 -0.00000000000E+00 -0.00000000000E+00 -0.45593999997E+02  0.45594000000E+02  0.51100000000E-03 0.  1.
    9900012    2    1    2    0    0  0.39497496575E+02 -0.49144844505E+01 -0.17303726553E+02  0.47787270217E+02  0.19999996226E+02 0.  0.
         12    1    1    2    0    0 -0.39497496575E+02  0.49144844505E+01  0.17303726553E+02  0.43400729783E+02  0.00000000000E+00 0. -1.
         11    1    3    3    0    0  0.23728551475E+01  0.17221065167E+01  0.11428024513E+01  0.31467586672E+01  0.51100000000E-03 0.  1.
        -11    1    3    3    0    0  0.24075645860E+02  0.24289895830E+01 -0.14709468569E+02  0.28317930359E+02  0.51100000000E-03 0. -1.
        -12    1    3    3    0    0  0.13048995567E+02 -0.90655805502E+01 -0.37370604358E+01  0.16322581191E+02  0.00000000000E+00 0.  1.
</event>
<event>
 7    1  0.2412036E-009  0.4778727E+02  0.7816164E-02  0.1312668E+00
        -11   -1    0    0    0    0  0.00000000000E+00  0.00000000000E+00  0.45593999997E+02  0.45594000000E+02  0.51100000000E-03 0.  1.
         11   -1    0    0    0    0 -0.00000000000E+00 -0.00000000000E+00 -0.45593999997E+02  0.45594000000E+02  0.51100000000E-03 0. -1.
    9900012    2    1    2    0    0  0.26612866463E+02 -0.55619205835E+01  0.33829626014E+02  0.47787271686E+02  0.20000002925E+02 0.  0.
         12    1    1    2    0    0 -0.26612866463E+02  0.55619205835E+01 -0.33829626014E+02  0.43400728314E+02  0.00000000000E+00 0. -1.
         11    1    3    3    0    0  0.93260400440E+01 -0.75848643203E+01  0.17588029190E+02  0.21303613795E+02  0.51100000000E-03 0. -1.
        -11    1    3    3    0    0  0.18201503892E+02  0.76289928621E+00  0.11622613996E+02  0.21609301600E+02  0.51100000000E-03 0.  1.
         12    1    3    3    0    0 -0.91467747322E+00  0.12600444506E+01  0.46189828272E+01  0.48743562913E+01  0.00000000000E+00 0. -1.
</event>
<event>
 7    1  0.2412036E-009  0.4778727E+02  0.7816164E-02  0.1312668E+00
        -11   -1    0    0    0    0  0.00000000000E+00  0.00000000000E+00  0.45593999997E+02  0.45594000000E+02  0.51100000000E-03 0.  1.
         11   -1    0    0    0    0 -0.00000000000E+00 -0.00000000000E+00 -0.45593999997E+02  0.45594000000E+02  0.51100000000E-03 0. -1.
    9900012    2    1    2    0    0  0.25006414419E+02  0.20856119042E+02  0.28693642114E+02  0.47787267733E+02  0.19999984901E+02 0.  0.
         12    1    1    2    0    0 -0.25006414419E+02 -0.20856119042E+02 -0.28693642114E+02  0.43400732267E+02  0.00000000000E+00 0. -1.
         11    1    3    3    0    0  0.90023754428E+00  0.53769473815E+01  0.12222517841E+01  0.55871182611E+01  0.51100000000E-03 0. -1.
        -11    1    3    3    0    0  0.21711952138E+02  0.97209551872E+01  0.26942426042E+02  0.35941621509E+02  0.51100000000E-03 0.  1.
        -12    1    3    3    0    0  0.23942247368E+01  0.57582164730E+01  0.52896428751E+00  0.62585279625E+01  0.00000000000E+00 0.  1.
</event>
<event>
 7    1  0.2412036E-009  0.4778728E+02  0.7816164E-02  0.1312668E+00
        -11   -1    0    0    0    0  0.00000000000E+00  0.00000000000E+00  0.45593999997E+02  0.45594000000E+02  0.51100000000E-03 0. -1.
         11   -1    0    0    0    0 -0.00000000000E+00 -0.00000000000E+00 -0.45593999997E+02  0.45594000000E+02  0.51100000000E-03 0.  1.
    9900012    2    1    2    0    0  0.24731373272E+01  0.34076763250E+02 -0.26763409951E+02  0.47787282102E+02  0.20000050418E+02 0.  0.
         12    1    1    2    0    0 -0.24731373272E+01 -0.34076763250E+02  0.26763409951E+02  0.43400717898E+02  0.00000000000E+00 0. -1.
         11    1    3    3    0    0 -0.72467778561E+00  0.14530974657E+02 -0.21393120533E+02  0.25871605841E+02  0.51100000000E-03 0. -1.
        -11    1    3    3    0    0 -0.91112715932E+00  0.19068988806E+01 -0.29714379321E+01  0.36463488159E+01  0.51100000000E-03 0.  1.
         12    1    3    3    0    0  0.41089422722E+01  0.17638889712E+02 -0.23988514856E+01  0.18269327445E+02  0.00000000000E+00 0. -1.
</event>
<event>
 7    1  0.2412036E-009  0.4778727E+02  0.7816164E-02  0.1312668E+00
        -11   -1    0    0    0    0  0.00000000000E+00  0.00000000000E+00  0.45593999997E+02  0.45594000000E+02  0.51100000000E-03 0.  1.
         11   -1    0    0    0    0 -0.00000000000E+00 -0.00000000000E+00 -0.45593999997E+02  0.45594000000E+02  0.51100000000E-03 0. -1.
    9900012    2    1    2    0    0 -0.16198006433E+01  0.66063622251E+01  0.42864388644E+02  0.47787267405E+02  0.19999983408E+02 0.  0.
         12    1    1    2    0    0  0.16198006433E+01 -0.66063622251E+01 -0.42864388644E+02  0.43400732595E+02  0.00000000000E+00 0. -1.
         11    1    3    3    0    0  0.15123975153E+01  0.10624897104E+02  0.10992445856E+02  0.15362605602E+02  0.51100000000E-03 0. -1.
        -11    1    3    3    0    0 -0.36077848510E+01 -0.26056757754E+01  0.22661389534E+02  0.23094246766E+02  0.51100000000E-03 0.  1.
         12    1    3    3    0    0  0.47558669246E+00 -0.14128591036E+01  0.92105532535E+01  0.93304150381E+01  0.00000000000E+00 0. -1.
</event>
<event>
 7    1  0.2412036E-009  0.4778727E+02  0.7816164E-02  0.1312668E+00
        -11   -1    0    0    0    0  0.00000000000E+00  0.00000000000E+00  0.45593999997E+02  0.45594000000E+02  0.51100000000E-03 0. -1.
         11   -1    0    0    0    0 -0.00000000000E+00 -0.00000000000E+00 -0.45593999997E+02  0.45594000000E+02  0.51100000000E-03 0.  1.
    9900012    2    1    2    0    0 -0.96949847942E+01 -0.41786612353E+02 -0.65961800833E+01  0.47787270815E+02  0.19999998952E+02 0.  0.
         12    1    1    2    0    0  0.96949847942E+01  0.41786612353E+02  0.65961800833E+01  0.43400729185E+02  0.00000000000E+00 0. -1.
         11    1    3    3    0    0 -0.12435511684E+02 -0.24461838301E+02 -0.55937323812E+01  0.28005594550E+02  0.51100000000E-03 0.  1.
        -11    1    3    3    0    0  0.18070640700E+01 -0.84823014260E+01  0.40316037688E+01  0.95639294876E+01  0.51100000000E-03 0. -1.
        -12    1    3    3    0    0  0.93346281952E+00 -0.88424726263E+01 -0.50340514710E+01  0.10217746777E+02  0.00000000000E+00 0.  1.
</event>
<event>
 7    1  0.2412036E-009  0.4778727E+02  0.7816164E-02  0.1312668E+00
        -11   -1    0    0    0    0  0.00000000000E+00  0.00000000000E+00  0.45593999997E+02  0.45594000000E+02  0.51100000000E-03 0. -1.
         11   -1    0    0    0    0 -0.00000000000E+00 -0.00000000000E+00 -0.45593999997E+02  0.45594000000E+02  0.51100000000E-03 0.  1.
    9900012    2    1    2    0    0  0.12311438237E+02 -0.69818030413E+01 -0.41028118470E+02  0.47787267398E+02  0.19999983376E+02 0.  0.
         12    1    1    2    0    0 -0.12311438237E+02  0.69818030413E+01  0.41028118470E+02  0.43400732602E+02  0.00000000000E+00 0. -1.
         11    1    3    3    0    0 -0.87204323139E+00  0.27947180447E+01 -0.32047534155E+00  0.29450998374E+01  0.51100000000E-03 0. -1.
        -11    1    3    3    0    0  0.44608142449E+01 -0.89664903592E+01 -0.20402968493E+02  0.22728350945E+02  0.51100000000E-03 0.  1.
        -12    1    3    3    0    0  0.87226672236E+01 -0.81003072672E+00 -0.20304674635E+02  0.22113816616E+02  0.00000000000E+00 0.  1.
</event>
<event>
 7    1  0.2412036E-009  0.4778727E+02  0.7816164E-02  0.1312668E+00
        -11   -1    0    0    0    0  0.00000000000E+00  0.00000000000E+00  0.45593999997E+02  0.45594000000E+02  0.51100000000E-03 0.  1.
         11   -1    0    0    0    0 -0.00000000000E+00 -0.00000000000E+00 -0.45593999997E+02  0.45594000000E+02  0.51100000000E-03 0. -1.
    9900012    2    1    2    0    0  0.33888024254E+02 -0.61515680116E+00  0.27108061649E+02  0.47787267148E+02  0.19999982232E+02 0.  0.
         12    1    1    2    0    0 -0.33888024254E+02  0.61515680116E+00 -0.27108061649E+02  0.43400732852E+02  0.00000000000E+00 0. -1.
         11    1    3    3    0    0  0.18541394395E+01 -0.48465000945E+01  0.75817398076E+00  0.52441609695E+01  0.51100000000E-03 0. -1.
        -11    1    3    3    0    0  0.20561832881E+02  0.42982956760E+01  0.21588933595E+02  0.30122190677E+02  0.51100000000E-03 0.  1.
        -12    1    3    3    0    0  0.11472051934E+02 -0.66952382642E-01  0.47609540730E+01  0.12420915501E+02  0.00000000000E+00 0.  1.
</event>
<event>
 7    1  0.2412036E-009  0.4778727E+02  0.7816164E-02  0.1312668E+00
        -11   -1    0    0    0    0  0.00000000000E+00  0.00000000000E+00  0.45593999997E+02  0.45594000000E+02  0.51100000000E-03 0.  1.
         11   -1    0    0    0    0 -0.00000000000E+00 -0.00000000000E+00 -0.45593999997E+02  0.45594000000E+02  0.51100000000E-03 0. -1.
    9900012    2    1    2    0    0 -0.11647060111E+02  0.43514817854E+01  0.41581652265E+02  0.47787271803E+02  0.20000003460E+02 0.  0.
         12    1    1    2    0    0  0.11647060111E+02 -0.43514817854E+01 -0.41581652265E+02  0.43400728197E+02  0.00000000000E+00 0. -1.
         11    1    3    3    0    0 -0.11187378301E+02  0.17661385916E+00  0.36036530798E+02  0.37733541815E+02  0.51100000000E-03 0. -1.
        -11    1    3    3    0    0 -0.20050250412E+01  0.34538643598E+01  0.68345587459E+01  0.79158384233E+01  0.51100000000E-03 0.  1.
         12    1    3    3    0    0  0.15453432320E+01  0.72100356642E+00 -0.12894372788E+01  0.21378915649E+01  0.00000000000E+00 0. -1.
</event>
<event>
 7    1  0.2412036E-009  0.4778727E+02  0.7816164E-02  0.1312668E+00
        -11   -1    0    0    0    0  0.00000000000E+00  0.00000000000E+00  0.45593999997E+02  0.45594000000E+02  0.51100000000E-03 0. -1.
         11   -1    0    0    0    0 -0.00000000000E+00 -0.00000000000E+00 -0.45593999997E+02  0.45594000000E+02  0.51100000000E-03 0.  1.
    9900012    2    1    2    0    0  0.14250623536E+02  0.39048998640E+02 -0.12478738022E+02  0.47787268801E+02  0.19999989772E+02 0.  0.
         12    1    1    2    0    0 -0.14250623536E+02 -0.39048998640E+02  0.12478738022E+02  0.43400731199E+02  0.00000000000E+00 0. -1.
         11    1    3    3    0    0  0.10997429102E+02  0.13082333544E+02 -0.72069530397E+00  0.17105855717E+02  0.51100000000E-03 0. -1.
        -11    1    3    3    0    0 -0.33159485589E+01  0.68830184363E+01 -0.59381088882E+01  0.96763937017E+01  0.51100000000E-03 0.  1.
         12    1    3    3    0    0  0.65691429930E+01  0.19083646660E+02 -0.58199338303E+01  0.21005019383E+02  0.00000000000E+00 0. -1.
</event>
<event>
 7    1  0.2412036E-009  0.4778726E+02  0.7816164E-02  0.1312668E+00
        -11   -1    0    0    0    0  0.00000000000E+00  0.00000000000E+00  0.45593999997E+02  0.45594000000E+02  0.51100000000E-03 0.  1.
         11   -1    0    0    0    0 -0.00000000000E+00 -0.00000000000E+00 -0.45593999997E+02  0.45594000000E+02  0.51100000000E-03 0. -1.
    9900012    2    1    2    0    0 -0.34938891853E+02  0.16650492155E+02  0.19638197500E+02  0.47787264362E+02  0.19999969531E+02 0.  0.
         12    1    1    2    0    0  0.34938891853E+02 -0.16650492155E+02 -0.19638197500E+02  0.43400735638E+02  0.00000000000E+00 0. -1.
         11    1    3    3    0    0 -0.64338234662E+01  0.59056966650E+01  0.10010386439E+02  0.13284546451E+02  0.51100000000E-03 0. -1.
        -11    1    3    3    0    0 -0.28580086876E+02  0.12535750766E+02  0.83650493734E+01  0.32310067539E+02  0.51100000000E-03 0.  1.
         12    1    3    3    0    0  0.75018488939E-01 -0.17909552761E+01  0.12627616877E+01  0.21926503722E+01  0.00000000000E+00 0. -1.
</event>
<event>
 7    1  0.2412036E-009  0.4778728E+02  0.7816164E-02  0.1312668E+00
        -11   -1    0    0    0    0  0.00000000000E+00  0.00000000000E+00  0.45593999997E+02  0.45594000000E+02  0.51100000000E-03 0.  1.
         11   -1    0    0    0    0 -0.00000000000E+00 -0.00000000000E+00 -0.45593999997E+02  0.45594000000E+02  0.51100000000E-03 0. -1.
    9900012    2    1    2    0    0 -0.99510284079E+01 -0.14747754160E+02  0.39586654298E+02  0.47787280909E+02  0.20000044975E+02 0.  0.
         12    1    1    2    0    0  0.99510284079E+01  0.14747754160E+02 -0.39586654298E+02  0.43400719091E+02  0.00000000000E+00 0. -1.
         11    1    3    3    0    0  0.31436574827E+01  0.10617926766E+00  0.77594606371E+01  0.83727585684E+01  0.51100000000E-03 0. -1.
        -11    1    3    3    0    0 -0.13600912263E+02 -0.12505797706E+02  0.19530135727E+02  0.26885051468E+02  0.51100000000E-03 0.  1.
        -12    1    3    3    0    0  0.50622637276E+00 -0.23481357213E+01  0.12297057934E+02  0.12529470872E+02  0.00000000000E+00 0.  1.
</event>
<event>
 7    1  0.2412036E-009  0.4778728E+02  0.7816164E-02  0.1312668E+00
        -11   -1    0    0    0    0  0.00000000000E+00  0.00000000000E+00  0.45593999997E+02  0.45594000000E+02  0.51100000000E-03 0.  1.
         11   -1    0    0    0    0 -0.00000000000E+00 -0.00000000000E+00 -0.45593999997E+02  0.45594000000E+02  0.51100000000E-03 0. -1.
    9900012    2    1    2    0    0 -0.35158988085E+02 -0.81653256676E+01  0.24099690787E+02  0.47787284770E+02  0.20000062579E+02 0.  0.
         12    1    1    2    0    0  0.35158988085E+02  0.81653256676E+01 -0.24099690787E+02  0.43400715230E+02  0.00000000000E+00 0. -1.
         11    1    3    3    0    0 -0.30243648850E+02 -0.84545217844E+01  0.19222108872E+02  0.36819107867E+02  0.51100000000E-03 0. -1.
        -11    1    3    3    0    0  0.18754183561E+01  0.23641002937E+00  0.35885527252E+01  0.40559579183E+01  0.51100000000E-03 0.  1.
         12    1    3    3    0    0 -0.67907575912E+01  0.52786087404E-01  0.12890291905E+01  0.69122189844E+01  0.00000000000E+00 0. -1.
</event>
<event>
 7    1  0.2412036E-009  0.4778727E+02  0.7816164E-02  0.1312668E+00
        -11   -1    0    0    0    0  0.00000000000E+00  0.00000000000E+00  0.45593999997E+02  0.45594000000E+02  0.51100000000E-03 0.  1.
         11   -1    0    0    0    0 -0.00000000000E+00 -0.00000000000E+00 -0.45593999997E+02  0.45594000000E+02  0.51100000000E-03 0. -1.
    9900012    2    1    2    0    0 -0.81036270375E+01  0.40691533803E+02  0.12733958301E+02  0.47787269724E+02  0.19999993982E+02 0.  0.
         12    1    1    2    0    0  0.81036270375E+01 -0.40691533803E+02 -0.12733958301E+02  0.43400730276E+02  0.00000000000E+00 0. -1.
         11    1    3    3    0    0  0.12292629243E+01  0.72434307880E+01  0.98377102955E+00  0.74125692319E+01  0.51100000000E-03 0. -1.
        -11    1    3    3    0    0  0.30410109055E+01  0.88737907132E+01  0.85196524663E+01  0.12671873869E+02  0.51100000000E-03 0.  1.
        -12    1    3    3    0    0 -0.12373900867E+02  0.24574312302E+02  0.32305348050E+01  0.27702826623E+02  0.00000000000E+00 0.  1.
</event>
<event>
 7    1  0.2412036E-009  0.4778727E+02  0.7816164E-02  0.1312668E+00
        -11   -1    0    0    0    0  0.00000000000E+00  0.00000000000E+00  0.45593999997E+02  0.45594000000E+02  0.51100000000E-03 0.  1.
         11   -1    0    0    0    0 -0.00000000000E+00 -0.00000000000E+00 -0.45593999997E+02  0.45594000000E+02  0.51100000000E-03 0. -1.
    9900012    2    1    2    0    0 -0.18526935958E+02 -0.37407548509E+02 -0.11876499617E+02  0.47787270921E+02  0.19999999437E+02 0.  0.
         12    1    1    2    0    0  0.18526935958E+02  0.37407548509E+02  0.11876499617E+02  0.43400729079E+02  0.00000000000E+00 0. -1.
         11    1    3    3    0    0 -0.21062826134E+01 -0.16089886683E+01 -0.74343584252E+00  0.27528109444E+01  0.51100000000E-03 0. -1.
        -11    1    3    3    0    0 -0.29851882816E+01 -0.25464992465E+02 -0.18424788844E+01  0.25705484221E+02  0.51100000000E-03 0.  1.
        -12    1    3    3    0    0 -0.13435465063E+02 -0.10333567376E+02 -0.92905848904E+01  0.19328975756E+02  0.00000000000E+00 0.  1.
</event>
<event>
 7    1  0.2412036E-009  0.4778727E+02  0.7816164E-02  0.1312668E+00
        -11   -1    0    0    0    0  0.00000000000E+00  0.00000000000E+00  0.45593999997E+02  0.45594000000E+02  0.51100000000E-03 0.  1.
         11   -1    0    0    0    0 -0.00000000000E+00 -0.00000000000E+00 -0.45593999997E+02  0.45594000000E+02  0.51100000000E-03 0. -1.
    9900012    2    1    2    0    0 -0.10300329816E+02  0.10254227445E+02  0.40894710869E+02  0.47787270145E+02  0.19999995901E+02 0.  0.
         12    1    1    2    0    0  0.10300329816E+02 -0.10254227445E+02 -0.40894710869E+02  0.43400729855E+02  0.00000000000E+00 0. -1.
         11    1    3    3    0    0 -0.10614301620E+02  0.42559781326E+01  0.20041601228E+02  0.23074716223E+02  0.51100000000E-03 0. -1.
        -11    1    3    3    0    0  0.11582135387E+01  0.91837431025E+01  0.11301566012E+02  0.14608490359E+02  0.51100000000E-03 0.  1.
        -12    1    3    3    0    0 -0.84424173484E+00 -0.31854937897E+01  0.95515436294E+01  0.10104063564E+02  0.00000000000E+00 0.  1.
</event>
<event>
 7    1  0.2412036E-009  0.4778727E+02  0.7816164E-02  0.1312668E+00
        -11   -1    0    0    0    0  0.00000000000E+00  0.00000000000E+00  0.45593999997E+02  0.45594000000E+02  0.51100000000E-03 0.  1.
         11   -1    0    0    0    0 -0.00000000000E+00 -0.00000000000E+00 -0.45593999997E+02  0.45594000000E+02  0.51100000000E-03 0. -1.
    9900012    2    1    2    0    0 -0.29099339430E+02 -0.18141705473E+02  0.26603196709E+02  0.47787272957E+02  0.20000008718E+02 0.  0.
         12    1    1    2    0    0  0.29099339430E+02  0.18141705473E+02 -0.26603196709E+02  0.43400727043E+02  0.00000000000E+00 0. -1.
         11    1    3    3    0    0 -0.25719257054E+01  0.13869437135E+01  0.43776395602E+01  0.52632825384E+01  0.51100000000E-03 0. -1.
        -11    1    3    3    0    0 -0.19331481148E+02 -0.50867863528E+01  0.14069219675E+02  0.24444314294E+02  0.51100000000E-03 0.  1.
        -12    1    3    3    0    0 -0.71959325767E+01 -0.14441862834E+02  0.81563374734E+01  0.18079676124E+02  0.00000000000E+00 0.  1.
</event>
<event>
 7    1  0.2412036E-009  0.4778727E+02  0.7816164E-02  0.1312668E+00
        -11   -1    0    0    0    0  0.00000000000E+00  0.00000000000E+00  0.45593999997E+02  0.45594000000E+02  0.51100000000E-03 0. -1.
         11   -1    0    0    0    0 -0.00000000000E+00 -0.00000000000E+00 -0.45593999997E+02  0.45594000000E+02  0.51100000000E-03 0.  1.
    9900012    2    1    2    0    0  0.78032384763E+01  0.17603647927E+02 -0.38895297819E+02  0.47787272546E+02  0.20000006848E+02 0.  0.
         12    1    1    2    0    0 -0.78032384763E+01 -0.17603647927E+02  0.38895297819E+02  0.43400727454E+02  0.00000000000E+00 0. -1.
         11    1    3    3    0    0  0.12167233546E+02  0.12101497222E+02 -0.18791041400E+02  0.25447810207E+02  0.51100000000E-03 0. -1.
        -11    1    3    3    0    0 -0.45048607029E+01  0.68312994794E+01 -0.15276328486E+02  0.17329934645E+02  0.51100000000E-03 0.  1.
         12    1    3    3    0    0  0.14086563365E+00 -0.13291487746E+01 -0.48279279329E+01  0.50095276940E+01  0.00000000000E+00 0. -1.
</event>
<event>
 7    1  0.2412036E-009  0.4778727E+02  0.7816164E-02  0.1312668E+00
        -11   -1    0    0    0    0  0.00000000000E+00  0.00000000000E+00  0.45593999997E+02  0.45594000000E+02  0.51100000000E-03 0.  1.
         11   -1    0    0    0    0 -0.00000000000E+00 -0.00000000000E+00 -0.45593999997E+02  0.45594000000E+02  0.51100000000E-03 0. -1.
    9900012    2    1    2    0    0 -0.79575257105E+01 -0.42046251703E+02  0.72397325874E+01  0.47787271600E+02  0.20000002534E+02 0.  0.
         12    1    1    2    0    0  0.79575257105E+01  0.42046251703E+02 -0.72397325874E+01  0.43400728400E+02  0.00000000000E+00 0. -1.
         11    1    3    3    0    0 -0.92792622990E+00 -0.51849713356E+01 -0.55460823617E+01  0.76487910589E+01  0.51100000000E-03 0. -1.
        -11    1    3    3    0    0 -0.60794834882E+00 -0.10366749551E+02  0.61928737222E+01  0.12090938038E+02  0.51100000000E-03 0.  1.
         12    1    3    3    0    0 -0.64216511318E+01 -0.26494530817E+02  0.65929412269E+01  0.28047542503E+02  0.00000000000E+00 0. -1.
</event>
<event>
 7    1  0.2412036E-009  0.4778727E+02  0.7816164E-02  0.1312668E+00
        -11   -1    0    0    0    0  0.00000000000E+00  0.00000000000E+00  0.45593999997E+02  0.45594000000E+02  0.51100000000E-03 0.  1.
         11   -1    0    0    0    0 -0.00000000000E+00 -0.00000000000E+00 -0.45593999997E+02  0.45594000000E+02  0.51100000000E-03 0. -1.
    9900012    2    1    2    0    0 -0.19097772601E+02 -0.38802071719E+02 -0.36465769511E+01  0.47787271763E+02  0.20000003278E+02 0.  0.
         12    1    1    2    0    0  0.19097772601E+02  0.38802071719E+02  0.36465769511E+01  0.43400728237E+02  0.00000000000E+00 0. -1.
         11    1    3    3    0    0 -0.14857681285E+02 -0.35095773731E+02 -0.33541174249E+01  0.38258517103E+02  0.51100000000E-03 0. -1.
        -11    1    3    3    0    0 -0.26708237206E+01 -0.21101081149E+01  0.36527109267E+01  0.49928101284E+01  0.51100000000E-03 0.  1.
         12    1    3    3    0    0 -0.15692675948E+01 -0.15961898733E+01 -0.39451704529E+01  0.45359445321E+01  0.00000000000E+00 0. -1.
</event>
<event>
 7    1  0.2412036E-009  0.4778727E+02  0.7816164E-02  0.1312668E+00
        -11   -1    0    0    0    0  0.00000000000E+00  0.00000000000E+00  0.45593999997E+02  0.45594000000E+02  0.51100000000E-03 0.  1.
         11   -1    0    0    0    0 -0.00000000000E+00 -0.00000000000E+00 -0.45593999997E+02  0.45594000000E+02  0.51100000000E-03 0. -1.
    9900012    2    1    2    0    0 -0.29658457140E+02 -0.21776650363E+01  0.31611026065E+02  0.47787271045E+02  0.20000000003E+02 0.  0.
         12    1    1    2    0    0  0.29658457140E+02  0.21776650363E+01 -0.31611026065E+02  0.43400728955E+02  0.00000000000E+00 0. -1.
         11    1    3    3    0    0 -0.23325454745E+02 -0.99870620079E+00  0.17787846033E+02  0.29351008839E+02  0.51100000000E-03 0. -1.
        -11    1    3    3    0    0 -0.86407705752E+01  0.94478432633E+00  0.79567643056E+01  0.11784126274E+02  0.51100000000E-03 0.  1.
         12    1    3    3    0    0  0.23077681798E+01 -0.21237431618E+01  0.58664157264E+01  0.66521359325E+01  0.00000000000E+00 0. -1.
</event>
<event>
 7    1  0.2412036E-009  0.4778727E+02  0.7816164E-02  0.1312668E+00
        -11   -1    0    0    0    0  0.00000000000E+00  0.00000000000E+00  0.45593999997E+02  0.45594000000E+02  0.51100000000E-03 0. -1.
         11   -1    0    0    0    0 -0.00000000000E+00 -0.00000000000E+00 -0.45593999997E+02  0.45594000000E+02  0.51100000000E-03 0.  1.
    9900012    2    1    2    0    0  0.42022939967E+02 -0.14895531621E+01 -0.10746029458E+02  0.47787269578E+02  0.19999993312E+02 0.  0.
         12    1    1    2    0    0 -0.42022939967E+02  0.14895531621E+01  0.10746029458E+02  0.43400730422E+02  0.00000000000E+00 0. -1.
         11    1    3    3    0    0  0.58544762691E+01  0.30472893876E+01  0.32879526097E+01  0.73737031146E+01  0.51100000000E-03 0. -1.
        -11    1    3    3    0    0  0.23112930932E+02 -0.61053601965E+01 -0.13029290724E+02  0.27225822604E+02  0.51100000000E-03 0.  1.
        -12    1    3    3    0    0  0.13055532766E+02  0.15685176468E+01 -0.10046913430E+01  0.13187743859E+02  0.00000000000E+00 0.  1.
</event>
<event>
 7    1  0.2412036E-009  0.4778727E+02  0.7816164E-02  0.1312668E+00
        -11   -1    0    0    0    0  0.00000000000E+00  0.00000000000E+00  0.45593999997E+02  0.45594000000E+02  0.51100000000E-03 0.  1.
         11   -1    0    0    0    0 -0.00000000000E+00 -0.00000000000E+00 -0.45593999997E+02  0.45594000000E+02  0.51100000000E-03 0. -1.
    9900012    2    1    2    0    0  0.20817766601E+02  0.30467902095E+02  0.22846246209E+02  0.47787269244E+02  0.19999991790E+02 0.  0.
         12    1    1    2    0    0 -0.20817766601E+02 -0.30467902095E+02 -0.22846246209E+02  0.43400730756E+02  0.00000000000E+00 0. -1.
         11    1    3    3    0    0  0.61907205353E+01  0.23695947507E+01  0.53081139332E+01  0.84921183351E+01  0.51100000000E-03 0. -1.
        -11    1    3    3    0    0  0.84394608648E+01  0.13733370083E+02  0.44423006400E+00  0.16125361830E+02  0.51100000000E-03 0.  1.
        -12    1    3    3    0    0  0.61875852010E+01  0.14364937261E+02  0.17093902211E+02  0.23169789079E+02  0.00000000000E+00 0.  1.
</event>
<event>
 7    1  0.2412036E-009  0.4778727E+02  0.7816164E-02  0.1312668E+00
        -11   -1    0    0    0    0  0.00000000000E+00  0.00000000000E+00  0.45593999997E+02  0.45594000000E+02  0.51100000000E-03 0.  1.
         11   -1    0    0    0    0 -0.00000000000E+00 -0.00000000000E+00 -0.45593999997E+02  0.45594000000E+02  0.51100000000E-03 0. -1.
    9900012    2    1    2    0    0 -0.21621191572E+02  0.24355193120E+02  0.28687485490E+02  0.47787272119E+02  0.20000004898E+02 0.  0.
         12    1    1    2    0    0  0.21621191572E+02 -0.24355193120E+02 -0.28687485490E+02  0.43400727881E+02  0.00000000000E+00 0. -1.
         11    1    3    3    0    0  0.50360480201E+00 -0.20215857888E+01  0.35323623523E+01  0.41009768284E+01  0.51100000000E-03 0. -1.
        -11    1    3    3    0    0 -0.14147088696E+02  0.22441016111E+02  0.21165085122E+02  0.33936708018E+02  0.51100000000E-03 0.  1.
        -12    1    3    3    0    0 -0.79777076787E+01  0.39357627974E+01  0.39900380156E+01  0.97495872718E+01  0.00000000000E+00 0.  1.
</event>
<event>
 7    1  0.2412036E-009  0.4778728E+02  0.7816164E-02  0.1312668E+00
        -11   -1    0    0    0    0  0.00000000000E+00  0.00000000000E+00  0.45593999997E+02  0.45594000000E+02  0.51100000000E-03 0. -1.
         11   -1    0    0    0    0 -0.00000000000E+00 -0.00000000000E+00 -0.45593999997E+02  0.45594000000E+02  0.51100000000E-03 0.  1.
    9900012    2    1    2    0    0  0.11718123125E+02 -0.12036566895E+01 -0.41771517696E+02  0.47787275471E+02  0.20000020183E+02 0.  0.
         12    1    1    2    0    0 -0.11718123125E+02  0.12036566895E+01  0.41771517696E+02  0.43400724529E+02  0.00000000000E+00 0. -1.
         11    1    3    3    0    0  0.57605106520E+01  0.58976101684E+01 -0.14946217279E+02  0.17069115381E+02  0.51100000000E-03 0. -1.
        -11    1    3    3    0    0 -0.16629734323E+01  0.17491036399E+01 -0.96564338770E+01  0.99534697298E+01  0.51100000000E-03 0.  1.
         12    1    3    3    0    0  0.76205859056E+01 -0.88503704978E+01 -0.17168866540E+02  0.20764690360E+02  0.00000000000E+00 0. -1.
</event>
<event>
 7    1  0.2412036E-009  0.4778728E+02  0.7816164E-02  0.1312668E+00
        -11   -1    0    0    0    0  0.00000000000E+00  0.00000000000E+00  0.45593999997E+02  0.45594000000E+02  0.51100000000E-03 0. -1.
         11   -1    0    0    0    0 -0.00000000000E+00 -0.00000000000E+00 -0.45593999997E+02  0.45594000000E+02  0.51100000000E-03 0.  1.
    9900012    2    1    2    0    0  0.23349699664E+02 -0.28449838881E+02 -0.23000450971E+02  0.47787279365E+02  0.20000037938E+02 0.  0.
         12    1    1    2    0    0 -0.23349699664E+02  0.28449838881E+02  0.23000450971E+02  0.43400720635E+02  0.00000000000E+00 0. -1.
         11    1    3    3    0    0  0.23112622278E+02 -0.19088883655E+02 -0.22795906064E+02  0.37659422743E+02  0.51100000000E-03 0.  1.
        -11    1    3    3    0    0  0.12140452335E+01 -0.57168860413E+01  0.14291461593E+01  0.60165730149E+01  0.51100000000E-03 0. -1.
         12    1    3    3    0    0 -0.97696784816E+00 -0.36440691852E+01 -0.16336910664E+01  0.41112836078E+01  0.00000000000E+00 0. -1.
</event>
<event>
 7    1  0.2493973E-009  0.4778727E+02  0.7816164E-02  0.1312668E+00
        -11   -1    0    0    0    0  0.00000000000E+00  0.00000000000E+00  0.45593999997E+02  0.45594000000E+02  0.51100000000E-03 0. -1.
         11   -1    0    0    0    0 -0.00000000000E+00 -0.00000000000E+00 -0.45593999997E+02  0.45594000000E+02  0.51100000000E-03 0.  1.
    9900012    2    1    2    0    0  0.27883567925E+02  0.31704598004E+02 -0.10047303829E+02  0.47787271791E+02  0.20000003405E+02 0.  0.
         12    1    1    2    0    0 -0.27883567925E+02 -0.31704598004E+02  0.10047303829E+02  0.43400728209E+02  0.00000000000E+00 0. -1.
         11    1    3    3    0    0 -0.23301177620E+01  0.22180737505E+01  0.11896140812E+01  0.34299390476E+01  0.51100000000E-03 0. -1.
        -11    1    3    3    0    0  0.18171807654E+02  0.13228793476E+02 -0.80562795967E+01  0.23877169251E+02  0.51100000000E-03 0.  1.
        -12    1    3    3    0    0  0.12041878034E+02  0.16257730777E+02 -0.31806383135E+01  0.20480163493E+02  0.00000000000E+00 0.  1.
</event>
<event>
 7    1  0.2412036E-009  0.4778727E+02  0.7816164E-02  0.1312668E+00
        -11   -1    0    0    0    0  0.00000000000E+00  0.00000000000E+00  0.45593999997E+02  0.45594000000E+02  0.51100000000E-03 0.  1.
         11   -1    0    0    0    0 -0.00000000000E+00 -0.00000000000E+00 -0.45593999997E+02  0.45594000000E+02  0.51100000000E-03 0. -1.
    9900012    2    1    2    0    0  0.37698426253E+02 -0.18581925306E+02  0.10824224078E+02  0.47787272852E+02  0.20000008243E+02 0.  0.
         12    1    1    2    0    0 -0.37698426253E+02  0.18581925306E+02 -0.10824224078E+02  0.43400727148E+02  0.00000000000E+00 0. -1.
         11    1    3    3    0    0  0.11187197985E+01  0.59256333228E+00  0.26657052343E+01  0.29510421799E+01  0.51100000000E-03 0. -1.
        -11    1    3    3    0    0  0.30929673610E+02 -0.21784939844E+02  0.64044419140E+01  0.38369847408E+02  0.51100000000E-03 0.  1.
        -12    1    3    3    0    0  0.56500328445E+01  0.26104512060E+01  0.17540769298E+01  0.64663832642E+01  0.00000000000E+00 0.  1.
</event>
<event>
 7    1  0.2412036E-009  0.4778727E+02  0.7816164E-02  0.1312668E+00
        -11   -1    0    0    0    0  0.00000000000E+00  0.00000000000E+00  0.45593999997E+02  0.45594000000E+02  0.51100000000E-03 0. -1.
         11   -1    0    0    0    0 -0.00000000000E+00 -0.00000000000E+00 -0.45593999997E+02  0.45594000000E+02  0.51100000000E-03 0.  1.
    9900012    2    1    2    0    0  0.34094255243E+02  0.11150723966E+02 -0.24430848253E+02  0.47787271528E+02  0.20000002204E+02 0.  0.
         12    1    1    2    0    0 -0.34094255243E+02 -0.11150723966E+02  0.24430848253E+02  0.43400728472E+02  0.00000000000E+00 0. -1.
         11    1    3    3    0    0  0.63334269041E+01  0.63401869333E+01 -0.11355444011E+02  0.14465696514E+02  0.51100000000E-03 0. -1.
        -11    1    3    3    0    0  0.74417438089E+01  0.69839393085E+01 -0.47234005360E+01  0.11245686821E+02  0.51100000000E-03 0.  1.
         12    1    3    3    0    0  0.20319084530E+02 -0.21734022756E+01 -0.83520037060E+01  0.22075888193E+02  0.00000000000E+00 0. -1.
</event>
<event>
 7    1  0.2412036E-009  0.4778726E+02  0.7816164E-02  0.1312668E+00
        -11   -1    0    0    0    0  0.00000000000E+00  0.00000000000E+00  0.45593999997E+02  0.45594000000E+02  0.51100000000E-03 0. -1.
         11   -1    0    0    0    0 -0.00000000000E+00 -0.00000000000E+00 -0.45593999997E+02  0.45594000000E+02  0.51100000000E-03 0.  1.
    9900012    2    1    2    0    0 -0.42770221067E+02 -0.32124900649E+01  0.66341464296E+01  0.47787264967E+02  0.19999972290E+02 0.  0.
         12    1    1    2    0    0  0.42770221067E+02  0.32124900649E+01 -0.66341464296E+01  0.43400735033E+02  0.00000000000E+00 0. -1.
         11    1    3    3    0    0 -0.35315123602E+02  0.12873384006E+01  0.11930333617E+02  0.37298097212E+02  0.51100000000E-03 0. -1.
        -11    1    3    3    0    0 -0.47924448241E+01 -0.16749424699E+01 -0.37458392059E+01  0.63090626314E+01  0.51100000000E-03 0.  1.
         12    1    3    3    0    0 -0.26626526416E+01 -0.28248859956E+01 -0.15503479817E+01  0.41801051233E+01  0.00000000000E+00 0. -1.
</event>
<event>
 7    1  0.2412036E-009  0.4778727E+02  0.7816164E-02  0.1312668E+00
        -11   -1    0    0    0    0  0.00000000000E+00  0.00000000000E+00  0.45593999997E+02  0.45594000000E+02  0.51100000000E-03 0.  1.
         11   -1    0    0    0    0 -0.00000000000E+00 -0.00000000000E+00 -0.45593999997E+02  0.45594000000E+02  0.51100000000E-03 0. -1.
    9900012    2    1    2    0    0  0.20124290224E+02  0.27166356288E+01  0.38356955614E+02  0.47787271779E+02  0.20000003348E+02 0.  0.
         12    1    1    2    0    0 -0.20124290224E+02 -0.27166356288E+01 -0.38356955614E+02  0.43400728221E+02  0.00000000000E+00 0. -1.
         11    1    3    3    0    0 -0.63195296281E+00 -0.10534391539E+01 -0.12882996950E+01  0.17801165590E+01  0.51100000000E-03 0. -1.
        -11    1    3    3    0    0 -0.98509632952E+00 -0.10320899178E+00  0.62516408695E+00  0.11712801847E+01  0.51100000000E-03 0.  1.
         12    1    3    3    0    0  0.21741339517E+02  0.38732837745E+01  0.39020091222E+02  0.44835875035E+02  0.00000000000E+00 0. -1.
</event>
<event>
 7    1  0.2412036E-009  0.4778727E+02  0.7816164E-02  0.1312668E+00
        -11   -1    0    0    0    0  0.00000000000E+00  0.00000000000E+00  0.45593999997E+02  0.45594000000E+02  0.51100000000E-03 0.  1.
         11   -1    0    0    0    0 -0.00000000000E+00 -0.00000000000E+00 -0.45593999997E+02  0.45594000000E+02  0.51100000000E-03 0. -1.
    9900012    2    1    2    0    0 -0.51811560358E+01  0.12096765847E+02  0.41357553817E+02  0.47787269827E+02  0.19999994448E+02 0.  0.
         12    1    1    2    0    0  0.51811560358E+01 -0.12096765847E+02 -0.41357553817E+02  0.43400730173E+02  0.00000000000E+00 0. -1.
         11    1    3    3    0    0  0.24389209926E+01 -0.16105725659E-01  0.20019645186E+01  0.31553854277E+01  0.51100000000E-03 0. -1.
        -11    1    3    3    0    0 -0.74766492551E+01  0.48316613217E+00  0.70157710670E+01  0.10264247538E+02  0.51100000000E-03 0.  1.
        -12    1    3    3    0    0 -0.14342777325E+00  0.11629705441E+02  0.32339818232E+02  0.34367636861E+02  0.00000000000E+00 0.  1.
</event>
<event>
 7    1  0.2412036E-009  0.4778726E+02  0.7816164E-02  0.1312668E+00
        -11   -1    0    0    0    0  0.00000000000E+00  0.00000000000E+00  0.45593999997E+02  0.45594000000E+02  0.51100000000E-03 0.  1.
         11   -1    0    0    0    0 -0.00000000000E+00 -0.00000000000E+00 -0.45593999997E+02  0.45594000000E+02  0.51100000000E-03 0. -1.
    9900012    2    1    2    0    0 -0.40658695193E+02  0.32159309481E+01  0.14837534777E+02  0.47787261010E+02  0.19999954248E+02 0.  0.
         12    1    1    2    0    0  0.40658695193E+02 -0.32159309481E+01 -0.14837534777E+02  0.43400738990E+02  0.00000000000E+00 0. -1.
         11    1    3    3    0    0 -0.48200850416E+01 -0.35502417189E+01 -0.26129920884E+01  0.65318576214E+01  0.51100000000E-03 0. -1.
        -11    1    3    3    0    0 -0.28957068817E+02  0.79752222114E+01  0.11801957858E+02  0.32270764065E+02  0.51100000000E-03 0.  1.
         12    1    3    3    0    0 -0.68815413341E+01 -0.12090495444E+01  0.56485690083E+01  0.89846393235E+01  0.00000000000E+00 0. -1.
</event>
<event>
 7    1  0.2412036E-009  0.4778729E+02  0.7816164E-02  0.1312668E+00
        -11   -1    0    0    0    0  0.00000000000E+00  0.00000000000E+00  0.45593999997E+02  0.45594000000E+02  0.51100000000E-03 0. -1.
         11   -1    0    0    0    0 -0.00000000000E+00 -0.00000000000E+00 -0.45593999997E+02  0.45594000000E+02  0.51100000000E-03 0.  1.
    9900012    2    1    2    0    0  0.30797795474E+02  0.13779612314E+02 -0.27299086020E+02  0.47787285499E+02  0.20000065906E+02 0.  0.
         12    1    1    2    0    0 -0.30797795474E+02 -0.13779612314E+02  0.27299086020E+02  0.43400714501E+02  0.00000000000E+00 0. -1.
         11    1    3    3    0    0  0.10903207242E+02  0.65466182038E+00 -0.11090758751E+01  0.10979005411E+02  0.51100000000E-03 0. -1.
        -11    1    3    3    0    0  0.65993150870E+01  0.17754541896E+01 -0.13744715836E+02  0.15349931950E+02  0.51100000000E-03 0.  1.
         12    1    3    3    0    0  0.13295273145E+02  0.11349496304E+02 -0.12445294309E+02  0.21458348138E+02  0.00000000000E+00 0. -1.
</event>
<event>
 7    1  0.2412036E-009  0.4778727E+02  0.7816164E-02  0.1312668E+00
        -11   -1    0    0    0    0  0.00000000000E+00  0.00000000000E+00  0.45593999997E+02  0.45594000000E+02  0.51100000000E-03 0.  1.
         11   -1    0    0    0    0 -0.00000000000E+00 -0.00000000000E+00 -0.45593999997E+02  0.45594000000E+02  0.51100000000E-03 0. -1.
    9900012    2    1    2    0    0  0.30628937050E+02  0.23980674948E+02  0.19246260297E+02  0.47787273149E+02  0.20000009595E+02 0.  0.
         12    1    1    2    0    0 -0.30628937050E+02 -0.23980674948E+02 -0.19246260297E+02  0.43400726851E+02  0.00000000000E+00 0. -1.
         11    1    3    3    0    0  0.53213488479E+01  0.41240704163E+01  0.51842965350E+01  0.84971548876E+01  0.51100000000E-03 0. -1.
        -11    1    3    3    0    0  0.17642425996E+02  0.19679884627E+02  0.16603515436E+02  0.31212654149E+02  0.51100000000E-03 0.  1.
         12    1    3    3    0    0  0.76651622059E+01  0.17671990513E+00 -0.25415516740E+01  0.80774641119E+01  0.00000000000E+00 0. -1.
</event>
<event>
 7    1  0.2412036E-009  0.4778727E+02  0.7816164E-02  0.1312668E+00
        -11   -1    0    0    0    0  0.00000000000E+00  0.00000000000E+00  0.45593999997E+02  0.45594000000E+02  0.51100000000E-03 0.  1.
         11   -1    0    0    0    0 -0.00000000000E+00 -0.00000000000E+00 -0.45593999997E+02  0.45594000000E+02  0.51100000000E-03 0. -1.
    9900012    2    1    2    0    0  0.13992329327E+02  0.31005223979E+02  0.26953924427E+02  0.47787271481E+02  0.20000001991E+02 0.  0.
         12    1    1    2    0    0 -0.13992329327E+02 -0.31005223979E+02 -0.26953924427E+02  0.43400728519E+02  0.00000000000E+00 0. -1.
         11    1    3    3    0    0 -0.48860629672E+00 -0.11300308129E+01 -0.12396806089E+01  0.17471445345E+01  0.51100000000E-03 0. -1.
        -11    1    3    3    0    0  0.40295362999E+01  0.18483308993E+02  0.11875876523E+02  0.22336210904E+02  0.51100000000E-03 0.  1.
         12    1    3    3    0    0  0.10451399323E+02  0.13651945799E+02  0.16317728512E+02  0.23703916042E+02  0.00000000000E+00 0. -1.
</event>
<event>
 7    1  0.2412036E-009  0.4778726E+02  0.7816164E-02  0.1312668E+00
        -11   -1    0    0    0    0  0.00000000000E+00  0.00000000000E+00  0.45593999997E+02  0.45594000000E+02  0.51100000000E-03 0.  1.
         11   -1    0    0    0    0 -0.00000000000E+00 -0.00000000000E+00 -0.45593999997E+02  0.45594000000E+02  0.51100000000E-03 0. -1.
    9900012    2    1    2    0    0  0.33817439597E+02  0.12328724794E+02  0.24248875417E+02  0.47787255364E+02  0.19999928507E+02 0.  0.
         12    1    1    2    0    0 -0.33817439597E+02 -0.12328724794E+02 -0.24248875417E+02  0.43400744636E+02  0.00000000000E+00 0. -1.
         11    1    3    3    0    0  0.11935635008E+02 -0.42223282323E+01  0.10563812201E+02  0.16488831591E+02  0.51100000000E-03 0. -1.
        -11    1    3    3    0    0  0.17477570682E+02  0.12964441082E+02  0.13514287130E+02  0.25615974828E+02  0.51100000000E-03 0.  1.
         12    1    3    3    0    0  0.44042339074E+01  0.35866119433E+01  0.17077608645E+00  0.56824489452E+01  0.00000000000E+00 0. -1.
</event>
<event>
 7    1  0.2412036E-009  0.4778727E+02  0.7816164E-02  0.1312668E+00
        -11   -1    0    0    0    0  0.00000000000E+00  0.00000000000E+00  0.45593999997E+02  0.45594000000E+02  0.51100000000E-03 0. -1.
         11   -1    0    0    0    0 -0.00000000000E+00 -0.00000000000E+00 -0.45593999997E+02  0.45594000000E+02  0.51100000000E-03 0.  1.
    9900012    2    1    2    0    0 -0.40661082441E+02  0.10723707521E+02  0.10737858023E+02  0.47787272780E+02  0.20000007914E+02 0.  0.
         12    1    1    2    0    0  0.40661082441E+02 -0.10723707521E+02 -0.10737858023E+02  0.43400727220E+02  0.00000000000E+00 0. -1.
         11    1    3    3    0    0 -0.14960765952E+02  0.28991086218E+01  0.10478853539E+02  0.18494207753E+02  0.51100000000E-03 0. -1.
        -11    1    3    3    0    0 -0.50967651174E+01 -0.11034643922E+01 -0.38284756595E+01  0.64693024711E+01  0.51100000000E-03 0.  1.
        -12    1    3    3    0    0 -0.20603551372E+02  0.89280632916E+01  0.40874801437E+01  0.22823762555E+02  0.00000000000E+00 0.  1.
</event>
<event>
 7    1  0.2412036E-009  0.4778727E+02  0.7816164E-02  0.1312668E+00
        -11   -1    0    0    0    0  0.00000000000E+00  0.00000000000E+00  0.45593999997E+02  0.45594000000E+02  0.51100000000E-03 0. -1.
         11   -1    0    0    0    0 -0.00000000000E+00 -0.00000000000E+00 -0.45593999997E+02  0.45594000000E+02  0.51100000000E-03 0.  1.
    9900012    2    1    2    0    0  0.37073241309E+02 -0.18825189632E+02 -0.12442296386E+02  0.47787265845E+02  0.19999976292E+02 0.  0.
         12    1    1    2    0    0 -0.37073241309E+02  0.18825189632E+02  0.12442296386E+02  0.43400734155E+02  0.00000000000E+00 0. -1.
         11    1    3    3    0    0 -0.38247650461E+00 -0.96267331187E-01  0.26172227727E-02  0.39441448580E+00  0.51100000000E-03 0. -1.
        -11    1    3    3    0    0  0.34203771120E+02 -0.13248464429E+02 -0.41226333169E+01  0.36910918090E+02  0.51100000000E-03 0.  1.
        -12    1    3    3    0    0  0.32519466939E+01 -0.54804578723E+01 -0.83222802918E+01  0.10481933269E+02  0.00000000000E+00 0.  1.
</event>
<event>
 7    1  0.2412036E-009  0.4778728E+02  0.7816164E-02  0.1312668E+00
        -11   -1    0    0    0    0  0.00000000000E+00  0.00000000000E+00  0.45593999997E+02  0.45594000000E+02  0.51100000000E-03 0.  1.
         11   -1    0    0    0    0 -0.00000000000E+00 -0.00000000000E+00 -0.45593999997E+02  0.45594000000E+02  0.51100000000E-03 0. -1.
    9900012    2    1    2    0    0 -0.10850715789E+02  0.38700260515E+02  0.16376021408E+02  0.47787282561E+02  0.20000052509E+02 0.  0.
         12    1    1    2    0    0  0.10850715789E+02 -0.38700260515E+02 -0.16376021408E+02  0.43400717439E+02  0.00000000000E+00 0. -1.
         11    1    3    3    0    0 -0.61444398997E-01  0.28539312063E+02  0.15554402809E+02  0.32502854574E+02  0.51100000000E-03 0. -1.
        -11    1    3    3    0    0 -0.29018761717E+01  0.79264833817E+00  0.35513990593E+00  0.30290759841E+01  0.51100000000E-03 0.  1.
         12    1    3    3    0    0 -0.78873952185E+01  0.93683001136E+01  0.46647869316E+00  0.12255352003E+02  0.00000000000E+00 0. -1.
</event>
<event>
 7    1  0.2412036E-009  0.4778730E+02  0.7816164E-02  0.1312668E+00
        -11   -1    0    0    0    0  0.00000000000E+00  0.00000000000E+00  0.45593999997E+02  0.45594000000E+02  0.51100000000E-03 0.  1.
         11   -1    0    0    0    0 -0.00000000000E+00 -0.00000000000E+00 -0.45593999997E+02  0.45594000000E+02  0.51100000000E-03 0. -1.
    9900012    2    1    2    0    0 -0.47233806464E+01 -0.19969767220E+00  0.43142440836E+02  0.47787304094E+02  0.20000150684E+02 0.  0.
         12    1    1    2    0    0  0.47233806464E+01  0.19969767220E+00 -0.43142440836E+02  0.43400695906E+02  0.00000000000E+00 0. -1.
         11    1    3    3    0    0  0.14195092065E+01  0.12506652258E+01  0.34871450413E+01  0.39672850534E+01  0.51100000000E-03 0. -1.
        -11    1    3    3    0    0 -0.60953741724E+01 -0.44381198551E+01  0.40096699502E+02  0.40799458396E+02  0.51100000000E-03 0.  1.
        -12    1    3    3    0    0 -0.47515680517E-01  0.29877569571E+01 -0.44140370767E+00  0.30205606446E+01  0.00000000000E+00 0.  1.
</event>
<event>
 7    1  0.2412036E-009  0.4778728E+02  0.7816164E-02  0.1312668E+00
        -11   -1    0    0    0    0  0.00000000000E+00  0.00000000000E+00  0.45593999997E+02  0.45594000000E+02  0.51100000000E-03 0.  1.
         11   -1    0    0    0    0 -0.00000000000E+00 -0.00000000000E+00 -0.45593999997E+02  0.45594000000E+02  0.51100000000E-03 0. -1.
    9900012    2    1    2    0    0 -0.15610867136E+01 -0.45414147411E+01  0.43134223562E+02  0.47787277864E+02  0.20000031094E+02 0.  0.
         12    1    1    2    0    0  0.15610867136E+01  0.45414147411E+01 -0.43134223562E+02  0.43400722136E+02  0.00000000000E+00 0. -1.
         11    1    3    3    0    0  0.20597540632E+01  0.59147103700E+01  0.14005465760E+02  0.15342081246E+02  0.51100000000E-03 0. -1.
        -11    1    3    3    0    0 -0.55233501102E+01 -0.10946245736E+02  0.23942068086E+02  0.26898890621E+02  0.51100000000E-03 0.  1.
        -12    1    3    3    0    0  0.19025093334E+01  0.49012062483E+00  0.51866897166E+01  0.55463059965E+01  0.00000000000E+00 0.  1.
</event>
<event>
 7    1  0.2412036E-009  0.4778727E+02  0.7816164E-02  0.1312668E+00
        -11   -1    0    0    0    0  0.00000000000E+00  0.00000000000E+00  0.45593999997E+02  0.45594000000E+02  0.51100000000E-03 0.  1.
         11   -1    0    0    0    0 -0.00000000000E+00 -0.00000000000E+00 -0.45593999997E+02  0.45594000000E+02  0.51100000000E-03 0. -1.
    9900012    2    1    2    0    0  0.59219464949E+01  0.24259067109E+02  0.35497200953E+02  0.47787273476E+02  0.20000011088E+02 0.  0.
         12    1    1    2    0    0 -0.59219464949E+01 -0.24259067109E+02 -0.35497200953E+02  0.43400726524E+02  0.00000000000E+00 0. -1.
         11    1    3    3    0    0  0.35449359670E+01  0.78912224893E-01  0.46199618315E+01  0.58238171103E+01  0.51100000000E-03 0. -1.
        -11    1    3    3    0    0  0.72082413680E+01  0.15599729009E+02  0.25482543551E+02  0.30735489501E+02  0.51100000000E-03 0.  1.
        -12    1    3    3    0    0 -0.48312308401E+01  0.85804258749E+01  0.53946955706E+01  0.11227966865E+02  0.00000000000E+00 0.  1.
</event>
<event>
 7    1  0.2412036E-009  0.4778727E+02  0.7816164E-02  0.1312668E+00
        -11   -1    0    0    0    0  0.00000000000E+00  0.00000000000E+00  0.45593999997E+02  0.45594000000E+02  0.51100000000E-03 0.  1.
         11   -1    0    0    0    0 -0.00000000000E+00 -0.00000000000E+00 -0.45593999997E+02  0.45594000000E+02  0.51100000000E-03 0. -1.
    9900012    2    1    2    0    0 -0.27521655784E+02  0.26768504608E+02  0.20239295904E+02  0.47787268730E+02  0.19999989447E+02 0.  0.
         12    1    1    2    0    0  0.27521655784E+02 -0.26768504608E+02 -0.20239295904E+02  0.43400731270E+02  0.00000000000E+00 0. -1.
         11    1    3    3    0    0 -0.22855272699E+02  0.14773894161E+02  0.15518451750E+02  0.31328162790E+02  0.51100000000E-03 0. -1.
        -11    1    3    3    0    0 -0.30590856230E+01  0.43030439646E+01  0.65284922980E+01  0.83961541289E+01  0.51100000000E-03 0.  1.
         12    1    3    3    0    0 -0.16072974621E+01  0.76915664828E+01 -0.18076481436E+01  0.80629518108E+01  0.00000000000E+00 0. -1.
</event>
<event>
 7    1  0.2412036E-009  0.4778726E+02  0.7816164E-02  0.1312668E+00
        -11   -1    0    0    0    0  0.00000000000E+00  0.00000000000E+00  0.45593999997E+02  0.45594000000E+02  0.51100000000E-03 0.  1.
         11   -1    0    0    0    0 -0.00000000000E+00 -0.00000000000E+00 -0.45593999997E+02  0.45594000000E+02  0.51100000000E-03 0. -1.
    9900012    2    1    2    0    0 -0.12454111051E+02 -0.14204121229E+02  0.39073804111E+02  0.47787261416E+02  0.19999956101E+02 0.  0.
         12    1    1    2    0    0  0.12454111051E+02  0.14204121229E+02 -0.39073804111E+02  0.43400738584E+02  0.00000000000E+00 0. -1.
         11    1    3    3    0    0  0.79608672189E+00 -0.30078940807E+01 -0.84824285374E+00  0.32250111736E+01  0.51100000000E-03 0. -1.
        -11    1    3    3    0    0 -0.54725409298E+01 -0.39452905328E+01  0.26987583768E+02  0.27818046292E+02  0.51100000000E-03 0.  1.
        -12    1    3    3    0    0 -0.77776568428E+01 -0.72509366151E+01  0.12934463196E+02  0.16744203950E+02  0.00000000000E+00 0.  1.
</event>
<event>
 7    1  0.2412036E-009  0.4778726E+02  0.7816164E-02  0.1312668E+00
        -11   -1    0    0    0    0  0.00000000000E+00  0.00000000000E+00  0.45593999997E+02  0.45594000000E+02  0.51100000000E-03 0.  1.
         11   -1    0    0    0    0 -0.00000000000E+00 -0.00000000000E+00 -0.45593999997E+02  0.45594000000E+02  0.51100000000E-03 0. -1.
    9900012    2    1    2    0    0  0.36892764308E+02 -0.14122504888E+02  0.17975058321E+02  0.47787263552E+02  0.19999965838E+02 0.  0.
         12    1    1    2    0    0 -0.36892764308E+02  0.14122504888E+02 -0.17975058321E+02  0.43400736448E+02  0.00000000000E+00 0. -1.
         11    1    3    3    0    0  0.17142491490E+02  0.17008372723E+01  0.10405114794E+02  0.20125214932E+02  0.51100000000E-03 0. -1.
        -11    1    3    3    0    0  0.16022319201E+02 -0.13762371223E+02  0.28644401534E+01  0.21314844403E+02  0.51100000000E-03 0.  1.
        -12    1    3    3    0    0  0.37279536174E+01 -0.20609709371E+01  0.47055033737E+01  0.63472042173E+01  0.00000000000E+00 0.  1.
</event>
<event>
 7    1  0.2701782E-009  0.4778727E+02  0.7816164E-02  0.1312668E+00
        -11   -1    0    0    0    0  0.00000000000E+00  0.00000000000E+00  0.45593999997E+02  0.45594000000E+02  0.51100000000E-03 0.  1.
         11   -1    0    0    0    0 -0.00000000000E+00 -0.00000000000E+00 -0.45593999997E+02  0.45594000000E+02  0.51100000000E-03 0. -1.
    9900012    2    1    2    0    0 -0.21715268239E+02  0.26503550320E+02  0.26638927162E+02  0.47787268501E+02  0.19999988404E+02 0.  0.
         12    1    1    2    0    0  0.21715268239E+02 -0.26503550320E+02 -0.26638927162E+02  0.43400731499E+02  0.00000000000E+00 0. -1.
         11    1    3    3    0    0 -0.12129210889E+01  0.15068945808E+01 -0.15713046138E+01  0.24921691950E+01  0.51100000000E-03 0. -1.
        -11    1    3    3    0    0 -0.97553769874E+01  0.13773836202E+02  0.23735673333E+02  0.29125043051E+02  0.51100000000E-03 0.  1.
        -12    1    3    3    0    0 -0.10746970162E+02  0.11222819537E+02  0.44745584434E+01  0.16170056255E+02  0.00000000000E+00 0.  1.
</event>
<event>
 7    1  0.2412036E-009  0.4778727E+02  0.7816164E-02  0.1312668E+00
        -11   -1    0    0    0    0  0.00000000000E+00  0.00000000000E+00  0.45593999997E+02  0.45594000000E+02  0.51100000000E-03 0.  1.
         11   -1    0    0    0    0 -0.00000000000E+00 -0.00000000000E+00 -0.45593999997E+02  0.45594000000E+02  0.51100000000E-03 0. -1.
    9900012    2    1    2    0    0 -0.12149244097E+01  0.16970388173E+02  0.39926848992E+02  0.47787269747E+02  0.19999994082E+02 0.  0.
         12    1    1    2    0    0  0.12149244097E+01 -0.16970388173E+02 -0.39926848992E+02  0.43400730253E+02  0.00000000000E+00 0. -1.
         11    1    3    3    0    0 -0.54264196309E+01  0.85251293178E+01  0.73091814501E+01  0.12471888134E+02  0.51100000000E-03 0. -1.
        -11    1    3    3    0    0  0.12672528996E+01  0.30253159620E+01  0.26235620051E+02  0.26439860558E+02  0.51100000000E-03 0.  1.
         12    1    3    3    0    0  0.29442423216E+01  0.54199428933E+01  0.63820474913E+01  0.88755210549E+01  0.00000000000E+00 0. -1.
</event>
<event>
 7    1  0.2412036E-009  0.4778727E+02  0.7816164E-02  0.1312668E+00
        -11   -1    0    0    0    0  0.00000000000E+00  0.00000000000E+00  0.45593999997E+02  0.45594000000E+02  0.51100000000E-03 0.  1.
         11   -1    0    0    0    0 -0.00000000000E+00 -0.00000000000E+00 -0.45593999997E+02  0.45594000000E+02  0.51100000000E-03 0. -1.
    9900012    2    1    2    0    0  0.10782168812E+02  0.41160254621E+02  0.85557865490E+01  0.47787271801E+02  0.20000003447E+02 0.  0.
         12    1    1    2    0    0 -0.10782168812E+02 -0.41160254621E+02 -0.85557865490E+01  0.43400728199E+02  0.00000000000E+00 0. -1.
         11    1    3    3    0    0  0.71533679340E+01  0.27120024991E+02  0.10225294451E+02  0.29853359530E+02  0.51100000000E-03 0. -1.
        -11    1    3    3    0    0  0.70527134817E+00  0.84372700699E+01  0.40724153629E+01  0.93951849932E+01  0.51100000000E-03 0.  1.
         12    1    3    3    0    0  0.29235295302E+01  0.56029595598E+01 -0.57419232649E+01  0.85387272777E+01  0.00000000000E+00 0. -1.
</event>
<event>
 7    1  0.2412036E-009  0.4778728E+02  0.7816164E-02  0.1312668E+00
        -11   -1    0    0    0    0  0.00000000000E+00  0.00000000000E+00  0.45593999997E+02  0.45594000000E+02  0.51100000000E-03 0. -1.
         11   -1    0    0    0    0 -0.00000000000E+00 -0.00000000000E+00 -0.45593999997E+02  0.45594000000E+02  0.51100000000E-03 0.  1.
    9900012    2    1    2    0    0  0.61071120495E+01  0.38472624188E+02 -0.19135900330E+02  0.47787282138E+02  0.20000050579E+02 0.  0.
         12    1    1    2    0    0 -0.61071120495E+01 -0.38472624188E+02  0.19135900330E+02  0.43400717862E+02  0.00000000000E+00 0. -1.
         11    1    3    3    0    0 -0.16806091891E+01  0.88572604111E+00 -0.16891055965E+01  0.25420534699E+01  0.51100000000E-03 0. -1.
        -11    1    3    3    0    0  0.71536672878E+01  0.11797094391E+02 -0.13211846304E+02  0.19102336893E+02  0.51100000000E-03 0.  1.
        -12    1    3    3    0    0  0.63405395089E+00  0.25789803756E+02 -0.42349484295E+01  0.26142891775E+02  0.00000000000E+00 0.  1.
</event>
<event>
 7    1  0.2412036E-009  0.4778727E+02  0.7816164E-02  0.1312668E+00
        -11   -1    0    0    0    0  0.00000000000E+00  0.00000000000E+00  0.45593999997E+02  0.45594000000E+02  0.51100000000E-03 0.  1.
         11   -1    0    0    0    0 -0.00000000000E+00 -0.00000000000E+00 -0.45593999997E+02  0.45594000000E+02  0.51100000000E-03 0. -1.
    9900012    2    1    2    0    0  0.19199229580E+02 -0.17631519503E+02  0.34700755025E+02  0.47787270792E+02  0.19999998850E+02 0.  0.
         12    1    1    2    0    0 -0.19199229580E+02  0.17631519503E+02 -0.34700755025E+02  0.43400729208E+02  0.00000000000E+00 0. -1.
         11    1    3    3    0    0  0.97336094782E+01 -0.34903064222E+01  0.44402194269E+01  0.11253485736E+02  0.51100000000E-03 0. -1.
        -11    1    3    3    0    0  0.59960898930E-02 -0.10017008527E+02  0.16989394237E+02  0.19722576216E+02  0.51100000000E-03 0.  1.
         12    1    3    3    0    0  0.94596240118E+01 -0.41242045546E+01  0.13271141361E+02  0.16811208840E+02  0.00000000000E+00 0. -1.
</event>
<event>
 7    1  0.2412036E-009  0.4778727E+02  0.7816164E-02  0.1312668E+00
        -11   -1    0    0    0    0  0.00000000000E+00  0.00000000000E+00  0.45593999997E+02  0.45594000000E+02  0.51100000000E-03 0. -1.
         11   -1    0    0    0    0 -0.00000000000E+00 -0.00000000000E+00 -0.45593999997E+02  0.45594000000E+02  0.51100000000E-03 0.  1.
    9900012    2    1    2    0    0  0.40577302533E+02  0.90388736668E+01 -0.12466138367E+02  0.47787270469E+02  0.19999997377E+02 0.  0.
         12    1    1    2    0    0 -0.40577302533E+02 -0.90388736668E+01  0.12466138367E+02  0.43400729531E+02  0.00000000000E+00 0. -1.
         11    1    3    3    0    0  0.34345245335E+01  0.36124959159E+01  0.35164654364E+00  0.49969731905E+01  0.51100000000E-03 0. -1.
        -11    1    3    3    0    0  0.29557081661E+02  0.57222885242E+01 -0.28210295630E+01  0.30237788780E+02  0.51100000000E-03 0.  1.
        -12    1    3    3    0    0  0.75856963392E+01 -0.29591077331E+00 -0.99967553471E+01  0.12552508499E+02  0.00000000000E+00 0.  1.
</event>
<event>
 7    1  0.2412036E-009  0.4778727E+02  0.7816164E-02  0.1312668E+00
        -11   -1    0    0    0    0  0.00000000000E+00  0.00000000000E+00  0.45593999997E+02  0.45594000000E+02  0.51100000000E-03 0.  1.
         11   -1    0    0    0    0 -0.00000000000E+00 -0.00000000000E+00 -0.45593999997E+02  0.45594000000E+02  0.51100000000E-03 0. -1.
    9900012    2    1    2    0    0  0.43054170889E+02  0.34024606141E+01  0.42877678668E+01  0.47787270485E+02  0.19999997450E+02 0.  0.
         12    1    1    2    0    0 -0.43054170889E+02 -0.34024606141E+01 -0.42877678668E+01  0.43400729515E+02  0.00000000000E+00 0. -1.
         11    1    3    3    0    0  0.32248188884E+01 -0.23048955953E+01  0.17229044737E+01  0.43220829070E+01  0.51100000000E-03 0. -1.
        -11    1    3    3    0    0  0.15983453787E+02  0.56393885116E+01  0.83987564043E+01  0.18915935270E+02  0.51100000000E-03 0.  1.
        -12    1    3    3    0    0  0.23845898213E+02  0.67967697787E-01 -0.58338930112E+01  0.24549252308E+02  0.00000000000E+00 0.  1.
</event>
<event>
 7    1  0.2412036E-009  0.4778728E+02  0.7816164E-02  0.1312668E+00
        -11   -1    0    0    0    0  0.00000000000E+00  0.00000000000E+00  0.45593999997E+02  0.45594000000E+02  0.51100000000E-03 0.  1.
         11   -1    0    0    0    0 -0.00000000000E+00 -0.00000000000E+00 -0.45593999997E+02  0.45594000000E+02  0.51100000000E-03 0. -1.
    9900012    2    1    2    0    0  0.23356353878E+02 -0.23329170162E+02  0.28175397962E+02  0.47787279992E+02  0.20000040794E+02 0.  0.
         12    1    1    2    0    0 -0.23356353878E+02  0.23329170162E+02 -0.28175397962E+02  0.43400720008E+02  0.00000000000E+00 0. -1.
         11    1    3    3    0    0  0.55669310384E+00 -0.81045311708E+01  0.49997529765E+01  0.95389130826E+01  0.51100000000E-03 0. -1.
        -11    1    3    3    0    0  0.16090328729E+02 -0.28362661393E+01  0.12338095699E+02  0.20473682862E+02  0.51100000000E-03 0.  1.
        -12    1    3    3    0    0  0.67093320452E+01 -0.12388372852E+02  0.10837549287E+02  0.17774684047E+02  0.00000000000E+00 0.  1.
</event>
<event>
 7    1  0.2412036E-009  0.4778727E+02  0.7816164E-02  0.1312668E+00
        -11   -1    0    0    0    0  0.00000000000E+00  0.00000000000E+00  0.45593999997E+02  0.45594000000E+02  0.51100000000E-03 0.  1.
         11   -1    0    0    0    0 -0.00000000000E+00 -0.00000000000E+00 -0.45593999997E+02  0.45594000000E+02  0.51100000000E-03 0. -1.
    9900012    2    1    2    0    0  0.12605601295E+02  0.24400643104E+02  0.33605513764E+02  0.47787272780E+02  0.20000007911E+02 0.  0.
         12    1    1    2    0    0 -0.12605601295E+02 -0.24400643104E+02 -0.33605513764E+02  0.43400727220E+02  0.00000000000E+00 0. -1.
         11    1    3    3    0    0  0.61532820974E+01 -0.44061439487E+00  0.71670074631E+01  0.94563744560E+01  0.51100000000E-03 0. -1.
        -11    1    3    3    0    0  0.74540537924E+01  0.21710648060E+02  0.26479123802E+02  0.35043674961E+02  0.51100000000E-03 0.  1.
         12    1    3    3    0    0 -0.10017345945E+01  0.31306094389E+01 -0.40617501675E-01  0.32872233630E+01  0.00000000000E+00 0. -1.
</event>
<event>
 7    1  0.2412036E-009  0.4778727E+02  0.7816164E-02  0.1312668E+00
        -11   -1    0    0    0    0  0.00000000000E+00  0.00000000000E+00  0.45593999997E+02  0.45594000000E+02  0.51100000000E-03 0.  1.
         11   -1    0    0    0    0 -0.00000000000E+00 -0.00000000000E+00 -0.45593999997E+02  0.45594000000E+02  0.51100000000E-03 0. -1.
    9900012    2    1    2    0    0  0.39985447023E+02 -0.16040628040E+02 -0.52426505765E+01  0.47787272972E+02  0.20000008786E+02 0.  0.
         12    1    1    2    0    0 -0.39985447023E+02  0.16040628040E+02  0.52426505765E+01  0.43400727028E+02  0.00000000000E+00 0. -1.
         11    1    3    3    0    0  0.40855933837E+01 -0.27446423861E+01  0.52460638130E+01  0.71934915664E+01  0.51100000000E-03 0. -1.
        -11    1    3    3    0    0  0.22817951911E+02 -0.41366232015E+01 -0.51448186549E+01  0.23753731079E+02  0.51100000000E-03 0.  1.
        -12    1    3    3    0    0  0.13081901728E+02 -0.91593624528E+01 -0.53438957345E+01  0.16840050326E+02  0.00000000000E+00 0.  1.
</event>
<event>
 7    1  0.2412036E-009  0.4778727E+02  0.7816164E-02  0.1312668E+00
        -11   -1    0    0    0    0  0.00000000000E+00  0.00000000000E+00  0.45593999997E+02  0.45594000000E+02  0.51100000000E-03 0. -1.
         11   -1    0    0    0    0 -0.00000000000E+00 -0.00000000000E+00 -0.45593999997E+02  0.45594000000E+02  0.51100000000E-03 0.  1.
    9900012    2    1    2    0    0  0.21016224283E+02 -0.35676725563E+02  0.13004353631E+02  0.47787266788E+02  0.19999980592E+02 0.  0.
         12    1    1    2    0    0 -0.21016224283E+02  0.35676725563E+02 -0.13004353631E+02  0.43400733212E+02  0.00000000000E+00 0. -1.
         11    1    3    3    0    0  0.17082200578E+01 -0.21225851785E+02  0.48840878355E+01  0.21847405201E+02  0.51100000000E-03 0. -1.
        -11    1    3    3    0    0  0.89215226392E+01 -0.37631143102E+01  0.23931660353E+01  0.99740583238E+01  0.51100000000E-03 0.  1.
         12    1    3    3    0    0  0.10386481586E+02 -0.10687759468E+02  0.57270997600E+01  0.15965803263E+02  0.00000000000E+00 0. -1.
</event>
<event>
 7    1  0.2412036E-009  0.4778728E+02  0.7816164E-02  0.1312668E+00
        -11   -1    0    0    0    0  0.00000000000E+00  0.00000000000E+00  0.45593999997E+02  0.45594000000E+02  0.51100000000E-03 0.  1.
         11   -1    0    0    0    0 -0.00000000000E+00 -0.00000000000E+00 -0.45593999997E+02  0.45594000000E+02  0.51100000000E-03 0. -1.
    9900012    2    1    2    0    0  0.60923325651E+01 -0.16158878107E+02  0.39817044387E+02  0.47787275564E+02  0.20000020609E+02 0.  0.
         12    1    1    2    0    0 -0.60923325651E+01  0.16158878107E+02 -0.39817044387E+02  0.43400724436E+02  0.00000000000E+00 0. -1.
         11    1    3    3    0    0  0.16488068716E+00  0.22379256479E+01  0.19295933911E+00  0.22522722780E+01  0.51100000000E-03 0. -1.
        -11    1    3    3    0    0  0.15968169479E+01 -0.16103745970E+02  0.35904613606E+02  0.39383013307E+02  0.51100000000E-03 0.  1.
        -12    1    3    3    0    0  0.43306349300E+01 -0.22930577855E+01  0.37194714419E+01  0.61519899798E+01  0.00000000000E+00 0.  1.
</event>
<event>
 7    1  0.2412036E-009  0.4778727E+02  0.7816164E-02  0.1312668E+00
        -11   -1    0    0    0    0  0.00000000000E+00  0.00000000000E+00  0.45593999997E+02  0.45594000000E+02  0.51100000000E-03 0.  1.
         11   -1    0    0    0    0 -0.00000000000E+00 -0.00000000000E+00 -0.45593999997E+02  0.45594000000E+02  0.51100000000E-03 0. -1.
    9900012    2    1    2    0    0 -0.16357102373E+01 -0.19481228141E+02  0.38748288221E+02  0.47787266850E+02  0.19999980876E+02 0.  0.
         12    1    1    2    0    0  0.16357102373E+01  0.19481228141E+02 -0.38748288221E+02  0.43400733150E+02  0.00000000000E+00 0. -1.
         11    1    3    3    0    0 -0.51070338923E+01 -0.75881518255E+01  0.10310593165E+02  0.13782966843E+02  0.51100000000E-03 0. -1.
        -11    1    3    3    0    0  0.69798630188E+01 -0.48462490898E+01  0.65040276358E+01  0.10700794071E+02  0.51100000000E-03 0.  1.
        -12    1    3    3    0    0 -0.35085393638E+01 -0.70468272258E+01  0.21933667420E+02  0.23303505936E+02  0.00000000000E+00 0.  1.
</event>
<event>
 7    1  0.2412036E-009  0.4778727E+02  0.7816164E-02  0.1312668E+00
        -11   -1    0    0    0    0  0.00000000000E+00  0.00000000000E+00  0.45593999997E+02  0.45594000000E+02  0.51100000000E-03 0.  1.
         11   -1    0    0    0    0 -0.00000000000E+00 -0.00000000000E+00 -0.45593999997E+02  0.45594000000E+02  0.51100000000E-03 0. -1.
    9900012    2    1    2    0    0  0.18461502230E+02  0.35033546249E+02  0.17760825436E+02  0.47787270196E+02  0.19999996133E+02 0.  0.
         12    1    1    2    0    0 -0.18461502230E+02 -0.35033546249E+02 -0.17760825436E+02  0.43400729804E+02  0.00000000000E+00 0. -1.
         11    1    3    3    0    0  0.58432015259E+01  0.26118355390E+01 -0.16028088158E+01  0.65980061622E+01  0.51100000000E-03 0. -1.
        -11    1    3    3    0    0  0.12046097417E+02  0.31421786074E+02  0.20634215071E+02  0.39474142611E+02  0.51100000000E-03 0.  1.
        -12    1    3    3    0    0  0.57220328692E+00  0.99992463602E+00 -0.12705808186E+01  0.17151214231E+01  0.00000000000E+00 0.  1.
</event>
<event>
 7    1  0.2412036E-009  0.4778727E+02  0.7816164E-02  0.1312668E+00
        -11   -1    0    0    0    0  0.00000000000E+00  0.00000000000E+00  0.45593999997E+02  0.45594000000E+02  0.51100000000E-03 0.  1.
         11   -1    0    0    0    0 -0.00000000000E+00 -0.00000000000E+00 -0.45593999997E+02  0.45594000000E+02  0.51100000000E-03 0. -1.
    9900012    2    1    2    0    0  0.25335114518E+01  0.12702803104E+02  0.41422740772E+02  0.47787270282E+02  0.19999996526E+02 0.  0.
         12    1    1    2    0    0 -0.25335114518E+01 -0.12702803104E+02 -0.41422740772E+02  0.43400729718E+02  0.00000000000E+00 0. -1.
         11    1    3    3    0    0 -0.45856198219E+01  0.87991586250E+01  0.22845097425E+02  0.24906858057E+02  0.51100000000E-03 0. -1.
        -11    1    3    3    0    0  0.95913850205E+01  0.28575103292E+01  0.11151004043E+02  0.14983488356E+02  0.51100000000E-03 0.  1.
        -12    1    3    3    0    0 -0.24722537467E+01  0.10461341500E+01  0.74266393040E+01  0.78969238694E+01  0.00000000000E+00 0.  1.
</event>
<event>
 7    1  0.2412036E-009  0.4778727E+02  0.7816164E-02  0.1312668E+00
        -11   -1    0    0    0    0  0.00000000000E+00  0.00000000000E+00  0.45593999997E+02  0.45594000000E+02  0.51100000000E-03 0.  1.
         11   -1    0    0    0    0 -0.00000000000E+00 -0.00000000000E+00 -0.45593999997E+02  0.45594000000E+02  0.51100000000E-03 0. -1.
    9900012    2    1    2    0    0 -0.19363980600E+02  0.18699825640E+02  0.34043737341E+02  0.47787271022E+02  0.19999999897E+02 0.  0.
         12    1    1    2    0    0  0.19363980600E+02 -0.18699825640E+02 -0.34043737341E+02  0.43400728978E+02  0.00000000000E+00 0. -1.
         11    1    3    3    0    0 -0.97998331889E+01  0.42786726475E+01  0.10935032998E+02  0.15294401495E+02  0.51100000000E-03 0. -1.
        -11    1    3    3    0    0 -0.31430022493E+00 -0.15659537460E+01  0.92879175134E+01  0.94242457397E+01  0.51100000000E-03 0.  1.
        -12    1    3    3    0    0 -0.92498471866E+01  0.15987106739E+02  0.13820786830E+02  0.23068623788E+02  0.00000000000E+00 0.  1.
</event>
<event>
 7    1  0.2412036E-009  0.4778727E+02  0.7816164E-02  0.1312668E+00
        -11   -1    0    0    0    0  0.00000000000E+00  0.00000000000E+00  0.45593999997E+02  0.45594000000E+02  0.51100000000E-03 0.  1.
         11   -1    0    0    0    0 -0.00000000000E+00 -0.00000000000E+00 -0.45593999997E+02  0.45594000000E+02  0.51100000000E-03 0. -1.
    9900012    2    1    2    0    0  0.21086655876E+02 -0.33493804457E+02  0.17808458961E+02  0.47787271854E+02  0.20000003689E+02 0.  0.
         12    1    1    2    0    0 -0.21086655876E+02  0.33493804457E+02 -0.17808458961E+02  0.43400728146E+02  0.00000000000E+00 0. -1.
         11    1    3    3    0    0  0.15173886954E+02 -0.24652044376E+02  0.57189441032E+01  0.29507227235E+02  0.51100000000E-03 0. -1.
        -11    1    3    3    0    0  0.31204827606E+01 -0.44797126489E+00  0.78725559081E+01  0.84802846474E+01  0.51100000000E-03 0.  1.
        -12    1    3    3    0    0  0.27922861623E+01 -0.83937888164E+01  0.42169589493E+01  0.97997599708E+01  0.00000000000E+00 0.  1.
</event>
<event>
 7    1  0.2412036E-009  0.4778727E+02  0.7816164E-02  0.1312668E+00
        -11   -1    0    0    0    0  0.00000000000E+00  0.00000000000E+00  0.45593999997E+02  0.45594000000E+02  0.51100000000E-03 0.  1.
         11   -1    0    0    0    0 -0.00000000000E+00 -0.00000000000E+00 -0.45593999997E+02  0.45594000000E+02  0.51100000000E-03 0. -1.
    9900012    2    1    2    0    0  0.44933406561E+01  0.21725137162E+01  0.43112800229E+02  0.47787268788E+02  0.19999989714E+02 0.  0.
         12    1    1    2    0    0 -0.44933406561E+01 -0.21725137162E+01 -0.43112800229E+02  0.43400731212E+02  0.00000000000E+00 0. -1.
         11    1    3    3    0    0  0.67396419717E+00 -0.66809604277E+01  0.71173911541E+01  0.97850251445E+01  0.51100000000E-03 0. -1.
        -11    1    3    3    0    0 -0.13772333062E+01  0.40640701372E+00  0.11283630269E+02  0.11374631887E+02  0.51100000000E-03 0.  1.
         12    1    3    3    0    0  0.51966097651E+01  0.84470671302E+01  0.24711778806E+02  0.26627611757E+02  0.00000000000E+00 0. -1.
</event>
<event>
 7    1  0.2412036E-009  0.4778727E+02  0.7816164E-02  0.1312668E+00
        -11   -1    0    0    0    0  0.00000000000E+00  0.00000000000E+00  0.45593999997E+02  0.45594000000E+02  0.51100000000E-03 0. -1.
         11   -1    0    0    0    0 -0.00000000000E+00 -0.00000000000E+00 -0.45593999997E+02  0.45594000000E+02  0.51100000000E-03 0.  1.
    9900012    2    1    2    0    0  0.84551506423E+01  0.42257325770E+02  0.51431631254E+01  0.47787270968E+02  0.19999999650E+02 0.  0.
         12    1    1    2    0    0 -0.84551506423E+01 -0.42257325770E+02 -0.51431631254E+01  0.43400729032E+02  0.00000000000E+00 0. -1.
         11    1    3    3    0    0 -0.76740682681E+00  0.27480892030E+02 -0.99686235599E+00  0.27509672386E+02  0.51100000000E-03 0. -1.
        -11    1    3    3    0    0  0.48297334602E+01  0.90181915273E+01 -0.78105746122E+00  0.10259832101E+02  0.51100000000E-03 0.  1.
         12    1    3    3    0    0  0.43928240090E+01  0.57582422130E+01  0.69210829426E+01  0.10017766480E+02  0.00000000000E+00 0. -1.
</event>
<event>
 7    1  0.2412036E-009  0.4778727E+02  0.7816164E-02  0.1312668E+00
        -11   -1    0    0    0    0  0.00000000000E+00  0.00000000000E+00  0.45593999997E+02  0.45594000000E+02  0.51100000000E-03 0.  1.
         11   -1    0    0    0    0 -0.00000000000E+00 -0.00000000000E+00 -0.45593999997E+02  0.45594000000E+02  0.51100000000E-03 0. -1.
    9900012    2    1    2    0    0  0.38141088259E+01  0.28581971988E+01  0.43138228474E+02  0.47787268747E+02  0.19999989527E+02 0.  0.
         12    1    1    2    0    0 -0.38141088259E+01 -0.28581971988E+01 -0.43138228474E+02  0.43400731253E+02  0.00000000000E+00 0. -1.
         11    1    3    3    0    0 -0.42132444525E+01  0.62287001080E+01  0.19398121454E+02  0.20804692982E+02  0.51100000000E-03 0. -1.
        -11    1    3    3    0    0  0.24465578160E+01  0.20890831459E+01  0.14654160555E+02  0.15003144183E+02  0.51100000000E-03 0.  1.
         12    1    3    3    0    0  0.55807954624E+01 -0.54595860550E+01  0.90859464649E+01  0.11979431583E+02  0.00000000000E+00 0. -1.
</event>
<event>
 7    1  0.2412036E-009  0.4778727E+02  0.7816164E-02  0.1312668E+00
        -11   -1    0    0    0    0  0.00000000000E+00  0.00000000000E+00  0.45593999997E+02  0.45594000000E+02  0.51100000000E-03 0. -1.
         11   -1    0    0    0    0 -0.00000000000E+00 -0.00000000000E+00 -0.45593999997E+02  0.45594000000E+02  0.51100000000E-03 0.  1.
    9900012    2    1    2    0    0 -0.83779821896E+01 -0.39314236752E+02 -0.16365313620E+02  0.47787270895E+02  0.19999999318E+02 0.  0.
         12    1    1    2    0    0  0.83779821896E+01  0.39314236752E+02  0.16365313620E+02  0.43400729105E+02  0.00000000000E+00 0. -1.
         11    1    3    3    0    0 -0.91450138059E+01 -0.17371156594E+02 -0.97779454426E-01  0.19631554193E+02  0.51100000000E-03 0. -1.
        -11    1    3    3    0    0 -0.19460827413E+01 -0.17717513410E+02 -0.13903869882E+02  0.22605643486E+02  0.51100000000E-03 0.  1.
         12    1    3    3    0    0  0.27131143577E+01 -0.42255667477E+01 -0.23636642836E+01  0.55500732160E+01  0.00000000000E+00 0. -1.
</event>
<event>
 7    1  0.2412036E-009  0.4778728E+02  0.7816164E-02  0.1312668E+00
        -11   -1    0    0    0    0  0.00000000000E+00  0.00000000000E+00  0.45593999997E+02  0.45594000000E+02  0.51100000000E-03 0. -1.
         11   -1    0    0    0    0 -0.00000000000E+00 -0.00000000000E+00 -0.45593999997E+02  0.45594000000E+02  0.51100000000E-03 0.  1.
    9900012    2    1    2    0    0  0.36695604470E+02  0.19700540417E+02 -0.12204269352E+02  0.47787275691E+02  0.20000021186E+02 0.  0.
         12    1    1    2    0    0 -0.36695604470E+02 -0.19700540417E+02  0.12204269352E+02  0.43400724309E+02  0.00000000000E+00 0. -1.
         11    1    3    3    0    0  0.82298960871E+01  0.25512357652E+01  0.27648873950E+01  0.90490107803E+01  0.51100000000E-03 0. -1.
        -11    1    3    3    0    0  0.27729552316E+02  0.12604006426E+02 -0.15367205323E+02  0.34116565614E+02  0.51100000000E-03 0.  1.
        -12    1    3    3    0    0  0.73615606629E+00  0.45452982260E+01  0.39804857540E+00  0.46216992963E+01  0.00000000000E+00 0.  1.
</event>
<event>
 7    1  0.2412036E-009  0.4778727E+02  0.7816164E-02  0.1312668E+00
        -11   -1    0    0    0    0  0.00000000000E+00  0.00000000000E+00  0.45593999997E+02  0.45594000000E+02  0.51100000000E-03 0.  1.
         11   -1    0    0    0    0 -0.00000000000E+00 -0.00000000000E+00 -0.45593999997E+02  0.45594000000E+02  0.51100000000E-03 0. -1.
    9900012    2    1    2    0    0  0.40941447760E+02 -0.13715323558E+02  0.43944057753E+01  0.47787273657E+02  0.20000011913E+02 0.  0.
         12    1    1    2    0    0 -0.40941447760E+02  0.13715323558E+02 -0.43944057753E+01  0.43400726343E+02  0.00000000000E+00 0. -1.
         11    1    3    3    0    0  0.77930502275E+01  0.19993582880E+00  0.21034956268E+01  0.80744225983E+01  0.51100000000E-03 0. -1.
        -11    1    3    3    0    0  0.16376289334E+02 -0.66845820049E+01  0.94993779668E+01  0.20077466746E+02  0.51100000000E-03 0.  1.
        -12    1    3    3    0    0  0.16772108199E+02 -0.72306773814E+01 -0.72084678183E+01  0.19635384313E+02  0.00000000000E+00 0.  1.
</event>
<event>
 7    1  0.2412036E-009  0.4778727E+02  0.7816164E-02  0.1312668E+00
        -11   -1    0    0    0    0  0.00000000000E+00  0.00000000000E+00  0.45593999997E+02  0.45594000000E+02  0.51100000000E-03 0.  1.
         11   -1    0    0    0    0 -0.00000000000E+00 -0.00000000000E+00 -0.45593999997E+02  0.45594000000E+02  0.51100000000E-03 0. -1.
    9900012    2    1    2    0    0 -0.20229050470E+02  0.27266779282E+02  0.27035745530E+02  0.47787271069E+02  0.20000000113E+02 0.  0.
         12    1    1    2    0    0  0.20229050470E+02 -0.27266779282E+02 -0.27035745530E+02  0.43400728931E+02  0.00000000000E+00 0. -1.
         11    1    3    3    0    0 -0.24894311365E+01  0.78689233795E+01  0.13411052705E+02  0.15747176174E+02  0.51100000000E-03 0. -1.
        -11    1    3    3    0    0 -0.16664125255E+02  0.20090798789E+02  0.95914541833E+01  0.27808798250E+02  0.51100000000E-03 0.  1.
        -12    1    3    3    0    0 -0.10754940783E+01 -0.69294288647E+00  0.40332386416E+01  0.42312966448E+01  0.00000000000E+00 0.  1.
</event>
<event>
 7    1  0.2412036E-009  0.4778727E+02  0.7816164E-02  0.1312668E+00
        -11   -1    0    0    0    0  0.00000000000E+00  0.00000000000E+00  0.45593999997E+02  0.45594000000E+02  0.51100000000E-03 0. -1.
         11   -1    0    0    0    0 -0.00000000000E+00 -0.00000000000E+00 -0.45593999997E+02  0.45594000000E+02  0.51100000000E-03 0.  1.
    9900012    2    1    2    0    0  0.33238702476E+02  0.83736351015E+01 -0.26621310753E+02  0.47787270821E+02  0.19999998980E+02 0.  0.
         12    1    1    2    0    0 -0.33238702476E+02 -0.83736351015E+01  0.26621310753E+02  0.43400729179E+02  0.00000000000E+00 0. -1.
         11    1    3    3    0    0 -0.88907826505E+00 -0.21448254319E+01 -0.54327493608E+01  0.59080878610E+01  0.51100000000E-03 0. -1.
        -11    1    3    3    0    0  0.32256348779E+02  0.10996707013E+02 -0.19239466871E+02  0.39135108119E+02  0.51100000000E-03 0.  1.
        -12    1    3    3    0    0  0.18714319615E+01 -0.47824647997E+00 -0.19490945210E+01  0.27440748412E+01  0.00000000000E+00 0.  1.
</event>
<event>
 7    1  0.2584277E-009  0.4778727E+02  0.7816164E-02  0.1312668E+00
        -11   -1    0    0    0    0  0.00000000000E+00  0.00000000000E+00  0.45593999997E+02  0.45594000000E+02  0.51100000000E-03 0.  1.
         11   -1    0    0    0    0 -0.00000000000E+00 -0.00000000000E+00 -0.45593999997E+02  0.45594000000E+02  0.51100000000E-03 0. -1.
    9900012    2    1    2    0    0  0.34809951017E+02 -0.13044644244E+02  0.22399281208E+02  0.47787271528E+02  0.20000002206E+02 0.  0.
         12    1    1    2    0    0 -0.34809951017E+02  0.13044644244E+02 -0.22399281208E+02  0.43400728472E+02  0.00000000000E+00 0. -1.
         11    1    3    3    0    0  0.71824730628E+01 -0.45799576061E+01 -0.44316053612E+00  0.85299661484E+01  0.51100000000E-03 0. -1.
        -11    1    3    3    0    0  0.20951265863E+02 -0.16159216467E+01  0.20614660434E+02  0.29436898089E+02  0.51100000000E-03 0.  1.
        -12    1    3    3    0    0  0.66762120907E+01 -0.68487649915E+01  0.22277813099E+01  0.98204072907E+01  0.00000000000E+00 0.  1.
</event>
<event>
 7    1  0.2412036E-009  0.4778726E+02  0.7816164E-02  0.1312668E+00
        -11   -1    0    0    0    0  0.00000000000E+00  0.00000000000E+00  0.45593999997E+02  0.45594000000E+02  0.51100000000E-03 0.  1.
         11   -1    0    0    0    0 -0.00000000000E+00 -0.00000000000E+00 -0.45593999997E+02  0.45594000000E+02  0.51100000000E-03 0. -1.
    9900012    2    1    2    0    0 -0.15696834268E+02 -0.31937637341E+02  0.24843932668E+02  0.47787259506E+02  0.19999947394E+02 0.  0.
         12    1    1    2    0    0  0.15696834268E+02  0.31937637341E+02 -0.24843932668E+02  0.43400740494E+02  0.00000000000E+00 0. -1.
         11    1    3    3    0    0  0.32894448245E+01 -0.26372999457E+01  0.25612367860E-02  0.42161362737E+01  0.51100000000E-03 0. -1.
        -11    1    3    3    0    0 -0.58157874947E+01 -0.15675933506E+02  0.98243787771E+01  0.19392696927E+02  0.51100000000E-03 0.  1.
         12    1    3    3    0    0 -0.13170491598E+02 -0.13624403889E+02  0.15016992654E+02  0.24178426306E+02  0.00000000000E+00 0. -1.
</event>
<event>
 7    1  0.2412036E-009  0.4778727E+02  0.7816164E-02  0.1312668E+00
        -11   -1    0    0    0    0  0.00000000000E+00  0.00000000000E+00  0.45593999997E+02  0.45594000000E+02  0.51100000000E-03 0. -1.
         11   -1    0    0    0    0 -0.00000000000E+00 -0.00000000000E+00 -0.45593999997E+02  0.45594000000E+02  0.51100000000E-03 0.  1.
    9900012    2    1    2    0    0 -0.10318118728E+02 -0.21485949838E+02 -0.36270010458E+02  0.47787271053E+02  0.20000000039E+02 0.  0.
         12    1    1    2    0    0  0.10318118728E+02  0.21485949838E+02  0.36270010458E+02  0.43400728947E+02  0.00000000000E+00 0. -1.
         11    1    3    3    0    0 -0.59111069274E+01 -0.10459139869E+02 -0.33539122354E+01  0.12473312289E+02  0.51100000000E-03 0. -1.
        -11    1    3    3    0    0 -0.46472176827E+00 -0.60164653926E+01 -0.20308972061E+02  0.21186509117E+02  0.51100000000E-03 0.  1.
         12    1    3    3    0    0 -0.39422900320E+01 -0.50103445762E+01 -0.12607126161E+02  0.14127449646E+02  0.00000000000E+00 0. -1.
</event>
<event>
 7    1  0.2412036E-009  0.4778728E+02  0.7816164E-02  0.1312668E+00
        -11   -1    0    0    0    0  0.00000000000E+00  0.00000000000E+00  0.45593999997E+02  0.45594000000E+02  0.51100000000E-03 0.  1.
         11   -1    0    0    0    0 -0.00000000000E+00 -0.00000000000E+00 -0.45593999997E+02  0.45594000000E+02  0.51100000000E-03 0. -1.
    9900012    2    1    2    0    0  0.26296656143E+02 -0.31300706987E+02  0.14573074602E+02  0.47787275518E+02  0.20000020396E+02 0.  0.
         12    1    1    2    0    0 -0.26296656143E+02  0.31300706987E+02 -0.14573074602E+02  0.43400724482E+02  0.00000000000E+00 0. -1.
         11    1    3    3    0    0  0.25326403392E+02 -0.22042482655E+02  0.12233544516E+02  0.35734540183E+02  0.51100000000E-03 0. -1.
        -11    1    3    3    0    0 -0.24156695604E+01 -0.10165911038E+01 -0.56528766244E+00  0.26811317200E+01  0.51100000000E-03 0.  1.
        -12    1    3    3    0    0  0.33859223115E+01 -0.82416332280E+01  0.29048177491E+01  0.93716036152E+01  0.00000000000E+00 0.  1.
</event>
<event>
 7    1  0.2412036E-009  0.4778727E+02  0.7816164E-02  0.1312668E+00
        -11   -1    0    0    0    0  0.00000000000E+00  0.00000000000E+00  0.45593999997E+02  0.45594000000E+02  0.51100000000E-03 0.  1.
         11   -1    0    0    0    0 -0.00000000000E+00 -0.00000000000E+00 -0.45593999997E+02  0.45594000000E+02  0.51100000000E-03 0. -1.
    9900012    2    1    2    0    0  0.13954011307E+02  0.22114691576E+02  0.34638840010E+02  0.47787271293E+02  0.20000001132E+02 0.  0.
         12    1    1    2    0    0 -0.13954011307E+02 -0.22114691576E+02 -0.34638840010E+02  0.43400728707E+02  0.00000000000E+00 0. -1.
         11    1    3    3    0    0  0.23084368621E+01  0.48257956947E+00  0.12221055846E+02  0.12446524416E+02  0.51100000000E-03 0. -1.
        -11    1    3    3    0    0  0.49963413855E+01  0.89314709832E+01  0.20559235881E+01  0.10438458853E+02  0.51100000000E-03 0.  1.
        -12    1    3    3    0    0  0.66492330593E+01  0.12700641023E+02  0.20361860576E+02  0.24902288023E+02  0.00000000000E+00 0.  1.
</event>
<event>
 7    1  0.2412036E-009  0.4778728E+02  0.7816164E-02  0.1312668E+00
        -11   -1    0    0    0    0  0.00000000000E+00  0.00000000000E+00  0.45593999997E+02  0.45594000000E+02  0.51100000000E-03 0. -1.
         11   -1    0    0    0    0 -0.00000000000E+00 -0.00000000000E+00 -0.45593999997E+02  0.45594000000E+02  0.51100000000E-03 0.  1.
    9900012    2    1    2    0    0  0.67782716308E+01  0.21242442664E+02 -0.37234880176E+02  0.47787278366E+02  0.20000033382E+02 0.  0.
         12    1    1    2    0    0 -0.67782716308E+01 -0.21242442664E+02  0.37234880176E+02  0.43400721634E+02  0.00000000000E+00 0. -1.
         11    1    3    3    0    0  0.24525822995E+01 -0.10233692162E+01  0.71553751911E+00  0.27521698151E+01  0.51100000000E-03 0. -1.
        -11    1    3    3    0    0  0.12051425338E+01  0.18055733758E+02 -0.23473911796E+02  0.29639271674E+02  0.51100000000E-03 0.  1.
        -12    1    3    3    0    0  0.31205467975E+01  0.42100781226E+01 -0.14476505899E+02  0.15395836877E+02  0.00000000000E+00 0.  1.
</event>
<event>
 7    1  0.2412036E-009  0.4778727E+02  0.7816164E-02  0.1312668E+00
        -11   -1    0    0    0    0  0.00000000000E+00  0.00000000000E+00  0.45593999997E+02  0.45594000000E+02  0.51100000000E-03 0.  1.
         11   -1    0    0    0    0 -0.00000000000E+00 -0.00000000000E+00 -0.45593999997E+02  0.45594000000E+02  0.51100000000E-03 0. -1.
    9900012    2    1    2    0    0 -0.13460660544E+02 -0.84355005042E+01  0.40389062196E+02  0.47787269636E+02  0.19999993577E+02 0.  0.
         12    1    1    2    0    0  0.13460660544E+02  0.84355005042E+01 -0.40389062196E+02  0.43400730364E+02  0.00000000000E+00 0. -1.
         11    1    3    3    0    0 -0.13528377120E+01 -0.89916077829E+01  0.56564837313E+01  0.10708640850E+02  0.51100000000E-03 0. -1.
        -11    1    3    3    0    0 -0.28785813649E+01  0.21771434784E+01  0.96679564147E+01  0.10319668885E+02  0.51100000000E-03 0.  1.
         12    1    3    3    0    0 -0.92292414675E+01 -0.16210361996E+01  0.25064622050E+02  0.26758959900E+02  0.00000000000E+00 0. -1.
</event>
<event>
 7    1  0.2412036E-009  0.4778727E+02  0.7816164E-02  0.1312668E+00
        -11   -1    0    0    0    0  0.00000000000E+00  0.00000000000E+00  0.45593999997E+02  0.45594000000E+02  0.51100000000E-03 0. -1.
         11   -1    0    0    0    0 -0.00000000000E+00 -0.00000000000E+00 -0.45593999997E+02  0.45594000000E+02  0.51100000000E-03 0.  1.
    9900012    2    1    2    0    0  0.40791588601E+02  0.14049098112E+02 -0.47214738105E+01  0.47787272203E+02  0.20000005283E+02 0.  0.
         12    1    1    2    0    0 -0.40791588601E+02 -0.14049098112E+02  0.47214738105E+01  0.43400727797E+02  0.00000000000E+00 0. -1.
         11    1    3    3    0    0  0.19019374040E+01 -0.20068023691E+01 -0.31745656960E+01  0.42098086960E+01  0.51100000000E-03 0. -1.
        -11    1    3    3    0    0  0.14282154508E+02  0.22327892367E+01 -0.46452867692E+01  0.15183674608E+02  0.51100000000E-03 0.  1.
         12    1    3    3    0    0  0.24607496689E+02  0.13823111244E+02  0.30983786547E+01  0.28393788899E+02  0.00000000000E+00 0. -1.
</event>
<event>
 7    1  0.2412036E-009  0.4778727E+02  0.7816164E-02  0.1312668E+00
        -11   -1    0    0    0    0  0.00000000000E+00  0.00000000000E+00  0.45593999997E+02  0.45594000000E+02  0.51100000000E-03 0.  1.
         11   -1    0    0    0    0 -0.00000000000E+00 -0.00000000000E+00 -0.45593999997E+02  0.45594000000E+02  0.51100000000E-03 0. -1.
    9900012    2    1    2    0    0 -0.21672416211E+02 -0.30680137120E+02  0.21740717348E+02  0.47787271562E+02  0.20000002360E+02 0.  0.
         12    1    1    2    0    0  0.21672416211E+02  0.30680137120E+02 -0.21740717348E+02  0.43400728438E+02  0.00000000000E+00 0. -1.
         11    1    3    3    0    0 -0.22333263338E+02 -0.27697467722E+02  0.19616852713E+02  0.40629364752E+02  0.51100000000E-03 0.  1.
        -11    1    3    3    0    0  0.56814160415E+00  0.18095685293E+01 -0.44340769748E-01  0.18971793562E+01  0.51100000000E-03 0. -1.
         12    1    3    3    0    0  0.92705522847E-01 -0.47922379268E+01  0.21682054053E+01  0.52607274536E+01  0.00000000000E+00 0. -1.
</event>
<event>
 7    1  0.2412036E-009  0.4778726E+02  0.7816164E-02  0.1312668E+00
        -11   -1    0    0    0    0  0.00000000000E+00  0.00000000000E+00  0.45593999997E+02  0.45594000000E+02  0.51100000000E-03 0.  1.
         11   -1    0    0    0    0 -0.00000000000E+00 -0.00000000000E+00 -0.45593999997E+02  0.45594000000E+02  0.51100000000E-03 0. -1.
    9900012    2    1    2    0    0  0.33429628712E+02 -0.24945934833E+02  0.11991034385E+02  0.47787255236E+02  0.19999927923E+02 0.  0.
         12    1    1    2    0    0 -0.33429628712E+02  0.24945934833E+02 -0.11991034385E+02  0.43400744764E+02  0.00000000000E+00 0. -1.
         11    1    3    3    0    0  0.24871814220E+02 -0.13552058014E+02  0.72343883883E+01  0.29233573074E+02  0.51100000000E-03 0. -1.
        -11    1    3    3    0    0  0.91742241663E+01 -0.99232948139E+01  0.74439700596E+01  0.15428896899E+02  0.51100000000E-03 0.  1.
         12    1    3    3    0    0 -0.61640967524E+00 -0.14705820046E+01 -0.26873240633E+01  0.31247852632E+01  0.00000000000E+00 0. -1.
</event>
<event>
 7    1  0.2412036E-009  0.4778727E+02  0.7816164E-02  0.1312668E+00
        -11   -1    0    0    0    0  0.00000000000E+00  0.00000000000E+00  0.45593999997E+02  0.45594000000E+02  0.51100000000E-03 0. -1.
         11   -1    0    0    0    0 -0.00000000000E+00 -0.00000000000E+00 -0.45593999997E+02  0.45594000000E+02  0.51100000000E-03 0.  1.
    9900012    2    1    2    0    0 -0.11582798787E+02 -0.25923586516E+02 -0.32824226573E+02  0.47787269410E+02  0.19999992549E+02 0.  0.
         12    1    1    2    0    0  0.11582798787E+02  0.25923586516E+02  0.32824226573E+02  0.43400730590E+02  0.00000000000E+00 0. -1.
         11    1    3    3    0    0  0.42725009395E+01 -0.17697389723E+01 -0.21622286406E+01  0.51050439041E+01  0.51100000000E-03 0. -1.
        -11    1    3    3    0    0 -0.13629966103E+02 -0.22088302368E+02 -0.29815632601E+02  0.39530254554E+02  0.51100000000E-03 0.  1.
         12    1    3    3    0    0 -0.22253336231E+01 -0.20655451755E+01 -0.84636533188E+00  0.31519709518E+01  0.00000000000E+00 0. -1.
</event>
<event>
 7    1  0.2412036E-009  0.4778725E+02  0.7816164E-02  0.1312668E+00
        -11   -1    0    0    0    0  0.00000000000E+00  0.00000000000E+00  0.45593999997E+02  0.45594000000E+02  0.51100000000E-03 0.  1.
         11   -1    0    0    0    0 -0.00000000000E+00 -0.00000000000E+00 -0.45593999997E+02  0.45594000000E+02  0.51100000000E-03 0. -1.
    9900012    2    1    2    0    0 -0.21004181943E+01  0.12564063995E+02  0.41489245704E+02  0.47787251507E+02  0.19999910919E+02 0.  0.
         12    1    1    2    0    0  0.21004181943E+01 -0.12564063995E+02 -0.41489245704E+02  0.43400748493E+02  0.00000000000E+00 0. -1.
         11    1    3    3    0    0  0.10456572381E+01  0.54749169678E-01  0.21121937374E+01  0.23574900162E+01  0.51100000000E-03 0. -1.
        -11    1    3    3    0    0  0.43506016627E+01  0.13651076150E+02  0.19839029205E+02  0.24471753001E+02  0.51100000000E-03 0.  1.
        -12    1    3    3    0    0 -0.74966770950E+01 -0.11417613247E+01  0.19538022762E+02  0.20958008489E+02  0.00000000000E+00 0.  1.
</event>
<event>
 7    1  0.2412036E-009  0.4778727E+02  0.7816164E-02  0.1312668E+00
        -11   -1    0    0    0    0  0.00000000000E+00  0.00000000000E+00  0.45593999997E+02  0.45594000000E+02  0.51100000000E-03 0.  1.
         11   -1    0    0    0    0 -0.00000000000E+00 -0.00000000000E+00 -0.45593999997E+02  0.45594000000E+02  0.51100000000E-03 0. -1.
    9900012    2    1    2    0    0  0.30991935591E+02 -0.12772934914E+02  0.27567648746E+02  0.47787271949E+02  0.20000004122E+02 0.  0.
         12    1    1    2    0    0 -0.30991935591E+02  0.12772934914E+02 -0.27567648746E+02  0.43400728051E+02  0.00000000000E+00 0. -1.
         11    1    3    3    0    0 -0.78159134844E+00  0.28859150910E+01  0.32683303572E+01  0.44296020739E+01  0.51100000000E-03 0. -1.
        -11    1    3    3    0    0  0.15558807478E+02 -0.10912563213E+02  0.12370042440E+02  0.22675503881E+02  0.51100000000E-03 0.  1.
        -12    1    3    3    0    0  0.16214719462E+02 -0.47462867915E+01  0.11929275950E+02  0.20682165994E+02  0.00000000000E+00 0.  1.
</event>
<event>
 7    1  0.2412036E-009  0.4778728E+02  0.7816164E-02  0.1312668E+00
        -11   -1    0    0    0    0  0.00000000000E+00  0.00000000000E+00  0.45593999997E+02  0.45594000000E+02  0.51100000000E-03 0.  1.
         11   -1    0    0    0    0 -0.00000000000E+00 -0.00000000000E+00 -0.45593999997E+02  0.45594000000E+02  0.51100000000E-03 0. -1.
    9900012    2    1    2    0    0  0.38850858349E+02 -0.18846690732E+02  0.43630076333E+01  0.47787276715E+02  0.20000025856E+02 0.  0.
         12    1    1    2    0    0 -0.38850858349E+02  0.18846690732E+02 -0.43630076333E+01  0.43400723285E+02  0.00000000000E+00 0. -1.
         11    1    3    3    0    0  0.48466119860E+01 -0.83664071107E+01  0.55781886261E+01  0.11162553664E+02  0.51100000000E-03 0. -1.
        -11    1    3    3    0    0  0.68056078804E+01 -0.74314105669E+00  0.29170555386E+01  0.74416241861E+01  0.51100000000E-03 0.  1.
         12    1    3    3    0    0  0.27198638483E+02 -0.97371425649E+01 -0.41322365314E+01  0.29183098866E+02  0.00000000000E+00 0. -1.
</event>
<event>
 7    1  0.2412036E-009  0.4778727E+02  0.7816164E-02  0.1312668E+00
        -11   -1    0    0    0    0  0.00000000000E+00  0.00000000000E+00  0.45593999997E+02  0.45594000000E+02  0.51100000000E-03 0.  1.
         11   -1    0    0    0    0 -0.00000000000E+00 -0.00000000000E+00 -0.45593999997E+02  0.45594000000E+02  0.51100000000E-03 0. -1.
    9900012    2    1    2    0    0 -0.21538942320E+02  0.37519162397E+02 -0.34654847947E+01  0.47787272263E+02  0.20000005556E+02 0.  0.
         12    1    1    2    0    0  0.21538942320E+02 -0.37519162397E+02  0.34654847947E+01  0.43400727737E+02  0.00000000000E+00 0. -1.
         11    1    3    3    0    0  0.20760986062E+01  0.15325278644E+01  0.16843802225E+01  0.30815522181E+01  0.51100000000E-03 0. -1.
        -11    1    3    3    0    0 -0.15131721808E+02  0.16796720291E+02  0.16033314908E+01  0.22664277830E+02  0.51100000000E-03 0.  1.
         12    1    3    3    0    0 -0.84833191181E+01  0.19189914242E+02 -0.67531965080E+01  0.22041442215E+02  0.00000000000E+00 0. -1.
</event>
<event>
 7    1  0.2412036E-009  0.4778730E+02  0.7816164E-02  0.1312668E+00
        -11   -1    0    0    0    0  0.00000000000E+00  0.00000000000E+00  0.45593999997E+02  0.45594000000E+02  0.51100000000E-03 0.  1.
         11   -1    0    0    0    0 -0.00000000000E+00 -0.00000000000E+00 -0.45593999997E+02  0.45594000000E+02  0.51100000000E-03 0. -1.
    9900012    2    1    2    0    0  0.31760239193E+02  0.11464903646E+02  0.27266541423E+02  0.47787296200E+02  0.20000114692E+02 0.  0.
         12    1    1    2    0    0 -0.31760239193E+02 -0.11464903646E+02 -0.27266541423E+02  0.43400703800E+02  0.00000000000E+00 0. -1.
         11    1    3    3    0    0  0.14186467637E+01  0.39388777221E+01  0.24943027295E-01  0.41866381221E+01  0.51100000000E-03 0. -1.
        -11    1    3    3    0    0  0.23663986323E+02  0.10109574858E+02  0.25509261988E+02  0.36234102720E+02  0.51100000000E-03 0.  1.
         12    1    3    3    0    0  0.66776061060E+01 -0.25835489344E+01  0.17323364081E+01  0.73665553574E+01  0.00000000000E+00 0. -1.
</event>
<event>
 7    1  0.2412036E-009  0.4778727E+02  0.7816164E-02  0.1312668E+00
        -11   -1    0    0    0    0  0.00000000000E+00  0.00000000000E+00  0.45593999997E+02  0.45594000000E+02  0.51100000000E-03 0. -1.
         11   -1    0    0    0    0 -0.00000000000E+00 -0.00000000000E+00 -0.45593999997E+02  0.45594000000E+02  0.51100000000E-03 0.  1.
    9900012    2    1    2    0    0 -0.77384599202E+01 -0.38174621023E+02 -0.19142565793E+02  0.47787271004E+02  0.19999999818E+02 0.  0.
         12    1    1    2    0    0  0.77384599202E+01  0.38174621023E+02  0.19142565793E+02  0.43400728996E+02  0.00000000000E+00 0. -1.
         11    1    3    3    0    0 -0.21502348087E+01 -0.61931494702E+01 -0.10708735199E+02  0.12556098913E+02  0.51100000000E-03 0. -1.
        -11    1    3    3    0    0 -0.20805425950E+01 -0.29891170631E+02 -0.62794823166E+01  0.30614418786E+02  0.51100000000E-03 0.  1.
         12    1    3    3    0    0 -0.35076825165E+01 -0.20903009219E+01 -0.21543482771E+01  0.46167533051E+01  0.00000000000E+00 0. -1.
</event>
<event>
 7    1  0.2412036E-009  0.4778728E+02  0.7816164E-02  0.1312668E+00
        -11   -1    0    0    0    0  0.00000000000E+00  0.00000000000E+00  0.45593999997E+02  0.45594000000E+02  0.51100000000E-03 0. -1.
         11   -1    0    0    0    0 -0.00000000000E+00 -0.00000000000E+00 -0.45593999997E+02  0.45594000000E+02  0.51100000000E-03 0.  1.
    9900012    2    1    2    0    0 -0.29110028838E+02  0.18352538375E+02 -0.26446420442E+02  0.47787278831E+02  0.20000035504E+02 0.  0.
         12    1    1    2    0    0  0.29110028838E+02 -0.18352538375E+02  0.26446420442E+02  0.43400721169E+02  0.00000000000E+00 0. -1.
         11    1    3    3    0    0 -0.26410723528E+02  0.10012681793E+02 -0.15135983858E+02  0.32044939094E+02  0.51100000000E-03 0.  1.
        -11    1    3    3    0    0 -0.12592715230E+01  0.89363904556E+01 -0.79054300599E+01  0.11997527405E+02  0.51100000000E-03 0. -1.
         12    1    3    3    0    0 -0.14400337875E+01 -0.59653387393E+00 -0.34050065243E+01  0.37448123320E+01  0.00000000000E+00 0. -1.
</event>
<event>
 7    1  0.2412036E-009  0.4778728E+02  0.7816164E-02  0.1312668E+00
        -11   -1    0    0    0    0  0.00000000000E+00  0.00000000000E+00  0.45593999997E+02  0.45594000000E+02  0.51100000000E-03 0. -1.
         11   -1    0    0    0    0 -0.00000000000E+00 -0.00000000000E+00 -0.45593999997E+02  0.45594000000E+02  0.51100000000E-03 0.  1.
    9900012    2    1    2    0    0  0.41219444647E+02 -0.26484279486E+01  0.13325391650E+02  0.47787275925E+02  0.20000022251E+02 0.  0.
         12    1    1    2    0    0 -0.41219444647E+02  0.26484279486E+01 -0.13325391650E+02  0.43400724075E+02  0.00000000000E+00 0. -1.
         11    1    3    3    0    0  0.14128513382E+01 -0.51431878245E+01  0.17265093867E+01  0.56061898671E+01  0.51100000000E-03 0. -1.
        -11    1    3    3    0    0  0.13437329295E+02  0.37451222513E+01  0.20044457464E+01  0.14092748570E+02  0.51100000000E-03 0.  1.
         12    1    3    3    0    0  0.26369264014E+02 -0.12503623754E+01  0.95944365170E+01  0.28088337488E+02  0.00000000000E+00 0. -1.
</event>
<event>
 7    1  0.2412036E-009  0.4778726E+02  0.7816164E-02  0.1312668E+00
        -11   -1    0    0    0    0  0.00000000000E+00  0.00000000000E+00  0.45593999997E+02  0.45594000000E+02  0.51100000000E-03 0.  1.
         11   -1    0    0    0    0 -0.00000000000E+00 -0.00000000000E+00 -0.45593999997E+02  0.45594000000E+02  0.51100000000E-03 0. -1.
    9900012    2    1    2    0    0  0.86408169019E+01 -0.13255424259E+02  0.40413538467E+02  0.47787261752E+02  0.19999957631E+02 0.  0.
         12    1    1    2    0    0 -0.86408169019E+01  0.13255424259E+02 -0.40413538467E+02  0.43400738248E+02  0.00000000000E+00 0. -1.
         11    1    3    3    0    0 -0.40380262739E+01 -0.15815910591E+01  0.16744664493E+02  0.17297134899E+02  0.51100000000E-03 0. -1.
        -11    1    3    3    0    0  0.91382835194E+01 -0.32080308257E+01  0.15074475151E+02  0.17917574858E+02  0.51100000000E-03 0.  1.
         12    1    3    3    0    0  0.35405596564E+01 -0.84658023745E+01  0.85943988238E+01  0.12572551995E+02  0.00000000000E+00 0. -1.
</event>
<event>
 7    1  0.2412036E-009  0.4778727E+02  0.7816164E-02  0.1312668E+00
        -11   -1    0    0    0    0  0.00000000000E+00  0.00000000000E+00  0.45593999997E+02  0.45594000000E+02  0.51100000000E-03 0.  1.
         11   -1    0    0    0    0 -0.00000000000E+00 -0.00000000000E+00 -0.45593999997E+02  0.45594000000E+02  0.51100000000E-03 0. -1.
    9900012    2    1    2    0    0  0.38393449641E+02  0.19709397410E+02  0.45941047699E+01  0.47787272815E+02  0.20000008071E+02 0.  0.
         12    1    1    2    0    0 -0.38393449641E+02 -0.19709397410E+02 -0.45941047699E+01  0.43400727185E+02  0.00000000000E+00 0. -1.
         11    1    3    3    0    0  0.89923401267E+01 -0.71369649910E+00  0.67005686532E+01  0.11236955290E+02  0.51100000000E-03 0. -1.
        -11    1    3    3    0    0  0.77135194811E+01  0.26800655146E+01  0.14865955667E+01  0.83000663002E+01  0.51100000000E-03 0.  1.
         12    1    3    3    0    0  0.21687590033E+02  0.17743028394E+02 -0.35930594500E+01  0.28250251225E+02  0.00000000000E+00 0. -1.
</event>
<event>
 7    1  0.2412036E-009  0.4778727E+02  0.7816164E-02  0.1312668E+00
        -11   -1    0    0    0    0  0.00000000000E+00  0.00000000000E+00  0.45593999997E+02  0.45594000000E+02  0.51100000000E-03 0.  1.
         11   -1    0    0    0    0 -0.00000000000E+00 -0.00000000000E+00 -0.45593999997E+02  0.45594000000E+02  0.51100000000E-03 0. -1.
    9900012    2    1    2    0    0  0.11853157116E+02  0.19149976319E+02  0.37099924062E+02  0.47787270835E+02  0.19999999045E+02 0.  0.
         12    1    1    2    0    0 -0.11853157116E+02 -0.19149976319E+02 -0.37099924062E+02  0.43400729165E+02  0.00000000000E+00 0. -1.
         11    1    3    3    0    0  0.22110836344E+01  0.12756131869E+02  0.69626751295E+01  0.14699885588E+02  0.51100000000E-03 0. -1.
        -11    1    3    3    0    0  0.10236131572E+02  0.56371441911E+01  0.22160331268E+02  0.25052665853E+02  0.51100000000E-03 0.  1.
         12    1    3    3    0    0 -0.59405809045E+00  0.75670025892E+00  0.79769176653E+01  0.80347193937E+01  0.00000000000E+00 0. -1.
</event>
<event>
 7    1  0.2412036E-009  0.4778727E+02  0.7816164E-02  0.1312668E+00
        -11   -1    0    0    0    0  0.00000000000E+00  0.00000000000E+00  0.45593999997E+02  0.45594000000E+02  0.51100000000E-03 0.  1.
         11   -1    0    0    0    0 -0.00000000000E+00 -0.00000000000E+00 -0.45593999997E+02  0.45594000000E+02  0.51100000000E-03 0. -1.
    9900012    2    1    2    0    0  0.61620740615E+01  0.27731294150E+02  0.32811999372E+02  0.47787272647E+02  0.20000007308E+02 0.  0.
         12    1    1    2    0    0 -0.61620740615E+01 -0.27731294150E+02 -0.32811999372E+02  0.43400727353E+02  0.00000000000E+00 0. -1.
         11    1    3    3    0    0  0.12589584823E+01 -0.87929610148E-01  0.29457128157E+01  0.32046735139E+01  0.51100000000E-03 0. -1.
        -11    1    3    3    0    0 -0.29753599461E+01  0.18797365870E+02  0.25532595644E+02  0.31845049396E+02  0.51100000000E-03 0.  1.
        -12    1    3    3    0    0  0.78784755253E+01  0.90218578893E+01  0.43336909124E+01  0.12737549737E+02  0.00000000000E+00 0.  1.
</event>
<event>
 7    1  0.2412036E-009  0.4778727E+02  0.7816164E-02  0.1312668E+00
        -11   -1    0    0    0    0  0.00000000000E+00  0.00000000000E+00  0.45593999997E+02  0.45594000000E+02  0.51100000000E-03 0. -1.
         11   -1    0    0    0    0 -0.00000000000E+00 -0.00000000000E+00 -0.45593999997E+02  0.45594000000E+02  0.51100000000E-03 0.  1.
    9900012    2    1    2    0    0 -0.40003708893E+02 -0.16755385100E+02 -0.16074070446E+01  0.47787269448E+02  0.19999992722E+02 0.  0.
         12    1    1    2    0    0  0.40003708893E+02  0.16755385100E+02  0.16074070446E+01  0.43400730552E+02  0.00000000000E+00 0. -1.
         11    1    3    3    0    0 -0.25453761558E+02 -0.36932370606E+01 -0.88872354288E+00  0.25735652454E+02  0.51100000000E-03 0.  1.
        -11    1    3    3    0    0 -0.13797631743E+01 -0.71799772718E+01  0.14837180223E+01  0.74603779711E+01  0.51100000000E-03 0. -1.
         12    1    3    3    0    0 -0.13170184160E+02 -0.58821707671E+01 -0.22024015241E+01  0.14591239023E+02  0.00000000000E+00 0. -1.
</event>
<event>
 7    1  0.2412036E-009  0.4778727E+02  0.7816164E-02  0.1312668E+00
        -11   -1    0    0    0    0  0.00000000000E+00  0.00000000000E+00  0.45593999997E+02  0.45594000000E+02  0.51100000000E-03 0.  1.
         11   -1    0    0    0    0 -0.00000000000E+00 -0.00000000000E+00 -0.45593999997E+02  0.45594000000E+02  0.51100000000E-03 0. -1.
    9900012    2    1    2    0    0 -0.88699498696E+01  0.23383870043E+02  0.35470294930E+02  0.47787271766E+02  0.20000003289E+02 0.  0.
         12    1    1    2    0    0  0.88699498696E+01 -0.23383870043E+02 -0.35470294930E+02  0.43400728234E+02  0.00000000000E+00 0. -1.
         11    1    3    3    0    0 -0.41274708108E+01  0.35614729954E+01  0.33586802681E+01  0.64031897204E+01  0.51100000000E-03 0. -1.
        -11    1    3    3    0    0 -0.35921241352E+00 -0.20909932099E+01  0.89543978325E+01  0.92023109579E+01  0.51100000000E-03 0.  1.
        -12    1    3    3    0    0 -0.43832666452E+01  0.21913390257E+02  0.23157216829E+02  0.32181771087E+02  0.00000000000E+00 0.  1.
</event>
<event>
 7    1  0.2412036E-009  0.4778727E+02  0.7816164E-02  0.1312668E+00
        -11   -1    0    0    0    0  0.00000000000E+00  0.00000000000E+00  0.45593999997E+02  0.45594000000E+02  0.51100000000E-03 0.  1.
         11   -1    0    0    0    0 -0.00000000000E+00 -0.00000000000E+00 -0.45593999997E+02  0.45594000000E+02  0.51100000000E-03 0. -1.
    9900012    2    1    2    0    0  0.37121048412E+01 -0.37420464951E+02  0.21669157983E+02  0.47787270431E+02  0.19999997201E+02 0.  0.
         12    1    1    2    0    0 -0.37121048412E+01  0.37420464951E+02 -0.21669157983E+02  0.43400729569E+02  0.00000000000E+00 0. -1.
         11    1    3    3    0    0  0.59249665369E+01 -0.67071394451E+01  0.74215912760E+01  0.11626304887E+02  0.51100000000E-03 0. -1.
        -11    1    3    3    0    0 -0.54023568759E+01 -0.55064518472E+01  0.20779591506E+01  0.79890166011E+01  0.51100000000E-03 0.  1.
        -12    1    3    3    0    0  0.31894951801E+01 -0.25206873658E+02  0.12169607556E+02  0.28171948942E+02  0.00000000000E+00 0.  1.
</event>
<event>
 7    1  0.2412036E-009  0.4778728E+02  0.7816164E-02  0.1312668E+00
        -11   -1    0    0    0    0  0.00000000000E+00  0.00000000000E+00  0.45593999997E+02  0.45594000000E+02  0.51100000000E-03 0.  1.
         11   -1    0    0    0    0 -0.00000000000E+00 -0.00000000000E+00 -0.45593999997E+02  0.45594000000E+02  0.51100000000E-03 0. -1.
    9900012    2    1    2    0    0  0.43356346006E+02 -0.10448993725E+01  0.16606883283E+01  0.47787280658E+02  0.20000043833E+02 0.  0.
         12    1    1    2    0    0 -0.43356346006E+02  0.10448993725E+01 -0.16606883283E+01  0.43400719342E+02  0.00000000000E+00 0. -1.
         11    1    3    3    0    0  0.17176564135E+01 -0.48832252774E+01  0.17430468456E+01  0.54620916536E+01  0.51100000000E-03 0. -1.
        -11    1    3    3    0    0  0.20660209774E+02  0.72745109254E+00  0.30171073370E+01  0.20892017374E+02  0.51100000000E-03 0.  1.
         12    1    3    3    0    0  0.20978479818E+02  0.31108748124E+01 -0.30994658543E+01  0.21433171631E+02  0.00000000000E+00 0. -1.
</event>
<event>
 7    1  0.2412036E-009  0.4778729E+02  0.7816164E-02  0.1312668E+00
        -11   -1    0    0    0    0  0.00000000000E+00  0.00000000000E+00  0.45593999997E+02  0.45594000000E+02  0.51100000000E-03 0.  1.
         11   -1    0    0    0    0 -0.00000000000E+00 -0.00000000000E+00 -0.45593999997E+02  0.45594000000E+02  0.51100000000E-03 0. -1.
    9900012    2    1    2    0    0 -0.36071441912E+02  0.64343805013E+01  0.23260949854E+02  0.47787286156E+02  0.20000068900E+02 0.  0.
         12    1    1    2    0    0  0.36071441912E+02 -0.64343805013E+01 -0.23260949854E+02  0.43400713844E+02  0.00000000000E+00 0. -1.
         11    1    3    3    0    0 -0.13871003290E+02 -0.11256313381E+01  0.49886643814E+00  0.13925539350E+02  0.51100000000E-03 0. -1.
        -11    1    3    3    0    0 -0.97934679391E+01  0.77711345500E+01  0.13327801673E+02  0.18273829488E+02  0.51100000000E-03 0.  1.
        -12    1    3    3    0    0 -0.12406970682E+02 -0.21112271070E+00  0.94342817430E+01  0.15587917318E+02  0.00000000000E+00 0.  1.
</event>
<event>
 7    1  0.2412036E-009  0.4778727E+02  0.7816164E-02  0.1312668E+00
        -11   -1    0    0    0    0  0.00000000000E+00  0.00000000000E+00  0.45593999997E+02  0.45594000000E+02  0.51100000000E-03 0.  1.
         11   -1    0    0    0    0 -0.00000000000E+00 -0.00000000000E+00 -0.45593999997E+02  0.45594000000E+02  0.51100000000E-03 0. -1.
    9900012    2    1    2    0    0 -0.35925422006E+02  0.16309565626E+02  0.18082733677E+02  0.47787272651E+02  0.20000007326E+02 0.  0.
         12    1    1    2    0    0  0.35925422006E+02 -0.16309565626E+02 -0.18082733677E+02  0.43400727349E+02  0.00000000000E+00 0. -1.
         11    1    3    3    0    0 -0.38975020149E+00  0.51901010486E+01  0.10580289599E+01  0.53111655647E+01  0.51100000000E-03 0. -1.
        -11    1    3    3    0    0 -0.28669987805E+02  0.13443200237E+02  0.13998912947E+02  0.34621631927E+02  0.51100000000E-03 0.  1.
         12    1    3    3    0    0 -0.68656839996E+01 -0.23237356597E+01  0.30257917697E+01  0.78544751596E+01  0.00000000000E+00 0. -1.
</event>
<event>
 7    1  0.2412036E-009  0.4778728E+02  0.7816164E-02  0.1312668E+00
        -11   -1    0    0    0    0  0.00000000000E+00  0.00000000000E+00  0.45593999997E+02  0.45594000000E+02  0.51100000000E-03 0.  1.
         11   -1    0    0    0    0 -0.00000000000E+00 -0.00000000000E+00 -0.45593999997E+02  0.45594000000E+02  0.51100000000E-03 0. -1.
    9900012    2    1    2    0    0  0.29814865042E+02 -0.23412450388E+02  0.21131810267E+02  0.47787280930E+02  0.20000045071E+02 0.  0.
         12    1    1    2    0    0 -0.29814865042E+02  0.23412450388E+02 -0.21131810267E+02  0.43400719070E+02  0.00000000000E+00 0. -1.
         11    1    3    3    0    0  0.13724341869E+02 -0.14976402469E+01  0.26489311789E+01  0.14057642857E+02  0.51100000000E-03 0. -1.
        -11    1    3    3    0    0  0.68847726144E+01 -0.12288521335E+02  0.13494313832E+02  0.19506520874E+02  0.51100000000E-03 0.  1.
        -12    1    3    3    0    0  0.92057505591E+01 -0.96262888069E+01  0.49885652560E+01  0.14223117199E+02  0.00000000000E+00 0.  1.
</event>
<event>
 7    1  0.2412036E-009  0.4778727E+02  0.7816164E-02  0.1312668E+00
        -11   -1    0    0    0    0  0.00000000000E+00  0.00000000000E+00  0.45593999997E+02  0.45594000000E+02  0.51100000000E-03 0.  1.
         11   -1    0    0    0    0 -0.00000000000E+00 -0.00000000000E+00 -0.45593999997E+02  0.45594000000E+02  0.51100000000E-03 0. -1.
    9900012    2    1    2    0    0  0.17982317467E+02  0.12620576167E+02  0.37429674166E+02  0.47787271983E+02  0.20000004279E+02 0.  0.
         12    1    1    2    0    0 -0.17982317467E+02 -0.12620576167E+02 -0.37429674166E+02  0.43400728017E+02  0.00000000000E+00 0. -1.
         11    1    3    3    0    0 -0.28274872997E+01  0.73662517942E+00  0.54749205681E+01  0.62058082933E+01  0.51100000000E-03 0. -1.
        -11    1    3    3    0    0  0.15176262904E+02  0.51352925704E+01  0.12803809338E+02  0.20509210598E+02  0.51100000000E-03 0.  1.
        -12    1    3    3    0    0  0.56335418625E+01  0.67486584168E+01  0.19150944259E+02  0.21072253092E+02  0.00000000000E+00 0.  1.
</event>
<event>
 7    1  0.2412036E-009  0.4778727E+02  0.7816164E-02  0.1312668E+00
        -11   -1    0    0    0    0  0.00000000000E+00  0.00000000000E+00  0.45593999997E+02  0.45594000000E+02  0.51100000000E-03 0.  1.
         11   -1    0    0    0    0 -0.00000000000E+00 -0.00000000000E+00 -0.45593999997E+02  0.45594000000E+02  0.51100000000E-03 0. -1.
    9900012    2    1    2    0    0  0.13038672921E+02 -0.41129061049E+02 -0.46921928818E+01  0.47787270417E+02  0.19999997139E+02 0.  0.
         12    1    1    2    0    0 -0.13038672921E+02  0.41129061049E+02  0.46921928818E+01  0.43400729583E+02  0.00000000000E+00 0. -1.
         11    1    3    3    0    0  0.12464424490E-01 -0.24258504897E+02 -0.28287683104E+01  0.24422881599E+02  0.51100000000E-03 0. -1.
        -11    1    3    3    0    0  0.13838897221E+02 -0.17119218600E+02 -0.83340498538E+00  0.22029010098E+02  0.51100000000E-03 0.  1.
         12    1    3    3    0    0 -0.81268872451E+00  0.24866244849E+00 -0.10300195860E+01  0.13353787192E+01  0.00000000000E+00 0. -1.
</event>
<event>
 7    1  0.2412036E-009  0.4778727E+02  0.7816164E-02  0.1312668E+00
        -11   -1    0    0    0    0  0.00000000000E+00  0.00000000000E+00  0.45593999997E+02  0.45594000000E+02  0.51100000000E-03 0.  1.
         11   -1    0    0    0    0 -0.00000000000E+00 -0.00000000000E+00 -0.45593999997E+02  0.45594000000E+02  0.51100000000E-03 0. -1.
    9900012    2    1    2    0    0 -0.16803454118E+02  0.30977821473E+02  0.25330647649E+02  0.47787271851E+02  0.20000003679E+02 0.  0.
         12    1    1    2    0    0  0.16803454118E+02 -0.30977821473E+02 -0.25330647649E+02  0.43400728149E+02  0.00000000000E+00 0. -1.
         11    1    3    3    0    0 -0.15058745008E+02  0.22431258790E+02  0.15754261483E+02  0.31274972858E+02  0.51100000000E-03 0. -1.
        -11    1    3    3    0    0  0.83210601953E+00  0.30748871975E+01  0.99551412019E+01  0.10452376204E+02  0.51100000000E-03 0.  1.
         12    1    3    3    0    0 -0.25768151300E+01  0.54716754858E+01 -0.37875503619E+00  0.60599227894E+01  0.00000000000E+00 0. -1.
</event>
<event>
 7    1  0.2412036E-009  0.4778727E+02  0.7816164E-02  0.1312668E+00
        -11   -1    0    0    0    0  0.00000000000E+00  0.00000000000E+00  0.45593999997E+02  0.45594000000E+02  0.51100000000E-03 0.  1.
         11   -1    0    0    0    0 -0.00000000000E+00 -0.00000000000E+00 -0.45593999997E+02  0.45594000000E+02  0.51100000000E-03 0. -1.
    9900012    2    1    2    0    0  0.41505451522E+02 -0.11415440551E+02  0.55325093980E+01  0.47787269024E+02  0.19999990787E+02 0.  0.
         12    1    1    2    0    0 -0.41505451522E+02  0.11415440551E+02 -0.55325093980E+01  0.43400730976E+02  0.00000000000E+00 0. -1.
         11    1    3    3    0    0  0.94844196815E+01 -0.51960692489E+01 -0.40945072847E+01  0.11563664752E+02  0.51100000000E-03 0. -1.
        -11    1    3    3    0    0  0.30260175763E+02 -0.70928654669E+01  0.11844120834E+02  0.33260640046E+02  0.51100000000E-03 0.  1.
        -12    1    3    3    0    0  0.17608560780E+01  0.87349416449E+00 -0.22171041509E+01  0.29629642251E+01  0.00000000000E+00 0.  1.
</event>
<event>
 7    1  0.2412036E-009  0.4778728E+02  0.7816164E-02  0.1312668E+00
        -11   -1    0    0    0    0  0.00000000000E+00  0.00000000000E+00  0.45593999997E+02  0.45594000000E+02  0.51100000000E-03 0.  1.
         11   -1    0    0    0    0 -0.00000000000E+00 -0.00000000000E+00 -0.45593999997E+02  0.45594000000E+02  0.51100000000E-03 0. -1.
    9900012    2    1    2    0    0 -0.41953862432E+02 -0.14213117292E+01  0.11021595848E+02  0.47787282551E+02  0.20000052465E+02 0.  0.
         12    1    1    2    0    0  0.41953862432E+02  0.14213117292E+01 -0.11021595848E+02  0.43400717449E+02  0.00000000000E+00 0. -1.
         11    1    3    3    0    0  0.97616973362E+00 -0.13333961110E+01 -0.62185370400E+00  0.17656598846E+01  0.51100000000E-03 0. -1.
        -11    1    3    3    0    0 -0.35979531545E+02 -0.23427476139E+01  0.13470003593E+02  0.38489688926E+02  0.51100000000E-03 0.  1.
        -12    1    3    3    0    0 -0.69505006211E+01  0.22548319957E+01 -0.18265540412E+01  0.75319337410E+01  0.00000000000E+00 0.  1.
</event>
<event>
 7    1  0.2412036E-009  0.4778728E+02  0.7816164E-02  0.1312668E+00
        -11   -1    0    0    0    0  0.00000000000E+00  0.00000000000E+00  0.45593999997E+02  0.45594000000E+02  0.51100000000E-03 0.  1.
         11   -1    0    0    0    0 -0.00000000000E+00 -0.00000000000E+00 -0.45593999997E+02  0.45594000000E+02  0.51100000000E-03 0. -1.
    9900012    2    1    2    0    0  0.16913663413E+02 -0.18924368021E+02  0.35205383507E+02  0.47787277162E+02  0.20000027890E+02 0.  0.
         12    1    1    2    0    0 -0.16913663413E+02  0.18924368021E+02 -0.35205383507E+02  0.43400722838E+02  0.00000000000E+00 0. -1.
         11    1    3    3    0    0  0.16249538522E+02 -0.19977857491E+02  0.25876782361E+02  0.36507124753E+02  0.51100000000E-03 0.  1.
        -11    1    3    3    0    0  0.10265267779E+01 -0.24194902534E+01  0.55160366543E+01  0.61101841989E+01  0.51100000000E-03 0. -1.
         12    1    3    3    0    0 -0.36240188696E+00  0.34729797234E+01  0.38125644914E+01  0.51699682096E+01  0.00000000000E+00 0. -1.
</event>
<event>
 7    1  0.2412036E-009  0.4778728E+02  0.7816164E-02  0.1312668E+00
        -11   -1    0    0    0    0  0.00000000000E+00  0.00000000000E+00  0.45593999997E+02  0.45594000000E+02  0.51100000000E-03 0.  1.
         11   -1    0    0    0    0 -0.00000000000E+00 -0.00000000000E+00 -0.45593999997E+02  0.45594000000E+02  0.51100000000E-03 0. -1.
    9900012    2    1    2    0    0  0.15554003893E+02 -0.26569207172E+02  0.30590407991E+02  0.47787275721E+02  0.20000021323E+02 0.  0.
         12    1    1    2    0    0 -0.15554003893E+02  0.26569207172E+02 -0.30590407991E+02  0.43400724279E+02  0.00000000000E+00 0. -1.
         11    1    3    3    0    0  0.38878816582E+01 -0.10289912515E+02  0.73296358830E+00  0.11024298583E+02  0.51100000000E-03 0. -1.
        -11    1    3    3    0    0  0.22400669084E+01 -0.85370078143E+01  0.16222516149E+02  0.18468038137E+02  0.51100000000E-03 0.  1.
         12    1    3    3    0    0  0.94260553262E+01 -0.77422868429E+01  0.13634928254E+02  0.18294939001E+02  0.00000000000E+00 0. -1.
</event>
<event>
 7    1  0.2412036E-009  0.4778727E+02  0.7816164E-02  0.1312668E+00
        -11   -1    0    0    0    0  0.00000000000E+00  0.00000000000E+00  0.45593999997E+02  0.45594000000E+02  0.51100000000E-03 0. -1.
         11   -1    0    0    0    0 -0.00000000000E+00 -0.00000000000E+00 -0.45593999997E+02  0.45594000000E+02  0.51100000000E-03 0.  1.
    9900012    2    1    2    0    0 -0.19645892925E+02 -0.82308472105E+01 -0.37814223311E+02  0.47787269140E+02  0.19999991315E+02 0.  0.
         12    1    1    2    0    0  0.19645892925E+02  0.82308472105E+01  0.37814223311E+02  0.43400730860E+02  0.00000000000E+00 0. -1.
         11    1    3    3    0    0 -0.44827949927E+01 -0.77983068946E+01 -0.18633193305E+02  0.20690696808E+02  0.51100000000E-03 0. -1.
        -11    1    3    3    0    0 -0.28611934864E+01 -0.26217124395E+01 -0.12159399181E+02  0.12763651240E+02  0.51100000000E-03 0.  1.
         12    1    3    3    0    0 -0.12301904446E+02  0.21891721237E+01 -0.70216308244E+01  0.14332921092E+02  0.00000000000E+00 0. -1.
</event>
<event>
 7    1  0.2412036E-009  0.4778727E+02  0.7816164E-02  0.1312668E+00
        -11   -1    0    0    0    0  0.00000000000E+00  0.00000000000E+00  0.45593999997E+02  0.45594000000E+02  0.51100000000E-03 0.  1.
         11   -1    0    0    0    0 -0.00000000000E+00 -0.00000000000E+00 -0.45593999997E+02  0.45594000000E+02  0.51100000000E-03 0. -1.
    9900012    2    1    2    0    0  0.11293446336E+02  0.40909664184E+02  0.90818905653E+01  0.47787270859E+02  0.19999999153E+02 0.  0.
         12    1    1    2    0    0 -0.11293446336E+02 -0.40909664184E+02 -0.90818905653E+01  0.43400729141E+02  0.00000000000E+00 0. -1.
         11    1    3    3    0    0 -0.82124290012E+00  0.10080479443E+00 -0.73431357656E-01  0.83065873437E+00  0.51100000000E-03 0. -1.
        -11    1    3    3    0    0  0.90317399479E+00  0.16842394615E+02 -0.41073737654E+01  0.17359507456E+02  0.51100000000E-03 0.  1.
        -12    1    3    3    0    0  0.11211515241E+02  0.23966464775E+02  0.13262695688E+02  0.29597104668E+02  0.00000000000E+00 0.  1.
</event>
<event>
 7    1  0.2412036E-009  0.4778727E+02  0.7816164E-02  0.1312668E+00
        -11   -1    0    0    0    0  0.00000000000E+00  0.00000000000E+00  0.45593999997E+02  0.45594000000E+02  0.51100000000E-03 0.  1.
         11   -1    0    0    0    0 -0.00000000000E+00 -0.00000000000E+00 -0.45593999997E+02  0.45594000000E+02  0.51100000000E-03 0. -1.
    9900012    2    1    2    0    0  0.38944450805E+02 -0.19140535831E+02  0.77006766461E+00  0.47787269999E+02  0.19999995232E+02 0.  0.
         12    1    1    2    0    0 -0.38944450805E+02  0.19140535831E+02 -0.77006766461E+00  0.43400730001E+02  0.00000000000E+00 0. -1.
         11    1    3    3    0    0  0.12801781259E+02 -0.88911142599E+01 -0.65912075254E+01  0.16922811028E+02  0.51100000000E-03 0. -1.
        -11    1    3    3    0    0  0.26674699606E+02 -0.10815398996E+02  0.79820003578E+01  0.29870131980E+02  0.51100000000E-03 0.  1.
        -12    1    3    3    0    0 -0.53203006015E+00  0.56597742471E+00 -0.62072516772E+00  0.99432699050E+00  0.00000000000E+00 0.  1.
</event>
<event>
 7    1  0.2412036E-009  0.4778727E+02  0.7816164E-02  0.1312668E+00
        -11   -1    0    0    0    0  0.00000000000E+00  0.00000000000E+00  0.45593999997E+02  0.45594000000E+02  0.51100000000E-03 0.  1.
         11   -1    0    0    0    0 -0.00000000000E+00 -0.00000000000E+00 -0.45593999997E+02  0.45594000000E+02  0.51100000000E-03 0. -1.
    9900012    2    1    2    0    0  0.15952398317E+02 -0.79194211085E+01  0.39578112815E+02  0.47787271241E+02  0.20000000898E+02 0.  0.
         12    1    1    2    0    0 -0.15952398317E+02  0.79194211085E+01 -0.39578112815E+02  0.43400728759E+02  0.00000000000E+00 0. -1.
         11    1    3    3    0    0 -0.12434852588E+01 -0.40701001888E+01  0.24717559682E+01  0.49215392880E+01  0.51100000000E-03 0. -1.
        -11    1    3    3    0    0  0.15382905954E+02 -0.76169233957E+01  0.27955072906E+02  0.32804533514E+02  0.51100000000E-03 0.  1.
        -12    1    3    3    0    0  0.18129776218E+01  0.37676024760E+01  0.91512839404E+01  0.10061198439E+02  0.00000000000E+00 0.  1.
</event>
<event>
 7    1  0.2412036E-009  0.4778729E+02  0.7816164E-02  0.1312668E+00
        -11   -1    0    0    0    0  0.00000000000E+00  0.00000000000E+00  0.45593999997E+02  0.45594000000E+02  0.51100000000E-03 0.  1.
         11   -1    0    0    0    0 -0.00000000000E+00 -0.00000000000E+00 -0.45593999997E+02  0.45594000000E+02  0.51100000000E-03 0. -1.
    9900012    2    1    2    0    0 -0.13162537029E+02  0.10405648738E+02  0.40026139499E+02  0.47787288602E+02  0.20000080051E+02 0.  0.
         12    1    1    2    0    0  0.13162537029E+02 -0.10405648738E+02 -0.40026139499E+02  0.43400711398E+02  0.00000000000E+00 0. -1.
         11    1    3    3    0    0  0.90508652277E+00  0.39280680572E+01  0.16230273959E+02  0.16723357717E+02  0.51100000000E-03 0. -1.
        -11    1    3    3    0    0 -0.16143535215E+02  0.53499059645E+01  0.17795926942E+02  0.24615650287E+02  0.51100000000E-03 0.  1.
        -12    1    3    3    0    0  0.20759116633E+01  0.11276747163E+01  0.59999385978E+01  0.64482805985E+01  0.00000000000E+00 0.  1.
</event>
<event>
 7    1  0.2412036E-009  0.4778727E+02  0.7816164E-02  0.1312668E+00
        -11   -1    0    0    0    0  0.00000000000E+00  0.00000000000E+00  0.45593999997E+02  0.45594000000E+02  0.51100000000E-03 0.  1.
         11   -1    0    0    0    0 -0.00000000000E+00 -0.00000000000E+00 -0.45593999997E+02  0.45594000000E+02  0.51100000000E-03 0. -1.
    9900012    2    1    2    0    0 -0.13968003708E+02  0.11635826835E+02  0.39409711646E+02  0.47787274594E+02  0.20000016185E+02 0.  0.
         12    1    1    2    0    0  0.13968003708E+02 -0.11635826835E+02 -0.39409711646E+02  0.43400725406E+02  0.00000000000E+00 0. -1.
         11    1    3    3    0    0  0.21338567050E+01  0.52092915602E+01  0.72791119081E+01  0.92019309620E+01  0.51100000000E-03 0. -1.
        -11    1    3    3    0    0 -0.13055025867E+02 -0.22192399134E+00  0.14579675610E+02  0.19571660425E+02  0.51100000000E-03 0.  1.
         12    1    3    3    0    0 -0.30468345462E+01  0.66484592660E+01  0.17550924128E+02  0.19013683207E+02  0.00000000000E+00 0. -1.
</event>
<event>
 7    1  0.2412036E-009  0.4778727E+02  0.7816164E-02  0.1312668E+00
        -11   -1    0    0    0    0  0.00000000000E+00  0.00000000000E+00  0.45593999997E+02  0.45594000000E+02  0.51100000000E-03 0.  1.
         11   -1    0    0    0    0 -0.00000000000E+00 -0.00000000000E+00 -0.45593999997E+02  0.45594000000E+02  0.51100000000E-03 0. -1.
    9900012    2    1    2    0    0 -0.30108243689E+02 -0.28086206690E+02  0.13721582351E+02  0.47787272282E+02  0.20000005642E+02 0.  0.
         12    1    1    2    0    0  0.30108243689E+02  0.28086206690E+02 -0.13721582351E+02  0.43400727718E+02  0.00000000000E+00 0. -1.
         11    1    3    3    0    0 -0.96804011828E+01 -0.13913054275E+02 -0.15096525903E+01  0.17016530126E+02  0.51100000000E-03 0. -1.
        -11    1    3    3    0    0 -0.10583743858E+02 -0.32800684664E+01  0.10704702634E+02  0.15406659013E+02  0.51100000000E-03 0.  1.
        -12    1    3    3    0    0 -0.98440986483E+01 -0.10893083949E+02  0.45265323069E+01  0.15364083143E+02  0.00000000000E+00 0.  1.
</event>
<event>
 7    1  0.2412036E-009  0.4778727E+02  0.7816164E-02  0.1312668E+00
        -11   -1    0    0    0    0  0.00000000000E+00  0.00000000000E+00  0.45593999997E+02  0.45594000000E+02  0.51100000000E-03 0.  1.
         11   -1    0    0    0    0 -0.00000000000E+00 -0.00000000000E+00 -0.45593999997E+02  0.45594000000E+02  0.51100000000E-03 0. -1.
    9900012    2    1    2    0    0 -0.34357626836E+02 -0.85067358815E+00  0.26503834047E+02  0.47787269747E+02  0.19999994083E+02 0.  0.
         12    1    1    2    0    0  0.34357626836E+02  0.85067358815E+00 -0.26503834047E+02  0.43400730253E+02  0.00000000000E+00 0. -1.
         11    1    3    3    0    0 -0.23016811049E+02  0.49116801139E+01  0.19668080583E+02  0.30671347973E+02  0.51100000000E-03 0.  1.
        -11    1    3    3    0    0 -0.16732228019E+01 -0.46745070383E+01 -0.41539668794E+00  0.49822931734E+01  0.51100000000E-03 0. -1.
         12    1    3    3    0    0 -0.96675929851E+01 -0.10878466638E+01  0.72511501512E+01  0.12133628600E+02  0.00000000000E+00 0. -1.
</event>
<event>
 7    1  0.2412036E-009  0.4778728E+02  0.7816164E-02  0.1312668E+00
        -11   -1    0    0    0    0  0.00000000000E+00  0.00000000000E+00  0.45593999997E+02  0.45594000000E+02  0.51100000000E-03 0. -1.
         11   -1    0    0    0    0 -0.00000000000E+00 -0.00000000000E+00 -0.45593999997E+02  0.45594000000E+02  0.51100000000E-03 0.  1.
    9900012    2    1    2    0    0  0.37062294585E+02  0.34741002032E+01 -0.22314556740E+02  0.47787280021E+02  0.20000040929E+02 0.  0.
         12    1    1    2    0    0 -0.37062294585E+02 -0.34741002032E+01  0.22314556740E+02  0.43400719979E+02  0.00000000000E+00 0. -1.
         11    1    3    3    0    0  0.53569987627E+01  0.17101695508E+00 -0.85847707876E+01  0.10120522332E+02  0.51100000000E-03 0. -1.
        -11    1    3    3    0    0  0.29824154476E+02  0.72584646276E+01 -0.11937845137E+02  0.32934444670E+02  0.51100000000E-03 0.  1.
        -12    1    3    3    0    0  0.18811413471E+01 -0.39553813794E+01 -0.17919408159E+01  0.47323130192E+01  0.00000000000E+00 0.  1.
</event>
<event>
 7    1  0.2412036E-009  0.4778727E+02  0.7816164E-02  0.1312668E+00
        -11   -1    0    0    0    0  0.00000000000E+00  0.00000000000E+00  0.45593999997E+02  0.45594000000E+02  0.51100000000E-03 0.  1.
         11   -1    0    0    0    0 -0.00000000000E+00 -0.00000000000E+00 -0.45593999997E+02  0.45594000000E+02  0.51100000000E-03 0. -1.
    9900012    2    1    2    0    0 -0.30751740530E+02  0.25846007788E+02  0.16429771198E+02  0.47787273672E+02  0.20000011980E+02 0.  0.
         12    1    1    2    0    0  0.30751740530E+02 -0.25846007788E+02 -0.16429771198E+02  0.43400726328E+02  0.00000000000E+00 0. -1.
         11    1    3    3    0    0 -0.19222654143E+01  0.28789618341E+01  0.51230218352E+01  0.61829506346E+01  0.51100000000E-03 0.  1.
        -11    1    3    3    0    0 -0.78148671246E+01 -0.44575709796E+00  0.56142984657E+01  0.96328186471E+01  0.51100000000E-03 0. -1.
        -12    1    3    3    0    0 -0.21014607991E+02  0.23412803051E+02  0.56924508970E+01  0.31971504390E+02  0.00000000000E+00 0.  1.
</event>
<event>
 7    1  0.2412036E-009  0.4778728E+02  0.7816164E-02  0.1312668E+00
        -11   -1    0    0    0    0  0.00000000000E+00  0.00000000000E+00  0.45593999997E+02  0.45594000000E+02  0.51100000000E-03 0.  1.
         11   -1    0    0    0    0 -0.00000000000E+00 -0.00000000000E+00 -0.45593999997E+02  0.45594000000E+02  0.51100000000E-03 0. -1.
    9900012    2    1    2    0    0  0.37140038885E+01  0.32654066483E+02  0.28346794734E+02  0.47787278181E+02  0.20000032538E+02 0.  0.
         12    1    1    2    0    0 -0.37140038885E+01 -0.32654066483E+02 -0.28346794734E+02  0.43400721819E+02  0.00000000000E+00 0. -1.
         11    1    3    3    0    0  0.61764124789E+01  0.21291356457E+01  0.35276891564E+01  0.74246805152E+01  0.51100000000E-03 0. -1.
        -11    1    3    3    0    0 -0.56254046983E+01  0.18761615135E+02  0.14065894714E+02  0.24114161293E+02  0.51100000000E-03 0.  1.
         12    1    3    3    0    0  0.31629961079E+01  0.11763315702E+02  0.10753210864E+02  0.16248436373E+02  0.00000000000E+00 0. -1.
</event>
<event>
 7    1  0.2412036E-009  0.4778727E+02  0.7816164E-02  0.1312668E+00
        -11   -1    0    0    0    0  0.00000000000E+00  0.00000000000E+00  0.45593999997E+02  0.45594000000E+02  0.51100000000E-03 0.  1.
         11   -1    0    0    0    0 -0.00000000000E+00 -0.00000000000E+00 -0.45593999997E+02  0.45594000000E+02  0.51100000000E-03 0. -1.
    9900012    2    1    2    0    0 -0.77140123372E+01  0.22450984386E+02  0.36332773321E+02  0.47787273008E+02  0.20000008953E+02 0.  0.
         12    1    1    2    0    0  0.77140123372E+01 -0.22450984386E+02 -0.36332773321E+02  0.43400726992E+02  0.00000000000E+00 0. -1.
         11    1    3    3    0    0  0.15996979474E+01  0.10191944844E+02  0.37573193887E+01  0.10979627611E+02  0.51100000000E-03 0. -1.
        -11    1    3    3    0    0 -0.97553627459E+01  0.79402679699E+01  0.21461821585E+02  0.24876188288E+02  0.51100000000E-03 0.  1.
        -12    1    3    3    0    0  0.44165246134E+00  0.43187715717E+01  0.11113632347E+02  0.11931457109E+02  0.00000000000E+00 0.  1.
</event>
<event>
 7    1  0.2412036E-009  0.4778726E+02  0.7816164E-02  0.1312668E+00
        -11   -1    0    0    0    0  0.00000000000E+00  0.00000000000E+00  0.45593999997E+02  0.45594000000E+02  0.51100000000E-03 0. -1.
         11   -1    0    0    0    0 -0.00000000000E+00 -0.00000000000E+00 -0.45593999997E+02  0.45594000000E+02  0.51100000000E-03 0.  1.
    9900012    2    1    2    0    0 -0.40409867692E+01  0.37836767630E+02 -0.20872787464E+02  0.47787264807E+02  0.19999971563E+02 0.  0.
         12    1    1    2    0    0  0.40409867692E+01 -0.37836767630E+02  0.20872787464E+02  0.43400735193E+02  0.00000000000E+00 0. -1.
         11    1    3    3    0    0  0.44263079550E+01  0.51748449144E+01 -0.37553616832E+01  0.77765007319E+01  0.51100000000E-03 0. -1.
        -11    1    3    3    0    0 -0.71389819623E+01  0.22003773629E+02 -0.47230700501E+01  0.23610135712E+02  0.51100000000E-03 0.  1.
        -12    1    3    3    0    0 -0.13283127619E+01  0.10658149086E+02 -0.12394355730E+02  0.16400628363E+02  0.00000000000E+00 0.  1.
</event>
<event>
 7    1  0.2412036E-009  0.4778726E+02  0.7816164E-02  0.1312668E+00
        -11   -1    0    0    0    0  0.00000000000E+00  0.00000000000E+00  0.45593999997E+02  0.45594000000E+02  0.51100000000E-03 0.  1.
         11   -1    0    0    0    0 -0.00000000000E+00 -0.00000000000E+00 -0.45593999997E+02  0.45594000000E+02  0.51100000000E-03 0. -1.
    9900012    2    1    2    0    0 -0.19148842620E+01 -0.35967267569E+02  0.24213912263E+02  0.47787255015E+02  0.19999926917E+02 0.  0.
         12    1    1    2    0    0  0.19148842620E+01  0.35967267569E+02 -0.24213912263E+02  0.43400744985E+02  0.00000000000E+00 0. -1.
         11    1    3    3    0    0  0.29716846518E+01 -0.12728325133E+02  0.16763597505E+02  0.21256984074E+02  0.51100000000E-03 0. -1.
        -11    1    3    3    0    0 -0.12278193776E+01 -0.19210387667E+02  0.29619838263E+01  0.19476136249E+02  0.51100000000E-03 0.  1.
         12    1    3    3    0    0 -0.36587495362E+01 -0.40285547684E+01  0.44883309323E+01  0.70541346917E+01  0.00000000000E+00 0. -1.
</event>
<event>
 7    1  0.2412036E-009  0.4778727E+02  0.7816164E-02  0.1312668E+00
        -11   -1    0    0    0    0  0.00000000000E+00  0.00000000000E+00  0.45593999997E+02  0.45594000000E+02  0.51100000000E-03 0. -1.
         11   -1    0    0    0    0 -0.00000000000E+00 -0.00000000000E+00 -0.45593999997E+02  0.45594000000E+02  0.51100000000E-03 0.  1.
    9900012    2    1    2    0    0  0.37534498317E+02  0.21657637059E+02  0.23940631476E+01  0.47787270223E+02  0.19999996254E+02 0.  0.
         12    1    1    2    0    0 -0.37534498317E+02 -0.21657637059E+02 -0.23940631476E+01  0.43400729777E+02  0.00000000000E+00 0. -1.
         11    1    3    3    0    0  0.47269908828E+01  0.65548895929E+01 -0.65522233436E+01  0.10403972866E+02  0.51100000000E-03 0. -1.
        -11    1    3    3    0    0  0.12842059304E+02  0.41372499579E+01  0.26396573491E+01  0.13747840396E+02  0.51100000000E-03 0.  1.
         12    1    3    3    0    0  0.19965448130E+02  0.10965497508E+02  0.63066291422E+01  0.23635456961E+02  0.00000000000E+00 0. -1.
</event>
<event>
 7    1  0.2412036E-009  0.4778728E+02  0.7816164E-02  0.1312668E+00
        -11   -1    0    0    0    0  0.00000000000E+00  0.00000000000E+00  0.45593999997E+02  0.45594000000E+02  0.51100000000E-03 0.  1.
         11   -1    0    0    0    0 -0.00000000000E+00 -0.00000000000E+00 -0.45593999997E+02  0.45594000000E+02  0.51100000000E-03 0. -1.
    9900012    2    1    2    0    0 -0.33914804625E+02  0.22859419739E+02 -0.14520864957E+02  0.47787279238E+02  0.20000037357E+02 0.  0.
         12    1    1    2    0    0  0.33914804625E+02 -0.22859419739E+02  0.14520864957E+02  0.43400720762E+02  0.00000000000E+00 0. -1.
         11    1    3    3    0    0 -0.16255501210E+02  0.54455819563E+01  0.53308100755E+00  0.17151672165E+02  0.51100000000E-03 0.  1.
        -11    1    3    3    0    0 -0.13769395263E+02  0.10790849543E+02 -0.14858266251E+02  0.22952271260E+02  0.51100000000E-03 0. -1.
         12    1    3    3    0    0 -0.38899081526E+01  0.66229882396E+01 -0.19567971378E+00  0.76833358125E+01  0.00000000000E+00 0. -1.
</event>
<event>
 7    1  0.2412036E-009  0.4778727E+02  0.7816164E-02  0.1312668E+00
        -11   -1    0    0    0    0  0.00000000000E+00  0.00000000000E+00  0.45593999997E+02  0.45594000000E+02  0.51100000000E-03 0.  1.
         11   -1    0    0    0    0 -0.00000000000E+00 -0.00000000000E+00 -0.45593999997E+02  0.45594000000E+02  0.51100000000E-03 0. -1.
    9900012    2    1    2    0    0  0.21826596429E+02  0.23673126436E+02  0.29099933134E+02  0.47787270336E+02  0.19999996772E+02 0.  0.
         12    1    1    2    0    0 -0.21826596429E+02 -0.23673126436E+02 -0.29099933134E+02  0.43400729664E+02  0.00000000000E+00 0. -1.
         11    1    3    3    0    0  0.42766265776E+01  0.12099788489E+02  0.33979811995E+01  0.13275567515E+02  0.51100000000E-03 0. -1.
        -11    1    3    3    0    0  0.85805023930E+01  0.54647682188E+01  0.54631769968E+01  0.11547078252E+02  0.51100000000E-03 0.  1.
         12    1    3    3    0    0  0.89694674581E+01  0.61085697283E+01  0.20238774938E+02  0.22964624569E+02  0.00000000000E+00 0. -1.
</event>
<event>
 7    1  0.2412036E-009  0.4778727E+02  0.7816164E-02  0.1312668E+00
        -11   -1    0    0    0    0  0.00000000000E+00  0.00000000000E+00  0.45593999997E+02  0.45594000000E+02  0.51100000000E-03 0.  1.
         11   -1    0    0    0    0 -0.00000000000E+00 -0.00000000000E+00 -0.45593999997E+02  0.45594000000E+02  0.51100000000E-03 0. -1.
    9900012    2    1    2    0    0  0.39369028156E+02 -0.12644829307E+00  0.18267100453E+02  0.47787270443E+02  0.19999997259E+02 0.  0.
         12    1    1    2    0    0 -0.39369028156E+02  0.12644829307E+00 -0.18267100453E+02  0.43400729557E+02  0.00000000000E+00 0. -1.
         11    1    3    3    0    0 -0.13693135876E+01 -0.16059993490E+00  0.12323197503E+01  0.18491685343E+01  0.51100000000E-03 0. -1.
        -11    1    3    3    0    0  0.35123051213E+02 -0.25488438951E+01  0.10071493187E+02  0.36627316405E+02  0.51100000000E-03 0.  1.
         12    1    3    3    0    0  0.56152905302E+01  0.25829955369E+01  0.69632875155E+01  0.93107855042E+01  0.00000000000E+00 0. -1.
</event>
<event>
 7    1  0.2412036E-009  0.4778727E+02  0.7816164E-02  0.1312668E+00
        -11   -1    0    0    0    0  0.00000000000E+00  0.00000000000E+00  0.45593999997E+02  0.45594000000E+02  0.51100000000E-03 0.  1.
         11   -1    0    0    0    0 -0.00000000000E+00 -0.00000000000E+00 -0.45593999997E+02  0.45594000000E+02  0.51100000000E-03 0. -1.
    9900012    2    1    2    0    0  0.18523403790E+02  0.60809638369E+01  0.38775362435E+02  0.47787270270E+02  0.19999996467E+02 0.  0.
         12    1    1    2    0    0 -0.18523403790E+02 -0.60809638369E+01 -0.38775362435E+02  0.43400729730E+02  0.00000000000E+00 0. -1.
         11    1    3    3    0    0  0.12290081785E+02  0.85877676306E+01  0.18823453360E+02  0.24064876060E+02  0.51100000000E-03 0. -1.
        -11    1    3    3    0    0  0.66574749128E+01 -0.53152637030E+01  0.89355424276E+01  0.12345765233E+02  0.51100000000E-03 0.  1.
        -12    1    3    3    0    0 -0.42415290746E+00  0.28084599093E+01  0.11016366648E+02  0.11376628976E+02  0.00000000000E+00 0.  1.
</event>
<event>
 7    1  0.2412036E-009  0.4778727E+02  0.7816164E-02  0.1312668E+00
        -11   -1    0    0    0    0  0.00000000000E+00  0.00000000000E+00  0.45593999997E+02  0.45594000000E+02  0.51100000000E-03 0. -1.
         11   -1    0    0    0    0 -0.00000000000E+00 -0.00000000000E+00 -0.45593999997E+02  0.45594000000E+02  0.51100000000E-03 0.  1.
    9900012    2    1    2    0    0 -0.39391759006E+02  0.45205930523E+01 -0.17648700600E+02  0.47787273370E+02  0.20000010604E+02 0.  0.
         12    1    1    2    0    0  0.39391759006E+02 -0.45205930523E+01  0.17648700600E+02  0.43400726630E+02  0.00000000000E+00 0. -1.
         11    1    3    3    0    0 -0.26887083873E+02  0.62314854311E+01 -0.12542137227E+02  0.30315868722E+02  0.51100000000E-03 0. -1.
        -11    1    3    3    0    0 -0.62236836383E+01  0.45661811192E+01 -0.33730950913E+01  0.84238957021E+01  0.51100000000E-03 0.  1.
         12    1    3    3    0    0 -0.62809914945E+01 -0.62770734980E+01 -0.17334682819E+01  0.90475089465E+01  0.00000000000E+00 0. -1.
</event>
<event>
 7    1  0.2412036E-009  0.4778727E+02  0.7816164E-02  0.1312668E+00
        -11   -1    0    0    0    0  0.00000000000E+00  0.00000000000E+00  0.45593999997E+02  0.45594000000E+02  0.51100000000E-03 0.  1.
         11   -1    0    0    0    0 -0.00000000000E+00 -0.00000000000E+00 -0.45593999997E+02  0.45594000000E+02  0.51100000000E-03 0. -1.
    9900012    2    1    2    0    0  0.26506550175E+02  0.71770300890E+01  0.33608277784E+02  0.47787270759E+02  0.19999998698E+02 0.  0.
         12    1    1    2    0    0 -0.26506550175E+02 -0.71770300890E+01 -0.33608277784E+02  0.43400729241E+02  0.00000000000E+00 0. -1.
         11    1    3    3    0    0  0.22479625490E+02  0.73524623614E+01  0.22013998779E+02  0.32311118944E+02  0.51100000000E-03 0. -1.
        -11    1    3    3    0    0  0.53889601125E+01 -0.53110069199E+00  0.19898303241E+01  0.57690886646E+01  0.51100000000E-03 0.  1.
         12    1    3    3    0    0 -0.13620354276E+01  0.35566841959E+00  0.96044486810E+01  0.97070631499E+01  0.00000000000E+00 0. -1.
</event>
<event>
 7    1  0.2412036E-009  0.4778727E+02  0.7816164E-02  0.1312668E+00
        -11   -1    0    0    0    0  0.00000000000E+00  0.00000000000E+00  0.45593999997E+02  0.45594000000E+02  0.51100000000E-03 0.  1.
         11   -1    0    0    0    0 -0.00000000000E+00 -0.00000000000E+00 -0.45593999997E+02  0.45594000000E+02  0.51100000000E-03 0. -1.
    9900012    2    1    2    0    0  0.14553598599E+02  0.20124777734E+02  0.35592263965E+02  0.47787272297E+02  0.20000005710E+02 0.  0.
         12    1    1    2    0    0 -0.14553598599E+02 -0.20124777734E+02 -0.35592263965E+02  0.43400727703E+02  0.00000000000E+00 0. -1.
         11    1    3    3    0    0  0.14187630490E+02  0.22397835158E+02  0.24653895186E+02  0.36204508377E+02  0.51100000000E-03 0. -1.
        -11    1    3    3    0    0  0.12515028825E+01 -0.52908013368E+00  0.75423647285E+01  0.76637752584E+01  0.51100000000E-03 0.  1.
         12    1    3    3    0    0 -0.88553477402E+00 -0.17439772895E+01  0.33960040499E+01  0.39189886616E+01  0.00000000000E+00 0. -1.
</event>
<event>
 7    1  0.2412036E-009  0.4778727E+02  0.7816164E-02  0.1312668E+00
        -11   -1    0    0    0    0  0.00000000000E+00  0.00000000000E+00  0.45593999997E+02  0.45594000000E+02  0.51100000000E-03 0.  1.
         11   -1    0    0    0    0 -0.00000000000E+00 -0.00000000000E+00 -0.45593999997E+02  0.45594000000E+02  0.51100000000E-03 0. -1.
    9900012    2    1    2    0    0 -0.11388994350E+01 -0.20830549651E+02  0.38058043767E+02  0.47787267448E+02  0.19999983603E+02 0.  0.
         12    1    1    2    0    0  0.11388994350E+01  0.20830549651E+02 -0.38058043767E+02  0.43400732552E+02  0.00000000000E+00 0. -1.
         11    1    3    3    0    0  0.35195622353E+01 -0.13728056461E+02  0.18005144670E+02  0.22913578668E+02  0.51100000000E-03 0. -1.
        -11    1    3    3    0    0 -0.67561475171E+01  0.79818788552E-01  0.64088022568E+01  0.93126068821E+01  0.51100000000E-03 0.  1.
        -12    1    3    3    0    0  0.20976858468E+01 -0.71823119790E+01  0.13644096840E+02  0.15561081898E+02  0.00000000000E+00 0.  1.
</event>
<event>
 7    1  0.2412036E-009  0.4778727E+02  0.7816164E-02  0.1312668E+00
        -11   -1    0    0    0    0  0.00000000000E+00  0.00000000000E+00  0.45593999997E+02  0.45594000000E+02  0.51100000000E-03 0.  1.
         11   -1    0    0    0    0 -0.00000000000E+00 -0.00000000000E+00 -0.45593999997E+02  0.45594000000E+02  0.51100000000E-03 0. -1.
    9900012    2    1    2    0    0  0.35771967903E+02 -0.25512705121E+01  0.24443418306E+02  0.47787269968E+02  0.19999995091E+02 0.  0.
         12    1    1    2    0    0 -0.35771967903E+02  0.25512705121E+01 -0.24443418306E+02  0.43400730032E+02  0.00000000000E+00 0. -1.
         11    1    3    3    0    0  0.83949835127E+01  0.61356552758E+01  0.99822295502E+01  0.14414122273E+02  0.51100000000E-03 0. -1.
        -11    1    3    3    0    0  0.37166557937E+01 -0.37604736960E+00  0.56885494129E+01  0.68054784252E+01  0.51100000000E-03 0.  1.
         12    1    3    3    0    0  0.23660328597E+02 -0.83108784183E+01  0.87726393425E+01  0.26567669270E+02  0.00000000000E+00 0. -1.
</event>
<event>
 7    1  0.2412036E-009  0.4778727E+02  0.7816164E-02  0.1312668E+00
        -11   -1    0    0    0    0  0.00000000000E+00  0.00000000000E+00  0.45593999997E+02  0.45594000000E+02  0.51100000000E-03 0. -1.
         11   -1    0    0    0    0 -0.00000000000E+00 -0.00000000000E+00 -0.45593999997E+02  0.45594000000E+02  0.51100000000E-03 0.  1.
    9900012    2    1    2    0    0 -0.31923937594E+02 -0.73767519128E+01 -0.28461709633E+02  0.47787272178E+02  0.20000005166E+02 0.  0.
         12    1    1    2    0    0  0.31923937594E+02  0.73767519128E+01  0.28461709633E+02  0.43400727822E+02  0.00000000000E+00 0. -1.
         11    1    3    3    0    0 -0.28589047595E+01 -0.12607156127E+01 -0.99117240610E+00  0.32779815862E+01  0.51100000000E-03 0. -1.
        -11    1    3    3    0    0 -0.27687972027E+02 -0.89133356646E+01 -0.17236331678E+02  0.33810685850E+02  0.51100000000E-03 0.  1.
        -12    1    3    3    0    0 -0.13770608073E+01  0.27972993645E+01 -0.10234205549E+02  0.10698604742E+02  0.00000000000E+00 0.  1.
</event>
<event>
 7    1  0.2412036E-009  0.4778727E+02  0.7816164E-02  0.1312668E+00
        -11   -1    0    0    0    0  0.00000000000E+00  0.00000000000E+00  0.45593999997E+02  0.45594000000E+02  0.51100000000E-03 0. -1.
         11   -1    0    0    0    0 -0.00000000000E+00 -0.00000000000E+00 -0.45593999997E+02  0.45594000000E+02  0.51100000000E-03 0.  1.
    9900012    2    1    2    0    0 -0.27458966284E+02  0.32669353413E+02 -0.78956605390E+01  0.47787274924E+02  0.20000017688E+02 0.  0.
         12    1    1    2    0    0  0.27458966284E+02 -0.32669353413E+02  0.78956605390E+01  0.43400725076E+02  0.00000000000E+00 0. -1.
         11    1    3    3    0    0 -0.15810233913E+02  0.19137566874E+02 -0.14197885867E+02  0.28597026516E+02  0.51100000000E-03 0. -1.
        -11    1    3    3    0    0 -0.75730620934E+01  0.93515029336E+01  0.27080930726E+01  0.12334327908E+02  0.51100000000E-03 0.  1.
         12    1    3    3    0    0 -0.40756702772E+01  0.41802836057E+01  0.35941322550E+01  0.68559204998E+01  0.00000000000E+00 0. -1.
</event>
<event>
 7    1  0.2412036E-009  0.4778727E+02  0.7816164E-02  0.1312668E+00
        -11   -1    0    0    0    0  0.00000000000E+00  0.00000000000E+00  0.45593999997E+02  0.45594000000E+02  0.51100000000E-03 0.  1.
         11   -1    0    0    0    0 -0.00000000000E+00 -0.00000000000E+00 -0.45593999997E+02  0.45594000000E+02  0.51100000000E-03 0. -1.
    9900012    2    1    2    0    0  0.24725629671E+02 -0.35248441836E+02 -0.54601948332E+01  0.47787272563E+02  0.20000006922E+02 0.  0.
         12    1    1    2    0    0 -0.24725629671E+02  0.35248441836E+02  0.54601948332E+01  0.43400727437E+02  0.00000000000E+00 0. -1.
         11    1    3    3    0    0  0.26124864369E+01 -0.77042357253E+01 -0.39454583067E+01  0.90414033759E+01  0.51100000000E-03 0. -1.
        -11    1    3    3    0    0  0.12289028219E+01 -0.12414867930E+02  0.22721942867E+01  0.12680773439E+02  0.51100000000E-03 0.  1.
        -12    1    3    3    0    0  0.20884240412E+02 -0.15129338180E+02 -0.37869308132E+01  0.26065095748E+02  0.00000000000E+00 0.  1.
</event>
<event>
 7    1  0.2412036E-009  0.4778727E+02  0.7816164E-02  0.1312668E+00
        -11   -1    0    0    0    0  0.00000000000E+00  0.00000000000E+00  0.45593999997E+02  0.45594000000E+02  0.51100000000E-03 0.  1.
         11   -1    0    0    0    0 -0.00000000000E+00 -0.00000000000E+00 -0.45593999997E+02  0.45594000000E+02  0.51100000000E-03 0. -1.
    9900012    2    1    2    0    0  0.40820328802E+02  0.14061521407E+02  0.44269020505E+01  0.47787273168E+02  0.20000009680E+02 0.  0.
         12    1    1    2    0    0 -0.40820328802E+02 -0.14061521407E+02 -0.44269020505E+01  0.43400726832E+02  0.00000000000E+00 0. -1.
         11    1    3    3    0    0  0.20114239799E+02  0.12308249009E+02  0.10124982147E+01  0.23602982634E+02  0.51100000000E-03 0. -1.
        -11    1    3    3    0    0  0.37963131001E+00 -0.18092597177E+01  0.30239988284E+01  0.35443066787E+01  0.51100000000E-03 0.  1.
         12    1    3    3    0    0  0.20326457694E+02  0.35625321163E+01  0.39040500744E+00  0.20639983855E+02  0.00000000000E+00 0. -1.
</event>
<event>
 7    1  0.2412036E-009  0.4778727E+02  0.7816164E-02  0.1312668E+00
        -11   -1    0    0    0    0  0.00000000000E+00  0.00000000000E+00  0.45593999997E+02  0.45594000000E+02  0.51100000000E-03 0. -1.
         11   -1    0    0    0    0 -0.00000000000E+00 -0.00000000000E+00 -0.45593999997E+02  0.45594000000E+02  0.51100000000E-03 0.  1.
    9900012    2    1    2    0    0  0.22754704197E+02  0.21665427829E+02 -0.29940871405E+02  0.47787272972E+02  0.20000008787E+02 0.  0.
         12    1    1    2    0    0 -0.22754704197E+02 -0.21665427829E+02  0.29940871405E+02  0.43400727028E+02  0.00000000000E+00 0. -1.
         11    1    3    3    0    0  0.11104972642E+02  0.16650254329E+02 -0.68470777195E+01  0.21152632464E+02  0.51100000000E-03 0.  1.
        -11    1    3    3    0    0  0.72459581666E+01  0.11182226387E+01 -0.14034030373E+02  0.15833772147E+02  0.51100000000E-03 0. -1.
        -12    1    3    3    0    0  0.44037733887E+01  0.38969508610E+01 -0.90597633125E+01  0.10800868361E+02  0.00000000000E+00 0.  1.
</event>
<event>
 7    1  0.2412036E-009  0.4778725E+02  0.7816164E-02  0.1312668E+00
        -11   -1    0    0    0    0  0.00000000000E+00  0.00000000000E+00  0.45593999997E+02  0.45594000000E+02  0.51100000000E-03 0. -1.
         11   -1    0    0    0    0 -0.00000000000E+00 -0.00000000000E+00 -0.45593999997E+02  0.45594000000E+02  0.51100000000E-03 0.  1.
    9900012    2    1    2    0    0 -0.36475742533E+02  0.23018144450E+02  0.48280465453E+01  0.47787253455E+02  0.19999919801E+02 0.  0.
         12    1    1    2    0    0  0.36475742533E+02 -0.23018144450E+02 -0.48280465453E+01  0.43400746545E+02  0.00000000000E+00 0. -1.
         11    1    3    3    0    0 -0.14800362189E+02 -0.47480998391E-02 -0.11617727643E+01  0.14845890330E+02  0.51100000000E-03 0. -1.
        -11    1    3    3    0    0 -0.69583900614E+01  0.10610786203E+02 -0.28570081478E+00  0.12692107836E+02  0.51100000000E-03 0.  1.
        -12    1    3    3    0    0 -0.14716990283E+02  0.12412106347E+02  0.62755201244E+01  0.20249255289E+02  0.00000000000E+00 0.  1.
</event>
<event>
 7    1  0.2412036E-009  0.4778727E+02  0.7816164E-02  0.1312668E+00
        -11   -1    0    0    0    0  0.00000000000E+00  0.00000000000E+00  0.45593999997E+02  0.45594000000E+02  0.51100000000E-03 0. -1.
         11   -1    0    0    0    0 -0.00000000000E+00 -0.00000000000E+00 -0.45593999997E+02  0.45594000000E+02  0.51100000000E-03 0.  1.
    9900012    2    1    2    0    0 -0.33943904147E+01  0.29149619415E+02 -0.31975008143E+02  0.47787270236E+02  0.19999996313E+02 0.  0.
         12    1    1    2    0    0  0.33943904147E+01 -0.29149619415E+02  0.31975008143E+02  0.43400729764E+02  0.00000000000E+00 0. -1.
         11    1    3    3    0    0  0.33815721699E+01  0.17038002336E+01  0.31194119121E+00  0.37993779944E+01  0.51100000000E-03 0. -1.
        -11    1    3    3    0    0 -0.38195526510E+01  0.18113099770E+02 -0.13871733301E+02  0.23132192952E+02  0.51100000000E-03 0.  1.
        -12    1    3    3    0    0 -0.29564099336E+01  0.93327194114E+01 -0.18415216033E+02  0.20855699289E+02  0.00000000000E+00 0.  1.
</event>
<event>
 7    1  0.2412036E-009  0.4778727E+02  0.7816164E-02  0.1312668E+00
        -11   -1    0    0    0    0  0.00000000000E+00  0.00000000000E+00  0.45593999997E+02  0.45594000000E+02  0.51100000000E-03 0. -1.
         11   -1    0    0    0    0 -0.00000000000E+00 -0.00000000000E+00 -0.45593999997E+02  0.45594000000E+02  0.51100000000E-03 0.  1.
    9900012    2    1    2    0    0 -0.39324856131E+01  0.17863571563E+02 -0.39357994663E+02  0.47787269868E+02  0.19999994635E+02 0.  0.
         12    1    1    2    0    0  0.39324856131E+01 -0.17863571563E+02  0.39357994663E+02  0.43400730132E+02  0.00000000000E+00 0. -1.
         11    1    3    3    0    0 -0.55240643954E+01  0.15478257018E+02 -0.16216811430E+02  0.23088453845E+02  0.51100000000E-03 0. -1.
        -11    1    3    3    0    0 -0.14616822283E+01 -0.12010973522E+01 -0.16202116468E+02  0.16312195685E+02  0.51100000000E-03 0.  1.
         12    1    3    3    0    0  0.30532610105E+01  0.35864118978E+01 -0.69390667659E+01  0.83866203372E+01  0.00000000000E+00 0. -1.
</event>
<event>
 7    1  0.2412036E-009  0.4778727E+02  0.7816164E-02  0.1312668E+00
        -11   -1    0    0    0    0  0.00000000000E+00  0.00000000000E+00  0.45593999997E+02  0.45594000000E+02  0.51100000000E-03 0. -1.
         11   -1    0    0    0    0 -0.00000000000E+00 -0.00000000000E+00 -0.45593999997E+02  0.45594000000E+02  0.51100000000E-03 0.  1.
    9900012    2    1    2    0    0 -0.31807443194E+02  0.18217833683E+02 -0.23238335605E+02  0.47787272491E+02  0.20000006594E+02 0.  0.
         12    1    1    2    0    0  0.31807443194E+02 -0.18217833683E+02  0.23238335605E+02  0.43400727509E+02  0.00000000000E+00 0. -1.
         11    1    3    3    0    0 -0.18901015011E+02  0.71107238941E+00 -0.12405042522E+02  0.22619440149E+02  0.51100000000E-03 0. -1.
        -11    1    3    3    0    0 -0.13991539702E+01  0.59747650617E+00 -0.28132026708E+01  0.31982369418E+01  0.51100000000E-03 0.  1.
         12    1    3    3    0    0 -0.11507274212E+02  0.16909284788E+02 -0.80200904124E+01  0.21969595400E+02  0.00000000000E+00 0. -1.
</event>
<event>
 7    1  0.2412036E-009  0.4778727E+02  0.7816164E-02  0.1312668E+00
        -11   -1    0    0    0    0  0.00000000000E+00  0.00000000000E+00  0.45593999997E+02  0.45594000000E+02  0.51100000000E-03 0. -1.
         11   -1    0    0    0    0 -0.00000000000E+00 -0.00000000000E+00 -0.45593999997E+02  0.45594000000E+02  0.51100000000E-03 0.  1.
    9900012    2    1    2    0    0  0.62582442422E+01  0.19067116827E+02 -0.38482495702E+02  0.47787273732E+02  0.20000012255E+02 0.  0.
         12    1    1    2    0    0 -0.62582442422E+01 -0.19067116827E+02  0.38482495702E+02  0.43400726268E+02  0.00000000000E+00 0. -1.
         11    1    3    3    0    0 -0.44957771102E+01  0.12593686956E+02 -0.15681280433E+02  0.20608627301E+02  0.51100000000E-03 0. -1.
        -11    1    3    3    0    0  0.96205254094E+01  0.44621205356E+01 -0.11497350647E+02  0.15641422601E+02  0.51100000000E-03 0.  1.
         12    1    3    3    0    0  0.11334959430E+01  0.20113093354E+01 -0.11303864623E+02  0.11537223830E+02  0.00000000000E+00 0. -1.
</event>
<event>
 7    1  0.2412036E-009  0.4778728E+02  0.7816164E-02  0.1312668E+00
        -11   -1    0    0    0    0  0.00000000000E+00  0.00000000000E+00  0.45593999997E+02  0.45594000000E+02  0.51100000000E-03 0.  1.
         11   -1    0    0    0    0 -0.00000000000E+00 -0.00000000000E+00 -0.45593999997E+02  0.45594000000E+02  0.51100000000E-03 0. -1.
    9900012    2    1    2    0    0  0.78293182374E+01  0.16848034269E+02  0.39223310663E+02  0.47787279013E+02  0.20000036333E+02 0.  0.
         12    1    1    2    0    0 -0.78293182374E+01 -0.16848034269E+02 -0.39223310663E+02  0.43400720987E+02  0.00000000000E+00 0. -1.
         11    1    3    3    0    0 -0.16912334894E+01  0.13511984829E+02  0.14575123030E+02  0.19946634210E+02  0.51100000000E-03 0. -1.
        -11    1    3    3    0    0  0.59259236512E+01  0.22866647638E+01  0.22793236925E+02  0.23661721337E+02  0.51100000000E-03 0.  1.
         12    1    3    3    0    0  0.35946280757E+01  0.10493846765E+01  0.18549507089E+01  0.41789234659E+01  0.00000000000E+00 0. -1.
</event>
<event>
 7    1  0.2412036E-009  0.4778727E+02  0.7816164E-02  0.1312668E+00
        -11   -1    0    0    0    0  0.00000000000E+00  0.00000000000E+00  0.45593999997E+02  0.45594000000E+02  0.51100000000E-03 0.  1.
         11   -1    0    0    0    0 -0.00000000000E+00 -0.00000000000E+00 -0.45593999997E+02  0.45594000000E+02  0.51100000000E-03 0. -1.
    9900012    2    1    2    0    0  0.28500130697E+02  0.50963442269E+01  0.32332535093E+02  0.47787274202E+02  0.20000014396E+02 0.  0.
         12    1    1    2    0    0 -0.28500130697E+02 -0.50963442269E+01 -0.32332535093E+02  0.43400725798E+02  0.00000000000E+00 0. -1.
         11    1    3    3    0    0  0.17073595452E+02  0.20023041247E+01  0.23131053225E+02  0.28819481381E+02  0.51100000000E-03 0.  1.
        -11    1    3    3    0    0 -0.21269962922E+01  0.13488234874E+01  0.46300614369E-01  0.25190438732E+01  0.51100000000E-03 0. -1.
        -12    1    3    3    0    0  0.13553531537E+02  0.17452166148E+01  0.91551812536E+01  0.16448748948E+02  0.00000000000E+00 0.  1.
</event>
<event>
 7    1  0.2412036E-009  0.4778725E+02  0.7816164E-02  0.1312668E+00
        -11   -1    0    0    0    0  0.00000000000E+00  0.00000000000E+00  0.45593999997E+02  0.45594000000E+02  0.51100000000E-03 0.  1.
         11   -1    0    0    0    0 -0.00000000000E+00 -0.00000000000E+00 -0.45593999997E+02  0.45594000000E+02  0.51100000000E-03 0. -1.
    9900012    2    1    2    0    0 -0.32565545370E+02 -0.23525543068E+02  0.16421302706E+02  0.47787249955E+02  0.19999903844E+02 0.  0.
         12    1    1    2    0    0  0.32565545370E+02  0.23525543068E+02 -0.16421302706E+02  0.43400750045E+02  0.00000000000E+00 0. -1.
         11    1    3    3    0    0 -0.50010631026E+00 -0.30031856360E+01 -0.68325163580E+00  0.31202665502E+01  0.51100000000E-03 0. -1.
        -11    1    3    3    0    0 -0.31632456537E+02 -0.18802625951E+02  0.19531698805E+02  0.41660992639E+02  0.51100000000E-03 0.  1.
        -12    1    3    3    0    0 -0.43298252284E+00 -0.17197314816E+01 -0.24271444637E+01  0.30059907654E+01  0.00000000000E+00 0.  1.
</event>
<event>
 7    1  0.2412036E-009  0.4778728E+02  0.7816164E-02  0.1312668E+00
        -11   -1    0    0    0    0  0.00000000000E+00  0.00000000000E+00  0.45593999997E+02  0.45594000000E+02  0.51100000000E-03 0.  1.
         11   -1    0    0    0    0 -0.00000000000E+00 -0.00000000000E+00 -0.45593999997E+02  0.45594000000E+02  0.51100000000E-03 0. -1.
    9900012    2    1    2    0    0 -0.25303504140E+02 -0.13168201203E+02  0.32710146201E+02  0.47787279854E+02  0.20000040168E+02 0.  0.
         12    1    1    2    0    0  0.25303504140E+02  0.13168201203E+02 -0.32710146201E+02  0.43400720146E+02  0.00000000000E+00 0. -1.
         11    1    3    3    0    0 -0.29842559593E+01 -0.35160657988E+01  0.24347746629E+01  0.52150388544E+01  0.51100000000E-03 0. -1.
        -11    1    3    3    0    0 -0.47825270363E+01 -0.99413371653E+01  0.58065619731E+01  0.12466712145E+02  0.51100000000E-03 0.  1.
        -12    1    3    3    0    0 -0.17536721144E+02  0.28920176066E+00  0.24468809565E+02  0.30105528855E+02  0.00000000000E+00 0.  1.
</event>
<event>
 7    1  0.2412036E-009  0.4778727E+02  0.7816164E-02  0.1312668E+00
        -11   -1    0    0    0    0  0.00000000000E+00  0.00000000000E+00  0.45593999997E+02  0.45594000000E+02  0.51100000000E-03 0.  1.
         11   -1    0    0    0    0 -0.00000000000E+00 -0.00000000000E+00 -0.45593999997E+02  0.45594000000E+02  0.51100000000E-03 0. -1.
    9900012    2    1    2    0    0 -0.30569543762E+02 -0.15809352945E+02  0.26442214228E+02  0.47787270287E+02  0.19999996545E+02 0.  0.
         12    1    1    2    0    0  0.30569543762E+02  0.15809352945E+02 -0.26442214228E+02  0.43400729713E+02  0.00000000000E+00 0. -1.
         11    1    3    3    0    0 -0.63247897830E+01 -0.45743073298E+01  0.17108975436E+02  0.18805432568E+02  0.51100000000E-03 0. -1.
        -11    1    3    3    0    0 -0.17659037757E+02 -0.10655832487E+02  0.55243418770E+01  0.21351972601E+02  0.51100000000E-03 0.  1.
        -12    1    3    3    0    0 -0.65857162227E+01 -0.57921312760E+00  0.38088969146E+01  0.76298651180E+01  0.00000000000E+00 0.  1.
</event>
<event>
 7    1  0.2412036E-009  0.4778725E+02  0.7816164E-02  0.1312668E+00
        -11   -1    0    0    0    0  0.00000000000E+00  0.00000000000E+00  0.45593999997E+02  0.45594000000E+02  0.51100000000E-03 0.  1.
         11   -1    0    0    0    0 -0.00000000000E+00 -0.00000000000E+00 -0.45593999997E+02  0.45594000000E+02  0.51100000000E-03 0. -1.
    9900012    2    1    2    0    0  0.24813024167E+02 -0.31179294727E+02  0.17198553001E+02  0.47787253309E+02  0.19999919138E+02 0.  0.
         12    1    1    2    0    0 -0.24813024167E+02  0.31179294727E+02 -0.17198553001E+02  0.43400746691E+02  0.00000000000E+00 0. -1.
         11    1    3    3    0    0  0.35373042993E+01 -0.58480859204E+01 -0.40587286381E+01  0.79489564760E+01  0.51100000000E-03 0. -1.
        -11    1    3    3    0    0  0.14514298268E+02 -0.12408222233E+02  0.12594973300E+02  0.22874924827E+02  0.51100000000E-03 0.  1.
         12    1    3    3    0    0  0.67614215996E+01 -0.12922986574E+02  0.86623083396E+01  0.16963372006E+02  0.00000000000E+00 0. -1.
</event>
<event>
 7    1  0.2412036E-009  0.4778727E+02  0.7816164E-02  0.1312668E+00
        -11   -1    0    0    0    0  0.00000000000E+00  0.00000000000E+00  0.45593999997E+02  0.45594000000E+02  0.51100000000E-03 0. -1.
         11   -1    0    0    0    0 -0.00000000000E+00 -0.00000000000E+00 -0.45593999997E+02  0.45594000000E+02  0.51100000000E-03 0.  1.
    9900012    2    1    2    0    0 -0.32217313197E+02 -0.27146487534E+02  0.10427665624E+02  0.47787271142E+02  0.20000000443E+02 0.  0.
         12    1    1    2    0    0  0.32217313197E+02  0.27146487534E+02 -0.10427665624E+02  0.43400728858E+02  0.00000000000E+00 0. -1.
         11    1    3    3    0    0 -0.17838153304E+02 -0.11533118299E+02 -0.23176428357E+01  0.21367826271E+02  0.51100000000E-03 0. -1.
        -11    1    3    3    0    0 -0.14753408508E+02 -0.16301322106E+02  0.13063147920E+02  0.25574244834E+02  0.51100000000E-03 0.  1.
         12    1    3    3    0    0  0.37424861446E+00  0.68795287133E+00 -0.31783945990E+00  0.84520003600E+00  0.00000000000E+00 0. -1.
</event>
<event>
 7    1  0.2412036E-009  0.4778728E+02  0.7816164E-02  0.1312668E+00
        -11   -1    0    0    0    0  0.00000000000E+00  0.00000000000E+00  0.45593999997E+02  0.45594000000E+02  0.51100000000E-03 0.  1.
         11   -1    0    0    0    0 -0.00000000000E+00 -0.00000000000E+00 -0.45593999997E+02  0.45594000000E+02  0.51100000000E-03 0. -1.
    9900012    2    1    2    0    0  0.14660630358E+02 -0.33967655613E+02  0.22691126083E+02  0.47787275199E+02  0.20000018943E+02 0.  0.
         12    1    1    2    0    0 -0.14660630358E+02  0.33967655613E+02 -0.22691126083E+02  0.43400724801E+02  0.00000000000E+00 0. -1.
         11    1    3    3    0    0  0.12519749097E+02 -0.23712683573E+02  0.13608081928E+02  0.30070174155E+02  0.51100000000E-03 0. -1.
        -11    1    3    3    0    0  0.50826794744E+01 -0.11051201438E+02  0.72647420229E+01  0.14168244802E+02  0.51100000000E-03 0.  1.
         12    1    3    3    0    0 -0.29417982131E+01  0.79622939815E+00  0.18183021321E+01  0.35488562418E+01  0.00000000000E+00 0. -1.
</event>
<event>
 7    1  0.2412036E-009  0.4778728E+02  0.7816164E-02  0.1312668E+00
        -11   -1    0    0    0    0  0.00000000000E+00  0.00000000000E+00  0.45593999997E+02  0.45594000000E+02  0.51100000000E-03 0. -1.
         11   -1    0    0    0    0 -0.00000000000E+00 -0.00000000000E+00 -0.45593999997E+02  0.45594000000E+02  0.51100000000E-03 0.  1.
    9900012    2    1    2    0    0  0.26374970577E+02  0.16462286952E+02  0.30281618165E+02  0.47787281535E+02  0.20000047829E+02 0.  0.
         12    1    1    2    0    0 -0.26374970577E+02 -0.16462286952E+02 -0.30281618165E+02  0.43400718465E+02  0.00000000000E+00 0. -1.
         11    1    3    3    0    0  0.14551828479E+02  0.15141572251E+02  0.19808477208E+02  0.28868645481E+02  0.51100000000E-03 0. -1.
        -11    1    3    3    0    0  0.13091812782E+02  0.11438754043E+01  0.11351479346E+02  0.17365485782E+02  0.51100000000E-03 0.  1.
         12    1    3    3    0    0 -0.12686706832E+01  0.17683929655E+00 -0.87833838982E+00  0.15531502716E+01  0.00000000000E+00 0. -1.
</event>
<event>
 7    1  0.2412036E-009  0.4778727E+02  0.7816164E-02  0.1312668E+00
        -11   -1    0    0    0    0  0.00000000000E+00  0.00000000000E+00  0.45593999997E+02  0.45594000000E+02  0.51100000000E-03 0.  1.
         11   -1    0    0    0    0 -0.00000000000E+00 -0.00000000000E+00 -0.45593999997E+02  0.45594000000E+02  0.51100000000E-03 0. -1.
    9900012    2    1    2    0    0  0.19203779246E+02  0.37733746384E+02 -0.95395263844E+01  0.47787270546E+02  0.19999997726E+02 0.  0.
         12    1    1    2    0    0 -0.19203779246E+02 -0.37733746384E+02  0.95395263844E+01  0.43400729454E+02  0.00000000000E+00 0. -1.
         11    1    3    3    0    0  0.15486177825E+01  0.20490368694E+02 -0.80699365869E+01  0.22076623452E+02  0.51100000000E-03 0. -1.
        -11    1    3    3    0    0  0.78116591125E+01  0.30442251030E+01 -0.76754565436E+00  0.84189340869E+01  0.51100000000E-03 0.  1.
        -12    1    3    3    0    0  0.98435023511E+01  0.14199152587E+02 -0.70204414315E+00  0.17291713007E+02  0.00000000000E+00 0.  1.
</event>
<event>
 7    1  0.2412036E-009  0.4778727E+02  0.7816164E-02  0.1312668E+00
        -11   -1    0    0    0    0  0.00000000000E+00  0.00000000000E+00  0.45593999997E+02  0.45594000000E+02  0.51100000000E-03 0.  1.
         11   -1    0    0    0    0 -0.00000000000E+00 -0.00000000000E+00 -0.45593999997E+02  0.45594000000E+02  0.51100000000E-03 0. -1.
    9900012    2    1    2    0    0  0.12253455281E+02  0.21472871094E+01  0.41579625453E+02  0.47787271192E+02  0.20000000672E+02 0.  0.
         12    1    1    2    0    0 -0.12253455281E+02 -0.21472871094E+01 -0.41579625453E+02  0.43400728808E+02  0.00000000000E+00 0. -1.
         11    1    3    3    0    0  0.51537777829E+01 -0.57899849460E+01  0.18615092325E+02  0.20164498844E+02  0.51100000000E-03 0. -1.
        -11    1    3    3    0    0  0.34349400622E+01 -0.20950724512E+01  0.31384662848E+01  0.51027554016E+01  0.51100000000E-03 0.  1.
         12    1    3    3    0    0  0.36647374360E+01  0.10032344507E+02  0.19826066843E+02  0.22520016946E+02  0.00000000000E+00 0. -1.
</event>
<event>
 7    1  0.2412036E-009  0.4778727E+02  0.7816164E-02  0.1312668E+00
        -11   -1    0    0    0    0  0.00000000000E+00  0.00000000000E+00  0.45593999997E+02  0.45594000000E+02  0.51100000000E-03 0.  1.
         11   -1    0    0    0    0 -0.00000000000E+00 -0.00000000000E+00 -0.45593999997E+02  0.45594000000E+02  0.51100000000E-03 0. -1.
    9900012    2    1    2    0    0  0.23350014915E+02 -0.35202403771E+02  0.99594682343E+01  0.47787269185E+02  0.19999991521E+02 0.  0.
         12    1    1    2    0    0 -0.23350014915E+02  0.35202403771E+02 -0.99594682343E+01  0.43400730815E+02  0.00000000000E+00 0. -1.
         11    1    3    3    0    0  0.21789991603E+02 -0.21051927806E+02  0.91312918705E+01  0.31644397449E+02  0.51100000000E-03 0. -1.
        -11    1    3    3    0    0  0.18540851158E+01 -0.11698298615E+02  0.36489785288E+01  0.12393662359E+02  0.51100000000E-03 0.  1.
         12    1    3    3    0    0 -0.29406180376E+00 -0.24521773502E+01 -0.28208021650E+01  0.37492093774E+01  0.00000000000E+00 0. -1.
</event>
<event>
 7    1  0.2412036E-009  0.4778727E+02  0.7816164E-02  0.1312668E+00
        -11   -1    0    0    0    0  0.00000000000E+00  0.00000000000E+00  0.45593999997E+02  0.45594000000E+02  0.51100000000E-03 0. -1.
         11   -1    0    0    0    0 -0.00000000000E+00 -0.00000000000E+00 -0.45593999997E+02  0.45594000000E+02  0.51100000000E-03 0.  1.
    9900012    2    1    2    0    0 -0.42045956892E+02  0.10609063829E+02  0.17912263324E+01  0.47787271688E+02  0.20000002933E+02 0.  0.
         12    1    1    2    0    0  0.42045956892E+02 -0.10609063829E+02 -0.17912263324E+01  0.43400728312E+02  0.00000000000E+00 0. -1.
         11    1    3    3    0    0 -0.79575392997E+01  0.73126044568E+01  0.11644493890E+01  0.10869800287E+02  0.51100000000E-03 0. -1.
        -11    1    3    3    0    0 -0.16065437169E+02 -0.23342470560E+01  0.59649750029E+01  0.17295314620E+02  0.51100000000E-03 0.  1.
        -12    1    3    3    0    0 -0.18022980423E+02  0.56307064278E+01 -0.53381980595E+01  0.19622156780E+02  0.00000000000E+00 0.  1.
</event>
<event>
 7    1  0.2412036E-009  0.4778722E+02  0.7816164E-02  0.1312668E+00
        -11   -1    0    0    0    0  0.00000000000E+00  0.00000000000E+00  0.45593999997E+02  0.45594000000E+02  0.51100000000E-03 0.  1.
         11   -1    0    0    0    0 -0.00000000000E+00 -0.00000000000E+00 -0.45593999997E+02  0.45594000000E+02  0.51100000000E-03 0. -1.
    9900012    2    1    2    0    0 -0.10704044776E+02  0.11061236835E+02  0.40579553720E+02  0.47787219881E+02  0.19999766723E+02 0.  0.
         12    1    1    2    0    0  0.10704044776E+02 -0.11061236835E+02 -0.40579553720E+02  0.43400780119E+02  0.00000000000E+00 0. -1.
         11    1    3    3    0    0  0.39072026747E+01  0.14228377350E+01  0.44984643868E+01  0.61259188749E+01  0.51100000000E-03 0. -1.
        -11    1    3    3    0    0 -0.93638558457E+01  0.38150047819E+01  0.30239752192E+02  0.31885399021E+02  0.51100000000E-03 0.  1.
         12    1    3    3    0    0 -0.52473916046E+01  0.58233943181E+01  0.58413371405E+01  0.97759019853E+01  0.00000000000E+00 0. -1.
</event>
<event>
 7    1  0.2412036E-009  0.4778725E+02  0.7816164E-02  0.1312668E+00
        -11   -1    0    0    0    0  0.00000000000E+00  0.00000000000E+00  0.45593999997E+02  0.45594000000E+02  0.51100000000E-03 0. -1.
         11   -1    0    0    0    0 -0.00000000000E+00 -0.00000000000E+00 -0.45593999997E+02  0.45594000000E+02  0.51100000000E-03 0.  1.
    9900012    2    1    2    0    0  0.22389720726E+02 -0.96392775978E+01 -0.35908349468E+02  0.47787253137E+02  0.19999918352E+02 0.  0.
         12    1    1    2    0    0 -0.22389720726E+02  0.96392775978E+01  0.35908349468E+02  0.43400746863E+02  0.00000000000E+00 0. -1.
         11    1    3    3    0    0  0.54738968851E+01 -0.10357327858E+02 -0.12178563446E+02  0.16898378482E+02  0.51100000000E-03 0. -1.
        -11    1    3    3    0    0  0.85067650658E+01  0.40221579963E+01 -0.65080118293E+01  0.11441023777E+02  0.51100000000E-03 0.  1.
        -12    1    3    3    0    0  0.84090587746E+01 -0.33041077362E+01 -0.17221774193E+02  0.19447850878E+02  0.00000000000E+00 0.  1.
</event>
<event>
 7    1  0.2412036E-009  0.4778727E+02  0.7816164E-02  0.1312668E+00
        -11   -1    0    0    0    0  0.00000000000E+00  0.00000000000E+00  0.45593999997E+02  0.45594000000E+02  0.51100000000E-03 0.  1.
         11   -1    0    0    0    0 -0.00000000000E+00 -0.00000000000E+00 -0.45593999997E+02  0.45594000000E+02  0.51100000000E-03 0. -1.
    9900012    2    1    2    0    0  0.14958661400E+02  0.39728146995E+02  0.90297371427E+01  0.47787269967E+02  0.19999995087E+02 0.  0.
         12    1    1    2    0    0 -0.14958661400E+02 -0.39728146995E+02 -0.90297371427E+01  0.43400730033E+02  0.00000000000E+00 0. -1.
         11    1    3    3    0    0 -0.26619841932E+01  0.88279473132E+01  0.17421408844E+01  0.93837022934E+01  0.51100000000E-03 0. -1.
        -11    1    3    3    0    0  0.17930598046E+02  0.28487590508E+02  0.96458917300E+01  0.35015602048E+02  0.51100000000E-03 0.  1.
         12    1    3    3    0    0 -0.30995245297E+00  0.24126091739E+01 -0.23582954717E+01  0.33879656257E+01  0.00000000000E+00 0. -1.
</event>
<event>
 7    1  0.2412036E-009  0.4778727E+02  0.7816164E-02  0.1312668E+00
        -11   -1    0    0    0    0  0.00000000000E+00  0.00000000000E+00  0.45593999997E+02  0.45594000000E+02  0.51100000000E-03 0.  1.
         11   -1    0    0    0    0 -0.00000000000E+00 -0.00000000000E+00 -0.45593999997E+02  0.45594000000E+02  0.51100000000E-03 0. -1.
    9900012    2    1    2    0    0 -0.18770527026E+02 -0.17191002236E+02  0.35153379159E+02  0.47787270639E+02  0.19999998153E+02 0.  0.
         12    1    1    2    0    0  0.18770527026E+02  0.17191002236E+02 -0.35153379159E+02  0.43400729361E+02  0.00000000000E+00 0. -1.
         11    1    3    3    0    0 -0.14233937620E+01 -0.12464273445E+02  0.14579437606E+02  0.19233932606E+02  0.51100000000E-03 0. -1.
        -11    1    3    3    0    0 -0.11724540311E+02 -0.67876503921E+01  0.16306473076E+02  0.21199955372E+02  0.51100000000E-03 0.  1.
         12    1    3    3    0    0 -0.56225929534E+01  0.20609216005E+01  0.42674684768E+01  0.73533826613E+01  0.00000000000E+00 0. -1.
</event>
<event>
 7    1  0.2412036E-009  0.4778727E+02  0.7816164E-02  0.1312668E+00
        -11   -1    0    0    0    0  0.00000000000E+00  0.00000000000E+00  0.45593999997E+02  0.45594000000E+02  0.51100000000E-03 0. -1.
         11   -1    0    0    0    0 -0.00000000000E+00 -0.00000000000E+00 -0.45593999997E+02  0.45594000000E+02  0.51100000000E-03 0.  1.
    9900012    2    1    2    0    0  0.20626406964E+02  0.19906610234E+02 -0.32586828378E+02  0.47787272138E+02  0.20000004984E+02 0.  0.
         12    1    1    2    0    0 -0.20626406964E+02 -0.19906610234E+02  0.32586828378E+02  0.43400727862E+02  0.00000000000E+00 0. -1.
         11    1    3    3    0    0  0.32701341514E+01  0.52206725065E+00 -0.48063011515E+01  0.58366824997E+01  0.51100000000E-03 0.  1.
        -11    1    3    3    0    0  0.20444955909E+02  0.18053613652E+02 -0.21145184382E+02  0.34511563436E+02  0.51100000000E-03 0. -1.
        -12    1    3    3    0    0 -0.30886830968E+01  0.13309293312E+01 -0.66353428450E+01  0.74390262016E+01  0.00000000000E+00 0.  1.
</event>
<event>
 7    1  0.2412036E-009  0.4778726E+02  0.7816164E-02  0.1312668E+00
        -11   -1    0    0    0    0  0.00000000000E+00  0.00000000000E+00  0.45593999997E+02  0.45594000000E+02  0.51100000000E-03 0.  1.
         11   -1    0    0    0    0 -0.00000000000E+00 -0.00000000000E+00 -0.45593999997E+02  0.45594000000E+02  0.51100000000E-03 0. -1.
    9900012    2    1    2    0    0 -0.13358247668E+02 -0.41171228036E+02  0.31797891691E+01  0.47787264316E+02  0.19999969322E+02 0.  0.
         12    1    1    2    0    0  0.13358247668E+02  0.41171228036E+02 -0.31797891691E+01  0.43400735684E+02  0.00000000000E+00 0. -1.
         11    1    3    3    0    0  0.42613642424E+01 -0.26086442425E+01  0.17113065756E+01  0.52813653961E+01  0.51100000000E-03 0. -1.
        -11    1    3    3    0    0 -0.10327179080E+02 -0.21009776470E+02 -0.33537261458E+00  0.23413111928E+02  0.51100000000E-03 0.  1.
         12    1    3    3    0    0 -0.72924328298E+01 -0.17552807323E+02  0.18038552081E+01  0.19092786992E+02  0.00000000000E+00 0. -1.
</event>
<event>
 7    1  0.2412036E-009  0.4778727E+02  0.7816164E-02  0.1312668E+00
        -11   -1    0    0    0    0  0.00000000000E+00  0.00000000000E+00  0.45593999997E+02  0.45594000000E+02  0.51100000000E-03 0. -1.
         11   -1    0    0    0    0 -0.00000000000E+00 -0.00000000000E+00 -0.45593999997E+02  0.45594000000E+02  0.51100000000E-03 0.  1.
    9900012    2    1    2    0    0  0.33421852965E+02  0.16978703014E+02 -0.21870680400E+02  0.47787271057E+02  0.20000000057E+02 0.  0.
         12    1    1    2    0    0 -0.33421852965E+02 -0.16978703014E+02  0.21870680400E+02  0.43400728943E+02  0.00000000000E+00 0. -1.
         11    1    3    3    0    0  0.13047490651E+02  0.57296498522E+01  0.32134218257E+00  0.14253741992E+02  0.51100000000E-03 0. -1.
        -11    1    3    3    0    0  0.90142959968E+01  0.89691531950E+01 -0.15864094566E+02  0.20331569984E+02  0.51100000000E-03 0.  1.
         12    1    3    3    0    0  0.11360066318E+02  0.22798999669E+01 -0.63279280158E+01  0.13201959081E+02  0.00000000000E+00 0. -1.
</event>
<event>
 7    1  0.2412036E-009  0.4778729E+02  0.7816164E-02  0.1312668E+00
        -11   -1    0    0    0    0  0.00000000000E+00  0.00000000000E+00  0.45593999997E+02  0.45594000000E+02  0.51100000000E-03 0.  1.
         11   -1    0    0    0    0 -0.00000000000E+00 -0.00000000000E+00 -0.45593999997E+02  0.45594000000E+02  0.51100000000E-03 0. -1.
    9900012    2    1    2    0    0  0.31166185467E+02 -0.18655936449E+02  0.23753881143E+02  0.47787286288E+02  0.20000069504E+02 0.  0.
         12    1    1    2    0    0 -0.31166185467E+02  0.18655936449E+02 -0.23753881143E+02  0.43400713712E+02  0.00000000000E+00 0. -1.
         11    1    3    3    0    0  0.13538757929E+02 -0.10199655461E+02  0.71335631850E+01  0.18390722165E+02  0.51100000000E-03 0. -1.
        -11    1    3    3    0    0  0.16559644449E+02 -0.54190578881E+01  0.18703539643E+02  0.25561893672E+02  0.51100000000E-03 0.  1.
        -12    1    3    3    0    0  0.10677830884E+01 -0.30372230997E+01 -0.20832216848E+01  0.38346704511E+01  0.00000000000E+00 0.  1.
</event>
<event>
 7    1  0.2412036E-009  0.4778727E+02  0.7816164E-02  0.1312668E+00
        -11   -1    0    0    0    0  0.00000000000E+00  0.00000000000E+00  0.45593999997E+02  0.45594000000E+02  0.51100000000E-03 0. -1.
         11   -1    0    0    0    0 -0.00000000000E+00 -0.00000000000E+00 -0.45593999997E+02  0.45594000000E+02  0.51100000000E-03 0.  1.
    9900012    2    1    2    0    0 -0.24258097050E+02  0.35088931636E+02 -0.79959284577E+01  0.47787271115E+02  0.20000000321E+02 0.  0.
         12    1    1    2    0    0  0.24258097050E+02 -0.35088931636E+02  0.79959284577E+01  0.43400728885E+02  0.00000000000E+00 0. -1.
         11    1    3    3    0    0 -0.13655293282E+02  0.60715958856E+01 -0.38924572840E+01  0.15442879757E+02  0.51100000000E-03 0. -1.
        -11    1    3    3    0    0 -0.98067153432E+01  0.22390151117E+02  0.12310721824E+00  0.24443929482E+02  0.51100000000E-03 0.  1.
         12    1    3    3    0    0 -0.79608842463E+00  0.66271846334E+01 -0.42265783920E+01  0.79004618756E+01  0.00000000000E+00 0. -1.
</event>
<event>
 7    1  0.2412036E-009  0.4778727E+02  0.7816164E-02  0.1312668E+00
        -11   -1    0    0    0    0  0.00000000000E+00  0.00000000000E+00  0.45593999997E+02  0.45594000000E+02  0.51100000000E-03 0. -1.
         11   -1    0    0    0    0 -0.00000000000E+00 -0.00000000000E+00 -0.45593999997E+02  0.45594000000E+02  0.51100000000E-03 0.  1.
    9900012    2    1    2    0    0  0.29174826131E+02 -0.30963204706E+02 -0.85867755682E+01  0.47787271433E+02  0.20000001773E+02 0.  0.
         12    1    1    2    0    0 -0.29174826131E+02  0.30963204706E+02  0.85867755682E+01  0.43400728567E+02  0.00000000000E+00 0. -1.
         11    1    3    3    0    0  0.13344788221E+01 -0.10281526688E+02 -0.48835960887E+01  0.11460372410E+02  0.51100000000E-03 0. -1.
        -11    1    3    3    0    0  0.20114790784E+02 -0.19035439458E+02 -0.54790952263E+01  0.28230714628E+02  0.51100000000E-03 0.  1.
         12    1    3    3    0    0  0.77255565253E+01 -0.16462385598E+01  0.17759157467E+01  0.80961843951E+01  0.00000000000E+00 0. -1.
</event>
<event>
 7    1  0.2412036E-009  0.4778727E+02  0.7816164E-02  0.1312668E+00
        -11   -1    0    0    0    0  0.00000000000E+00  0.00000000000E+00  0.45593999997E+02  0.45594000000E+02  0.51100000000E-03 0. -1.
         11   -1    0    0    0    0 -0.00000000000E+00 -0.00000000000E+00 -0.45593999997E+02  0.45594000000E+02  0.51100000000E-03 0.  1.
    9900012    2    1    2    0    0  0.23049681614E+02  0.36640603902E+02 -0.31307584083E+01  0.47787270455E+02  0.19999997313E+02 0.  0.
         12    1    1    2    0    0 -0.23049681614E+02 -0.36640603902E+02  0.31307584083E+01  0.43400729545E+02  0.00000000000E+00 0. -1.
         11    1    3    3    0    0  0.12095489866E+00 -0.15201691118E+01  0.11103861483E+01  0.18863991825E+01  0.51100000000E-03 0. -1.
        -11    1    3    3    0    0  0.19015584037E+02  0.36019013313E+02 -0.16975183693E+01  0.40765712617E+02  0.51100000000E-03 0.  1.
         12    1    3    3    0    0  0.39131426785E+01  0.21417597011E+01 -0.25436261874E+01  0.51351586559E+01  0.00000000000E+00 0. -1.
</event>
<event>
 7    1  0.2412036E-009  0.4778727E+02  0.7816164E-02  0.1312668E+00
        -11   -1    0    0    0    0  0.00000000000E+00  0.00000000000E+00  0.45593999997E+02  0.45594000000E+02  0.51100000000E-03 0.  1.
         11   -1    0    0    0    0 -0.00000000000E+00 -0.00000000000E+00 -0.45593999997E+02  0.45594000000E+02  0.51100000000E-03 0. -1.
    9900012    2    1    2    0    0 -0.55502142515E+01 -0.39488587555E+02  0.17130956498E+02  0.47787273096E+02  0.20000009352E+02 0.  0.
         12    1    1    2    0    0  0.55502142515E+01  0.39488587555E+02 -0.17130956498E+02  0.43400726904E+02  0.00000000000E+00 0. -1.
         11    1    3    3    0    0 -0.76023087834E+01 -0.75163723732E+01  0.39440938210E+01  0.11395035271E+02  0.51100000000E-03 0. -1.
        -11    1    3    3    0    0  0.10034837989E+01 -0.25691130386E+02  0.52927921974E+01  0.26249853519E+02  0.51100000000E-03 0.  1.
        -12    1    3    3    0    0  0.10486107331E+01 -0.62810847953E+01  0.78940704792E+01  0.10142384306E+02  0.00000000000E+00 0.  1.
</event>
<event>
 7    1  0.2412036E-009  0.4778727E+02  0.7816164E-02  0.1312668E+00
        -11   -1    0    0    0    0  0.00000000000E+00  0.00000000000E+00  0.45593999997E+02  0.45594000000E+02  0.51100000000E-03 0. -1.
         11   -1    0    0    0    0 -0.00000000000E+00 -0.00000000000E+00 -0.45593999997E+02  0.45594000000E+02  0.51100000000E-03 0.  1.
    9900012    2    1    2    0    0  0.40215355219E+02 -0.13161546731E+02 -0.96499914109E+01  0.47787269108E+02  0.19999991169E+02 0.  0.
         12    1    1    2    0    0 -0.40215355219E+02  0.13161546731E+02  0.96499914109E+01  0.43400730892E+02  0.00000000000E+00 0. -1.
         11    1    3    3    0    0  0.40420387571E+01  0.18679891421E+01  0.10237767646E+01  0.45689801788E+01  0.51100000000E-03 0. -1.
        -11    1    3    3    0    0  0.27782734297E+02 -0.17808692813E+02 -0.76401301844E+01  0.33873314781E+02  0.51100000000E-03 0.  1.
        -12    1    3    3    0    0  0.83905821652E+01  0.27791569399E+01 -0.30336379911E+01  0.93449741481E+01  0.00000000000E+00 0.  1.
</event>
<event>
 7    1  0.2412036E-009  0.4778727E+02  0.7816164E-02  0.1312668E+00
        -11   -1    0    0    0    0  0.00000000000E+00  0.00000000000E+00  0.45593999997E+02  0.45594000000E+02  0.51100000000E-03 0.  1.
         11   -1    0    0    0    0 -0.00000000000E+00 -0.00000000000E+00 -0.45593999997E+02  0.45594000000E+02  0.51100000000E-03 0. -1.
    9900012    2    1    2    0    0  0.17618529112E+02 -0.43365295061E+01  0.39425944288E+02  0.47787272596E+02  0.20000007073E+02 0.  0.
         12    1    1    2    0    0 -0.17618529112E+02  0.43365295061E+01 -0.39425944288E+02  0.43400727404E+02  0.00000000000E+00 0. -1.
         11    1    3    3    0    0  0.62138172175E+00 -0.75579977386E+00  0.22612326940E+02  0.22633485778E+02  0.51100000000E-03 0.  1.
        -11    1    3    3    0    0  0.84293695173E+01 -0.52442074628E+01  0.98918972013E+01  0.14014478687E+02  0.51100000000E-03 0. -1.
         12    1    3    3    0    0  0.85677778733E+01  0.16634777306E+01  0.69217201464E+01  0.11139308131E+02  0.00000000000E+00 0. -1.
</event>
<event>
 7    1  0.2412036E-009  0.4778727E+02  0.7816164E-02  0.1312668E+00
        -11   -1    0    0    0    0  0.00000000000E+00  0.00000000000E+00  0.45593999997E+02  0.45594000000E+02  0.51100000000E-03 0.  1.
         11   -1    0    0    0    0 -0.00000000000E+00 -0.00000000000E+00 -0.45593999997E+02  0.45594000000E+02  0.51100000000E-03 0. -1.
    9900012    2    1    2    0    0  0.51891964939E+01  0.20007226986E+02  0.38162894117E+02  0.47787269830E+02  0.19999994462E+02 0.  0.
         12    1    1    2    0    0 -0.51891964939E+01 -0.20007226986E+02 -0.38162894117E+02  0.43400730170E+02  0.00000000000E+00 0. -1.
         11    1    3    3    0    0  0.70542062842E+01  0.17523708471E+01  0.15094682784E+02  0.16753569127E+02  0.51100000000E-03 0. -1.
        -11    1    3    3    0    0 -0.12053482118E+01  0.14487418153E+02  0.22999012486E+02  0.27208320871E+02  0.51100000000E-03 0.  1.
         12    1    3    3    0    0 -0.65966157861E+00  0.37674379860E+01  0.69198847383E-01  0.38253798317E+01  0.00000000000E+00 0. -1.
</event>
<event>
 7    1  0.2412036E-009  0.4778727E+02  0.7816164E-02  0.1312668E+00
        -11   -1    0    0    0    0  0.00000000000E+00  0.00000000000E+00  0.45593999997E+02  0.45594000000E+02  0.51100000000E-03 0.  1.
         11   -1    0    0    0    0 -0.00000000000E+00 -0.00000000000E+00 -0.45593999997E+02  0.45594000000E+02  0.51100000000E-03 0. -1.
    9900012    2    1    2    0    0 -0.24059212747E+02  0.23890675477E+02  0.27092674698E+02  0.47787272874E+02  0.20000008341E+02 0.  0.
         12    1    1    2    0    0  0.24059212747E+02 -0.23890675477E+02 -0.27092674698E+02  0.43400727126E+02  0.00000000000E+00 0. -1.
         11    1    3    3    0    0 -0.21737835278E+02  0.13198344019E+02  0.11308275537E+02  0.27831759975E+02  0.51100000000E-03 0.  1.
        -11    1    3    3    0    0 -0.41843510378E+00  0.20874709669E+01  0.77256901834E+01  0.80136703229E+01  0.51100000000E-03 0. -1.
         12    1    3    3    0    0 -0.19029423651E+01  0.86048604916E+01  0.80587089777E+01  0.11941842576E+02  0.00000000000E+00 0. -1.
</event>
<event>
 7    1  0.2412036E-009  0.4778727E+02  0.7816164E-02  0.1312668E+00
        -11   -1    0    0    0    0  0.00000000000E+00  0.00000000000E+00  0.45593999997E+02  0.45594000000E+02  0.51100000000E-03 0.  1.
         11   -1    0    0    0    0 -0.00000000000E+00 -0.00000000000E+00 -0.45593999997E+02  0.45594000000E+02  0.51100000000E-03 0. -1.
    9900012    2    1    2    0    0 -0.39829806095E+02  0.57329125807E+01  0.16258644200E+02  0.47787271302E+02  0.20000001176E+02 0.  0.
         12    1    1    2    0    0  0.39829806095E+02 -0.57329125807E+01 -0.16258644200E+02  0.43400728698E+02  0.00000000000E+00 0. -1.
         11    1    3    3    0    0 -0.72040971032E-01 -0.77620169508E+00  0.21834065903E+00  0.80953806424E+00  0.51100000000E-03 0. -1.
        -11    1    3    3    0    0 -0.28903876995E+02  0.32847323894E+01  0.23107580346E+01  0.29181555393E+02  0.51100000000E-03 0.  1.
        -12    1    3    3    0    0 -0.10853888129E+02  0.32243818864E+01  0.13729545507E+02  0.17796177845E+02  0.00000000000E+00 0.  1.
</event>
<event>
 7    1  0.2412036E-009  0.4778725E+02  0.7816164E-02  0.1312668E+00
        -11   -1    0    0    0    0  0.00000000000E+00  0.00000000000E+00  0.45593999997E+02  0.45594000000E+02  0.51100000000E-03 0. -1.
         11   -1    0    0    0    0 -0.00000000000E+00 -0.00000000000E+00 -0.45593999997E+02  0.45594000000E+02  0.51100000000E-03 0.  1.
    9900012    2    1    2    0    0 -0.23592434585E+02 -0.35833441672E+02 -0.65563938598E+01  0.47787253322E+02  0.19999919198E+02 0.  0.
         12    1    1    2    0    0  0.23592434585E+02  0.35833441672E+02  0.65563938598E+01  0.43400746678E+02  0.00000000000E+00 0. -1.
         11    1    3    3    0    0  0.16093970122E+01 -0.16126671470E+01 -0.32232085725E-02  0.22783469271E+01  0.51100000000E-03 0. -1.
        -11    1    3    3    0    0 -0.78363655955E+01 -0.13223908832E+02  0.46331862243E+01  0.16054494866E+02  0.51100000000E-03 0.  1.
        -12    1    3    3    0    0 -0.17365466002E+02 -0.20996865694E+02 -0.11186356876E+02  0.29454411530E+02  0.00000000000E+00 0.  1.
</event>
<event>
 7    1  0.2412036E-009  0.4778727E+02  0.7816164E-02  0.1312668E+00
        -11   -1    0    0    0    0  0.00000000000E+00  0.00000000000E+00  0.45593999997E+02  0.45594000000E+02  0.51100000000E-03 0. -1.
         11   -1    0    0    0    0 -0.00000000000E+00 -0.00000000000E+00 -0.45593999997E+02  0.45594000000E+02  0.51100000000E-03 0.  1.
    9900012    2    1    2    0    0  0.18396061299E+02  0.94241282096E+01 -0.38162727700E+02  0.47787273632E+02  0.20000011797E+02 0.  0.
         12    1    1    2    0    0 -0.18396061299E+02 -0.94241282096E+01  0.38162727700E+02  0.43400726368E+02  0.00000000000E+00 0. -1.
         11    1    3    3    0    0  0.86393380489E+01  0.11395990855E+02 -0.10349926649E+02  0.17652981373E+02  0.51100000000E-03 0. -1.
        -11    1    3    3    0    0  0.95755883275E+01 -0.15339414340E-01 -0.21850908634E+02  0.23856955705E+02  0.51100000000E-03 0.  1.
        -12    1    3    3    0    0  0.18113492216E+00 -0.19565232307E+01 -0.59618924171E+01  0.62773365535E+01  0.00000000000E+00 0.  1.
</event>
<event>
 7    1  0.5869445E-009  0.4778727E+02  0.7816164E-02  0.1312668E+00
        -11   -1    0    0    0    0  0.00000000000E+00  0.00000000000E+00  0.45593999997E+02  0.45594000000E+02  0.51100000000E-03 0.  1.
         11   -1    0    0    0    0 -0.00000000000E+00 -0.00000000000E+00 -0.45593999997E+02  0.45594000000E+02  0.51100000000E-03 0. -1.
    9900012    2    1    2    0    0  0.37496169315E+02  0.20846047263E+02 -0.65652966547E+01  0.47787268209E+02  0.19999987073E+02 0.  0.
         12    1    1    2    0    0 -0.37496169315E+02 -0.20846047263E+02  0.65652966547E+01  0.43400731791E+02  0.00000000000E+00 0. -1.
         11    1    3    3    0    0  0.11960468383E+02  0.43402974553E+01  0.54978603758E+01  0.13860644102E+02  0.51100000000E-03 0. -1.
        -11    1    3    3    0    0  0.20113458896E+02  0.13204658005E+02 -0.52738145606E+01  0.24631835946E+02  0.51100000000E-03 0.  1.
         12    1    3    3    0    0  0.54222420362E+01  0.33010918031E+01 -0.67893424699E+01  0.92947881614E+01  0.00000000000E+00 0. -1.
</event>
<event>
 7    1  0.2412036E-009  0.4778726E+02  0.7816164E-02  0.1312668E+00
        -11   -1    0    0    0    0  0.00000000000E+00  0.00000000000E+00  0.45593999997E+02  0.45594000000E+02  0.51100000000E-03 0.  1.
         11   -1    0    0    0    0 -0.00000000000E+00 -0.00000000000E+00 -0.45593999997E+02  0.45594000000E+02  0.51100000000E-03 0. -1.
    9900012    2    1    2    0    0 -0.95903716927E+01  0.11005288128E+02  0.40872147006E+02  0.47787262715E+02  0.19999962023E+02 0.  0.
         12    1    1    2    0    0  0.95903716927E+01 -0.11005288128E+02 -0.40872147006E+02  0.43400737285E+02  0.00000000000E+00 0. -1.
         11    1    3    3    0    0 -0.67108742194E+01  0.48253908312E+01  0.89011735009E+01  0.12147062172E+02  0.51100000000E-03 0. -1.
        -11    1    3    3    0    0 -0.80434328845E+00  0.70643229726E+01  0.32544963266E+02  0.33312554111E+02  0.51100000000E-03 0.  1.
        -12    1    3    3    0    0 -0.20751541848E+01 -0.88442567533E+00 -0.57398976061E+00  0.23276464317E+01  0.00000000000E+00 0.  1.
</event>
<event>
 7    1  0.2412036E-009  0.4778728E+02  0.7816164E-02  0.1312668E+00
        -11   -1    0    0    0    0  0.00000000000E+00  0.00000000000E+00  0.45593999997E+02  0.45594000000E+02  0.51100000000E-03 0.  1.
         11   -1    0    0    0    0 -0.00000000000E+00 -0.00000000000E+00 -0.45593999997E+02  0.45594000000E+02  0.51100000000E-03 0. -1.
    9900012    2    1    2    0    0 -0.62603399977E+01  0.21603626891E+02  0.37117571154E+02  0.47787278346E+02  0.20000033290E+02 0.  0.
         12    1    1    2    0    0  0.62603399977E+01 -0.21603626891E+02 -0.37117571154E+02  0.43400721654E+02  0.00000000000E+00 0. -1.
         11    1    3    3    0    0 -0.60186884727E+01 -0.37293522755E-01  0.12725998167E+02  0.14077536409E+02  0.51100000000E-03 0. -1.
        -11    1    3    3    0    0  0.22376754412E+00  0.11519183960E+02  0.19030647084E+02  0.22246509832E+02  0.51100000000E-03 0.  1.
         12    1    3    3    0    0 -0.46541906912E+00  0.10121736454E+02  0.53609259029E+01  0.11463232105E+02  0.00000000000E+00 0. -1.
</event>
<event>
 7    1  0.2412036E-009  0.4778727E+02  0.7816164E-02  0.1312668E+00
        -11   -1    0    0    0    0  0.00000000000E+00  0.00000000000E+00  0.45593999997E+02  0.45594000000E+02  0.51100000000E-03 0.  1.
         11   -1    0    0    0    0 -0.00000000000E+00 -0.00000000000E+00 -0.45593999997E+02  0.45594000000E+02  0.51100000000E-03 0. -1.
    9900012    2    1    2    0    0 -0.32986518617E+02  0.99250204790E+01  0.26400885639E+02  0.47787271843E+02  0.20000003643E+02 0.  0.
         12    1    1    2    0    0  0.32986518617E+02 -0.99250204790E+01 -0.26400885639E+02  0.43400728157E+02  0.00000000000E+00 0. -1.
         11    1    3    3    0    0 -0.29036019176E+02  0.86144276022E+01  0.18131783196E+02  0.35299579808E+02  0.51100000000E-03 0. -1.
        -11    1    3    3    0    0 -0.51883529545E+01 -0.60103085298E-01  0.90899335645E+01  0.10466590239E+02  0.51100000000E-03 0.  1.
         12    1    3    3    0    0  0.12378535130E+01  0.13706959621E+01 -0.82083112191E+00  0.20211017962E+01  0.00000000000E+00 0. -1.
</event>
<event>
 7    1  0.2412036E-009  0.4778727E+02  0.7816164E-02  0.1312668E+00
        -11   -1    0    0    0    0  0.00000000000E+00  0.00000000000E+00  0.45593999997E+02  0.45594000000E+02  0.51100000000E-03 0.  1.
         11   -1    0    0    0    0 -0.00000000000E+00 -0.00000000000E+00 -0.45593999997E+02  0.45594000000E+02  0.51100000000E-03 0. -1.
    9900012    2    1    2    0    0  0.13108779358E+02  0.36620495416E+02  0.19254159298E+02  0.47787269234E+02  0.19999991746E+02 0.  0.
         12    1    1    2    0    0 -0.13108779358E+02 -0.36620495416E+02 -0.19254159298E+02  0.43400730766E+02  0.00000000000E+00 0. -1.
         11    1    3    3    0    0 -0.77944245227E+00  0.30347106838E+00  0.32373426707E+00  0.89689986205E+00  0.51100000000E-03 0. -1.
        -11    1    3    3    0    0 -0.36209232981E-01  0.12040454374E+01  0.72544944889E+01  0.73538239763E+01  0.51100000000E-03 0.  1.
        -12    1    3    3    0    0  0.13924431044E+02  0.35112978910E+02  0.11675930542E+02  0.39536545396E+02  0.00000000000E+00 0.  1.
</event>
<event>
 7    1  0.2412036E-009  0.4778727E+02  0.7816164E-02  0.1312668E+00
        -11   -1    0    0    0    0  0.00000000000E+00  0.00000000000E+00  0.45593999997E+02  0.45594000000E+02  0.51100000000E-03 0. -1.
         11   -1    0    0    0    0 -0.00000000000E+00 -0.00000000000E+00 -0.45593999997E+02  0.45594000000E+02  0.51100000000E-03 0.  1.
    9900012    2    1    2    0    0  0.14566744932E+02 -0.15669480427E+02 -0.37761096628E+02  0.47787273125E+02  0.20000009485E+02 0.  0.
         12    1    1    2    0    0 -0.14566744932E+02  0.15669480427E+02  0.37761096628E+02  0.43400726875E+02  0.00000000000E+00 0. -1.
         11    1    3    3    0    0  0.17975129210E+01 -0.10440014801E+02 -0.24016933097E+02  0.26249534042E+02  0.51100000000E-03 0. -1.
        -11    1    3    3    0    0  0.23660803841E+00 -0.22362615639E+01 -0.62260234812E+01  0.66196841160E+01  0.51100000000E-03 0.  1.
         12    1    3    3    0    0  0.12532623973E+02 -0.29932040624E+01 -0.75181400491E+01  0.14918054967E+02  0.00000000000E+00 0. -1.
</event>
<event>
 7    1  0.2412036E-009  0.4778727E+02  0.7816164E-02  0.1312668E+00
        -11   -1    0    0    0    0  0.00000000000E+00  0.00000000000E+00  0.45593999997E+02  0.45594000000E+02  0.51100000000E-03 0.  1.
         11   -1    0    0    0    0 -0.00000000000E+00 -0.00000000000E+00 -0.45593999997E+02  0.45594000000E+02  0.51100000000E-03 0. -1.
    9900012    2    1    2    0    0 -0.62655860757E+01 -0.21480788846E+02  0.37187916797E+02  0.47787274038E+02  0.20000013649E+02 0.  0.
         12    1    1    2    0    0  0.62655860757E+01  0.21480788846E+02 -0.37187916797E+02  0.43400725962E+02  0.00000000000E+00 0. -1.
         11    1    3    3    0    0 -0.17694386228E+01  0.18029556056E+01 -0.19003227530E+00  0.25333129460E+01  0.51100000000E-03 0. -1.
        -11    1    3    3    0    0 -0.24649203050E+01 -0.14811575925E+02  0.31037514973E+02  0.34478775347E+02  0.51100000000E-03 0.  1.
        -12    1    3    3    0    0 -0.20312271480E+01 -0.84721685262E+01  0.63404340997E+01  0.10775185745E+02  0.00000000000E+00 0.  1.
</event>
<event>
 7    1  0.2412036E-009  0.4778727E+02  0.7816164E-02  0.1312668E+00
        -11   -1    0    0    0    0  0.00000000000E+00  0.00000000000E+00  0.45593999997E+02  0.45594000000E+02  0.51100000000E-03 0. -1.
         11   -1    0    0    0    0 -0.00000000000E+00 -0.00000000000E+00 -0.45593999997E+02  0.45594000000E+02  0.51100000000E-03 0.  1.
    9900012    2    1    2    0    0 -0.10244064844E+02  0.19386500207E+01 -0.42129845318E+02  0.47787273106E+02  0.20000009400E+02 0.  0.
         12    1    1    2    0    0  0.10244064844E+02 -0.19386500207E+01  0.42129845318E+02  0.43400726894E+02  0.00000000000E+00 0. -1.
         11    1    3    3    0    0 -0.79813467256E+01  0.82298311683E+01 -0.13379581964E+02  0.17619456019E+02  0.51100000000E-03 0. -1.
        -11    1    3    3    0    0 -0.29063089456E+01 -0.32744300807E+01 -0.24655508323E+02  0.25041218320E+02  0.51100000000E-03 0.  1.
         12    1    3    3    0    0  0.64359082725E+00 -0.30167510669E+01 -0.40947550306E+01  0.51265987665E+01  0.00000000000E+00 0. -1.
</event>
<event>
 7    1  0.2412036E-009  0.4778727E+02  0.7816164E-02  0.1312668E+00
        -11   -1    0    0    0    0  0.00000000000E+00  0.00000000000E+00  0.45593999997E+02  0.45594000000E+02  0.51100000000E-03 0.  1.
         11   -1    0    0    0    0 -0.00000000000E+00 -0.00000000000E+00 -0.45593999997E+02  0.45594000000E+02  0.51100000000E-03 0. -1.
    9900012    2    1    2    0    0 -0.10392468597E+02 -0.10775954275E+01  0.42124322078E+02  0.47787272748E+02  0.20000007767E+02 0.  0.
         12    1    1    2    0    0  0.10392468597E+02  0.10775954275E+01 -0.42124322078E+02  0.43400727252E+02  0.00000000000E+00 0. -1.
         11    1    3    3    0    0  0.37920005832E+00 -0.28686542053E+01  0.99525821403E+00  0.30599850993E+01  0.51100000000E-03 0. -1.
        -11    1    3    3    0    0 -0.13824061058E+02  0.21096375457E+01  0.28709534582E+02  0.31934191878E+02  0.51100000000E-03 0.  1.
        -12    1    3    3    0    0  0.30523924028E+01 -0.31857876785E+00  0.12419529283E+02  0.12793095771E+02  0.00000000000E+00 0.  1.
</event>
<event>
 7    1  0.2412036E-009  0.4778727E+02  0.7816164E-02  0.1312668E+00
        -11   -1    0    0    0    0  0.00000000000E+00  0.00000000000E+00  0.45593999997E+02  0.45594000000E+02  0.51100000000E-03 0.  1.
         11   -1    0    0    0    0 -0.00000000000E+00 -0.00000000000E+00 -0.45593999997E+02  0.45594000000E+02  0.51100000000E-03 0. -1.
    9900012    2    1    2    0    0  0.80676739374E+01  0.12397581101E+02  0.40802399574E+02  0.47787272000E+02  0.20000004356E+02 0.  0.
         12    1    1    2    0    0 -0.80676739374E+01 -0.12397581101E+02 -0.40802399574E+02  0.43400728000E+02  0.00000000000E+00 0. -1.
         11    1    3    3    0    0 -0.33502739683E+01 -0.19912905738E+01  0.77835672355E+01  0.87047971247E+01  0.51100000000E-03 0. -1.
        -11    1    3    3    0    0  0.10711159266E+02  0.13606522124E+02  0.33656680919E+02  0.37850211992E+02  0.51100000000E-03 0.  1.
         12    1    3    3    0    0  0.70678864012E+00  0.78234955037E+00 -0.63784857994E+00  0.12322628825E+01  0.00000000000E+00 0. -1.
</event>
<event>
 7    1  0.2412036E-009  0.4778727E+02  0.7816164E-02  0.1312668E+00
        -11   -1    0    0    0    0  0.00000000000E+00  0.00000000000E+00  0.45593999997E+02  0.45594000000E+02  0.51100000000E-03 0.  1.
         11   -1    0    0    0    0 -0.00000000000E+00 -0.00000000000E+00 -0.45593999997E+02  0.45594000000E+02  0.51100000000E-03 0. -1.
    9900012    2    1    2    0    0  0.24320687647E+02 -0.30282438701E+02  0.19367535851E+02  0.47787269750E+02  0.19999994097E+02 0.  0.
         12    1    1    2    0    0 -0.24320687647E+02  0.30282438701E+02 -0.19367535851E+02  0.43400730250E+02  0.00000000000E+00 0. -1.
         11    1    3    3    0    0  0.16477302564E+02 -0.13795890991E+02  0.26092806358E+01  0.21648012697E+02  0.51100000000E-03 0. -1.
        -11    1    3    3    0    0  0.51927307713E+01 -0.27675727488E+01  0.67343378118E+01  0.89428864361E+01  0.51100000000E-03 0.  1.
         12    1    3    3    0    0  0.26506543112E+01 -0.13718974962E+02  0.10023917403E+02  0.17196370617E+02  0.00000000000E+00 0. -1.
</event>
<event>
 7    1  0.2412036E-009  0.4778729E+02  0.7816164E-02  0.1312668E+00
        -11   -1    0    0    0    0  0.00000000000E+00  0.00000000000E+00  0.45593999997E+02  0.45594000000E+02  0.51100000000E-03 0.  1.
         11   -1    0    0    0    0 -0.00000000000E+00 -0.00000000000E+00 -0.45593999997E+02  0.45594000000E+02  0.51100000000E-03 0. -1.
    9900012    2    1    2    0    0  0.15983770122E+02  0.29146777470E+02  0.27903510506E+02  0.47787292140E+02  0.20000096182E+02 0.  0.
         12    1    1    2    0    0 -0.15983770122E+02 -0.29146777470E+02 -0.27903510506E+02  0.43400707860E+02  0.00000000000E+00 0. -1.
         11    1    3    3    0    0  0.51153165127E+01  0.22017399437E+02  0.11598692770E+02  0.25405944486E+02  0.51100000000E-03 0. -1.
        -11    1    3    3    0    0  0.11142899161E+02  0.83799188991E+01  0.14083461592E+02  0.19817445172E+02  0.51100000000E-03 0.  1.
         12    1    3    3    0    0 -0.27444555137E+00 -0.12505408660E+01  0.22213561440E+01  0.25639024819E+01  0.00000000000E+00 0. -1.
</event>
<event>
 7    1  0.2412036E-009  0.4778727E+02  0.7816164E-02  0.1312668E+00
        -11   -1    0    0    0    0  0.00000000000E+00  0.00000000000E+00  0.45593999997E+02  0.45594000000E+02  0.51100000000E-03 0.  1.
         11   -1    0    0    0    0 -0.00000000000E+00 -0.00000000000E+00 -0.45593999997E+02  0.45594000000E+02  0.51100000000E-03 0. -1.
    9900012    2    1    2    0    0 -0.29489386480E+02  0.29763801840E+02  0.11318808618E+02  0.47787271395E+02  0.20000001597E+02 0.  0.
         12    1    1    2    0    0  0.29489386480E+02 -0.29763801840E+02 -0.11318808618E+02  0.43400728605E+02  0.00000000000E+00 0. -1.
         11    1    3    3    0    0  0.23610723835E+01  0.60611216074E+00  0.24399432626E+01  0.34489647922E+01  0.51100000000E-03 0. -1.
        -11    1    3    3    0    0 -0.23562450524E+02  0.23014878769E+02  0.84932851265E+01  0.34014843994E+02  0.51100000000E-03 0.  1.
         12    1    3    3    0    0 -0.82880083390E+01  0.61428109108E+01  0.38558022862E+00  0.10323462608E+02  0.00000000000E+00 0. -1.
</event>
<event>
 7    1  0.2412036E-009  0.4778727E+02  0.7816164E-02  0.1312668E+00
        -11   -1    0    0    0    0  0.00000000000E+00  0.00000000000E+00  0.45593999997E+02  0.45594000000E+02  0.51100000000E-03 0. -1.
         11   -1    0    0    0    0 -0.00000000000E+00 -0.00000000000E+00 -0.45593999997E+02  0.45594000000E+02  0.51100000000E-03 0.  1.
    9900012    2    1    2    0    0 -0.10072091088E+02 -0.26127676062E+02 -0.33159021269E+02  0.47787272278E+02  0.20000005626E+02 0.  0.
         12    1    1    2    0    0  0.10072091088E+02  0.26127676062E+02  0.33159021269E+02  0.43400727722E+02  0.00000000000E+00 0. -1.
         11    1    3    3    0    0  0.41769730338E+01 -0.84938713293E+01 -0.97756669962E+01  0.13607226733E+02  0.51100000000E-03 0. -1.
        -11    1    3    3    0    0 -0.10921500131E+02 -0.14627550897E+02 -0.23421668990E+02  0.29695437173E+02  0.51100000000E-03 0.  1.
        -12    1    3    3    0    0 -0.33275639911E+01 -0.30062538352E+01  0.38314717307E-01  0.44846083724E+01  0.00000000000E+00 0.  1.
</event>
<event>
 7    1  0.2412036E-009  0.4778727E+02  0.7816164E-02  0.1312668E+00
        -11   -1    0    0    0    0  0.00000000000E+00  0.00000000000E+00  0.45593999997E+02  0.45594000000E+02  0.51100000000E-03 0. -1.
         11   -1    0    0    0    0 -0.00000000000E+00 -0.00000000000E+00 -0.45593999997E+02  0.45594000000E+02  0.51100000000E-03 0.  1.
    9900012    2    1    2    0    0  0.12165711345E+02 -0.22530376230E+02 -0.35042841559E+02  0.47787272701E+02  0.20000007553E+02 0.  0.
         12    1    1    2    0    0 -0.12165711345E+02  0.22530376230E+02  0.35042841559E+02  0.43400727299E+02  0.00000000000E+00 0. -1.
         11    1    3    3    0    0  0.93378684680E+01 -0.22414368177E+02 -0.20111748729E+02  0.31529067946E+02  0.51100000000E-03 0. -1.
        -11    1    3    3    0    0  0.21220484101E+01  0.22963272231E+01 -0.41962846600E+01  0.52330692121E+01  0.51100000000E-03 0.  1.
         12    1    3    3    0    0  0.70579446701E+00 -0.24123352755E+01 -0.10734808169E+02  0.11025135543E+02  0.00000000000E+00 0. -1.
</event>
<event>
 7    1  0.2412036E-009  0.4778727E+02  0.7816164E-02  0.1312668E+00
        -11   -1    0    0    0    0  0.00000000000E+00  0.00000000000E+00  0.45593999997E+02  0.45594000000E+02  0.51100000000E-03 0.  1.
         11   -1    0    0    0    0 -0.00000000000E+00 -0.00000000000E+00 -0.45593999997E+02  0.45594000000E+02  0.51100000000E-03 0. -1.
    9900012    2    1    2    0    0  0.23832045288E+02 -0.27028110604E+02  0.24189633028E+02  0.47787268538E+02  0.19999988573E+02 0.  0.
         12    1    1    2    0    0 -0.23832045288E+02  0.27028110604E+02 -0.24189633028E+02  0.43400731462E+02  0.00000000000E+00 0. -1.
         11    1    3    3    0    0  0.55573651854E+01 -0.49309092420E+01 -0.21816356306E+01  0.77432362771E+01  0.51100000000E-03 0. -1.
        -11    1    3    3    0    0  0.14318110609E+02 -0.12786807805E+02  0.21477982168E+02  0.28806500370E+02  0.51100000000E-03 0.  1.
        -12    1    3    3    0    0  0.39565694934E+01 -0.93103935569E+01  0.48932864897E+01  0.11237531891E+02  0.00000000000E+00 0.  1.
</event>
<event>
 7    1  0.2412036E-009  0.4778727E+02  0.7816164E-02  0.1312668E+00
        -11   -1    0    0    0    0  0.00000000000E+00  0.00000000000E+00  0.45593999997E+02  0.45594000000E+02  0.51100000000E-03 0.  1.
         11   -1    0    0    0    0 -0.00000000000E+00 -0.00000000000E+00 -0.45593999997E+02  0.45594000000E+02  0.51100000000E-03 0. -1.
    9900012    2    1    2    0    0  0.27624770187E+02 -0.28454709155E+02  0.17630229166E+02  0.47787269805E+02  0.19999994349E+02 0.  0.
         12    1    1    2    0    0 -0.27624770187E+02  0.28454709155E+02 -0.17630229166E+02  0.43400730195E+02  0.00000000000E+00 0. -1.
         11    1    3    3    0    0  0.23244353490E+02 -0.19535192111E+02  0.15621820618E+02  0.34146229362E+02  0.51100000000E-03 0. -1.
        -11    1    3    3    0    0  0.37337838906E+01 -0.49166955785E+01  0.55165593337E+01  0.82793396292E+01  0.51100000000E-03 0.  1.
         12    1    3    3    0    0  0.64663280666E+00 -0.40028214660E+01 -0.35081507860E+01  0.53617008134E+01  0.00000000000E+00 0. -1.
</event>
<event>
 7    1  0.2412036E-009  0.4778732E+02  0.7816164E-02  0.1312668E+00
        -11   -1    0    0    0    0  0.00000000000E+00  0.00000000000E+00  0.45593999997E+02  0.45594000000E+02  0.51100000000E-03 0. -1.
         11   -1    0    0    0    0 -0.00000000000E+00 -0.00000000000E+00 -0.45593999997E+02  0.45594000000E+02  0.51100000000E-03 0.  1.
    9900012    2    1    2    0    0  0.22570595773E+02 -0.33184872597E+02 -0.16521238911E+02  0.47787321458E+02  0.20000229852E+02 0.  0.
         12    1    1    2    0    0 -0.22570595773E+02  0.33184872597E+02  0.16521238911E+02  0.43400678542E+02  0.00000000000E+00 0. -1.
         11    1    3    3    0    0  0.16879737536E+00 -0.10164925464E+00 -0.84116554434E+00  0.86393567990E+00  0.51100000000E-03 0. -1.
        -11    1    3    3    0    0  0.18104927561E+02 -0.20665770092E+02 -0.18958203866E+02  0.33380772153E+02  0.51100000000E-03 0.  1.
        -12    1    3    3    0    0  0.42968708369E+01 -0.12417453250E+02  0.32781304993E+01  0.13542613625E+02  0.00000000000E+00 0.  1.
</event>
<event>
 7    1  0.2412036E-009  0.4778727E+02  0.7816164E-02  0.1312668E+00
        -11   -1    0    0    0    0  0.00000000000E+00  0.00000000000E+00  0.45593999997E+02  0.45594000000E+02  0.51100000000E-03 0.  1.
         11   -1    0    0    0    0 -0.00000000000E+00 -0.00000000000E+00 -0.45593999997E+02  0.45594000000E+02  0.51100000000E-03 0. -1.
    9900012    2    1    2    0    0  0.40455130890E+02  0.15699520956E+02  0.72866828023E+00  0.47787268082E+02  0.19999986493E+02 0.  0.
         12    1    1    2    0    0 -0.40455130890E+02 -0.15699520956E+02 -0.72866828023E+00  0.43400731918E+02  0.00000000000E+00 0. -1.
         11    1    3    3    0    0  0.44677947154E+01  0.12022187169E+01 -0.61819930704E+01  0.77216292352E+01  0.51100000000E-03 0. -1.
        -11    1    3    3    0    0  0.25273829365E+02  0.66592278939E+01  0.55717497332E+01  0.26723700385E+02  0.51100000000E-03 0.  1.
         12    1    3    3    0    0  0.10713506809E+02  0.78380743453E+01  0.13389116174E+01  0.13341938462E+02  0.00000000000E+00 0. -1.
</event>
<event>
 7    1  0.2412036E-009  0.4778727E+02  0.7816164E-02  0.1312668E+00
        -11   -1    0    0    0    0  0.00000000000E+00  0.00000000000E+00  0.45593999997E+02  0.45594000000E+02  0.51100000000E-03 0. -1.
         11   -1    0    0    0    0 -0.00000000000E+00 -0.00000000000E+00 -0.45593999997E+02  0.45594000000E+02  0.51100000000E-03 0.  1.
    9900012    2    1    2    0    0  0.41967293350E+02  0.19623556197E+01 -0.10886619656E+02  0.47787273759E+02  0.20000012375E+02 0.  0.
         12    1    1    2    0    0 -0.41967293350E+02 -0.19623556197E+01  0.10886619656E+02  0.43400726241E+02  0.00000000000E+00 0. -1.
         11    1    3    3    0    0  0.16576859597E+02  0.10333393665E+02 -0.51875056680E+01  0.20210925611E+02  0.51100000000E-03 0. -1.
        -11    1    3    3    0    0  0.11522776686E+02 -0.56891619178E+01 -0.24321095461E+01  0.13078841806E+02  0.51100000000E-03 0.  1.
         12    1    3    3    0    0  0.13867657068E+02 -0.26818761271E+01 -0.32670044423E+01  0.14497506342E+02  0.00000000000E+00 0. -1.
</event>
<event>
 7    1  0.2412036E-009  0.4778727E+02  0.7816164E-02  0.1312668E+00
        -11   -1    0    0    0    0  0.00000000000E+00  0.00000000000E+00  0.45593999997E+02  0.45594000000E+02  0.51100000000E-03 0. -1.
         11   -1    0    0    0    0 -0.00000000000E+00 -0.00000000000E+00 -0.45593999997E+02  0.45594000000E+02  0.51100000000E-03 0.  1.
    9900012    2    1    2    0    0  0.63372098365E+01  0.30247753730E+02 -0.30471896378E+02  0.47787270708E+02  0.19999998465E+02 0.  0.
         12    1    1    2    0    0 -0.63372098365E+01 -0.30247753730E+02  0.30471896378E+02  0.43400729292E+02  0.00000000000E+00 0. -1.
         11    1    3    3    0    0 -0.18003891460E+01 -0.55571631866E+00 -0.83662879055E+01  0.85758378765E+01  0.51100000000E-03 0. -1.
        -11    1    3    3    0    0  0.35327492998E+01  0.19979413246E+02 -0.11222520350E+02  0.23186250980E+02  0.51100000000E-03 0.  1.
        -12    1    3    3    0    0  0.46048496827E+01  0.10824056803E+02 -0.10883088123E+02  0.16025181851E+02  0.00000000000E+00 0.  1.
</event>
<event>
 7    1  0.2412036E-009  0.4778727E+02  0.7816164E-02  0.1312668E+00
        -11   -1    0    0    0    0  0.00000000000E+00  0.00000000000E+00  0.45593999997E+02  0.45594000000E+02  0.51100000000E-03 0.  1.
         11   -1    0    0    0    0 -0.00000000000E+00 -0.00000000000E+00 -0.45593999997E+02  0.45594000000E+02  0.51100000000E-03 0. -1.
    9900012    2    1    2    0    0 -0.27971332237E+02  0.12517319096E+02  0.30733442768E+02  0.47787271794E+02  0.20000003417E+02 0.  0.
         12    1    1    2    0    0  0.27971332237E+02 -0.12517319096E+02 -0.30733442768E+02  0.43400728206E+02  0.00000000000E+00 0. -1.
         11    1    3    3    0    0 -0.74749051300E+01  0.59300218071E+01  0.44567242450E+00  0.95518579085E+01  0.51100000000E-03 0. -1.
        -11    1    3    3    0    0 -0.19456227773E+02  0.39290005220E+01  0.22841856967E+02  0.30261068623E+02  0.51100000000E-03 0.  1.
         12    1    3    3    0    0 -0.10401993343E+01  0.26582967670E+01  0.74459133757E+01  0.79743452618E+01  0.00000000000E+00 0. -1.
</event>
<event>
 7    1  0.2412036E-009  0.4778729E+02  0.7816164E-02  0.1312668E+00
        -11   -1    0    0    0    0  0.00000000000E+00  0.00000000000E+00  0.45593999997E+02  0.45594000000E+02  0.51100000000E-03 0. -1.
         11   -1    0    0    0    0 -0.00000000000E+00 -0.00000000000E+00 -0.45593999997E+02  0.45594000000E+02  0.51100000000E-03 0.  1.
    9900012    2    1    2    0    0  0.11357311579E+02  0.40656096827E+02  0.10085393983E+02  0.47787286788E+02  0.20000071781E+02 0.  0.
         12    1    1    2    0    0 -0.11357311579E+02 -0.40656096827E+02 -0.10085393983E+02  0.43400713212E+02  0.00000000000E+00 0. -1.
         11    1    3    3    0    0  0.45911153472E+01  0.24235548111E+02 -0.32791450439E+01  0.24883587459E+02  0.51100000000E-03 0. -1.
        -11    1    3    3    0    0  0.60273471234E+01  0.15070737777E+02  0.96505956859E+01  0.18883592027E+02  0.51100000000E-03 0.  1.
         12    1    3    3    0    0  0.73884910835E+00  0.13498109395E+01  0.37139433410E+01  0.40201073017E+01  0.00000000000E+00 0. -1.
</event>
<event>
 7    1  0.2412036E-009  0.4778726E+02  0.7816164E-02  0.1312668E+00
        -11   -1    0    0    0    0  0.00000000000E+00  0.00000000000E+00  0.45593999997E+02  0.45594000000E+02  0.51100000000E-03 0. -1.
         11   -1    0    0    0    0 -0.00000000000E+00 -0.00000000000E+00 -0.45593999997E+02  0.45594000000E+02  0.51100000000E-03 0.  1.
    9900012    2    1    2    0    0  0.26814336361E+02  0.82493179767E+01 -0.33114407211E+02  0.47787264448E+02  0.19999969922E+02 0.  0.
         12    1    1    2    0    0 -0.26814336361E+02 -0.82493179767E+01  0.33114407211E+02  0.43400735552E+02  0.00000000000E+00 0. -1.
         11    1    3    3    0    0 -0.12687476215E+01 -0.30236501717E+01 -0.89897723424E+00  0.34000501785E+01  0.51100000000E-03 0. -1.
        -11    1    3    3    0    0  0.15527762051E+02  0.77157880442E+01 -0.20509252117E+02  0.26856548589E+02  0.51100000000E-03 0.  1.
         12    1    3    3    0    0  0.12555321932E+02  0.35571801042E+01 -0.11706177859E+02  0.17530665680E+02  0.00000000000E+00 0. -1.
</event>
<event>
 7    1  0.2412036E-009  0.4778727E+02  0.7816164E-02  0.1312668E+00
        -11   -1    0    0    0    0  0.00000000000E+00  0.00000000000E+00  0.45593999997E+02  0.45594000000E+02  0.51100000000E-03 0. -1.
         11   -1    0    0    0    0 -0.00000000000E+00 -0.00000000000E+00 -0.45593999997E+02  0.45594000000E+02  0.51100000000E-03 0.  1.
    9900012    2    1    2    0    0 -0.24577118626E+02  0.85399632035E+01 -0.34736980109E+02  0.47787268226E+02  0.19999987150E+02 0.  0.
         12    1    1    2    0    0  0.24577118626E+02 -0.85399632035E+01  0.34736980109E+02  0.43400731774E+02  0.00000000000E+00 0. -1.
         11    1    3    3    0    0 -0.11540915123E+02 -0.56351601649E+01 -0.17914999239E+02  0.22043024972E+02  0.51100000000E-03 0. -1.
        -11    1    3    3    0    0 -0.84579222276E+01  0.10509080609E+02 -0.10297517501E+02  0.16971036815E+02  0.51100000000E-03 0.  1.
         12    1    3    3    0    0 -0.45782812752E+01  0.36660427594E+01 -0.65244633693E+01  0.87732064381E+01  0.00000000000E+00 0. -1.
</event>
<event>
 7    1  0.2412036E-009  0.4778727E+02  0.7816164E-02  0.1312668E+00
        -11   -1    0    0    0    0  0.00000000000E+00  0.00000000000E+00  0.45593999997E+02  0.45594000000E+02  0.51100000000E-03 0.  1.
         11   -1    0    0    0    0 -0.00000000000E+00 -0.00000000000E+00 -0.45593999997E+02  0.45594000000E+02  0.51100000000E-03 0. -1.
    9900012    2    1    2    0    0  0.20649527255E+02 -0.38395314553E+01  0.37979973210E+02  0.47787270252E+02  0.19999996387E+02 0.  0.
         12    1    1    2    0    0 -0.20649527255E+02  0.38395314553E+01 -0.37979973210E+02  0.43400729748E+02  0.00000000000E+00 0. -1.
         11    1    3    3    0    0  0.61895966669E+01  0.52475395756E+00 -0.82287986427E-01  0.62123461903E+01  0.51100000000E-03 0. -1.
        -11    1    3    3    0    0  0.77641406203E+01 -0.60178454086E+01  0.22869469574E+02  0.24889937361E+02  0.51100000000E-03 0.  1.
         12    1    3    3    0    0  0.66957899678E+01  0.16535599958E+01  0.15192791622E+02  0.16684986701E+02  0.00000000000E+00 0. -1.
</event>
<event>
 7    1  0.2412036E-009  0.4778727E+02  0.7816164E-02  0.1312668E+00
        -11   -1    0    0    0    0  0.00000000000E+00  0.00000000000E+00  0.45593999997E+02  0.45594000000E+02  0.51100000000E-03 0.  1.
         11   -1    0    0    0    0 -0.00000000000E+00 -0.00000000000E+00 -0.45593999997E+02  0.45594000000E+02  0.51100000000E-03 0. -1.
    9900012    2    1    2    0    0 -0.77365802091E+01 -0.34582109704E+01  0.42565354530E+02  0.47787270712E+02  0.19999998486E+02 0.  0.
         12    1    1    2    0    0  0.77365802091E+01  0.34582109704E+01 -0.42565354530E+02  0.43400729288E+02  0.00000000000E+00 0. -1.
         11    1    3    3    0    0  0.74113130400E+00 -0.27404436186E+00  0.51260862365E+00  0.94188310538E+00  0.51100000000E-03 0. -1.
        -11    1    3    3    0    0  0.33872122974E+01  0.51176327807E+01  0.13551883706E+02  0.14876724259E+02  0.51100000000E-03 0.  1.
        -12    1    3    3    0    0 -0.11864923811E+02 -0.83017993893E+01  0.28500862200E+02  0.31968663348E+02  0.00000000000E+00 0.  1.
</event>
<event>
 7    1  0.2412036E-009  0.4778727E+02  0.7816164E-02  0.1312668E+00
        -11   -1    0    0    0    0  0.00000000000E+00  0.00000000000E+00  0.45593999997E+02  0.45594000000E+02  0.51100000000E-03 0. -1.
         11   -1    0    0    0    0 -0.00000000000E+00 -0.00000000000E+00 -0.45593999997E+02  0.45594000000E+02  0.51100000000E-03 0.  1.
    9900012    2    1    2    0    0  0.13633461018E+00 -0.23890075798E+02 -0.36233533888E+02  0.47787270896E+02  0.19999999322E+02 0.  0.
         12    1    1    2    0    0 -0.13633461018E+00  0.23890075798E+02  0.36233533888E+02  0.43400729104E+02  0.00000000000E+00 0. -1.
         11    1    3    3    0    0  0.73227029601E+01 -0.98410295755E+01 -0.88027816443E+01  0.15098238529E+02  0.51100000000E-03 0. -1.
        -11    1    3    3    0    0 -0.64890069932E+01 -0.14094899301E+02 -0.20435600026E+02  0.25659055843E+02  0.51100000000E-03 0.  1.
         12    1    3    3    0    0 -0.69736135672E+00  0.45853079356E-01 -0.69951522178E+01  0.70299765232E+01  0.00000000000E+00 0. -1.
</event>
<event>
 7    1  0.2412036E-009  0.4778727E+02  0.7816164E-02  0.1312668E+00
        -11   -1    0    0    0    0  0.00000000000E+00  0.00000000000E+00  0.45593999997E+02  0.45594000000E+02  0.51100000000E-03 0.  1.
         11   -1    0    0    0    0 -0.00000000000E+00 -0.00000000000E+00 -0.45593999997E+02  0.45594000000E+02  0.51100000000E-03 0. -1.
    9900012    2    1    2    0    0  0.32971897703E+02 -0.22095455515E+02  0.17557577914E+02  0.47787265735E+02  0.19999975791E+02 0.  0.
         12    1    1    2    0    0 -0.32971897703E+02  0.22095455515E+02 -0.17557577914E+02  0.43400734265E+02  0.00000000000E+00 0. -1.
         11    1    3    3    0    0  0.16005548176E+02 -0.14942738248E+02  0.14650352767E+02  0.26345698609E+02  0.51100000000E-03 0. -1.
        -11    1    3    3    0    0  0.76588912679E+01 -0.28978898275E+01  0.66457537640E+01  0.10546204258E+02  0.51100000000E-03 0.  1.
         12    1    3    3    0    0  0.93074582595E+01 -0.42548274394E+01 -0.37385286166E+01  0.10895362867E+02  0.00000000000E+00 0. -1.
</event>
<event>
 7    1  0.2412036E-009  0.4778727E+02  0.7816164E-02  0.1312668E+00
        -11   -1    0    0    0    0  0.00000000000E+00  0.00000000000E+00  0.45593999997E+02  0.45594000000E+02  0.51100000000E-03 0.  1.
         11   -1    0    0    0    0 -0.00000000000E+00 -0.00000000000E+00 -0.45593999997E+02  0.45594000000E+02  0.51100000000E-03 0. -1.
    9900012    2    1    2    0    0  0.26920781133E+02  0.11189111541E+02  0.32151180298E+02  0.47787273411E+02  0.20000010791E+02 0.  0.
         12    1    1    2    0    0 -0.26920781133E+02 -0.11189111541E+02 -0.32151180298E+02  0.43400726589E+02  0.00000000000E+00 0. -1.
         11    1    3    3    0    0  0.42080602380E+01  0.87139924747E+01  0.12699754698E+02  0.15966377344E+02  0.51100000000E-03 0. -1.
        -11    1    3    3    0    0  0.16364193909E+02 -0.21935999043E+01  0.92333075102E+01  0.18916994758E+02  0.51100000000E-03 0.  1.
        -12    1    3    3    0    0  0.63485269860E+01  0.46687189707E+01  0.10218118089E+02  0.12903901310E+02  0.00000000000E+00 0.  1.
</event>
<event>
 7    1  0.2412036E-009  0.4778727E+02  0.7816164E-02  0.1312668E+00
        -11   -1    0    0    0    0  0.00000000000E+00  0.00000000000E+00  0.45593999997E+02  0.45594000000E+02  0.51100000000E-03 0. -1.
         11   -1    0    0    0    0 -0.00000000000E+00 -0.00000000000E+00 -0.45593999997E+02  0.45594000000E+02  0.51100000000E-03 0.  1.
    9900012    2    1    2    0    0  0.12719152395E+02 -0.13810609990E+00 -0.41494905028E+02  0.47787273575E+02  0.20000011539E+02 0.  0.
         12    1    1    2    0    0 -0.12719152395E+02  0.13810609990E+00  0.41494905028E+02  0.43400726425E+02  0.00000000000E+00 0. -1.
         11    1    3    3    0    0 -0.43673848196E+01 -0.95944309818E+00 -0.30489700144E+01  0.54120975260E+01  0.51100000000E-03 0. -1.
        -11    1    3    3    0    0  0.18228134808E+01 -0.12275280002E+01 -0.73981855800E+01  0.77176825611E+01  0.51100000000E-03 0.  1.
         12    1    3    3    0    0  0.15263723734E+02  0.20488649985E+01 -0.31047749433E+02  0.34657493488E+02  0.00000000000E+00 0. -1.
</event>
<event>
 7    1  0.2412036E-009  0.4778727E+02  0.7816164E-02  0.1312668E+00
        -11   -1    0    0    0    0  0.00000000000E+00  0.00000000000E+00  0.45593999997E+02  0.45594000000E+02  0.51100000000E-03 0. -1.
         11   -1    0    0    0    0 -0.00000000000E+00 -0.00000000000E+00 -0.45593999997E+02  0.45594000000E+02  0.51100000000E-03 0.  1.
    9900012    2    1    2    0    0 -0.28943609460E+02 -0.10365443852E+02 -0.30634103844E+02  0.47787271053E+02  0.20000000039E+02 0.  0.
         12    1    1    2    0    0  0.28943609460E+02  0.10365443852E+02  0.30634103844E+02  0.43400728947E+02  0.00000000000E+00 0. -1.
         11    1    3    3    0    0 -0.91770433817E+01 -0.46354786305E+01  0.59312151785E-01  0.10281503079E+02  0.51100000000E-03 0. -1.
        -11    1    3    3    0    0 -0.82677365228E+01 -0.57231072944E+01 -0.14210977205E+02  0.17408655827E+02  0.51100000000E-03 0.  1.
         12    1    3    3    0    0 -0.11498829555E+02 -0.68579266814E-02 -0.16482438791E+02  0.20097112148E+02  0.00000000000E+00 0. -1.
</event>
<event>
 7    1  0.2412036E-009  0.4778727E+02  0.7816164E-02  0.1312668E+00
        -11   -1    0    0    0    0  0.00000000000E+00  0.00000000000E+00  0.45593999997E+02  0.45594000000E+02  0.51100000000E-03 0. -1.
         11   -1    0    0    0    0 -0.00000000000E+00 -0.00000000000E+00 -0.45593999997E+02  0.45594000000E+02  0.51100000000E-03 0.  1.
    9900012    2    1    2    0    0 -0.10607931264E+02 -0.34904550756E+02 -0.23511005785E+02  0.47787271179E+02  0.20000000614E+02 0.  0.
         12    1    1    2    0    0  0.10607931264E+02  0.34904550756E+02  0.23511005785E+02  0.43400728821E+02  0.00000000000E+00 0. -1.
         11    1    3    3    0    0  0.19008470467E+01 -0.12986497723E+02 -0.40953615872E+01  0.13748975576E+02  0.51100000000E-03 0. -1.
        -11    1    3    3    0    0 -0.12808198363E+02 -0.19048777748E+02 -0.11624151329E+02  0.25729880944E+02  0.51100000000E-03 0.  1.
        -12    1    3    3    0    0  0.29942005201E+00 -0.28692752850E+01 -0.77914928685E+01  0.83084146591E+01  0.00000000000E+00 0.  1.
</event>
<event>
 7    1  0.2412036E-009  0.4778727E+02  0.7816164E-02  0.1312668E+00
        -11   -1    0    0    0    0  0.00000000000E+00  0.00000000000E+00  0.45593999997E+02  0.45594000000E+02  0.51100000000E-03 0.  1.
         11   -1    0    0    0    0 -0.00000000000E+00 -0.00000000000E+00 -0.45593999997E+02  0.45594000000E+02  0.51100000000E-03 0. -1.
    9900012    2    1    2    0    0  0.26174523862E+01 -0.17091877135E+02  0.39807537524E+02  0.47787269997E+02  0.19999995226E+02 0.  0.
         12    1    1    2    0    0 -0.26174523862E+01  0.17091877135E+02 -0.39807537524E+02  0.43400730003E+02  0.00000000000E+00 0. -1.
         11    1    3    3    0    0 -0.76994114765E+01 -0.28547332251E+01  0.84789964803E+01  0.11803551179E+02  0.51100000000E-03 0. -1.
        -11    1    3    3    0    0  0.63486250215E+01 -0.10292045818E+02  0.20755584126E+02  0.24021355487E+02  0.51100000000E-03 0.  1.
         12    1    3    3    0    0  0.39682388413E+01 -0.39450980918E+01  0.10572956919E+02  0.11962363331E+02  0.00000000000E+00 0. -1.
</event>
<event>
 7    1  0.2412036E-009  0.4778731E+02  0.7816164E-02  0.1312668E+00
        -11   -1    0    0    0    0  0.00000000000E+00  0.00000000000E+00  0.45593999997E+02  0.45594000000E+02  0.51100000000E-03 0. -1.
         11   -1    0    0    0    0 -0.00000000000E+00 -0.00000000000E+00 -0.45593999997E+02  0.45594000000E+02  0.51100000000E-03 0.  1.
    9900012    2    1    2    0    0 -0.36697010556E+02  0.21602369006E+02 -0.83837301074E+01  0.47787310363E+02  0.20000179271E+02 0.  0.
         12    1    1    2    0    0  0.36697010556E+02 -0.21602369006E+02  0.83837301074E+01  0.43400689637E+02  0.00000000000E+00 0. -1.
         11    1    3    3    0    0 -0.88989322357E+01  0.61395795350E+01  0.56262091289E+01  0.12187684818E+02  0.51100000000E-03 0. -1.
        -11    1    3    3    0    0 -0.79045580924E+01  0.45915177790E+01 -0.38354113290E+00  0.91493813022E+01  0.51100000000E-03 0.  1.
         12    1    3    3    0    0 -0.19893520228E+02  0.10871271692E+02 -0.13626398103E+02  0.26450244243E+02  0.00000000000E+00 0. -1.
</event>
<event>
 7    1  0.2412036E-009  0.4778727E+02  0.7816164E-02  0.1312668E+00
        -11   -1    0    0    0    0  0.00000000000E+00  0.00000000000E+00  0.45593999997E+02  0.45594000000E+02  0.51100000000E-03 0.  1.
         11   -1    0    0    0    0 -0.00000000000E+00 -0.00000000000E+00 -0.45593999997E+02  0.45594000000E+02  0.51100000000E-03 0. -1.
    9900012    2    1    2    0    0 -0.36172380092E+02 -0.14924059611E+02  0.18773771692E+02  0.47787272583E+02  0.20000007015E+02 0.  0.
         12    1    1    2    0    0  0.36172380092E+02  0.14924059611E+02 -0.18773771692E+02  0.43400727417E+02  0.00000000000E+00 0. -1.
         11    1    3    3    0    0 -0.19358401070E+02 -0.12099697094E+02  0.35576818553E+01  0.23104273679E+02  0.51100000000E-03 0. -1.
        -11    1    3    3    0    0 -0.15727126752E+02 -0.30085302691E+01  0.16499003890E+02  0.22991539746E+02  0.51100000000E-03 0.  1.
         12    1    3    3    0    0 -0.10868522694E+01  0.18416775205E+00 -0.12829140535E+01  0.16914591585E+01  0.00000000000E+00 0. -1.
</event>
<event>
 7    1  0.2412036E-009  0.4778722E+02  0.7816164E-02  0.1312668E+00
        -11   -1    0    0    0    0  0.00000000000E+00  0.00000000000E+00  0.45593999997E+02  0.45594000000E+02  0.51100000000E-03 0. -1.
         11   -1    0    0    0    0 -0.00000000000E+00 -0.00000000000E+00 -0.45593999997E+02  0.45594000000E+02  0.51100000000E-03 0.  1.
    9900012    2    1    2    0    0 -0.28832075429E+02 -0.28085884223E+02  0.16233370864E+02  0.47787218950E+02  0.19999762481E+02 0.  0.
         12    1    1    2    0    0  0.28832075429E+02  0.28085884223E+02 -0.16233370864E+02  0.43400781050E+02  0.00000000000E+00 0. -1.
         11    1    3    3    0    0 -0.26304795056E+01 -0.85720754393E+00 -0.10328308938E+00  0.27685546519E+01  0.51100000000E-03 0. -1.
        -11    1    3    3    0    0  0.19448198356E+01 -0.70568681114E+01  0.30001303388E+01  0.79109098115E+01  0.51100000000E-03 0.  1.
        -12    1    3    3    0    0 -0.28146415759E+02 -0.20171808567E+02  0.13336523614E+02  0.37107754487E+02  0.00000000000E+00 0.  1.
</event>
<event>
 7    1  0.2412036E-009  0.4778727E+02  0.7816164E-02  0.1312668E+00
        -11   -1    0    0    0    0  0.00000000000E+00  0.00000000000E+00  0.45593999997E+02  0.45594000000E+02  0.51100000000E-03 0. -1.
         11   -1    0    0    0    0 -0.00000000000E+00 -0.00000000000E+00 -0.45593999997E+02  0.45594000000E+02  0.51100000000E-03 0.  1.
    9900012    2    1    2    0    0  0.63308521026E+01 -0.27253172364E+02 -0.33178429624E+02  0.47787270921E+02  0.19999999439E+02 0.  0.
         12    1    1    2    0    0 -0.63308521026E+01  0.27253172364E+02  0.33178429624E+02  0.43400729079E+02  0.00000000000E+00 0. -1.
         11    1    3    3    0    0 -0.12723360426E+01 -0.24137450769E+02 -0.23110351205E+02  0.33441347187E+02  0.51100000000E-03 0. -1.
        -11    1    3    3    0    0  0.28038386884E+01  0.17216576142E+01 -0.43252629717E+01  0.54344748014E+01  0.51100000000E-03 0.  1.
         12    1    3    3    0    0  0.47993494567E+01 -0.48373792092E+01 -0.57428154472E+01  0.89114489328E+01  0.00000000000E+00 0. -1.
</event>
<event>
 7    1  0.2412036E-009  0.4778725E+02  0.7816164E-02  0.1312668E+00
        -11   -1    0    0    0    0  0.00000000000E+00  0.00000000000E+00  0.45593999997E+02  0.45594000000E+02  0.51100000000E-03 0.  1.
         11   -1    0    0    0    0 -0.00000000000E+00 -0.00000000000E+00 -0.45593999997E+02  0.45594000000E+02  0.51100000000E-03 0. -1.
    9900012    2    1    2    0    0  0.31673731438E+02 -0.27302620523E+02  0.11617514813E+02  0.47787251147E+02  0.19999909279E+02 0.  0.
         12    1    1    2    0    0 -0.31673731438E+02  0.27302620523E+02 -0.11617514813E+02  0.43400748853E+02  0.00000000000E+00 0. -1.
         11    1    3    3    0    0  0.65957085250E+01 -0.94690638208E+01 -0.13829885536E+01  0.11622357686E+02  0.51100000000E-03 0. -1.
        -11    1    3    3    0    0  0.25353826567E+02 -0.16825795193E+02  0.14987648980E+02  0.33919810254E+02  0.51100000000E-03 0.  1.
         12    1    3    3    0    0 -0.27580365398E+00 -0.10077615084E+01 -0.19871456139E+01  0.22450832065E+01  0.00000000000E+00 0. -1.
</event>
<event>
 7    1  0.2412036E-009  0.4778725E+02  0.7816164E-02  0.1312668E+00
        -11   -1    0    0    0    0  0.00000000000E+00  0.00000000000E+00  0.45593999997E+02  0.45594000000E+02  0.51100000000E-03 0.  1.
         11   -1    0    0    0    0 -0.00000000000E+00 -0.00000000000E+00 -0.45593999997E+02  0.45594000000E+02  0.51100000000E-03 0. -1.
    9900012    2    1    2    0    0 -0.20004984346E+02 -0.28290294388E+02  0.26135890576E+02  0.47787251948E+02  0.19999912934E+02 0.  0.
         12    1    1    2    0    0  0.20004984346E+02  0.28290294388E+02 -0.26135890576E+02  0.43400748052E+02  0.00000000000E+00 0. -1.
         11    1    3    3    0    0  0.25267831483E+01 -0.40934417658E+01  0.30732279583E+01  0.57083823377E+01  0.51100000000E-03 0. -1.
        -11    1    3    3    0    0 -0.16493554500E+02 -0.94930918028E+01  0.15141843314E+02  0.24319365765E+02  0.51100000000E-03 0.  1.
        -12    1    3    3    0    0 -0.60382129943E+01 -0.14703760819E+02  0.79208193038E+01  0.17759503845E+02  0.00000000000E+00 0.  1.
</event>
<event>
 7    1  0.2412036E-009  0.4778727E+02  0.7816164E-02  0.1312668E+00
        -11   -1    0    0    0    0  0.00000000000E+00  0.00000000000E+00  0.45593999997E+02  0.45594000000E+02  0.51100000000E-03 0. -1.
         11   -1    0    0    0    0 -0.00000000000E+00 -0.00000000000E+00 -0.45593999997E+02  0.45594000000E+02  0.51100000000E-03 0.  1.
    9900012    2    1    2    0    0 -0.36755437277E+02 -0.22881885060E+02 -0.30133392074E+01  0.47787273664E+02  0.20000011943E+02 0.  0.
         12    1    1    2    0    0  0.36755437277E+02  0.22881885060E+02  0.30133392074E+01  0.43400726336E+02  0.00000000000E+00 0. -1.
         11    1    3    3    0    0  0.55641638595E-01  0.15131937959E+00  0.36258267294E+00  0.39681230125E+00  0.51100000000E-03 0. -1.
        -11    1    3    3    0    0 -0.19545194283E+02 -0.20900134350E+02 -0.73523305833E+01  0.29544661120E+02  0.51100000000E-03 0.  1.
        -12    1    3    3    0    0 -0.17265884632E+02 -0.21330700903E+01  0.39764087030E+01  0.17845800243E+02  0.00000000000E+00 0.  1.
</event>
<event>
 7    1  0.2412036E-009  0.4778727E+02  0.7816164E-02  0.1312668E+00
        -11   -1    0    0    0    0  0.00000000000E+00  0.00000000000E+00  0.45593999997E+02  0.45594000000E+02  0.51100000000E-03 0. -1.
         11   -1    0    0    0    0 -0.00000000000E+00 -0.00000000000E+00 -0.45593999997E+02  0.45594000000E+02  0.51100000000E-03 0.  1.
    9900012    2    1    2    0    0  0.21381310968E+02 -0.34985446888E+02 -0.14229597888E+02  0.47787269491E+02  0.19999992917E+02 0.  0.
         12    1    1    2    0    0 -0.21381310968E+02  0.34985446888E+02  0.14229597888E+02  0.43400730509E+02  0.00000000000E+00 0. -1.
         11    1    3    3    0    0 -0.39968033157E+00 -0.68582894811E+01 -0.12501844733E+01  0.69827530711E+01  0.51100000000E-03 0. -1.
        -11    1    3    3    0    0  0.10581685280E+02 -0.33332668170E+01 -0.12033744860E+01  0.11159338755E+02  0.51100000000E-03 0.  1.
        -12    1    3    3    0    0  0.11199306020E+02 -0.24793890590E+02 -0.11776038929E+02  0.29645177664E+02  0.00000000000E+00 0.  1.
</event>
<event>
 7    1  0.2412036E-009  0.4778727E+02  0.7816164E-02  0.1312668E+00
        -11   -1    0    0    0    0  0.00000000000E+00  0.00000000000E+00  0.45593999997E+02  0.45594000000E+02  0.51100000000E-03 0.  1.
         11   -1    0    0    0    0 -0.00000000000E+00 -0.00000000000E+00 -0.45593999997E+02  0.45594000000E+02  0.51100000000E-03 0. -1.
    9900012    2    1    2    0    0  0.34450308119E+02  0.43826991631E+00  0.26393319901E+02  0.47787272524E+02  0.20000006748E+02 0.  0.
         12    1    1    2    0    0 -0.34450308119E+02 -0.43826991631E+00 -0.26393319901E+02  0.43400727476E+02  0.00000000000E+00 0. -1.
         11    1    3    3    0    0  0.20017208323E+02  0.20626403268E+01  0.19104294564E+02  0.27747381592E+02  0.51100000000E-03 0. -1.
        -11    1    3    3    0    0  0.48747755037E+01  0.40550181323E+01  0.62001206651E+01  0.88683766715E+01  0.51100000000E-03 0.  1.
         12    1    3    3    0    0  0.95583242927E+01 -0.56793885428E+01  0.10889046718E+01  0.11171514261E+02  0.00000000000E+00 0. -1.
</event>
<event>
 7    1  0.2412036E-009  0.4778726E+02  0.7816164E-02  0.1312668E+00
        -11   -1    0    0    0    0  0.00000000000E+00  0.00000000000E+00  0.45593999997E+02  0.45594000000E+02  0.51100000000E-03 0.  1.
         11   -1    0    0    0    0 -0.00000000000E+00 -0.00000000000E+00 -0.45593999997E+02  0.45594000000E+02  0.51100000000E-03 0. -1.
    9900012    2    1    2    0    0  0.39681878055E+02 -0.44845245227E+01  0.16995928869E+02  0.47787262629E+02  0.19999961633E+02 0.  0.
         12    1    1    2    0    0 -0.39681878055E+02  0.44845245227E+01 -0.16995928869E+02  0.43400737371E+02  0.00000000000E+00 0. -1.
         11    1    3    3    0    0  0.23963127580E+02 -0.64039479785E+01  0.28128218503E+01  0.24963052701E+02  0.51100000000E-03 0. -1.
        -11    1    3    3    0    0  0.76666798811E+01  0.50247385282E+01  0.61870256542E+01  0.11059171053E+02  0.51100000000E-03 0.  1.
        -12    1    3    3    0    0  0.80520705943E+01 -0.31053150724E+01  0.79960813649E+01  0.11765038876E+02  0.00000000000E+00 0.  1.
</event>
<event>
 7    1  0.2412036E-009  0.4778727E+02  0.7816164E-02  0.1312668E+00
        -11   -1    0    0    0    0  0.00000000000E+00  0.00000000000E+00  0.45593999997E+02  0.45594000000E+02  0.51100000000E-03 0. -1.
         11   -1    0    0    0    0 -0.00000000000E+00 -0.00000000000E+00 -0.45593999997E+02  0.45594000000E+02  0.51100000000E-03 0.  1.
    9900012    2    1    2    0    0 -0.30949431834E+02 -0.30340150114E+02 -0.22872241888E+01  0.47787269196E+02  0.19999991574E+02 0.  0.
         12    1    1    2    0    0  0.30949431834E+02  0.30340150114E+02  0.22872241888E+01  0.43400730804E+02  0.00000000000E+00 0. -1.
         11    1    3    3    0    0 -0.11467357547E+02 -0.71875451198E+01  0.61984541282E+01  0.14885628230E+02  0.51100000000E-03 0. -1.
        -11    1    3    3    0    0 -0.51262036270E+01 -0.79566918631E+01 -0.73184187475E+01  0.11964370533E+02  0.51100000000E-03 0.  1.
        -12    1    3    3    0    0 -0.14355870660E+02 -0.15195913131E+02 -0.11672595694E+01  0.20937270433E+02  0.00000000000E+00 0.  1.
</event>
<event>
 7    1  0.2412036E-009  0.4778727E+02  0.7816164E-02  0.1312668E+00
        -11   -1    0    0    0    0  0.00000000000E+00  0.00000000000E+00  0.45593999997E+02  0.45594000000E+02  0.51100000000E-03 0.  1.
         11   -1    0    0    0    0 -0.00000000000E+00 -0.00000000000E+00 -0.45593999997E+02  0.45594000000E+02  0.51100000000E-03 0. -1.
    9900012    2    1    2    0    0  0.20978604842E+01  0.98768262253E+01  0.42209844984E+02  0.47787265808E+02  0.19999976124E+02 0.  0.
         12    1    1    2    0    0 -0.20978604842E+01 -0.98768262253E+01 -0.42209844984E+02  0.43400734192E+02  0.00000000000E+00 0. -1.
         11    1    3    3    0    0  0.16787236894E+01  0.53300022017E+01  0.30429771395E+01  0.63629196779E+01  0.51100000000E-03 0. -1.
        -11    1    3    3    0    0  0.37283358257E+01  0.46937067705E+01  0.36962622893E+02  0.37445518592E+02  0.51100000000E-03 0.  1.
         12    1    3    3    0    0 -0.33091990309E+01 -0.14688274685E+00  0.22042449513E+01  0.39788275374E+01  0.00000000000E+00 0. -1.
</event>
<event>
 7    1  0.2412036E-009  0.4778727E+02  0.7816164E-02  0.1312668E+00
        -11   -1    0    0    0    0  0.00000000000E+00  0.00000000000E+00  0.45593999997E+02  0.45594000000E+02  0.51100000000E-03 0.  1.
         11   -1    0    0    0    0 -0.00000000000E+00 -0.00000000000E+00 -0.45593999997E+02  0.45594000000E+02  0.51100000000E-03 0. -1.
    9900012    2    1    2    0    0  0.89458846218E+01 -0.15755410774E+02  0.39438073034E+02  0.47787269304E+02  0.19999992066E+02 0.  0.
         12    1    1    2    0    0 -0.89458846218E+01  0.15755410774E+02 -0.39438073034E+02  0.43400730696E+02  0.00000000000E+00 0. -1.
         11    1    3    3    0    0  0.40123243843E+01 -0.14572766000E+02  0.28815810753E+02  0.32539440768E+02  0.51100000000E-03 0. -1.
        -11    1    3    3    0    0  0.45671639987E+01 -0.37157304355E+01  0.11173370241E+02  0.12629720602E+02  0.51100000000E-03 0.  1.
         12    1    3    3    0    0  0.36639623873E+00  0.25330856618E+01 -0.55110796096E+00  0.26181079348E+01  0.00000000000E+00 0. -1.
</event>
<event>
 7    1  0.2412036E-009  0.4778728E+02  0.7816164E-02  0.1312668E+00
        -11   -1    0    0    0    0  0.00000000000E+00  0.00000000000E+00  0.45593999997E+02  0.45594000000E+02  0.51100000000E-03 0.  1.
         11   -1    0    0    0    0 -0.00000000000E+00 -0.00000000000E+00 -0.45593999997E+02  0.45594000000E+02  0.51100000000E-03 0. -1.
    9900012    2    1    2    0    0  0.20141189197E+02 -0.36106237248E+02  0.13202070334E+02  0.47787279596E+02  0.20000038992E+02 0.  0.
         12    1    1    2    0    0 -0.20141189197E+02  0.36106237248E+02 -0.13202070334E+02  0.43400720404E+02  0.00000000000E+00 0. -1.
         11    1    3    3    0    0  0.14477400535E+02 -0.12406786687E+02  0.24886242556E+01  0.19228019479E+02  0.51100000000E-03 0. -1.
        -11    1    3    3    0    0  0.56090972640E+01 -0.60075675755E+01  0.62150775187E+01  0.10304369419E+02  0.51100000000E-03 0.  1.
         12    1    3    3    0    0  0.54691397573E-01 -0.17691882985E+02  0.44983685596E+01  0.18254890698E+02  0.00000000000E+00 0. -1.
</event>
<event>
 7    1  0.2412036E-009  0.4778727E+02  0.7816164E-02  0.1312668E+00
        -11   -1    0    0    0    0  0.00000000000E+00  0.00000000000E+00  0.45593999997E+02  0.45594000000E+02  0.51100000000E-03 0.  1.
         11   -1    0    0    0    0 -0.00000000000E+00 -0.00000000000E+00 -0.45593999997E+02  0.45594000000E+02  0.51100000000E-03 0. -1.
    9900012    2    1    2    0    0  0.19807427067E+02  0.33525632676E+02  0.19165626177E+02  0.47787269129E+02  0.19999991269E+02 0.  0.
         12    1    1    2    0    0 -0.19807427067E+02 -0.33525632676E+02 -0.19165626177E+02  0.43400730871E+02  0.00000000000E+00 0. -1.
         11    1    3    3    0    0  0.10241704893E+00  0.93813747766E+00 -0.53480251355E+00  0.10847143258E+01  0.51100000000E-03 0. -1.
        -11    1    3    3    0    0  0.98961788146E+01  0.30375581862E+02  0.17436799510E+02  0.36395773189E+02  0.51100000000E-03 0.  1.
        -12    1    3    3    0    0  0.98088312037E+01  0.22119133360E+01  0.22636291807E+01  0.10306781615E+02  0.00000000000E+00 0.  1.
</event>
<event>
 7    1  0.2412036E-009  0.4778728E+02  0.7816164E-02  0.1312668E+00
        -11   -1    0    0    0    0  0.00000000000E+00  0.00000000000E+00  0.45593999997E+02  0.45594000000E+02  0.51100000000E-03 0.  1.
         11   -1    0    0    0    0 -0.00000000000E+00 -0.00000000000E+00 -0.45593999997E+02  0.45594000000E+02  0.51100000000E-03 0. -1.
    9900012    2    1    2    0    0 -0.14205154905E+02  0.40520434231E+02  0.63190774161E+01  0.47787277016E+02  0.20000027227E+02 0.  0.
         12    1    1    2    0    0  0.14205154905E+02 -0.40520434231E+02 -0.63190774161E+01  0.43400722984E+02  0.00000000000E+00 0. -1.
         11    1    3    3    0    0 -0.14551205686E+00  0.23855352855E+02 -0.46147860983E+00  0.23860259771E+02  0.51100000000E-03 0. -1.
        -11    1    3    3    0    0 -0.86725091461E+01  0.55537877647E+01  0.11727552614E+01  0.10364956758E+02  0.51100000000E-03 0.  1.
         12    1    3    3    0    0 -0.53871337023E+01  0.11111293611E+02  0.56078007645E+01  0.13562060487E+02  0.00000000000E+00 0. -1.
</event>
<event>
 7    1  0.2412036E-009  0.4778726E+02  0.7816164E-02  0.1312668E+00
        -11   -1    0    0    0    0  0.00000000000E+00  0.00000000000E+00  0.45593999997E+02  0.45594000000E+02  0.51100000000E-03 0.  1.
         11   -1    0    0    0    0 -0.00000000000E+00 -0.00000000000E+00 -0.45593999997E+02  0.45594000000E+02  0.51100000000E-03 0. -1.
    9900012    2    1    2    0    0 -0.22505314352E+02 -0.28172283620E+02  0.24154856473E+02  0.47787264641E+02  0.19999970806E+02 0.  0.
         12    1    1    2    0    0  0.22505314352E+02  0.28172283620E+02 -0.24154856473E+02  0.43400735359E+02  0.00000000000E+00 0. -1.
         11    1    3    3    0    0 -0.10398214453E+01  0.87765960241E+00  0.17702836828E+01  0.22328053195E+01  0.51100000000E-03 0. -1.
        -11    1    3    3    0    0 -0.21140441626E+02 -0.16065424722E+02  0.16767847729E+02  0.31403453017E+02  0.51100000000E-03 0.  1.
        -12    1    3    3    0    0 -0.32505127988E+00 -0.12984518501E+02  0.56167250603E+01  0.14151006305E+02  0.00000000000E+00 0.  1.
</event>
<event>
 7    1  0.2412036E-009  0.4778725E+02  0.7816164E-02  0.1312668E+00
        -11   -1    0    0    0    0  0.00000000000E+00  0.00000000000E+00  0.45593999997E+02  0.45594000000E+02  0.51100000000E-03 0.  1.
         11   -1    0    0    0    0 -0.00000000000E+00 -0.00000000000E+00 -0.45593999997E+02  0.45594000000E+02  0.51100000000E-03 0. -1.
    9900012    2    1    2    0    0  0.19358381714E+02  0.33352139204E+02  0.19912635066E+02  0.47787249230E+02  0.19999900541E+02 0.  0.
         12    1    1    2    0    0 -0.19358381714E+02 -0.33352139204E+02 -0.19912635066E+02  0.43400750770E+02  0.00000000000E+00 0. -1.
         11    1    3    3    0    0  0.67965805605E+00  0.16894952994E+02  0.10819395819E+02  0.20073880987E+02  0.51100000000E-03 0. -1.
        -11    1    3    3    0    0  0.14099847977E+02  0.14281607036E+02  0.10218069253E+02  0.22520633917E+02  0.51100000000E-03 0.  1.
         12    1    3    3    0    0  0.45788756803E+01  0.21755791749E+01 -0.11248300056E+01  0.51927343263E+01  0.00000000000E+00 0. -1.
</event>
<event>
 7    1  0.2412036E-009  0.4778727E+02  0.7816164E-02  0.1312668E+00
        -11   -1    0    0    0    0  0.00000000000E+00  0.00000000000E+00  0.45593999997E+02  0.45594000000E+02  0.51100000000E-03 0.  1.
         11   -1    0    0    0    0 -0.00000000000E+00 -0.00000000000E+00 -0.45593999997E+02  0.45594000000E+02  0.51100000000E-03 0. -1.
    9900012    2    1    2    0    0  0.13156361659E+02 -0.26390676036E+02  0.31844394760E+02  0.47787272916E+02  0.20000008535E+02 0.  0.
         12    1    1    2    0    0 -0.13156361659E+02  0.26390676036E+02 -0.31844394760E+02  0.43400727084E+02  0.00000000000E+00 0. -1.
         11    1    3    3    0    0  0.94495948747E+01 -0.11482687245E+02  0.27158181166E+02  0.30963103110E+02  0.51100000000E-03 0.  1.
        -11    1    3    3    0    0  0.48359999051E+01 -0.98270725191E+01  0.30931211996E+01  0.11380933547E+02  0.51100000000E-03 0. -1.
        -12    1    3    3    0    0 -0.11292331206E+01 -0.50809162723E+01  0.15930923942E+01  0.54432362601E+01  0.00000000000E+00 0.  1.
</event>
<event>
 7    1  0.2412036E-009  0.4778727E+02  0.7816164E-02  0.1312668E+00
        -11   -1    0    0    0    0  0.00000000000E+00  0.00000000000E+00  0.45593999997E+02  0.45594000000E+02  0.51100000000E-03 0.  1.
         11   -1    0    0    0    0 -0.00000000000E+00 -0.00000000000E+00 -0.45593999997E+02  0.45594000000E+02  0.51100000000E-03 0. -1.
    9900012    2    1    2    0    0  0.22911583692E+02 -0.73361039327E+01  0.36122902672E+02  0.47787272061E+02  0.20000004636E+02 0.  0.
         12    1    1    2    0    0 -0.22911583692E+02  0.73361039327E+01 -0.36122902672E+02  0.43400727939E+02  0.00000000000E+00 0. -1.
         11    1    3    3    0    0  0.13412788547E+02  0.12371443098E+00  0.28154086510E+02  0.31186067231E+02  0.51100000000E-03 0.  1.
        -11    1    3    3    0    0 -0.60745387678E+00 -0.37415086954E+01  0.18945007109E+01  0.42375725050E+01  0.51100000000E-03 0. -1.
         12    1    3    3    0    0  0.10106249021E+02 -0.37183096682E+01  0.60743154507E+01  0.12363632325E+02  0.00000000000E+00 0. -1.
</event>
<event>
 7    1  0.2412036E-009  0.4778727E+02  0.7816164E-02  0.1312668E+00
        -11   -1    0    0    0    0  0.00000000000E+00  0.00000000000E+00  0.45593999997E+02  0.45594000000E+02  0.51100000000E-03 0.  1.
         11   -1    0    0    0    0 -0.00000000000E+00 -0.00000000000E+00 -0.45593999997E+02  0.45594000000E+02  0.51100000000E-03 0. -1.
    9900012    2    1    2    0    0 -0.34784021326E+01  0.26392254698E+02  0.34277879739E+02  0.47787269260E+02  0.19999991862E+02 0.  0.
         12    1    1    2    0    0  0.34784021326E+01 -0.26392254698E+02 -0.34277879739E+02  0.43400730740E+02  0.00000000000E+00 0. -1.
         11    1    3    3    0    0 -0.82552501716E+01  0.87703784648E+01  0.78148049259E+01  0.14357571873E+02  0.51100000000E-03 0. -1.
        -11    1    3    3    0    0 -0.22578631695E+01  0.72086951300E+01  0.72389654676E+01  0.10462593028E+02  0.51100000000E-03 0.  1.
         12    1    3    3    0    0  0.70347112086E+01  0.10413181103E+02  0.19224109345E+02  0.22967104358E+02  0.00000000000E+00 0. -1.
</event>
<event>
 7    1  0.2412036E-009  0.4778727E+02  0.7816164E-02  0.1312668E+00
        -11   -1    0    0    0    0  0.00000000000E+00  0.00000000000E+00  0.45593999997E+02  0.45594000000E+02  0.51100000000E-03 0. -1.
         11   -1    0    0    0    0 -0.00000000000E+00 -0.00000000000E+00 -0.45593999997E+02  0.45594000000E+02  0.51100000000E-03 0.  1.
    9900012    2    1    2    0    0 -0.94904532737E+01  0.31585198444E+02 -0.28212228238E+02  0.47787270903E+02  0.19999999353E+02 0.  0.
         12    1    1    2    0    0  0.94904532737E+01 -0.31585198444E+02  0.28212228238E+02  0.43400729097E+02  0.00000000000E+00 0. -1.
         11    1    3    3    0    0  0.11915882731E+01  0.14550565836E+01  0.35366101842E+00  0.19136741235E+01  0.51100000000E-03 0. -1.
        -11    1    3    3    0    0 -0.56808652412E+01  0.49200033182E+00 -0.60862914401E+01  0.83400981991E+01  0.51100000000E-03 0.  1.
        -12    1    3    3    0    0 -0.50011763057E+01  0.29638141528E+02 -0.22479597816E+02  0.37533498580E+02  0.00000000000E+00 0.  1.
</event>
<event>
 7    1  0.2412036E-009  0.4778727E+02  0.7816164E-02  0.1312668E+00
        -11   -1    0    0    0    0  0.00000000000E+00  0.00000000000E+00  0.45593999997E+02  0.45594000000E+02  0.51100000000E-03 0.  1.
         11   -1    0    0    0    0 -0.00000000000E+00 -0.00000000000E+00 -0.45593999997E+02  0.45594000000E+02  0.51100000000E-03 0. -1.
    9900012    2    1    2    0    0 -0.42481363381E+02  0.65172252127E+01 -0.60401141684E+01  0.47787269149E+02  0.19999991359E+02 0.  0.
         12    1    1    2    0    0  0.42481363381E+02 -0.65172252127E+01  0.60401141684E+01  0.43400730851E+02  0.00000000000E+00 0. -1.
         11    1    3    3    0    0 -0.12482774315E+01 -0.21510517610E+01  0.85882509026E+00  0.26311216280E+01  0.51100000000E-03 0. -1.
        -11    1    3    3    0    0 -0.29899620221E+02  0.81428647024E+01 -0.11303140266E+02  0.32985671360E+02  0.51100000000E-03 0.  1.
        -12    1    3    3    0    0 -0.11333465729E+02  0.52541227132E+00  0.44042010074E+01  0.12170476161E+02  0.00000000000E+00 0.  1.
</event>
<event>
 7    1  0.2412036E-009  0.4778727E+02  0.7816164E-02  0.1312668E+00
        -11   -1    0    0    0    0  0.00000000000E+00  0.00000000000E+00  0.45593999997E+02  0.45594000000E+02  0.51100000000E-03 0.  1.
         11   -1    0    0    0    0 -0.00000000000E+00 -0.00000000000E+00 -0.45593999997E+02  0.45594000000E+02  0.51100000000E-03 0. -1.
    9900012    2    1    2    0    0  0.21225176152E+02  0.27612614668E+02  0.25897081701E+02  0.47787269222E+02  0.19999991690E+02 0.  0.
         12    1    1    2    0    0 -0.21225176152E+02 -0.27612614668E+02 -0.25897081701E+02  0.43400730778E+02  0.00000000000E+00 0. -1.
         11    1    3    3    0    0 -0.19074523893E+01  0.10407966887E+01 -0.36041523660E+00  0.22026192973E+01  0.51100000000E-03 0. -1.
        -11    1    3    3    0    0  0.14502724726E+02  0.16321225297E+02  0.23164949786E+02  0.31832786849E+02  0.51100000000E-03 0.  1.
        -12    1    3    3    0    0  0.86299038146E+01  0.10250592682E+02  0.30925471515E+01  0.13751863076E+02  0.00000000000E+00 0.  1.
</event>
<event>
 7    1  0.2412036E-009  0.4778727E+02  0.7816164E-02  0.1312668E+00
        -11   -1    0    0    0    0  0.00000000000E+00  0.00000000000E+00  0.45593999997E+02  0.45594000000E+02  0.51100000000E-03 0. -1.
         11   -1    0    0    0    0 -0.00000000000E+00 -0.00000000000E+00 -0.45593999997E+02  0.45594000000E+02  0.51100000000E-03 0.  1.
    9900012    2    1    2    0    0 -0.25451483355E+02 -0.34249805490E+02 -0.79243942337E+01  0.47787271837E+02  0.20000003613E+02 0.  0.
         12    1    1    2    0    0  0.25451483355E+02  0.34249805490E+02  0.79243942337E+01  0.43400728163E+02  0.00000000000E+00 0. -1.
         11    1    3    3    0    0  0.22800159955E+01 -0.30339812425E+01  0.14739071038E+01  0.40713532801E+01  0.51100000000E-03 0. -1.
        -11    1    3    3    0    0 -0.23046934654E+02 -0.19912328013E+02 -0.67901277097E+01  0.31205253378E+02  0.51100000000E-03 0.  1.
         12    1    3    3    0    0 -0.46845646970E+01 -0.11303496235E+02 -0.26081736279E+01  0.12510665179E+02  0.00000000000E+00 0. -1.
</event>
<event>
 7    1  0.2412036E-009  0.4778728E+02  0.7816164E-02  0.1312668E+00
        -11   -1    0    0    0    0  0.00000000000E+00  0.00000000000E+00  0.45593999997E+02  0.45594000000E+02  0.51100000000E-03 0.  1.
         11   -1    0    0    0    0 -0.00000000000E+00 -0.00000000000E+00 -0.45593999997E+02  0.45594000000E+02  0.51100000000E-03 0. -1.
    9900012    2    1    2    0    0  0.11482484474E+02 -0.22695892119E+01  0.41792631920E+02  0.47787279180E+02  0.20000037095E+02 0.  0.
         12    1    1    2    0    0 -0.11482484474E+02  0.22695892119E+01 -0.41792631920E+02  0.43400720820E+02  0.00000000000E+00 0. -1.
         11    1    3    3    0    0 -0.22637551848E+00 -0.65722342672E+01  0.14171535526E+02  0.15622993585E+02  0.51100000000E-03 0. -1.
        -11    1    3    3    0    0  0.12608888884E+02  0.21759337956E+01  0.26827157319E+02  0.29722300329E+02  0.51100000000E-03 0.  1.
         12    1    3    3    0    0 -0.90002889168E+00  0.21267112597E+01  0.79393907536E+00  0.24419852669E+01  0.00000000000E+00 0. -1.
</event>
<event>
 7    1  0.2412036E-009  0.4778728E+02  0.7816164E-02  0.1312668E+00
        -11   -1    0    0    0    0  0.00000000000E+00  0.00000000000E+00  0.45593999997E+02  0.45594000000E+02  0.51100000000E-03 0. -1.
         11   -1    0    0    0    0 -0.00000000000E+00 -0.00000000000E+00 -0.45593999997E+02  0.45594000000E+02  0.51100000000E-03 0.  1.
    9900012    2    1    2    0    0  0.16400858298E+02  0.23132997505E+02 -0.32855728668E+02  0.47787278430E+02  0.20000033675E+02 0.  0.
         12    1    1    2    0    0 -0.16400858298E+02 -0.23132997505E+02  0.32855728668E+02  0.43400721570E+02  0.00000000000E+00 0. -1.
         11    1    3    3    0    0  0.19244208582E+02  0.12162394232E+02 -0.21402578033E+02  0.31246339692E+02  0.51100000000E-03 0. -1.
        -11    1    3    3    0    0 -0.17800589498E+01  0.54969715150E+01 -0.32714536298E+01  0.66398580417E+01  0.51100000000E-03 0.  1.
         12    1    3    3    0    0 -0.10632913345E+01  0.54736317578E+01 -0.81816970047E+01  0.99010806965E+01  0.00000000000E+00 0. -1.
</event>
<event>
 7    1  0.2412036E-009  0.4778728E+02  0.7816164E-02  0.1312668E+00
        -11   -1    0    0    0    0  0.00000000000E+00  0.00000000000E+00  0.45593999997E+02  0.45594000000E+02  0.51100000000E-03 0.  1.
         11   -1    0    0    0    0 -0.00000000000E+00 -0.00000000000E+00 -0.45593999997E+02  0.45594000000E+02  0.51100000000E-03 0. -1.
    9900012    2    1    2    0    0  0.11038001496E+02 -0.10873658857E+01  0.41959539869E+02  0.47787276186E+02  0.20000023443E+02 0.  0.
         12    1    1    2    0    0 -0.11038001496E+02  0.10873658857E+01 -0.41959539869E+02  0.43400723814E+02  0.00000000000E+00 0. -1.
         11    1    3    3    0    0  0.25509337459E+01  0.31477696411E+01  0.17196532403E+02  0.17667383611E+02  0.51100000000E-03 0. -1.
        -11    1    3    3    0    0  0.76297683232E+01 -0.91947800236E+01  0.19234856300E+02  0.22643697611E+02  0.51100000000E-03 0.  1.
        -12    1    3    3    0    0  0.85729942687E+00  0.49596444967E+01  0.55281511649E+01  0.74761949643E+01  0.00000000000E+00 0.  1.
</event>
<event>
 7    1  0.2412036E-009  0.4778727E+02  0.7816164E-02  0.1312668E+00
        -11   -1    0    0    0    0  0.00000000000E+00  0.00000000000E+00  0.45593999997E+02  0.45594000000E+02  0.51100000000E-03 0.  1.
         11   -1    0    0    0    0 -0.00000000000E+00 -0.00000000000E+00 -0.45593999997E+02  0.45594000000E+02  0.51100000000E-03 0. -1.
    9900012    2    1    2    0    0 -0.39429613652E+02 -0.13510587939E+02  0.12099299445E+02  0.47787268828E+02  0.19999989894E+02 0.  0.
         12    1    1    2    0    0  0.39429613652E+02  0.13510587939E+02 -0.12099299445E+02  0.43400731172E+02  0.00000000000E+00 0. -1.
         11    1    3    3    0    0 -0.52873176864E+01  0.12833006200E+01 -0.35486353245E+01  0.64957987751E+01  0.51100000000E-03 0. -1.
        -11    1    3    3    0    0 -0.11362768604E+02 -0.73535579049E+00  0.57077772828E+01  0.12737031847E+02  0.51100000000E-03 0.  1.
         12    1    3    3    0    0 -0.22779527362E+02 -0.14058532768E+02  0.99401574865E+01  0.28554438206E+02  0.00000000000E+00 0. -1.
</event>
<event>
 7    1  0.2412036E-009  0.4778722E+02  0.7816164E-02  0.1312668E+00
        -11   -1    0    0    0    0  0.00000000000E+00  0.00000000000E+00  0.45593999997E+02  0.45594000000E+02  0.51100000000E-03 0.  1.
         11   -1    0    0    0    0 -0.00000000000E+00 -0.00000000000E+00 -0.45593999997E+02  0.45594000000E+02  0.51100000000E-03 0. -1.
    9900012    2    1    2    0    0  0.13088639370E+02 -0.40908557339E+02 -0.62293458344E+01  0.47787224735E+02  0.19999788855E+02 0.  0.
         12    1    1    2    0    0 -0.13088639370E+02  0.40908557339E+02  0.62293458344E+01  0.43400775265E+02  0.00000000000E+00 0. -1.
         11    1    3    3    0    0 -0.35615274875E+01 -0.70351008416E+01  0.14536080434E+01  0.80181106566E+01  0.51100000000E-03 0. -1.
        -11    1    3    3    0    0  0.10565994518E+02 -0.21671766667E+02  0.17722845952E-01  0.24110288778E+02  0.51100000000E-03 0.  1.
         12    1    3    3    0    0  0.60841723398E+01 -0.12201689830E+02 -0.77006767238E+01  0.15658825300E+02  0.00000000000E+00 0. -1.
</event>
<event>
 7    1  0.2412036E-009  0.4778727E+02  0.7816164E-02  0.1312668E+00
        -11   -1    0    0    0    0  0.00000000000E+00  0.00000000000E+00  0.45593999997E+02  0.45594000000E+02  0.51100000000E-03 0. -1.
         11   -1    0    0    0    0 -0.00000000000E+00 -0.00000000000E+00 -0.45593999997E+02  0.45594000000E+02  0.51100000000E-03 0.  1.
    9900012    2    1    2    0    0 -0.33614241713E+02 -0.15271831570E+02 -0.22813978942E+02  0.47787265898E+02  0.19999976535E+02 0.  0.
         12    1    1    2    0    0  0.33614241713E+02  0.15271831570E+02  0.22813978942E+02  0.43400734102E+02  0.00000000000E+00 0. -1.
         11    1    3    3    0    0 -0.17431682648E+01 -0.38561708812E+01 -0.25390598758E+01  0.49351306749E+01  0.51100000000E-03 0. -1.
        -11    1    3    3    0    0 -0.12773405011E+02 -0.11785687217E+02 -0.41835924184E+01  0.17876373920E+02  0.51100000000E-03 0.  1.
        -12    1    3    3    0    0 -0.19097668437E+02  0.37002652862E+00 -0.16091326647E+02  0.24975761303E+02  0.00000000000E+00 0.  1.
</event>
<event>
 7    1  0.2412036E-009  0.4778727E+02  0.7816164E-02  0.1312668E+00
        -11   -1    0    0    0    0  0.00000000000E+00  0.00000000000E+00  0.45593999997E+02  0.45594000000E+02  0.51100000000E-03 0.  1.
         11   -1    0    0    0    0 -0.00000000000E+00 -0.00000000000E+00 -0.45593999997E+02  0.45594000000E+02  0.51100000000E-03 0. -1.
    9900012    2    1    2    0    0  0.31964496611E+02 -0.19903242409E+02  0.21581360669E+02  0.47787271546E+02  0.20000002287E+02 0.  0.
         12    1    1    2    0    0 -0.31964496611E+02  0.19903242409E+02 -0.21581360669E+02  0.43400728454E+02  0.00000000000E+00 0. -1.
         11    1    3    3    0    0  0.94000721616E+01 -0.32088396363E+01  0.15781223406E+01  0.10057260006E+02  0.51100000000E-03 0. -1.
        -11    1    3    3    0    0  0.21092869843E+02 -0.19539761069E+02  0.18511838055E+02  0.34196484750E+02  0.51100000000E-03 0.  1.
        -12    1    3    3    0    0  0.14715546067E+01  0.28453582962E+01  0.14914002734E+01  0.35335267891E+01  0.00000000000E+00 0.  1.
</event>
<event>
 7    1  0.2412036E-009  0.4778726E+02  0.7816164E-02  0.1312668E+00
        -11   -1    0    0    0    0  0.00000000000E+00  0.00000000000E+00  0.45593999997E+02  0.45594000000E+02  0.51100000000E-03 0.  1.
         11   -1    0    0    0    0 -0.00000000000E+00 -0.00000000000E+00 -0.45593999997E+02  0.45594000000E+02  0.51100000000E-03 0. -1.
    9900012    2    1    2    0    0 -0.12189113905E+02 -0.10126782632E+02  0.40404178386E+02  0.47787264346E+02  0.19999969459E+02 0.  0.
         12    1    1    2    0    0  0.12189113905E+02  0.10126782632E+02 -0.40404178386E+02  0.43400735654E+02  0.00000000000E+00 0. -1.
         11    1    3    3    0    0 -0.78020784941E+01 -0.65673314023E+01  0.14330376309E+02  0.17588688297E+02  0.51100000000E-03 0.  1.
        -11    1    3    3    0    0  0.13715196311E+01 -0.10976051046E+01 -0.12565885796E+01  0.21598190164E+01  0.51100000000E-03 0. -1.
        -12    1    3    3    0    0 -0.57585550423E+01 -0.24618461250E+01  0.27330390656E+02  0.28038757033E+02  0.00000000000E+00 0.  1.
</event>
<event>
 7    1  0.2412036E-009  0.4778727E+02  0.7816164E-02  0.1312668E+00
        -11   -1    0    0    0    0  0.00000000000E+00  0.00000000000E+00  0.45593999997E+02  0.45594000000E+02  0.51100000000E-03 0.  1.
         11   -1    0    0    0    0 -0.00000000000E+00 -0.00000000000E+00 -0.45593999997E+02  0.45594000000E+02  0.51100000000E-03 0. -1.
    9900012    2    1    2    0    0  0.13343837660E+02 -0.23263852497E+02  0.34122701102E+02  0.47787267668E+02  0.19999984604E+02 0.  0.
         12    1    1    2    0    0 -0.13343837660E+02  0.23263852497E+02 -0.34122701102E+02  0.43400732332E+02  0.00000000000E+00 0. -1.
         11    1    3    3    0    0 -0.33143841165E+01 -0.88253934946E+01  0.10462882994E+02  0.14083487964E+02  0.51100000000E-03 0. -1.
        -11    1    3    3    0    0  0.13317537683E+02 -0.75236580650E+01  0.10796094008E+02  0.18722122922E+02  0.51100000000E-03 0.  1.
        -12    1    3    3    0    0  0.33406840935E+01 -0.69148009372E+01  0.12863724100E+02  0.14981656782E+02  0.00000000000E+00 0.  1.
</event>
<event>
 7    1  0.2412036E-009  0.4778727E+02  0.7816164E-02  0.1312668E+00
        -11   -1    0    0    0    0  0.00000000000E+00  0.00000000000E+00  0.45593999997E+02  0.45594000000E+02  0.51100000000E-03 0. -1.
         11   -1    0    0    0    0 -0.00000000000E+00 -0.00000000000E+00 -0.45593999997E+02  0.45594000000E+02  0.51100000000E-03 0.  1.
    9900012    2    1    2    0    0 -0.16720902104E+02 -0.34974900001E+02  0.19513865024E+02  0.47787272754E+02  0.20000007796E+02 0.  0.
         12    1    1    2    0    0  0.16720902104E+02  0.34974900001E+02 -0.19513865024E+02  0.43400727246E+02  0.00000000000E+00 0. -1.
         11    1    3    3    0    0  0.11712499299E+01  0.52882631180E+00 -0.10800074904E+01  0.16786602118E+01  0.51100000000E-03 0. -1.
        -11    1    3    3    0    0 -0.11709305352E+02 -0.31619838881E+02  0.18737469649E+02  0.38574795032E+02  0.51100000000E-03 0.  1.
        -12    1    3    3    0    0 -0.61828466814E+01 -0.38838874323E+01  0.18564028660E+01  0.75338175100E+01  0.00000000000E+00 0.  1.
</event>
<event>
 7    1  0.2412036E-009  0.4778727E+02  0.7816164E-02  0.1312668E+00
        -11   -1    0    0    0    0  0.00000000000E+00  0.00000000000E+00  0.45593999997E+02  0.45594000000E+02  0.51100000000E-03 0.  1.
         11   -1    0    0    0    0 -0.00000000000E+00 -0.00000000000E+00 -0.45593999997E+02  0.45594000000E+02  0.51100000000E-03 0. -1.
    9900012    2    1    2    0    0  0.33926383982E+02  0.26400951516E+02  0.59677261590E+01  0.47787268134E+02  0.19999986729E+02 0.  0.
         12    1    1    2    0    0 -0.33926383982E+02 -0.26400951516E+02 -0.59677261590E+01  0.43400731866E+02  0.00000000000E+00 0. -1.
         11    1    3    3    0    0  0.10679001122E+02  0.11173457353E+02 -0.48593348681E+01  0.16201862542E+02  0.51100000000E-03 0. -1.
        -11    1    3    3    0    0  0.17830471005E+02  0.62292515102E+01  0.48467435479E+01  0.19499235727E+02  0.51100000000E-03 0.  1.
         12    1    3    3    0    0  0.54169118542E+01  0.89982426523E+01  0.59803174792E+01  0.12086169865E+02  0.00000000000E+00 0. -1.
</event>
<event>
 7    1  0.2412036E-009  0.4778727E+02  0.7816164E-02  0.1312668E+00
        -11   -1    0    0    0    0  0.00000000000E+00  0.00000000000E+00  0.45593999997E+02  0.45594000000E+02  0.51100000000E-03 0. -1.
         11   -1    0    0    0    0 -0.00000000000E+00 -0.00000000000E+00 -0.45593999997E+02  0.45594000000E+02  0.51100000000E-03 0.  1.
    9900012    2    1    2    0    0 -0.18817396008E+00 -0.21771382989E+02  0.37544569165E+02  0.47787271890E+02  0.20000003854E+02 0.  0.
         12    1    1    2    0    0  0.18817396008E+00  0.21771382989E+02 -0.37544569165E+02  0.43400728110E+02  0.00000000000E+00 0. -1.
         11    1    3    3    0    0 -0.11588234585E+01  0.11423408496E+00 -0.21436966064E+01  0.24395402509E+01  0.51100000000E-03 0. -1.
        -11    1    3    3    0    0  0.50916400156E-01 -0.13074554673E+02  0.23231326955E+02  0.26657852966E+02  0.51100000000E-03 0.  1.
         12    1    3    3    0    0  0.91973309830E+00 -0.88110624007E+01  0.16456938817E+02  0.18689878673E+02  0.00000000000E+00 0. -1.
</event>
<event>
 7    1  0.2412036E-009  0.4778727E+02  0.7816164E-02  0.1312668E+00
        -11   -1    0    0    0    0  0.00000000000E+00  0.00000000000E+00  0.45593999997E+02  0.45594000000E+02  0.51100000000E-03 0.  1.
         11   -1    0    0    0    0 -0.00000000000E+00 -0.00000000000E+00 -0.45593999997E+02  0.45594000000E+02  0.51100000000E-03 0. -1.
    9900012    2    1    2    0    0 -0.32462534649E+02  0.25436477893E+02  0.13520081175E+02  0.47787272374E+02  0.20000006064E+02 0.  0.
         12    1    1    2    0    0  0.32462534649E+02 -0.25436477893E+02 -0.13520081175E+02  0.43400727626E+02  0.00000000000E+00 0. -1.
         11    1    3    3    0    0  0.62613548934E+00  0.30888581652E+00 -0.13119051319E+01  0.14861195897E+01  0.51100000000E-03 0. -1.
        -11    1    3    3    0    0 -0.22009493926E+02  0.23994064942E+02  0.92762848806E+01  0.33855316226E+02  0.51100000000E-03 0.  1.
        -12    1    3    3    0    0 -0.11079176212E+02  0.11335271350E+01  0.55557014266E+01  0.12445836559E+02  0.00000000000E+00 0.  1.
</event>
<event>
 7    1  0.2412036E-009  0.4778728E+02  0.7816164E-02  0.1312668E+00
        -11   -1    0    0    0    0  0.00000000000E+00  0.00000000000E+00  0.45593999997E+02  0.45594000000E+02  0.51100000000E-03 0.  1.
         11   -1    0    0    0    0 -0.00000000000E+00 -0.00000000000E+00 -0.45593999997E+02  0.45594000000E+02  0.51100000000E-03 0. -1.
    9900012    2    1    2    0    0  0.25711482943E+02  0.32349726167E+02  0.13267896471E+02  0.47787283244E+02  0.20000055622E+02 0.  0.
         12    1    1    2    0    0 -0.25711482943E+02 -0.32349726167E+02 -0.13267896471E+02  0.43400716756E+02  0.00000000000E+00 0. -1.
         11    1    3    3    0    0  0.68942241438E+01  0.14063518048E+02  0.11189763179E+02  0.19248991317E+02  0.51100000000E-03 0.  1.
        -11    1    3    3    0    0  0.12032708197E+02  0.41531725469E+01  0.41096886233E-01  0.12729359685E+02  0.51100000000E-03 0. -1.
         12    1    3    3    0    0  0.67845506023E+01  0.14133035571E+02  0.20370364053E+01  0.15808932243E+02  0.00000000000E+00 0. -1.
</event>
<event>
 7    1  0.2412036E-009  0.4778727E+02  0.7816164E-02  0.1312668E+00
        -11   -1    0    0    0    0  0.00000000000E+00  0.00000000000E+00  0.45593999997E+02  0.45594000000E+02  0.51100000000E-03 0.  1.
         11   -1    0    0    0    0 -0.00000000000E+00 -0.00000000000E+00 -0.45593999997E+02  0.45594000000E+02  0.51100000000E-03 0. -1.
    9900012    2    1    2    0    0 -0.31770379841E+01  0.35403537626E+02  0.24902187043E+02  0.47787274588E+02  0.20000016155E+02 0.  0.
         12    1    1    2    0    0  0.31770379841E+01 -0.35403537626E+02 -0.24902187043E+02  0.43400725412E+02  0.00000000000E+00 0. -1.
         11    1    3    3    0    0  0.52719096837E+01  0.13171005518E+02  0.44022598316E+01  0.14854235421E+02  0.51100000000E-03 0. -1.
        -11    1    3    3    0    0  0.12980688031E+01  0.18593071157E+01 -0.22691793805E+00  0.22789246543E+01  0.51100000000E-03 0.  1.
         12    1    3    3    0    0 -0.97470164708E+01  0.20373224993E+02  0.20726845149E+02  0.30654114512E+02  0.00000000000E+00 0. -1.
</event>
<event>
 7    1  0.2412036E-009  0.4778727E+02  0.7816164E-02  0.1312668E+00
        -11   -1    0    0    0    0  0.00000000000E+00  0.00000000000E+00  0.45593999997E+02  0.45594000000E+02  0.51100000000E-03 0.  1.
         11   -1    0    0    0    0 -0.00000000000E+00 -0.00000000000E+00 -0.45593999997E+02  0.45594000000E+02  0.51100000000E-03 0. -1.
    9900012    2    1    2    0    0 -0.65699241356E+01  0.38552282767E+02 -0.18819696403E+02  0.47787269794E+02  0.19999994300E+02 0.  0.
         12    1    1    2    0    0  0.65699241356E+01 -0.38552282767E+02  0.18819696403E+02  0.43400730206E+02  0.00000000000E+00 0. -1.
         11    1    3    3    0    0  0.49264647981E+01  0.18255825853E+01 -0.24891204905E+01  0.58136501667E+01  0.51100000000E-03 0. -1.
        -11    1    3    3    0    0 -0.63449173957E+01  0.18311901878E+02 -0.62845065088E+01  0.20373481525E+02  0.51100000000E-03 0.  1.
         12    1    3    3    0    0 -0.51514715380E+01  0.18414798304E+02 -0.10046069404E+02  0.21600138103E+02  0.00000000000E+00 0. -1.
</event>
<event>
 7    1  0.2412036E-009  0.4778727E+02  0.7816164E-02  0.1312668E+00
        -11   -1    0    0    0    0  0.00000000000E+00  0.00000000000E+00  0.45593999997E+02  0.45594000000E+02  0.51100000000E-03 0.  1.
         11   -1    0    0    0    0 -0.00000000000E+00 -0.00000000000E+00 -0.45593999997E+02  0.45594000000E+02  0.51100000000E-03 0. -1.
    9900012    2    1    2    0    0  0.28645043885E+01  0.41224994293E+02  0.13263402789E+02  0.47787269667E+02  0.19999993721E+02 0.  0.
         12    1    1    2    0    0 -0.28645043885E+01 -0.41224994293E+02 -0.13263402789E+02  0.43400730333E+02  0.00000000000E+00 0. -1.
         11    1    3    3    0    0 -0.35194074619E+01  0.70755623596E+00 -0.75679470688E+00  0.36687331873E+01  0.51100000000E-03 0. -1.
        -11    1    3    3    0    0  0.22624311105E+01  0.31811392595E+02  0.84525280957E+01  0.32992855664E+02  0.51100000000E-03 0.  1.
        -12    1    3    3    0    0  0.41214807399E+01  0.87060454624E+01  0.55676693998E+01  0.11125680816E+02  0.00000000000E+00 0.  1.
</event>
<event>
 7    1  0.2412036E-009  0.4778727E+02  0.7816164E-02  0.1312668E+00
        -11   -1    0    0    0    0  0.00000000000E+00  0.00000000000E+00  0.45593999997E+02  0.45594000000E+02  0.51100000000E-03 0.  1.
         11   -1    0    0    0    0 -0.00000000000E+00 -0.00000000000E+00 -0.45593999997E+02  0.45594000000E+02  0.51100000000E-03 0. -1.
    9900012    2    1    2    0    0 -0.17627523248E+02 -0.17074063353E+02  0.35796225206E+02  0.47787274727E+02  0.20000016789E+02 0.  0.
         12    1    1    2    0    0  0.17627523248E+02  0.17074063353E+02 -0.35796225206E+02  0.43400725273E+02  0.00000000000E+00 0. -1.
         11    1    3    3    0    0 -0.13991124333E+02 -0.10140714615E+02  0.13845323307E+02  0.22142236354E+02  0.51100000000E-03 0. -1.
        -11    1    3    3    0    0 -0.41131908053E+01 -0.79855498312E+01  0.22600202327E+02  0.24319878498E+02  0.51100000000E-03 0.  1.
         12    1    3    3    0    0  0.47679189038E+00  0.10522010930E+01 -0.64930042804E+00  0.13251598744E+01  0.00000000000E+00 0. -1.
</event>
<event>
 7    1  0.2412036E-009  0.4778727E+02  0.7816164E-02  0.1312668E+00
        -11   -1    0    0    0    0  0.00000000000E+00  0.00000000000E+00  0.45593999997E+02  0.45594000000E+02  0.51100000000E-03 0.  1.
         11   -1    0    0    0    0 -0.00000000000E+00 -0.00000000000E+00 -0.45593999997E+02  0.45594000000E+02  0.51100000000E-03 0. -1.
    9900012    2    1    2    0    0  0.40956725546E+02 -0.96659219454E+01  0.10617913751E+02  0.47787268360E+02  0.19999987759E+02 0.  0.
         12    1    1    2    0    0 -0.40956725546E+02  0.96659219454E+01 -0.10617913751E+02  0.43400731640E+02  0.00000000000E+00 0. -1.
         11    1    3    3    0    0  0.20140969715E+02 -0.53907891423E+01 -0.45887403244E+01  0.21348906451E+02  0.51100000000E-03 0.  1.
        -11    1    3    3    0    0  0.11864347431E+02 -0.16741991884E+01  0.10786489609E+02  0.16121849808E+02  0.51100000000E-03 0. -1.
        -12    1    3    3    0    0  0.89514083993E+01 -0.26009336147E+01  0.44201644671E+01  0.10316512100E+02  0.00000000000E+00 0.  1.
</event>
<event>
 7    1  0.2412036E-009  0.4778727E+02  0.7816164E-02  0.1312668E+00
        -11   -1    0    0    0    0  0.00000000000E+00  0.00000000000E+00  0.45593999997E+02  0.45594000000E+02  0.51100000000E-03 0. -1.
         11   -1    0    0    0    0 -0.00000000000E+00 -0.00000000000E+00 -0.45593999997E+02  0.45594000000E+02  0.51100000000E-03 0.  1.
    9900012    2    1    2    0    0 -0.14440228336E+02  0.29342441208E+02 -0.28532867168E+02  0.47787267757E+02  0.19999985011E+02 0.  0.
         12    1    1    2    0    0  0.14440228336E+02 -0.29342441208E+02  0.28532867168E+02  0.43400732243E+02  0.00000000000E+00 0. -1.
         11    1    3    3    0    0 -0.51465057698E+01  0.79699748001E+01 -0.12828783326E+01  0.95735467320E+01  0.51100000000E-03 0. -1.
        -11    1    3    3    0    0  0.20238554496E+01  0.10392435980E+02 -0.14393985855E+02  0.17868563052E+02  0.51100000000E-03 0.  1.
        -12    1    3    3    0    0 -0.11317578016E+02  0.10980030427E+02 -0.12856002980E+02  0.20345157973E+02  0.00000000000E+00 0.  1.
</event>
<event>
 7    1  0.2412036E-009  0.4778726E+02  0.7816164E-02  0.1312668E+00
        -11   -1    0    0    0    0  0.00000000000E+00  0.00000000000E+00  0.45593999997E+02  0.45594000000E+02  0.51100000000E-03 0. -1.
         11   -1    0    0    0    0 -0.00000000000E+00 -0.00000000000E+00 -0.45593999997E+02  0.45594000000E+02  0.51100000000E-03 0.  1.
    9900012    2    1    2    0    0 -0.37581885953E+02 -0.20958193774E+02 -0.56550737581E+01  0.47787263863E+02  0.19999967256E+02 0.  0.
         12    1    1    2    0    0  0.37581885953E+02  0.20958193774E+02  0.56550737581E+01  0.43400736137E+02  0.00000000000E+00 0. -1.
         11    1    3    3    0    0 -0.12614347584E+01  0.82191422061E+00  0.86306325897E+00  0.17354074697E+01  0.51100000000E-03 0. -1.
        -11    1    3    3    0    0 -0.23879982995E+02 -0.45109471696E+01 -0.37099204053E+01  0.24583851242E+02  0.51100000000E-03 0.  1.
        -12    1    3    3    0    0 -0.12440468199E+02 -0.17269160825E+02 -0.28082166118E+01  0.21468005151E+02  0.00000000000E+00 0.  1.
</event>
<event>
 7    1  0.2412036E-009  0.4778727E+02  0.7816164E-02  0.1312668E+00
        -11   -1    0    0    0    0  0.00000000000E+00  0.00000000000E+00  0.45593999997E+02  0.45594000000E+02  0.51100000000E-03 0.  1.
         11   -1    0    0    0    0 -0.00000000000E+00 -0.00000000000E+00 -0.45593999997E+02  0.45594000000E+02  0.51100000000E-03 0. -1.
    9900012    2    1    2    0    0  0.25069551089E+02  0.64864135784E+01  0.34829122096E+02  0.47787266148E+02  0.19999977676E+02 0.  0.
         12    1    1    2    0    0 -0.25069551089E+02 -0.64864135784E+01 -0.34829122096E+02  0.43400733852E+02  0.00000000000E+00 0. -1.
         11    1    3    3    0    0  0.22046646997E+02  0.64941761795E+01  0.21029656763E+02  0.31152454669E+02  0.51100000000E-03 0. -1.
        -11    1    3    3    0    0 -0.25597152023E+01 -0.11176798293E+01  0.81495163862E+01  0.86148689896E+01  0.51100000000E-03 0.  1.
        -12    1    3    3    0    0  0.55826192940E+01  0.11099172282E+01  0.56499489468E+01  0.80199424896E+01  0.00000000000E+00 0.  1.
</event>
<event>
 7    1  0.2412036E-009  0.4778727E+02  0.7816164E-02  0.1312668E+00
        -11   -1    0    0    0    0  0.00000000000E+00  0.00000000000E+00  0.45593999997E+02  0.45594000000E+02  0.51100000000E-03 0. -1.
         11   -1    0    0    0    0 -0.00000000000E+00 -0.00000000000E+00 -0.45593999997E+02  0.45594000000E+02  0.51100000000E-03 0.  1.
    9900012    2    1    2    0    0 -0.27191726448E+02  0.31663187728E+02  0.11902764017E+02  0.47787271486E+02  0.20000002012E+02 0.  0.
         12    1    1    2    0    0  0.27191726448E+02 -0.31663187728E+02 -0.11902764017E+02  0.43400728514E+02  0.00000000000E+00 0. -1.
         11    1    3    3    0    0 -0.71141804996E+01  0.38917795059E+01  0.57474916334E+01  0.99393748415E+01  0.51100000000E-03 0. -1.
        -11    1    3    3    0    0 -0.65767683893E+01  0.19757323173E+02  0.73986125828E+01  0.22098533206E+02  0.51100000000E-03 0.  1.
        -12    1    3    3    0    0 -0.13500777559E+02  0.80140850487E+01 -0.12433401993E+01  0.15749363439E+02  0.00000000000E+00 0.  1.
</event>
<event>
 7    1  0.2412036E-009  0.4778727E+02  0.7816164E-02  0.1312668E+00
        -11   -1    0    0    0    0  0.00000000000E+00  0.00000000000E+00  0.45593999997E+02  0.45594000000E+02  0.51100000000E-03 0. -1.
         11   -1    0    0    0    0 -0.00000000000E+00 -0.00000000000E+00 -0.45593999997E+02  0.45594000000E+02  0.51100000000E-03 0.  1.
    9900012    2    1    2    0    0  0.32747510887E+02  0.28205536457E+02 -0.39587516452E+01  0.47787268777E+02  0.19999989661E+02 0.  0.
         12    1    1    2    0    0 -0.32747510887E+02 -0.28205536457E+02  0.39587516452E+01  0.43400731223E+02  0.00000000000E+00 0. -1.
         11    1    3    3    0    0  0.25568743036E+00  0.43484443464E+01  0.45042841194E+01  0.62660130854E+01  0.51100000000E-03 0. -1.
        -11    1    3    3    0    0  0.42982541606E+01  0.50189193674E+01 -0.15254031742E+00  0.66096754274E+01  0.51100000000E-03 0.  1.
         12    1    3    3    0    0  0.28193569296E+02  0.18838172743E+02 -0.83104954473E+01  0.34911580264E+02  0.00000000000E+00 0. -1.
</event>
<event>
 7    1  0.2412036E-009  0.4778727E+02  0.7816164E-02  0.1312668E+00
        -11   -1    0    0    0    0  0.00000000000E+00  0.00000000000E+00  0.45593999997E+02  0.45594000000E+02  0.51100000000E-03 0.  1.
         11   -1    0    0    0    0 -0.00000000000E+00 -0.00000000000E+00 -0.45593999997E+02  0.45594000000E+02  0.51100000000E-03 0. -1.
    9900012    2    1    2    0    0 -0.65759155009E+01 -0.24416592394E+02  0.35273373338E+02  0.47787268261E+02  0.19999987309E+02 0.  0.
         12    1    1    2    0    0  0.65759155009E+01  0.24416592394E+02 -0.35273373338E+02  0.43400731739E+02  0.00000000000E+00 0. -1.
         11    1    3    3    0    0  0.50139977267E+01 -0.14131219484E+02  0.11467708342E+02  0.18876966710E+02  0.51100000000E-03 0. -1.
        -11    1    3    3    0    0 -0.11283326353E+02 -0.10781393449E+02  0.21724187730E+02  0.26748686530E+02  0.51100000000E-03 0.  1.
         12    1    3    3    0    0 -0.30658687503E+00  0.49602053879E+00  0.20814772665E+01  0.21616150207E+01  0.00000000000E+00 0. -1.
</event>
<event>
 7    1  0.2412036E-009  0.4778727E+02  0.7816164E-02  0.1312668E+00
        -11   -1    0    0    0    0  0.00000000000E+00  0.00000000000E+00  0.45593999997E+02  0.45594000000E+02  0.51100000000E-03 0.  1.
         11   -1    0    0    0    0 -0.00000000000E+00 -0.00000000000E+00 -0.45593999997E+02  0.45594000000E+02  0.51100000000E-03 0. -1.
    9900012    2    1    2    0    0  0.22718886757E+02  0.91140933178E+01  0.35838648862E+02  0.47787271149E+02  0.20000000479E+02 0.  0.
         12    1    1    2    0    0 -0.22718886757E+02 -0.91140933178E+01 -0.35838648862E+02  0.43400728851E+02  0.00000000000E+00 0. -1.
         11    1    3    3    0    0  0.75062819524E+01 -0.28874499068E+01  0.19186450836E+01  0.82681820814E+01  0.51100000000E-03 0. -1.
        -11    1    3    3    0    0  0.94295243146E+01  0.88195673030E+01  0.27150944073E+02  0.30064504994E+02  0.51100000000E-03 0.  1.
        -12    1    3    3    0    0  0.57830804899E+01  0.31819759216E+01  0.67690597061E+01  0.94545840746E+01  0.00000000000E+00 0.  1.
</event>
<event>
 7    1  0.2412036E-009  0.4778727E+02  0.7816164E-02  0.1312668E+00
        -11   -1    0    0    0    0  0.00000000000E+00  0.00000000000E+00  0.45593999997E+02  0.45594000000E+02  0.51100000000E-03 0. -1.
         11   -1    0    0    0    0 -0.00000000000E+00 -0.00000000000E+00 -0.45593999997E+02  0.45594000000E+02  0.51100000000E-03 0.  1.
    9900012    2    1    2    0    0 -0.39077563808E+02  0.17024631246E+02 -0.81688107792E+01  0.47787268073E+02  0.19999986452E+02 0.  0.
         12    1    1    2    0    0  0.39077563808E+02 -0.17024631246E+02  0.81688107792E+01  0.43400731927E+02  0.00000000000E+00 0. -1.
         11    1    3    3    0    0  0.48980302888E+00  0.19967777683E+01  0.63543297733E+00  0.21519302481E+01  0.51100000000E-03 0. -1.
        -11    1    3    3    0    0 -0.37315211830E+02  0.14605227149E+02 -0.39480710321E+01  0.40265679668E+02  0.51100000000E-03 0.  1.
        -12    1    3    3    0    0 -0.22521550069E+01  0.42262632811E+00 -0.48561727244E+01  0.53696581565E+01  0.00000000000E+00 0.  1.
</event>
<event>
 7    1  0.2412036E-009  0.4778727E+02  0.7816164E-02  0.1312668E+00
        -11   -1    0    0    0    0  0.00000000000E+00  0.00000000000E+00  0.45593999997E+02  0.45594000000E+02  0.51100000000E-03 0.  1.
         11   -1    0    0    0    0 -0.00000000000E+00 -0.00000000000E+00 -0.45593999997E+02  0.45594000000E+02  0.51100000000E-03 0. -1.
    9900012    2    1    2    0    0 -0.26680498483E+02 -0.56564623447E+01  0.33760609158E+02  0.47787270787E+02  0.19999998824E+02 0.  0.
         12    1    1    2    0    0  0.26680498483E+02  0.56564623447E+01 -0.33760609158E+02  0.43400729213E+02  0.00000000000E+00 0. -1.
         11    1    3    3    0    0 -0.67099348490E+01 -0.66689091014E+01  0.26002359209E+01  0.98111569851E+01  0.51100000000E-03 0. -1.
        -11    1    3    3    0    0 -0.15204665828E+02 -0.28072711467E+01  0.20320915506E+02  0.25534334562E+02  0.51100000000E-03 0.  1.
         12    1    3    3    0    0 -0.47658978061E+01  0.38197179034E+01  0.10839457731E+02  0.12441779240E+02  0.00000000000E+00 0. -1.
</event>
<event>
 7    1  0.2412036E-009  0.4778727E+02  0.7816164E-02  0.1312668E+00
        -11   -1    0    0    0    0  0.00000000000E+00  0.00000000000E+00  0.45593999997E+02  0.45594000000E+02  0.51100000000E-03 0. -1.
         11   -1    0    0    0    0 -0.00000000000E+00 -0.00000000000E+00 -0.45593999997E+02  0.45594000000E+02  0.51100000000E-03 0.  1.
    9900012    2    1    2    0    0 -0.42329838247E+02  0.45234455598E+01 -0.84466897379E+01  0.47787270361E+02  0.19999996882E+02 0.  0.
         12    1    1    2    0    0  0.42329838247E+02 -0.45234455598E+01  0.84466897379E+01  0.43400729639E+02  0.00000000000E+00 0. -1.
         11    1    3    3    0    0 -0.30711550129E+01 -0.16750818436E+01 -0.13275044927E+01  0.37416788659E+01  0.51100000000E-03 0. -1.
        -11    1    3    3    0    0 -0.79184950891E+01 -0.57295411913E+01 -0.44449235791E-01  0.97740566160E+01  0.51100000000E-03 0.  1.
        -12    1    3    3    0    0 -0.31340188145E+02  0.11928068595E+02 -0.70747360094E+01  0.34271534879E+02  0.00000000000E+00 0.  1.
</event>
<event>
 7    1  0.2412036E-009  0.4778727E+02  0.7816164E-02  0.1312668E+00
        -11   -1    0    0    0    0  0.00000000000E+00  0.00000000000E+00  0.45593999997E+02  0.45594000000E+02  0.51100000000E-03 0. -1.
         11   -1    0    0    0    0 -0.00000000000E+00 -0.00000000000E+00 -0.45593999997E+02  0.45594000000E+02  0.51100000000E-03 0.  1.
    9900012    2    1    2    0    0 -0.75422474827E+01  0.17415032653E+00 -0.42739998506E+02  0.47787270770E+02  0.19999998747E+02 0.  0.
         12    1    1    2    0    0  0.75422474827E+01 -0.17415032653E+00  0.42739998506E+02  0.43400729230E+02  0.00000000000E+00 0. -1.
         11    1    3    3    0    0 -0.65694401052E+00 -0.20182356324E+01 -0.25319529078E+02  0.25408333348E+02  0.51100000000E-03 0. -1.
        -11    1    3    3    0    0 -0.13241766378E+01 -0.45446927108E+01 -0.93770694779E+01  0.10504147174E+02  0.51100000000E-03 0.  1.
         12    1    3    3    0    0 -0.55611268344E+01  0.67370786697E+01 -0.80433999501E+01  0.11874790248E+02  0.00000000000E+00 0. -1.
</event>
<event>
 7    1  0.2412036E-009  0.4778726E+02  0.7816164E-02  0.1312668E+00
        -11   -1    0    0    0    0  0.00000000000E+00  0.00000000000E+00  0.45593999997E+02  0.45594000000E+02  0.51100000000E-03 0. -1.
         11   -1    0    0    0    0 -0.00000000000E+00 -0.00000000000E+00 -0.45593999997E+02  0.45594000000E+02  0.51100000000E-03 0.  1.
    9900012    2    1    2    0    0  0.38012595267E+02 -0.23661543221E+01 -0.20810295731E+02  0.47787256993E+02  0.19999935932E+02 0.  0.
         12    1    1    2    0    0 -0.38012595267E+02  0.23661543221E+01  0.20810295731E+02  0.43400743007E+02  0.00000000000E+00 0. -1.
         11    1    3    3    0    0  0.51239188597E+01  0.51840136359E+01 -0.26570491499E+00  0.72937741411E+01  0.51100000000E-03 0. -1.
        -11    1    3    3    0    0  0.15491869965E+02 -0.49293294611E+01 -0.49779318888E+01  0.17002238973E+02  0.51100000000E-03 0.  1.
         12    1    3    3    0    0  0.17396806442E+02 -0.26208384969E+01 -0.15566658927E+02  0.23491243878E+02  0.00000000000E+00 0. -1.
</event>
<event>
 7    1  0.2412036E-009  0.4778727E+02  0.7816164E-02  0.1312668E+00
        -11   -1    0    0    0    0  0.00000000000E+00  0.00000000000E+00  0.45593999997E+02  0.45594000000E+02  0.51100000000E-03 0.  1.
         11   -1    0    0    0    0 -0.00000000000E+00 -0.00000000000E+00 -0.45593999997E+02  0.45594000000E+02  0.51100000000E-03 0. -1.
    9900012    2    1    2    0    0  0.27000695846E+01  0.43293598553E+02 -0.14133931255E+01  0.47787265772E+02  0.19999975961E+02 0.  0.
         12    1    1    2    0    0 -0.27000695846E+01 -0.43293598553E+02  0.14133931255E+01  0.43400734228E+02  0.00000000000E+00 0. -1.
         11    1    3    3    0    0  0.52164569403E+01  0.48060507741E+01  0.35342950258E+01  0.79246948613E+01  0.51100000000E-03 0. -1.
        -11    1    3    3    0    0 -0.25912666498E+01  0.22938730703E+02 -0.71312151478E+01  0.24161006992E+02  0.51100000000E-03 0.  1.
        -12    1    3    3    0    0  0.74879294116E-01  0.15548817076E+02  0.21835269965E+01  0.15701563919E+02  0.00000000000E+00 0.  1.
</event>
<event>
 7    1  0.2412036E-009  0.4778725E+02  0.7816164E-02  0.1312668E+00
        -11   -1    0    0    0    0  0.00000000000E+00  0.00000000000E+00  0.45593999997E+02  0.45594000000E+02  0.51100000000E-03 0.  1.
         11   -1    0    0    0    0 -0.00000000000E+00 -0.00000000000E+00 -0.45593999997E+02  0.45594000000E+02  0.51100000000E-03 0. -1.
    9900012    2    1    2    0    0  0.24727572385E+02 -0.33848553100E+02  0.11244905326E+02  0.47787247946E+02  0.19999894686E+02 0.  0.
         12    1    1    2    0    0 -0.24727572385E+02  0.33848553100E+02 -0.11244905326E+02  0.43400752054E+02  0.00000000000E+00 0. -1.
         11    1    3    3    0    0  0.20341684590E+02 -0.13889372484E+02  0.73833707597E+01  0.25714061600E+02  0.51100000000E-03 0. -1.
        -11    1    3    3    0    0 -0.85389096066E+00 -0.10832926552E+02  0.85715489855E-02  0.10866531239E+02  0.51100000000E-03 0.  1.
        -12    1    3    3    0    0  0.52397787563E+01 -0.91262540647E+01  0.38529630174E+01  0.11206655107E+02  0.00000000000E+00 0.  1.
</event>
<event>
 7    1  0.2412036E-009  0.4778727E+02  0.7816164E-02  0.1312668E+00
        -11   -1    0    0    0    0  0.00000000000E+00  0.00000000000E+00  0.45593999997E+02  0.45594000000E+02  0.51100000000E-03 0. -1.
         11   -1    0    0    0    0 -0.00000000000E+00 -0.00000000000E+00 -0.45593999997E+02  0.45594000000E+02  0.51100000000E-03 0.  1.
    9900012    2    1    2    0    0  0.66416385487E+01 -0.31855155535E+02 -0.28718654885E+02  0.47787269186E+02  0.19999991527E+02 0.  0.
         12    1    1    2    0    0 -0.66416385487E+01  0.31855155535E+02  0.28718654885E+02  0.43400730814E+02  0.00000000000E+00 0. -1.
         11    1    3    3    0    0 -0.32950899659E-01  0.12359624161E+01  0.76815337151E+00  0.14555922228E+01  0.51100000000E-03 0. -1.
        -11    1    3    3    0    0  0.16534050212E+01 -0.24344891965E+02 -0.26010042396E+02  0.35664125093E+02  0.51100000000E-03 0.  1.
         12    1    3    3    0    0  0.50211844271E+01 -0.87462259867E+01 -0.34767658607E+01  0.10667551871E+02  0.00000000000E+00 0. -1.
</event>
<event>
 7    1  0.2412036E-009  0.4778727E+02  0.7816164E-02  0.1312668E+00
        -11   -1    0    0    0    0  0.00000000000E+00  0.00000000000E+00  0.45593999997E+02  0.45594000000E+02  0.51100000000E-03 0.  1.
         11   -1    0    0    0    0 -0.00000000000E+00 -0.00000000000E+00 -0.45593999997E+02  0.45594000000E+02  0.51100000000E-03 0. -1.
    9900012    2    1    2    0    0  0.35082666343E+02 -0.14537111604E+02  0.21011951989E+02  0.47787271690E+02  0.20000002942E+02 0.  0.
         12    1    1    2    0    0 -0.35082666343E+02  0.14537111604E+02 -0.21011951989E+02  0.43400728310E+02  0.00000000000E+00 0. -1.
         11    1    3    3    0    0  0.11130663760E+02  0.21073589996E+01  0.10298502724E+02  0.15309859447E+02  0.51100000000E-03 0. -1.
        -11    1    3    3    0    0  0.21138504210E+02 -0.16851408739E+02  0.11743711021E+02  0.29474074804E+02  0.51100000000E-03 0.  1.
        -12    1    3    3    0    0  0.28134983724E+01  0.20693813539E+00 -0.10302617559E+01  0.30033374385E+01  0.00000000000E+00 0.  1.
</event>
<event>
 7    1  0.2412036E-009  0.4778727E+02  0.7816164E-02  0.1312668E+00
        -11   -1    0    0    0    0  0.00000000000E+00  0.00000000000E+00  0.45593999997E+02  0.45594000000E+02  0.51100000000E-03 0.  1.
         11   -1    0    0    0    0 -0.00000000000E+00 -0.00000000000E+00 -0.45593999997E+02  0.45594000000E+02  0.51100000000E-03 0. -1.
    9900012    2    1    2    0    0  0.48525261365E+01  0.42941419808E+02 -0.40138108991E+01  0.47787271631E+02  0.20000002676E+02 0.  0.
         12    1    1    2    0    0 -0.48525261365E+01 -0.42941419808E+02  0.40138108991E+01  0.43400728369E+02  0.00000000000E+00 0. -1.
         11    1    3    3    0    0  0.87997706038E+01  0.39656540377E+02 -0.43931355681E+01  0.40858007756E+02  0.51100000000E-03 0. -1.
        -11    1    3    3    0    0 -0.23461666308E+01  0.34983350773E+01  0.19807639251E+01  0.46547043044E+01  0.51100000000E-03 0.  1.
         12    1    3    3    0    0 -0.16010778365E+01 -0.21345564727E+00 -0.16014392562E+01  0.22745595713E+01  0.00000000000E+00 0. -1.
</event>
<event>
 7    1  0.2412036E-009  0.4778728E+02  0.7816164E-02  0.1312668E+00
        -11   -1    0    0    0    0  0.00000000000E+00  0.00000000000E+00  0.45593999997E+02  0.45594000000E+02  0.51100000000E-03 0.  1.
         11   -1    0    0    0    0 -0.00000000000E+00 -0.00000000000E+00 -0.45593999997E+02  0.45594000000E+02  0.51100000000E-03 0. -1.
    9900012    2    1    2    0    0 -0.23048504052E+02 -0.33316787424E+02 -0.15568581443E+02  0.47787278906E+02  0.20000035845E+02 0.  0.
         12    1    1    2    0    0  0.23048504052E+02  0.33316787424E+02  0.15568581443E+02  0.43400721094E+02  0.00000000000E+00 0. -1.
         11    1    3    3    0    0  0.18989174258E+01 -0.64326761709E+00  0.26206689098E+00  0.20219693207E+01  0.51100000000E-03 0. -1.
        -11    1    3    3    0    0 -0.21322902131E+02 -0.30158543603E+02 -0.96557554575E+01  0.38176400057E+02  0.51100000000E-03 0.  1.
         12    1    3    3    0    0 -0.36245193468E+01 -0.25149762039E+01 -0.61748928763E+01  0.75889095287E+01  0.00000000000E+00 0. -1.
</event>
<event>
 7    1  0.2412036E-009  0.4778727E+02  0.7816164E-02  0.1312668E+00
        -11   -1    0    0    0    0  0.00000000000E+00  0.00000000000E+00  0.45593999997E+02  0.45594000000E+02  0.51100000000E-03 0. -1.
         11   -1    0    0    0    0 -0.00000000000E+00 -0.00000000000E+00 -0.45593999997E+02  0.45594000000E+02  0.51100000000E-03 0.  1.
    9900012    2    1    2    0    0  0.10622517861E+02  0.37195218663E+02 -0.19679972833E+02  0.47787268349E+02  0.19999987712E+02 0.  0.
         12    1    1    2    0    0 -0.10622517861E+02 -0.37195218663E+02  0.19679972833E+02  0.43400731651E+02  0.00000000000E+00 0. -1.
         11    1    3    3    0    0 -0.14289320613E+01 -0.27803065186E+00 -0.53656797338E+01  0.55596463148E+01  0.51100000000E-03 0. -1.
        -11    1    3    3    0    0  0.11622268638E+02  0.34880907664E+02 -0.11859225815E+02  0.38631542617E+02  0.51100000000E-03 0.  1.
         12    1    3    3    0    0  0.42918128414E+00  0.25923416514E+01 -0.24550672836E+01  0.35960794178E+01  0.00000000000E+00 0. -1.
</event>
<event>
 7    1  0.2412036E-009  0.4778727E+02  0.7816164E-02  0.1312668E+00
        -11   -1    0    0    0    0  0.00000000000E+00  0.00000000000E+00  0.45593999997E+02  0.45594000000E+02  0.51100000000E-03 0. -1.
         11   -1    0    0    0    0 -0.00000000000E+00 -0.00000000000E+00 -0.45593999997E+02  0.45594000000E+02  0.51100000000E-03 0.  1.
    9900012    2    1    2    0    0  0.34555440984E+02  0.81179907192E+01 -0.24972845379E+02  0.47787270960E+02  0.19999999614E+02 0.  0.
         12    1    1    2    0    0 -0.34555440984E+02 -0.81179907192E+01  0.24972845379E+02  0.43400729040E+02  0.00000000000E+00 0. -1.
         11    1    3    3    0    0  0.19291773569E+02  0.89153244028E+01 -0.16067448909E+02  0.26642418272E+02  0.51100000000E-03 0. -1.
        -11    1    3    3    0    0  0.99863765968E+01  0.51006780309E+01 -0.59695840134E+01  0.12703565148E+02  0.51100000000E-03 0.  1.
         12    1    3    3    0    0  0.52772908177E+01 -0.58980117146E+01 -0.29358124566E+01  0.84412875404E+01  0.00000000000E+00 0. -1.
</event>
<event>
 7    1  0.2412036E-009  0.4778727E+02  0.7816164E-02  0.1312668E+00
        -11   -1    0    0    0    0  0.00000000000E+00  0.00000000000E+00  0.45593999997E+02  0.45594000000E+02  0.51100000000E-03 0.  1.
         11   -1    0    0    0    0 -0.00000000000E+00 -0.00000000000E+00 -0.45593999997E+02  0.45594000000E+02  0.51100000000E-03 0. -1.
    9900012    2    1    2    0    0  0.31881974984E+02 -0.22625794905E+02 -0.18847722199E+02  0.47787267794E+02  0.19999985180E+02 0.  0.
         12    1    1    2    0    0 -0.31881974984E+02  0.22625794905E+02  0.18847722199E+02  0.43400732206E+02  0.00000000000E+00 0. -1.
         11    1    3    3    0    0  0.11951968081E+02 -0.14692910726E+02 -0.15495251097E+02  0.24471084435E+02  0.51100000000E-03 0. -1.
        -11    1    3    3    0    0  0.18289386922E+02 -0.51158288892E+01 -0.50351591145E+01  0.19647549638E+02  0.51100000000E-03 0.  1.
        -12    1    3    3    0    0  0.16406199804E+01 -0.28170552903E+01  0.16826880132E+01  0.36686337209E+01  0.00000000000E+00 0.  1.
</event>
<event>
 7    1  0.2412036E-009  0.4778728E+02  0.7816164E-02  0.1312668E+00
        -11   -1    0    0    0    0  0.00000000000E+00  0.00000000000E+00  0.45593999997E+02  0.45594000000E+02  0.51100000000E-03 0.  1.
         11   -1    0    0    0    0 -0.00000000000E+00 -0.00000000000E+00 -0.45593999997E+02  0.45594000000E+02  0.51100000000E-03 0. -1.
    9900012    2    1    2    0    0  0.25433916340E+02 -0.22856178955E+02  0.26727024145E+02  0.47787276083E+02  0.20000022974E+02 0.  0.
         12    1    1    2    0    0 -0.25433916340E+02  0.22856178955E+02 -0.26727024145E+02  0.43400723917E+02  0.00000000000E+00 0. -1.
         11    1    3    3    0    0  0.64881527099E+01 -0.81818446590E+01 -0.10300218961E+01  0.10492838176E+02  0.51100000000E-03 0. -1.
        -11    1    3    3    0    0  0.14410331306E+02 -0.71241840408E+01  0.17118289486E+02  0.23482918937E+02  0.51100000000E-03 0.  1.
         12    1    3    3    0    0  0.45354323241E+01 -0.75501502557E+01  0.10638756555E+02  0.13811518971E+02  0.00000000000E+00 0. -1.
</event>
<event>
 7    1  0.2412036E-009  0.4778727E+02  0.7816164E-02  0.1312668E+00
        -11   -1    0    0    0    0  0.00000000000E+00  0.00000000000E+00  0.45593999997E+02  0.45594000000E+02  0.51100000000E-03 0. -1.
         11   -1    0    0    0    0 -0.00000000000E+00 -0.00000000000E+00 -0.45593999997E+02  0.45594000000E+02  0.51100000000E-03 0.  1.
    9900012    2    1    2    0    0 -0.32202826688E+01  0.19892214000E+02 -0.38438945944E+02  0.47787274619E+02  0.20000016300E+02 0.  0.
         12    1    1    2    0    0  0.32202826688E+01 -0.19892214000E+02  0.38438945944E+02  0.43400725381E+02  0.00000000000E+00 0. -1.
         11    1    3    3    0    0  0.15253703133E+01  0.16421015900E+01  0.20708794186E+01  0.30515232347E+01  0.51100000000E-03 0. -1.
        -11    1    3    3    0    0 -0.32025564597E+01  0.13699760815E+02 -0.32146967448E+02  0.35090843971E+02  0.51100000000E-03 0.  1.
         12    1    3    3    0    0 -0.15430965225E+01  0.45503515946E+01 -0.83628579145E+01  0.96449074133E+01  0.00000000000E+00 0. -1.
</event>
<event>
 7    1  0.2412036E-009  0.4778725E+02  0.7816164E-02  0.1312668E+00
        -11   -1    0    0    0    0  0.00000000000E+00  0.00000000000E+00  0.45593999997E+02  0.45594000000E+02  0.51100000000E-03 0.  1.
         11   -1    0    0    0    0 -0.00000000000E+00 -0.00000000000E+00 -0.45593999997E+02  0.45594000000E+02  0.51100000000E-03 0. -1.
    9900012    2    1    2    0    0  0.19206653388E+02  0.57433057057E+01  0.38493427948E+02  0.47787250121E+02  0.19999904603E+02 0.  0.
         12    1    1    2    0    0 -0.19206653388E+02 -0.57433057057E+01 -0.38493427948E+02  0.43400749879E+02  0.00000000000E+00 0. -1.
         11    1    3    3    0    0  0.16954047048E+01  0.17272210652E+01 -0.16707817803E+01  0.29409525225E+01  0.51100000000E-03 0. -1.
        -11    1    3    3    0    0  0.11262058887E+02  0.16366600848E+01  0.15116958575E+02  0.18921814486E+02  0.51100000000E-03 0.  1.
         12    1    3    3    0    0  0.62491897962E+01  0.23794245557E+01  0.25047251153E+02  0.25924483113E+02  0.00000000000E+00 0. -1.
</event>
<event>
 7    1  0.2412036E-009  0.4778727E+02  0.7816164E-02  0.1312668E+00
        -11   -1    0    0    0    0  0.00000000000E+00  0.00000000000E+00  0.45593999997E+02  0.45594000000E+02  0.51100000000E-03 0.  1.
         11   -1    0    0    0    0 -0.00000000000E+00 -0.00000000000E+00 -0.45593999997E+02  0.45594000000E+02  0.51100000000E-03 0. -1.
    9900012    2    1    2    0    0  0.56267800942E+01  0.10937659908E+02  0.41621272075E+02  0.47787270195E+02  0.19999996128E+02 0.  0.
         12    1    1    2    0    0 -0.56267800942E+01 -0.10937659908E+02 -0.41621272075E+02  0.43400729805E+02  0.00000000000E+00 0. -1.
         11    1    3    3    0    0 -0.21157225336E+01  0.37142180843E+01  0.76085778162E+01  0.87270931279E+01  0.51100000000E-03 0. -1.
        -11    1    3    3    0    0 -0.14688861777E+00  0.10328726571E+02  0.14680861784E+02  0.17950818138E+02  0.51100000000E-03 0.  1.
        -12    1    3    3    0    0  0.78893912456E+01 -0.31052847474E+01  0.19331832474E+02  0.21109358929E+02  0.00000000000E+00 0.  1.
</event>
<event>
 7    1  0.2412036E-009  0.4778726E+02  0.7816164E-02  0.1312668E+00
        -11   -1    0    0    0    0  0.00000000000E+00  0.00000000000E+00  0.45593999997E+02  0.45594000000E+02  0.51100000000E-03 0. -1.
         11   -1    0    0    0    0 -0.00000000000E+00 -0.00000000000E+00 -0.45593999997E+02  0.45594000000E+02  0.51100000000E-03 0.  1.
    9900012    2    1    2    0    0 -0.26564572058E+02  0.13694632147E+02 -0.31470693579E+02  0.47787262764E+02  0.19999962245E+02 0.  0.
         12    1    1    2    0    0  0.26564572058E+02 -0.13694632147E+02  0.31470693579E+02  0.43400737236E+02  0.00000000000E+00 0. -1.
         11    1    3    3    0    0 -0.45640580661E+01  0.84792793983E+01 -0.79787906600E+00  0.96625781451E+01  0.51100000000E-03 0. -1.
        -11    1    3    3    0    0 -0.12659625951E+02  0.24104408228E+01 -0.17194557878E+02  0.21487884378E+02  0.51100000000E-03 0.  1.
         12    1    3    3    0    0 -0.93408880409E+01  0.28049119264E+01 -0.13478256636E+02  0.16636800241E+02  0.00000000000E+00 0. -1.
</event>
<event>
 7    1  0.2412036E-009  0.4778727E+02  0.7816164E-02  0.1312668E+00
        -11   -1    0    0    0    0  0.00000000000E+00  0.00000000000E+00  0.45593999997E+02  0.45594000000E+02  0.51100000000E-03 0.  1.
         11   -1    0    0    0    0 -0.00000000000E+00 -0.00000000000E+00 -0.45593999997E+02  0.45594000000E+02  0.51100000000E-03 0. -1.
    9900012    2    1    2    0    0 -0.26505194596E+02 -0.24360996524E+02  0.24241286444E+02  0.47787268892E+02  0.19999990187E+02 0.  0.
         12    1    1    2    0    0  0.26505194596E+02  0.24360996524E+02 -0.24241286444E+02  0.43400731108E+02  0.00000000000E+00 0. -1.
         11    1    3    3    0    0 -0.18630855429E+01 -0.66036763168E+01  0.14179705418E+01  0.70064448443E+01  0.51100000000E-03 0. -1.
        -11    1    3    3    0    0 -0.42678268059E+01 -0.63848481250E+00  0.10701204175E+02  0.11538534550E+02  0.51100000000E-03 0.  1.
        -12    1    3    3    0    0 -0.20374282248E+02 -0.17118835394E+02  0.12122111727E+02  0.29242289498E+02  0.00000000000E+00 0.  1.
</event>
<event>
 7    1  0.2412036E-009  0.4778727E+02  0.7816164E-02  0.1312668E+00
        -11   -1    0    0    0    0  0.00000000000E+00  0.00000000000E+00  0.45593999997E+02  0.45594000000E+02  0.51100000000E-03 0.  1.
         11   -1    0    0    0    0 -0.00000000000E+00 -0.00000000000E+00 -0.45593999997E+02  0.45594000000E+02  0.51100000000E-03 0. -1.
    9900012    2    1    2    0    0 -0.37416242283E+02 -0.18396001195E+02  0.12051359774E+02  0.47787270525E+02  0.19999997632E+02 0.  0.
         12    1    1    2    0    0  0.37416242283E+02  0.18396001195E+02 -0.12051359774E+02  0.43400729475E+02  0.00000000000E+00 0. -1.
         11    1    3    3    0    0 -0.19294054538E+02 -0.11306444814E+02 -0.13191683246E+01  0.22401706189E+02  0.51100000000E-03 0. -1.
        -11    1    3    3    0    0 -0.91240757405E+01  0.56503410042E+00  0.28744306403E+01  0.95828165703E+01  0.51100000000E-03 0.  1.
         12    1    3    3    0    0 -0.89981120042E+01 -0.76545904813E+01  0.10496097459E+02  0.15802747766E+02  0.00000000000E+00 0. -1.
</event>
<event>
 7    1  0.2412036E-009  0.4778733E+02  0.7816164E-02  0.1312668E+00
        -11   -1    0    0    0    0  0.00000000000E+00  0.00000000000E+00  0.45593999997E+02  0.45594000000E+02  0.51100000000E-03 0.  1.
         11   -1    0    0    0    0 -0.00000000000E+00 -0.00000000000E+00 -0.45593999997E+02  0.45594000000E+02  0.51100000000E-03 0. -1.
    9900012    2    1    2    0    0  0.20237934851E+02 -0.33739290133E+02  0.18322249600E+02  0.47787325626E+02  0.20000248858E+02 0.  0.
         12    1    1    2    0    0 -0.20237934851E+02  0.33739290133E+02 -0.18322249600E+02  0.43400674374E+02  0.00000000000E+00 0. -1.
         11    1    3    3    0    0  0.19362147057E+00 -0.12194359898E+02  0.25182378099E+01  0.12453169256E+02  0.51100000000E-03 0. -1.
        -11    1    3    3    0    0  0.19360436637E+02 -0.22254815463E+02  0.12768230729E+02  0.32142355768E+02  0.51100000000E-03 0.  1.
         12    1    3    3    0    0  0.68387674292E+00  0.70988522773E+00  0.30357810609E+01  0.31918006025E+01  0.00000000000E+00 0. -1.
</event>
<event>
 7    1  0.2412036E-009  0.4778725E+02  0.7816164E-02  0.1312668E+00
        -11   -1    0    0    0    0  0.00000000000E+00  0.00000000000E+00  0.45593999997E+02  0.45594000000E+02  0.51100000000E-03 0. -1.
         11   -1    0    0    0    0 -0.00000000000E+00 -0.00000000000E+00 -0.45593999997E+02  0.45594000000E+02  0.51100000000E-03 0.  1.
    9900012    2    1    2    0    0 -0.14233157577E+01 -0.36398000458E+02 -0.23596280000E+02  0.47787254673E+02  0.19999925356E+02 0.  0.
         12    1    1    2    0    0  0.14233157577E+01  0.36398000458E+02  0.23596280000E+02  0.43400745327E+02  0.00000000000E+00 0. -1.
         11    1    3    3    0    0  0.62668055259E+01 -0.57410036976E+01 -0.32810009371E+01  0.91102657681E+01  0.51100000000E-03 0. -1.
        -11    1    3    3    0    0 -0.87984815879E+01 -0.17082903384E+02 -0.10576882051E+02  0.21934203894E+02  0.51100000000E-03 0.  1.
         12    1    3    3    0    0  0.11083603042E+01 -0.13574093376E+02 -0.97383970120E+01  0.16742785011E+02  0.00000000000E+00 0. -1.
</event>
<event>
 7    1  0.2412036E-009  0.4778727E+02  0.7816164E-02  0.1312668E+00
        -11   -1    0    0    0    0  0.00000000000E+00  0.00000000000E+00  0.45593999997E+02  0.45594000000E+02  0.51100000000E-03 0.  1.
         11   -1    0    0    0    0 -0.00000000000E+00 -0.00000000000E+00 -0.45593999997E+02  0.45594000000E+02  0.51100000000E-03 0. -1.
    9900012    2    1    2    0    0  0.72627811057E+01 -0.10142550597E+02  0.41569266808E+02  0.47787271147E+02  0.20000000467E+02 0.  0.
         12    1    1    2    0    0 -0.72627811057E+01  0.10142550597E+02 -0.41569266808E+02  0.43400728853E+02  0.00000000000E+00 0. -1.
         11    1    3    3    0    0 -0.33340710283E+01 -0.85635768821E+00  0.16234717617E+02  0.16595645046E+02  0.51100000000E-03 0. -1.
        -11    1    3    3    0    0  0.36304924036E+01 -0.28187938982E+01  0.52842301138E+00  0.46265867843E+01  0.51100000000E-03 0.  1.
         12    1    3    3    0    0  0.69663597304E+01 -0.64673990105E+01  0.24806126180E+02  0.26565039317E+02  0.00000000000E+00 0. -1.
</event>
<event>
 7    1  0.2412036E-009  0.4778726E+02  0.7816164E-02  0.1312668E+00
        -11   -1    0    0    0    0  0.00000000000E+00  0.00000000000E+00  0.45593999997E+02  0.45594000000E+02  0.51100000000E-03 0.  1.
         11   -1    0    0    0    0 -0.00000000000E+00 -0.00000000000E+00 -0.45593999997E+02  0.45594000000E+02  0.51100000000E-03 0. -1.
    9900012    2    1    2    0    0  0.39509973556E+02  0.55169884707E+01  0.17092379171E+02  0.47787255791E+02  0.19999930454E+02 0.  0.
         12    1    1    2    0    0 -0.39509973556E+02 -0.55169884707E+01 -0.17092379171E+02  0.43400744209E+02  0.00000000000E+00 0. -1.
         11    1    3    3    0    0  0.12722911367E+02 -0.51118041443E+01  0.60666423090E+00  0.13724833588E+02  0.51100000000E-03 0. -1.
        -11    1    3    3    0    0  0.16534804440E+02  0.32602773802E+01  0.11895229425E+02  0.20628273068E+02  0.51100000000E-03 0.  1.
         12    1    3    3    0    0  0.10252257749E+02  0.73685152347E+01  0.45904855150E+01  0.13434149135E+02  0.00000000000E+00 0. -1.
</event>
<event>
 7    1  0.2412036E-009  0.4778727E+02  0.7816164E-02  0.1312668E+00
        -11   -1    0    0    0    0  0.00000000000E+00  0.00000000000E+00  0.45593999997E+02  0.45594000000E+02  0.51100000000E-03 0.  1.
         11   -1    0    0    0    0 -0.00000000000E+00 -0.00000000000E+00 -0.45593999997E+02  0.45594000000E+02  0.51100000000E-03 0. -1.
    9900012    2    1    2    0    0  0.31132608868E+02  0.23588284899E+02  0.18920285872E+02  0.47787265711E+02  0.19999975681E+02 0.  0.
         12    1    1    2    0    0 -0.31132608868E+02 -0.23588284899E+02 -0.18920285872E+02  0.43400734289E+02  0.00000000000E+00 0. -1.
         11    1    3    3    0    0  0.82243363095E+01  0.77612894467E+01  0.15298205979E+02  0.19023996111E+02  0.51100000000E-03 0. -1.
        -11    1    3    3    0    0  0.69121289803E+01  0.59327978883E+01 -0.15873255927E+01  0.92463625617E+01  0.51100000000E-03 0.  1.
         12    1    3    3    0    0  0.15996143578E+02  0.98941975644E+01  0.52094054854E+01  0.19516907038E+02  0.00000000000E+00 0. -1.
</event>
<event>
 7    1  0.2412036E-009  0.4778727E+02  0.7816164E-02  0.1312668E+00
        -11   -1    0    0    0    0  0.00000000000E+00  0.00000000000E+00  0.45593999997E+02  0.45594000000E+02  0.51100000000E-03 0.  1.
         11   -1    0    0    0    0 -0.00000000000E+00 -0.00000000000E+00 -0.45593999997E+02  0.45594000000E+02  0.51100000000E-03 0. -1.
    9900012    2    1    2    0    0 -0.29524070537E+02  0.58425497243E+01  0.31270070310E+02  0.47787269297E+02  0.19999992034E+02 0.  0.
         12    1    1    2    0    0  0.29524070537E+02 -0.58425497243E+01 -0.31270070310E+02  0.43400730703E+02  0.00000000000E+00 0. -1.
         11    1    3    3    0    0 -0.12130459343E+02 -0.59580089564E+01  0.10988138965E+02  0.17417953748E+02  0.51100000000E-03 0. -1.
        -11    1    3    3    0    0 -0.48500917356E+01  0.72453084371E+01  0.48854032195E+01  0.99942508008E+01  0.51100000000E-03 0.  1.
        -12    1    3    3    0    0 -0.12543519458E+02  0.45552502437E+01  0.15396528125E+02  0.20375064748E+02  0.00000000000E+00 0.  1.
</event>
<event>
 7    1  0.2412036E-009  0.4778727E+02  0.7816164E-02  0.1312668E+00
        -11   -1    0    0    0    0  0.00000000000E+00  0.00000000000E+00  0.45593999997E+02  0.45594000000E+02  0.51100000000E-03 0.  1.
         11   -1    0    0    0    0 -0.00000000000E+00 -0.00000000000E+00 -0.45593999997E+02  0.45594000000E+02  0.51100000000E-03 0. -1.
    9900012    2    1    2    0    0  0.21439262925E+02 -0.29770207996E+02  0.23188712859E+02  0.47787266332E+02  0.19999978513E+02 0.  0.
         12    1    1    2    0    0 -0.21439262925E+02  0.29770207996E+02 -0.23188712859E+02  0.43400733668E+02  0.00000000000E+00 0. -1.
         11    1    3    3    0    0  0.12414352486E+02 -0.14906494132E+02  0.22272812882E+01  0.19526405126E+02  0.51100000000E-03 0. -1.
        -11    1    3    3    0    0  0.87301383854E+01 -0.83503788408E+01  0.16097661099E+02  0.20126570402E+02  0.51100000000E-03 0.  1.
         12    1    3    3    0    0  0.29477205397E+00 -0.65133350231E+01  0.48637704715E+01  0.81342908041E+01  0.00000000000E+00 0. -1.
</event>
<event>
 7    1  0.2412036E-009  0.4778727E+02  0.7816164E-02  0.1312668E+00
        -11   -1    0    0    0    0  0.00000000000E+00  0.00000000000E+00  0.45593999997E+02  0.45594000000E+02  0.51100000000E-03 0. -1.
         11   -1    0    0    0    0 -0.00000000000E+00 -0.00000000000E+00 -0.45593999997E+02  0.45594000000E+02  0.51100000000E-03 0.  1.
    9900012    2    1    2    0    0 -0.22446869003E+02  0.48814757027E+01 -0.36822991005E+02  0.47787269596E+02  0.19999993396E+02 0.  0.
         12    1    1    2    0    0  0.22446869003E+02 -0.48814757027E+01  0.36822991005E+02  0.43400730404E+02  0.00000000000E+00 0. -1.
         11    1    3    3    0    0 -0.35962954065E+01  0.67134620881E+01 -0.51637330596E+01  0.92015245058E+01  0.51100000000E-03 0. -1.
        -11    1    3    3    0    0 -0.17132214814E+01  0.33061405779E+01 -0.88162328808E+01  0.95703529629E+01  0.51100000000E-03 0.  1.
         12    1    3    3    0    0 -0.17137352115E+02 -0.51381269633E+01 -0.22843025064E+02  0.29015392127E+02  0.00000000000E+00 0. -1.
</event>
<event>
 7    1  0.2412036E-009  0.4778728E+02  0.7816164E-02  0.1312668E+00
        -11   -1    0    0    0    0  0.00000000000E+00  0.00000000000E+00  0.45593999997E+02  0.45594000000E+02  0.51100000000E-03 0.  1.
         11   -1    0    0    0    0 -0.00000000000E+00 -0.00000000000E+00 -0.45593999997E+02  0.45594000000E+02  0.51100000000E-03 0. -1.
    9900012    2    1    2    0    0 -0.21906237990E+02  0.17152535147E+02  0.33309606830E+02  0.47787278439E+02  0.20000033714E+02 0.  0.
         12    1    1    2    0    0  0.21906237990E+02 -0.17152535147E+02 -0.33309606830E+02  0.43400721561E+02  0.00000000000E+00 0. -1.
         11    1    3    3    0    0 -0.59571340970E+01  0.99633982290E+01  0.39923791725E+01  0.12275823501E+02  0.51100000000E-03 0. -1.
        -11    1    3    3    0    0 -0.16751597976E+02  0.82711769574E+01  0.27608950560E+02  0.33335904882E+02  0.51100000000E-03 0.  1.
        -12    1    3    3    0    0  0.80249408341E+00 -0.10820400393E+01  0.17082770981E+01  0.21755500556E+01  0.00000000000E+00 0.  1.
</event>
<event>
 7    1  0.2412036E-009  0.4778727E+02  0.7816164E-02  0.1312668E+00
        -11   -1    0    0    0    0  0.00000000000E+00  0.00000000000E+00  0.45593999997E+02  0.45594000000E+02  0.51100000000E-03 0. -1.
         11   -1    0    0    0    0 -0.00000000000E+00 -0.00000000000E+00 -0.45593999997E+02  0.45594000000E+02  0.51100000000E-03 0.  1.
    9900012    2    1    2    0    0  0.15413187048E+02  0.40015616377E+02  0.66938501911E+01  0.47787268216E+02  0.19999987103E+02 0.  0.
         12    1    1    2    0    0 -0.15413187048E+02 -0.40015616377E+02 -0.66938501911E+01  0.43400731784E+02  0.00000000000E+00 0. -1.
         11    1    3    3    0    0  0.65927771067E+01  0.16335639245E+02 -0.25523850609E+01  0.17799789023E+02  0.51100000000E-03 0. -1.
        -11    1    3    3    0    0 -0.50549872121E+00  0.16209057339E+02  0.76541809574E+01  0.17932527852E+02  0.51100000000E-03 0.  1.
        -12    1    3    3    0    0  0.93259086629E+01  0.74709197934E+01  0.15920542946E+01  0.12054951341E+02  0.00000000000E+00 0.  1.
</event>
<event>
 7    1  0.2412036E-009  0.4778727E+02  0.7816164E-02  0.1312668E+00
        -11   -1    0    0    0    0  0.00000000000E+00  0.00000000000E+00  0.45593999997E+02  0.45594000000E+02  0.51100000000E-03 0.  1.
         11   -1    0    0    0    0 -0.00000000000E+00 -0.00000000000E+00 -0.45593999997E+02  0.45594000000E+02  0.51100000000E-03 0. -1.
    9900012    2    1    2    0    0 -0.83104241131E+01  0.37185072989E+02  0.20780529096E+02  0.47787271991E+02  0.20000004316E+02 0.  0.
         12    1    1    2    0    0  0.83104241131E+01 -0.37185072989E+02 -0.20780529096E+02  0.43400728009E+02  0.00000000000E+00 0. -1.
         11    1    3    3    0    0 -0.41640140953E+01 -0.83692882734E+00  0.15389541090E+01  0.45175040961E+01  0.51100000000E-03 0. -1.
        -11    1    3    3    0    0 -0.72819700831E+00  0.25353705912E+02  0.10217364399E+02  0.27344747391E+02  0.51100000000E-03 0.  1.
        -12    1    3    3    0    0 -0.34182130096E+01  0.12668295905E+02  0.90242105881E+01  0.15925020504E+02  0.00000000000E+00 0.  1.
</event>
<event>
 7    1  0.2412036E-009  0.4778727E+02  0.7816164E-02  0.1312668E+00
        -11   -1    0    0    0    0  0.00000000000E+00  0.00000000000E+00  0.45593999997E+02  0.45594000000E+02  0.51100000000E-03 0.  1.
         11   -1    0    0    0    0 -0.00000000000E+00 -0.00000000000E+00 -0.45593999997E+02  0.45594000000E+02  0.51100000000E-03 0. -1.
    9900012    2    1    2    0    0  0.16865279867E+02 -0.63196181451E+01  0.39487315828E+02  0.47787270169E+02  0.19999996010E+02 0.  0.
         12    1    1    2    0    0 -0.16865279867E+02  0.63196181451E+01 -0.39487315828E+02  0.43400729831E+02  0.00000000000E+00 0. -1.
         11    1    3    3    0    0 -0.23932297346E+01 -0.16151465025E+01  0.11018156727E+02  0.11390172286E+02  0.51100000000E-03 0. -1.
        -11    1    3    3    0    0  0.19300099822E+02 -0.15437079510E+01  0.25818176706E+02  0.32271584034E+02  0.51100000000E-03 0.  1.
        -12    1    3    3    0    0 -0.41590219738E-01 -0.31607636916E+01  0.26509823951E+01  0.41255138492E+01  0.00000000000E+00 0.  1.
</event>
<event>
 7    1  0.2412036E-009  0.4778727E+02  0.7816164E-02  0.1312668E+00
        -11   -1    0    0    0    0  0.00000000000E+00  0.00000000000E+00  0.45593999997E+02  0.45594000000E+02  0.51100000000E-03 0.  1.
         11   -1    0    0    0    0 -0.00000000000E+00 -0.00000000000E+00 -0.45593999997E+02  0.45594000000E+02  0.51100000000E-03 0. -1.
    9900012    2    1    2    0    0  0.13920634761E+02 -0.26341078817E+01  0.41023173889E+02  0.47787269679E+02  0.19999993776E+02 0.  0.
         12    1    1    2    0    0 -0.13920634761E+02  0.26341078817E+01 -0.41023173889E+02  0.43400730321E+02  0.00000000000E+00 0. -1.
         11    1    3    3    0    0  0.28705303256E+01 -0.76101908583E+01  0.22272486209E+02  0.23711149096E+02  0.51100000000E-03 0. -1.
        -11    1    3    3    0    0  0.12144461782E+02  0.49741782680E+01  0.13952449896E+02  0.19154666789E+02  0.51100000000E-03 0.  1.
        -12    1    3    3    0    0 -0.10943573470E+01  0.19047086413E-02  0.47982377834E+01  0.49214537951E+01  0.00000000000E+00 0.  1.
</event>
<event>
 7    1  0.2412036E-009  0.4778727E+02  0.7816164E-02  0.1312668E+00
        -11   -1    0    0    0    0  0.00000000000E+00  0.00000000000E+00  0.45593999997E+02  0.45594000000E+02  0.51100000000E-03 0.  1.
         11   -1    0    0    0    0 -0.00000000000E+00 -0.00000000000E+00 -0.45593999997E+02  0.45594000000E+02  0.51100000000E-03 0. -1.
    9900012    2    1    2    0    0  0.25071776635E+02 -0.12096521171E+02  0.33297200733E+02  0.47787269767E+02  0.19999994176E+02 0.  0.
         12    1    1    2    0    0 -0.25071776635E+02  0.12096521171E+02 -0.33297200733E+02  0.43400730233E+02  0.00000000000E+00 0. -1.
         11    1    3    3    0    0  0.41959102899E+01 -0.40591002169E+01  0.13493490612E+01  0.59918862541E+01  0.51100000000E-03 0. -1.
        -11    1    3    3    0    0  0.95236476913E+01 -0.42122549324E+01  0.26808718046E+02  0.28760221148E+02  0.51100000000E-03 0.  1.
        -12    1    3    3    0    0  0.11352218653E+02 -0.38251660220E+01  0.51391336264E+01  0.13035162365E+02  0.00000000000E+00 0.  1.
</event>
<event>
 7    1  0.2412036E-009  0.4778727E+02  0.7816164E-02  0.1312668E+00
        -11   -1    0    0    0    0  0.00000000000E+00  0.00000000000E+00  0.45593999997E+02  0.45594000000E+02  0.51100000000E-03 0. -1.
         11   -1    0    0    0    0 -0.00000000000E+00 -0.00000000000E+00 -0.45593999997E+02  0.45594000000E+02  0.51100000000E-03 0.  1.
    9900012    2    1    2    0    0 -0.41517048937E+02  0.20582688747E+01 -0.12478847593E+02  0.47787268895E+02  0.19999990199E+02 0.  0.
         12    1    1    2    0    0  0.41517048937E+02 -0.20582688747E+01  0.12478847593E+02  0.43400731105E+02  0.00000000000E+00 0. -1.
         11    1    3    3    0    0 -0.82078234508E+01  0.24214966331E+01 -0.88852682124E+01  0.12336125940E+02  0.51100000000E-03 0. -1.
        -11    1    3    3    0    0 -0.17735387158E+02  0.18494160016E+01  0.35390410258E+01  0.18179359417E+02  0.51100000000E-03 0.  1.
        -12    1    3    3    0    0 -0.15573838328E+02 -0.22126437600E+01 -0.71326204069E+01  0.17271783537E+02  0.00000000000E+00 0.  1.
</event>
<event>
 7    1  0.2412036E-009  0.4778727E+02  0.7816164E-02  0.1312668E+00
        -11   -1    0    0    0    0  0.00000000000E+00  0.00000000000E+00  0.45593999997E+02  0.45594000000E+02  0.51100000000E-03 0.  1.
         11   -1    0    0    0    0 -0.00000000000E+00 -0.00000000000E+00 -0.45593999997E+02  0.45594000000E+02  0.51100000000E-03 0. -1.
    9900012    2    1    2    0    0 -0.25778310026E+02  0.31411529215E+01  0.34774057928E+02  0.47787271731E+02  0.20000003130E+02 0.  0.
         12    1    1    2    0    0  0.25778310026E+02 -0.31411529215E+01 -0.34774057928E+02  0.43400728269E+02  0.00000000000E+00 0. -1.
         11    1    3    3    0    0 -0.17140964920E+02  0.31170627948E+01  0.31487682711E+02  0.35986149024E+02  0.51100000000E-03 0. -1.
        -11    1    3    3    0    0 -0.30324739095E+01 -0.92677161637E-01  0.50783634768E+01  0.59155948925E+01  0.51100000000E-03 0.  1.
         12    1    3    3    0    0 -0.56048711964E+01  0.11676728828E+00 -0.17919882591E+01  0.58855278140E+01  0.00000000000E+00 0. -1.
</event>
<event>
 7    1  0.2412036E-009  0.4778726E+02  0.7816164E-02  0.1312668E+00
        -11   -1    0    0    0    0  0.00000000000E+00  0.00000000000E+00  0.45593999997E+02  0.45594000000E+02  0.51100000000E-03 0.  1.
         11   -1    0    0    0    0 -0.00000000000E+00 -0.00000000000E+00 -0.45593999997E+02  0.45594000000E+02  0.51100000000E-03 0. -1.
    9900012    2    1    2    0    0  0.10112127752E+02  0.38069377198E+01  0.42034230780E+02  0.47787257383E+02  0.19999937710E+02 0.  0.
         12    1    1    2    0    0 -0.10112127752E+02 -0.38069377198E+01 -0.42034230780E+02  0.43400742617E+02  0.00000000000E+00 0. -1.
         11    1    3    3    0    0 -0.46335281753E+01  0.48843387756E+01  0.18452867099E+02  0.19642674285E+02  0.51100000000E-03 0. -1.
        -11    1    3    3    0    0  0.10647707278E+02  0.94661509896E+00  0.17949220736E+02  0.20891248783E+02  0.51100000000E-03 0.  1.
         12    1    3    3    0    0  0.40979486495E+01 -0.20240161548E+01  0.56321429448E+01  0.72533343146E+01  0.00000000000E+00 0. -1.
</event>
<event>
 7    1  0.2412036E-009  0.4778727E+02  0.7816164E-02  0.1312668E+00
        -11   -1    0    0    0    0  0.00000000000E+00  0.00000000000E+00  0.45593999997E+02  0.45594000000E+02  0.51100000000E-03 0.  1.
         11   -1    0    0    0    0 -0.00000000000E+00 -0.00000000000E+00 -0.45593999997E+02  0.45594000000E+02  0.51100000000E-03 0. -1.
    9900012    2    1    2    0    0  0.10608631286E+02 -0.21534046909E+02  0.36157498582E+02  0.47787274917E+02  0.20000017656E+02 0.  0.
         12    1    1    2    0    0 -0.10608631286E+02  0.21534046909E+02 -0.36157498582E+02  0.43400725083E+02  0.00000000000E+00 0. -1.
         11    1    3    3    0    0 -0.18406958010E+01 -0.49616862720E+01  0.56633244313E+01  0.77511118924E+01  0.51100000000E-03 0. -1.
        -11    1    3    3    0    0  0.25518846525E+00  0.18516631882E+01  0.90699131148E+01  0.92605130467E+01  0.51100000000E-03 0.  1.
        -12    1    3    3    0    0  0.12194138622E+02 -0.18424023825E+02  0.21424261036E+02  0.30775649978E+02  0.00000000000E+00 0.  1.
</event>
<event>
 7    1  0.2412036E-009  0.4778727E+02  0.7816164E-02  0.1312668E+00
        -11   -1    0    0    0    0  0.00000000000E+00  0.00000000000E+00  0.45593999997E+02  0.45594000000E+02  0.51100000000E-03 0.  1.
         11   -1    0    0    0    0 -0.00000000000E+00 -0.00000000000E+00 -0.45593999997E+02  0.45594000000E+02  0.51100000000E-03 0. -1.
    9900012    2    1    2    0    0  0.27972634851E+02 -0.28549720946E+02  0.16913559045E+02  0.47787270211E+02  0.19999996202E+02 0.  0.
         12    1    1    2    0    0 -0.27972634851E+02  0.28549720946E+02 -0.16913559045E+02  0.43400729789E+02  0.00000000000E+00 0. -1.
         11    1    3    3    0    0  0.10286633710E+02 -0.22818348329E+02  0.11291215983E+02  0.27458758387E+02  0.51100000000E-03 0. -1.
        -11    1    3    3    0    0  0.93469174733E+01 -0.14350185959E+01  0.55150078640E+01  0.10947120928E+02  0.51100000000E-03 0.  1.
         12    1    3    3    0    0  0.83390836676E+01 -0.42963540216E+01  0.10733519811E+00  0.93813908957E+01  0.00000000000E+00 0. -1.
</event>
<event>
 7    1  0.2412036E-009  0.4778727E+02  0.7816164E-02  0.1312668E+00
        -11   -1    0    0    0    0  0.00000000000E+00  0.00000000000E+00  0.45593999997E+02  0.45594000000E+02  0.51100000000E-03 0.  1.
         11   -1    0    0    0    0 -0.00000000000E+00 -0.00000000000E+00 -0.45593999997E+02  0.45594000000E+02  0.51100000000E-03 0. -1.
    9900012    2    1    2    0    0  0.88733391731E+01 -0.72128455995E+01  0.41867190802E+02  0.47787274713E+02  0.20000016729E+02 0.  0.
         12    1    1    2    0    0 -0.88733391731E+01  0.72128455995E+01 -0.41867190802E+02  0.43400725287E+02  0.00000000000E+00 0. -1.
         11    1    3    3    0    0  0.17870996120E+01  0.43813590890E+01  0.22471486536E+01  0.52382926438E+01  0.51100000000E-03 0. -1.
        -11    1    3    3    0    0  0.33683730536E+01 -0.11021934869E+02  0.26441590319E+02  0.28844179381E+02  0.51100000000E-03 0.  1.
        -12    1    3    3    0    0  0.37178665074E+01 -0.57226981905E+00  0.13178451830E+02  0.13704802689E+02  0.00000000000E+00 0.  1.
</event>
<event>
 7    1  0.2412036E-009  0.4778724E+02  0.7816164E-02  0.1312668E+00
        -11   -1    0    0    0    0  0.00000000000E+00  0.00000000000E+00  0.45593999997E+02  0.45594000000E+02  0.51100000000E-03 0.  1.
         11   -1    0    0    0    0 -0.00000000000E+00 -0.00000000000E+00 -0.45593999997E+02  0.45594000000E+02  0.51100000000E-03 0. -1.
    9900012    2    1    2    0    0 -0.42499590668E+02  0.25065591284E+00 -0.87947688253E+01  0.47787239707E+02  0.19999857120E+02 0.  0.
         12    1    1    2    0    0  0.42499590668E+02 -0.25065591284E+00  0.87947688253E+01  0.43400760293E+02  0.00000000000E+00 0. -1.
         11    1    3    3    0    0 -0.95884829228E+01  0.62491937305E+01 -0.61105481413E+01  0.12974213883E+02  0.51100000000E-03 0. -1.
        -11    1    3    3    0    0 -0.17793199882E+02 -0.38935834553E+00  0.22760123030E+01  0.17942402131E+02  0.51100000000E-03 0.  1.
         12    1    3    3    0    0 -0.15117907863E+02 -0.56091794722E+01 -0.49602329870E+01  0.16870623693E+02  0.00000000000E+00 0. -1.
</event>
<event>
 7    1  0.2412036E-009  0.4778728E+02  0.7816164E-02  0.1312668E+00
        -11   -1    0    0    0    0  0.00000000000E+00  0.00000000000E+00  0.45593999997E+02  0.45594000000E+02  0.51100000000E-03 0. -1.
         11   -1    0    0    0    0 -0.00000000000E+00 -0.00000000000E+00 -0.45593999997E+02  0.45594000000E+02  0.51100000000E-03 0.  1.
    9900012    2    1    2    0    0 -0.54240827601E+01 -0.20722290792E+01 -0.43010558219E+02  0.47787275058E+02  0.20000018300E+02 0.  0.
         12    1    1    2    0    0  0.54240827601E+01  0.20722290792E+01  0.43010558219E+02  0.43400724942E+02  0.00000000000E+00 0. -1.
         11    1    3    3    0    0 -0.44975043298E+01  0.41942975790E+00 -0.14480506182E+02  0.15168669225E+02  0.51100000000E-03 0. -1.
        -11    1    3    3    0    0  0.16739282123E+01 -0.87978179405E+01 -0.15115833778E+02  0.17569634807E+02  0.51100000000E-03 0.  1.
        -12    1    3    3    0    0 -0.26005066425E+01  0.63061591034E+01 -0.13414218259E+02  0.15048971026E+02  0.00000000000E+00 0.  1.
</event>
<event>
 7    1  0.2412036E-009  0.4778727E+02  0.7816164E-02  0.1312668E+00
        -11   -1    0    0    0    0  0.00000000000E+00  0.00000000000E+00  0.45593999997E+02  0.45594000000E+02  0.51100000000E-03 0.  1.
         11   -1    0    0    0    0 -0.00000000000E+00 -0.00000000000E+00 -0.45593999997E+02  0.45594000000E+02  0.51100000000E-03 0. -1.
    9900012    2    1    2    0    0 -0.20136762427E+02  0.35879179224E+02 -0.13813712523E+02  0.47787270092E+02  0.19999995659E+02 0.  0.
         12    1    1    2    0    0  0.20136762427E+02 -0.35879179224E+02  0.13813712523E+02  0.43400729908E+02  0.00000000000E+00 0. -1.
         11    1    3    3    0    0 -0.72475636524E+01  0.28451624883E+02 -0.51419931182E+01  0.29807083569E+02  0.51100000000E-03 0. -1.
        -11    1    3    3    0    0 -0.73375995237E+01  0.12727606413E+01 -0.37126861182E+01  0.83213174974E+01  0.51100000000E-03 0.  1.
         12    1    3    3    0    0 -0.55515992504E+01  0.61547936998E+01 -0.49590332866E+01  0.96588690261E+01  0.00000000000E+00 0. -1.
</event>
<event>
 7    1  0.2412036E-009  0.4778727E+02  0.7816164E-02  0.1312668E+00
        -11   -1    0    0    0    0  0.00000000000E+00  0.00000000000E+00  0.45593999997E+02  0.45594000000E+02  0.51100000000E-03 0. -1.
         11   -1    0    0    0    0 -0.00000000000E+00 -0.00000000000E+00 -0.45593999997E+02  0.45594000000E+02  0.51100000000E-03 0.  1.
    9900012    2    1    2    0    0  0.16549115552E+02  0.34308096208E+02 -0.20801556828E+02  0.47787268929E+02  0.19999990357E+02 0.  0.
         12    1    1    2    0    0 -0.16549115552E+02 -0.34308096208E+02  0.20801556828E+02  0.43400731071E+02  0.00000000000E+00 0. -1.
         11    1    3    3    0    0  0.15440045248E+01  0.84467543641E+01 -0.11645388299E+02  0.14468817442E+02  0.51100000000E-03 0. -1.
        -11    1    3    3    0    0  0.36289989215E+01  0.25614814059E+01 -0.55987626635E+01  0.71468149401E+01  0.51100000000E-03 0.  1.
         12    1    3    3    0    0  0.11376112105E+02  0.23299860438E+02 -0.35574058653E+01  0.26171636547E+02  0.00000000000E+00 0. -1.
</event>
<event>
 7    1  0.2412036E-009  0.4778727E+02  0.7816164E-02  0.1312668E+00
        -11   -1    0    0    0    0  0.00000000000E+00  0.00000000000E+00  0.45593999997E+02  0.45594000000E+02  0.51100000000E-03 0.  1.
         11   -1    0    0    0    0 -0.00000000000E+00 -0.00000000000E+00 -0.45593999997E+02  0.45594000000E+02  0.51100000000E-03 0. -1.
    9900012    2    1    2    0    0  0.21898795791E+02  0.90898328656E+01  0.36351630625E+02  0.47787269963E+02  0.19999995070E+02 0.  0.
         12    1    1    2    0    0 -0.21898795791E+02 -0.90898328656E+01 -0.36351630625E+02  0.43400730037E+02  0.00000000000E+00 0. -1.
         11    1    3    3    0    0  0.13664270499E+01  0.57788371607E+01  0.40070179059E+01  0.71636774475E+01  0.51100000000E-03 0. -1.
        -11    1    3    3    0    0  0.22442927719E+02  0.31027668855E+01  0.29768403467E+02  0.37409490937E+02  0.51100000000E-03 0.  1.
        -12    1    3    3    0    0 -0.19105589775E+01  0.20822881946E+00  0.25762092520E+01  0.32141015786E+01  0.00000000000E+00 0.  1.
</event>
<event>
 7    1  0.2412036E-009  0.4778727E+02  0.7816164E-02  0.1312668E+00
        -11   -1    0    0    0    0  0.00000000000E+00  0.00000000000E+00  0.45593999997E+02  0.45594000000E+02  0.51100000000E-03 0.  1.
         11   -1    0    0    0    0 -0.00000000000E+00 -0.00000000000E+00 -0.45593999997E+02  0.45594000000E+02  0.51100000000E-03 0. -1.
    9900012    2    1    2    0    0  0.39563847947E+01  0.40339867345E+02  0.15513398042E+02  0.47787269628E+02  0.19999993540E+02 0.  0.
         12    1    1    2    0    0 -0.39563847947E+01 -0.40339867345E+02 -0.15513398042E+02  0.43400730372E+02  0.00000000000E+00 0. -1.
         11    1    3    3    0    0  0.12417375548E+01 -0.10830295527E+01  0.32166654146E+01  0.36141114838E+01  0.51100000000E-03 0. -1.
        -11    1    3    3    0    0  0.27344460125E+01  0.35734161690E+02  0.13608088158E+02  0.38335200146E+02  0.51100000000E-03 0.  1.
        -12    1    3    3    0    0 -0.19798772544E-01  0.56887352076E+01 -0.13113555302E+01  0.58379579975E+01  0.00000000000E+00 0.  1.
</event>
<event>
 7    1  0.2412036E-009  0.4778727E+02  0.7816164E-02  0.1312668E+00
        -11   -1    0    0    0    0  0.00000000000E+00  0.00000000000E+00  0.45593999997E+02  0.45594000000E+02  0.51100000000E-03 0. -1.
         11   -1    0    0    0    0 -0.00000000000E+00 -0.00000000000E+00 -0.45593999997E+02  0.45594000000E+02  0.51100000000E-03 0.  1.
    9900012    2    1    2    0    0  0.18196942352E+02  0.17631750704E+02 -0.35236568391E+02  0.47787273096E+02  0.20000009353E+02 0.  0.
         12    1    1    2    0    0 -0.18196942352E+02 -0.17631750704E+02  0.35236568391E+02  0.43400726904E+02  0.00000000000E+00 0. -1.
         11    1    3    3    0    0 -0.20892130468E+00  0.11120414252E+02 -0.98796775054E+01  0.14876669289E+02  0.51100000000E-03 0. -1.
        -11    1    3    3    0    0  0.24634607485E+01  0.27930967300E+01 -0.91315342020E+01  0.98617921975E+01  0.51100000000E-03 0.  1.
         12    1    3    3    0    0  0.15942402908E+02  0.37182397220E+01 -0.16225356684E+02  0.23048811610E+02  0.00000000000E+00 0. -1.
</event>
<event>
 7    1  0.2412036E-009  0.4778727E+02  0.7816164E-02  0.1312668E+00
        -11   -1    0    0    0    0  0.00000000000E+00  0.00000000000E+00  0.45593999997E+02  0.45594000000E+02  0.51100000000E-03 0. -1.
         11   -1    0    0    0    0 -0.00000000000E+00 -0.00000000000E+00 -0.45593999997E+02  0.45594000000E+02  0.51100000000E-03 0.  1.
    9900012    2    1    2    0    0  0.15723122947E+02  0.33020703874E+02 -0.23367499111E+02  0.47787268505E+02  0.19999988423E+02 0.  0.
         12    1    1    2    0    0 -0.15723122947E+02 -0.33020703874E+02  0.23367499111E+02  0.43400731495E+02  0.00000000000E+00 0. -1.
         11    1    3    3    0    0 -0.27852996478E+01  0.19067157360E+01 -0.54652024549E+01  0.64235424152E+01  0.51100000000E-03 0. -1.
        -11    1    3    3    0    0  0.12460159397E+02  0.24473123092E+02 -0.17087308963E+02  0.32344481043E+02  0.51100000000E-03 0.  1.
        -12    1    3    3    0    0  0.60482631986E+01  0.66408650463E+01 -0.81498769311E+00  0.90192450472E+01  0.00000000000E+00 0.  1.
</event>
<event>
 7    1  0.2412036E-009  0.4778728E+02  0.7816164E-02  0.1312668E+00
        -11   -1    0    0    0    0  0.00000000000E+00  0.00000000000E+00  0.45593999997E+02  0.45594000000E+02  0.51100000000E-03 0. -1.
         11   -1    0    0    0    0 -0.00000000000E+00 -0.00000000000E+00 -0.45593999997E+02  0.45594000000E+02  0.51100000000E-03 0.  1.
    9900012    2    1    2    0    0  0.20334617730E+01  0.42587089850E+02  0.81134003603E+01  0.47787280489E+02  0.20000043062E+02 0.  0.
         12    1    1    2    0    0 -0.20334617730E+01 -0.42587089850E+02 -0.81134003603E+01  0.43400719511E+02  0.00000000000E+00 0. -1.
         11    1    3    3    0    0 -0.33265954069E+01  0.73029380557E+01  0.83007022188E+01  0.11545596513E+02  0.51100000000E-03 0. -1.
        -11    1    3    3    0    0  0.49114259801E+01  0.21195751645E+02 -0.26990013595E+01  0.21924110051E+02  0.51100000000E-03 0.  1.
        -12    1    3    3    0    0  0.44863119982E+00  0.14088400149E+02  0.25116995011E+01  0.14317573925E+02  0.00000000000E+00 0.  1.
</event>
<event>
 7    1  0.2412036E-009  0.4778726E+02  0.7816164E-02  0.1312668E+00
        -11   -1    0    0    0    0  0.00000000000E+00  0.00000000000E+00  0.45593999997E+02  0.45594000000E+02  0.51100000000E-03 0. -1.
         11   -1    0    0    0    0 -0.00000000000E+00 -0.00000000000E+00 -0.45593999997E+02  0.45594000000E+02  0.51100000000E-03 0.  1.
    9900012    2    1    2    0    0 -0.33716054018E+01  0.15196910393E+02 -0.40513086427E+02  0.47787262906E+02  0.19999962894E+02 0.  0.
         12    1    1    2    0    0  0.33716054018E+01 -0.15196910393E+02  0.40513086427E+02  0.43400737094E+02  0.00000000000E+00 0. -1.
         11    1    3    3    0    0 -0.38624585199E+01 -0.10092135317E+01 -0.78406360177E+01  0.87984470899E+01  0.51100000000E-03 0. -1.
        -11    1    3    3    0    0  0.64183002480E+01  0.72977717575E+01 -0.21082746903E+02  0.23214957849E+02  0.51100000000E-03 0.  1.
        -12    1    3    3    0    0 -0.59274471299E+01  0.89083521670E+01 -0.11589703506E+02  0.15773857967E+02  0.00000000000E+00 0.  1.
</event>
<event>
 7    1  0.2412036E-009  0.4778727E+02  0.7816164E-02  0.1312668E+00
        -11   -1    0    0    0    0  0.00000000000E+00  0.00000000000E+00  0.45593999997E+02  0.45594000000E+02  0.51100000000E-03 0.  1.
         11   -1    0    0    0    0 -0.00000000000E+00 -0.00000000000E+00 -0.45593999997E+02  0.45594000000E+02  0.51100000000E-03 0. -1.
    9900012    2    1    2    0    0  0.18208141030E+02 -0.25071356944E+02  0.30389374989E+02  0.47787269004E+02  0.19999990695E+02 0.  0.
         12    1    1    2    0    0 -0.18208141030E+02  0.25071356944E+02 -0.30389374989E+02  0.43400730996E+02  0.00000000000E+00 0. -1.
         11    1    3    3    0    0  0.11978210108E+02 -0.90482116997E+01  0.12294278483E+02  0.19403528959E+02  0.51100000000E-03 0.  1.
        -11    1    3    3    0    0 -0.37256015258E+01 -0.88266102488E+01  0.76971605447E+01  0.12289647510E+02  0.51100000000E-03 0. -1.
         12    1    3    3    0    0  0.99555324478E+01 -0.71965349953E+01  0.10397935961E+02  0.16094092535E+02  0.00000000000E+00 0. -1.
</event>
<event>
 7    1  0.2412036E-009  0.4778727E+02  0.7816164E-02  0.1312668E+00
        -11   -1    0    0    0    0  0.00000000000E+00  0.00000000000E+00  0.45593999997E+02  0.45594000000E+02  0.51100000000E-03 0.  1.
         11   -1    0    0    0    0 -0.00000000000E+00 -0.00000000000E+00 -0.45593999997E+02  0.45594000000E+02  0.51100000000E-03 0. -1.
    9900012    2    1    2    0    0 -0.64358560903E+01 -0.16481388595E+02  0.39630383050E+02  0.47787266431E+02  0.19999978965E+02 0.  0.
         12    1    1    2    0    0  0.64358560903E+01  0.16481388595E+02 -0.39630383050E+02  0.43400733569E+02  0.00000000000E+00 0. -1.
         11    1    3    3    0    0 -0.11035867046E+02 -0.14086891717E+02  0.31232158135E+02  0.35995535580E+02  0.51100000000E-03 0. -1.
        -11    1    3    3    0    0  0.51603331846E+01 -0.38882461487E+01  0.76958960054E+01  0.10048597528E+02  0.51100000000E-03 0.  1.
         12    1    3    3    0    0 -0.56032222930E+00  0.14937492702E+01  0.70232890963E+00  0.17431333225E+01  0.00000000000E+00 0. -1.
</event>
<event>
 7    1  0.2412036E-009  0.4778727E+02  0.7816164E-02  0.1312668E+00
        -11   -1    0    0    0    0  0.00000000000E+00  0.00000000000E+00  0.45593999997E+02  0.45594000000E+02  0.51100000000E-03 0.  1.
         11   -1    0    0    0    0 -0.00000000000E+00 -0.00000000000E+00 -0.45593999997E+02  0.45594000000E+02  0.51100000000E-03 0. -1.
    9900012    2    1    2    0    0 -0.10073723373E+02 -0.39102386518E+02  0.15910585859E+02  0.47787271015E+02  0.19999999867E+02 0.  0.
         12    1    1    2    0    0  0.10073723373E+02  0.39102386518E+02 -0.15910585859E+02  0.43400728985E+02  0.00000000000E+00 0. -1.
         11    1    3    3    0    0 -0.87054462153E+01 -0.24048038394E+02  0.44711936891E+01  0.25963137670E+02  0.51100000000E-03 0. -1.
        -11    1    3    3    0    0  0.90990000826E+00 -0.15227874330E+02  0.12071575924E+02  0.19453509200E+02  0.51100000000E-03 0.  1.
         12    1    3    3    0    0 -0.22781771656E+01  0.17352620571E+00 -0.63218375328E+00  0.23706241456E+01  0.00000000000E+00 0. -1.
</event>
<event>
 7    1  0.2412036E-009  0.4778727E+02  0.7816164E-02  0.1312668E+00
        -11   -1    0    0    0    0  0.00000000000E+00  0.00000000000E+00  0.45593999997E+02  0.45594000000E+02  0.51100000000E-03 0.  1.
         11   -1    0    0    0    0 -0.00000000000E+00 -0.00000000000E+00 -0.45593999997E+02  0.45594000000E+02  0.51100000000E-03 0. -1.
    9900012    2    1    2    0    0 -0.18175910340E+02 -0.76242233582E+01  0.38666927674E+02  0.47787265050E+02  0.19999972667E+02 0.  0.
         12    1    1    2    0    0  0.18175910340E+02  0.76242233582E+01 -0.38666927674E+02  0.43400734950E+02  0.00000000000E+00 0. -1.
         11    1    3    3    0    0 -0.11709466876E+02  0.34941331491E+01  0.14795935575E+02  0.19189588082E+02  0.51100000000E-03 0. -1.
        -11    1    3    3    0    0 -0.66479435040E+01 -0.77114146888E+01  0.22882869979E+02  0.25045694402E+02  0.51100000000E-03 0.  1.
         12    1    3    3    0    0  0.18150003932E+00 -0.34069418185E+01  0.98812211923E+00  0.35519825649E+01  0.00000000000E+00 0. -1.
</event>
<event>
 7    1  0.2412036E-009  0.4778728E+02  0.7816164E-02  0.1312668E+00
        -11   -1    0    0    0    0  0.00000000000E+00  0.00000000000E+00  0.45593999997E+02  0.45594000000E+02  0.51100000000E-03 0.  1.
         11   -1    0    0    0    0 -0.00000000000E+00 -0.00000000000E+00 -0.45593999997E+02  0.45594000000E+02  0.51100000000E-03 0. -1.
    9900012    2    1    2    0    0 -0.71031390542E+00  0.11629056519E+02  0.41807695548E+02  0.47787275255E+02  0.20000019197E+02 0.  0.
         12    1    1    2    0    0  0.71031390542E+00 -0.11629056519E+02 -0.41807695548E+02  0.43400724745E+02  0.00000000000E+00 0. -1.
         11    1    3    3    0    0  0.15892262378E+00 -0.16536755985E+01  0.14872721654E+01  0.22297708717E+01  0.51100000000E-03 0. -1.
        -11    1    3    3    0    0  0.62376620087E+01  0.86550641766E+00  0.77697597888E+01  0.10001334717E+02  0.51100000000E-03 0.  1.
        -12    1    3    3    0    0 -0.71068985379E+01  0.12417225700E+02  0.32550663594E+02  0.35556169666E+02  0.00000000000E+00 0.  1.
</event>
<event>
 7    1  0.2412036E-009  0.4778727E+02  0.7816164E-02  0.1312668E+00
        -11   -1    0    0    0    0  0.00000000000E+00  0.00000000000E+00  0.45593999997E+02  0.45594000000E+02  0.51100000000E-03 0.  1.
         11   -1    0    0    0    0 -0.00000000000E+00 -0.00000000000E+00 -0.45593999997E+02  0.45594000000E+02  0.51100000000E-03 0. -1.
    9900012    2    1    2    0    0 -0.12276155743E+02  0.33756322266E+02  0.24360413079E+02  0.47787273991E+02  0.20000013433E+02 0.  0.
         12    1    1    2    0    0  0.12276155743E+02 -0.33756322266E+02 -0.24360413079E+02  0.43400726009E+02  0.00000000000E+00 0. -1.
         11    1    3    3    0    0  0.47812931410E+00  0.10757096640E+02 -0.30728408896E+00  0.10772100980E+02  0.51100000000E-03 0. -1.
        -11    1    3    3    0    0 -0.41578438286E+01  0.87147434719E+01  0.14710325347E+02  0.17596252191E+02  0.51100000000E-03 0.  1.
         12    1    3    3    0    0 -0.85964412286E+01  0.14284482155E+02  0.99573718207E+01  0.19418920820E+02  0.00000000000E+00 0. -1.
</event>
<event>
 7    1  0.2412036E-009  0.4778727E+02  0.7816164E-02  0.1312668E+00
        -11   -1    0    0    0    0  0.00000000000E+00  0.00000000000E+00  0.45593999997E+02  0.45594000000E+02  0.51100000000E-03 0. -1.
         11   -1    0    0    0    0 -0.00000000000E+00 -0.00000000000E+00 -0.45593999997E+02  0.45594000000E+02  0.51100000000E-03 0.  1.
    9900012    2    1    2    0    0  0.28603484829E+02  0.10345790608E+02 -0.30958501797E+02  0.47787267735E+02  0.19999984910E+02 0.  0.
         12    1    1    2    0    0 -0.28603484829E+02 -0.10345790608E+02  0.30958501797E+02  0.43400732265E+02  0.00000000000E+00 0. -1.
         11    1    3    3    0    0  0.54718458357E+01  0.42937283390E+01  0.80617507323E+00  0.70019367613E+01  0.51100000000E-03 0. -1.
        -11    1    3    3    0    0  0.14298966231E+02  0.49670749596E+00 -0.13084475892E+02  0.19388415698E+02  0.51100000000E-03 0.  1.
         12    1    3    3    0    0  0.88326727619E+01  0.55553547728E+01 -0.18680200977E+02  0.21396915276E+02  0.00000000000E+00 0. -1.
</event>
<event>
 7    1  0.2412036E-009  0.4778727E+02  0.7816164E-02  0.1312668E+00
        -11   -1    0    0    0    0  0.00000000000E+00  0.00000000000E+00  0.45593999997E+02  0.45594000000E+02  0.51100000000E-03 0.  1.
         11   -1    0    0    0    0 -0.00000000000E+00 -0.00000000000E+00 -0.45593999997E+02  0.45594000000E+02  0.51100000000E-03 0. -1.
    9900012    2    1    2    0    0  0.79935092860E+01 -0.18029563056E+02  0.38660857036E+02  0.47787271878E+02  0.20000003803E+02 0.  0.
         12    1    1    2    0    0 -0.79935092860E+01  0.18029563056E+02 -0.38660857036E+02  0.43400728122E+02  0.00000000000E+00 0. -1.
         11    1    3    3    0    0  0.49191606682E+01 -0.23157200464E+01  0.23751266075E+02  0.24365618019E+02  0.51100000000E-03 0. -1.
        -11    1    3    3    0    0  0.26902228394E+01 -0.75315005913E+01  0.21888071884E+01  0.82916631174E+01  0.51100000000E-03 0.  1.
         12    1    3    3    0    0  0.38412577841E+00 -0.81823424184E+01  0.12720783772E+02  0.15129990742E+02  0.00000000000E+00 0. -1.
</event>
<event>
 7    1  0.2412036E-009  0.4778727E+02  0.7816164E-02  0.1312668E+00
        -11   -1    0    0    0    0  0.00000000000E+00  0.00000000000E+00  0.45593999997E+02  0.45594000000E+02  0.51100000000E-03 0.  1.
         11   -1    0    0    0    0 -0.00000000000E+00 -0.00000000000E+00 -0.45593999997E+02  0.45594000000E+02  0.51100000000E-03 0. -1.
    9900012    2    1    2    0    0  0.10770081892E+02 -0.71537411135E+01  0.41430089888E+02  0.47787273924E+02  0.20000013127E+02 0.  0.
         12    1    1    2    0    0 -0.10770081892E+02  0.71537411135E+01 -0.41430089888E+02  0.43400726076E+02  0.00000000000E+00 0. -1.
         11    1    3    3    0    0 -0.87319204742E+00 -0.50163616465E+01  0.37863780587E+01  0.63453138287E+01  0.51100000000E-03 0. -1.
        -11    1    3    3    0    0  0.12827112742E+02  0.99888751782E+00  0.22381817004E+02  0.25816241598E+02  0.51100000000E-03 0.  1.
         12    1    3    3    0    0 -0.11838388031E+01 -0.31362669848E+01  0.15261894825E+02  0.15625718497E+02  0.00000000000E+00 0. -1.
</event>
<event>
 7    1  0.2412036E-009  0.4778727E+02  0.7816164E-02  0.1312668E+00
        -11   -1    0    0    0    0  0.00000000000E+00  0.00000000000E+00  0.45593999997E+02  0.45594000000E+02  0.51100000000E-03 0.  1.
         11   -1    0    0    0    0 -0.00000000000E+00 -0.00000000000E+00 -0.45593999997E+02  0.45594000000E+02  0.51100000000E-03 0. -1.
    9900012    2    1    2    0    0 -0.36420531032E+02 -0.15678873785E+02  0.17644870498E+02  0.47787267072E+02  0.19999981889E+02 0.  0.
         12    1    1    2    0    0  0.36420531032E+02  0.15678873785E+02 -0.17644870498E+02  0.43400732928E+02  0.00000000000E+00 0. -1.
         11    1    3    3    0    0 -0.30394482836E+01  0.21400202226E+00 -0.29847508518E+00  0.30615568542E+01  0.51100000000E-03 0. -1.
        -11    1    3    3    0    0 -0.11029707569E+02  0.10071361973E+01 -0.65343429284E+00  0.11094852366E+02  0.51100000000E-03 0.  1.
        -12    1    3    3    0    0 -0.22351375179E+02 -0.16900012004E+02  0.18596779876E+02  0.33630857852E+02  0.00000000000E+00 0.  1.
</event>
<event>
 7    1  0.2412036E-009  0.4778727E+02  0.7816164E-02  0.1312668E+00
        -11   -1    0    0    0    0  0.00000000000E+00  0.00000000000E+00  0.45593999997E+02  0.45594000000E+02  0.51100000000E-03 0.  1.
         11   -1    0    0    0    0 -0.00000000000E+00 -0.00000000000E+00 -0.45593999997E+02  0.45594000000E+02  0.51100000000E-03 0. -1.
    9900012    2    1    2    0    0 -0.92815046625E+01 -0.10389945933E+02  0.41103841985E+02  0.47787272688E+02  0.20000007494E+02 0.  0.
         12    1    1    2    0    0  0.92815046625E+01  0.10389945933E+02 -0.41103841985E+02  0.43400727312E+02  0.00000000000E+00 0. -1.
         11    1    3    3    0    0  0.34955144083E+01 -0.32261856554E+01  0.18828687924E+01  0.51158664967E+01  0.51100000000E-03 0. -1.
        -11    1    3    3    0    0 -0.13827695927E+02 -0.55865753680E+01  0.34940959956E+02  0.37990599915E+02  0.51100000000E-03 0.  1.
        -12    1    3    3    0    0  0.10506768560E+01 -0.15771849093E+01  0.42800132362E+01  0.46808062763E+01  0.00000000000E+00 0.  1.
</event>
<event>
 7    1  0.2412036E-009  0.4778727E+02  0.7816164E-02  0.1312668E+00
        -11   -1    0    0    0    0  0.00000000000E+00  0.00000000000E+00  0.45593999997E+02  0.45594000000E+02  0.51100000000E-03 0.  1.
         11   -1    0    0    0    0 -0.00000000000E+00 -0.00000000000E+00 -0.45593999997E+02  0.45594000000E+02  0.51100000000E-03 0. -1.
    9900012    2    1    2    0    0 -0.38307640211E+02 -0.15574077591E+02 -0.13175595332E+02  0.47787268396E+02  0.19999987926E+02 0.  0.
         12    1    1    2    0    0  0.38307640211E+02  0.15574077591E+02  0.13175595332E+02  0.43400731604E+02  0.00000000000E+00 0. -1.
         11    1    3    3    0    0 -0.18524054708E+02 -0.21135474467E+01  0.21325162867E+01  0.18765801651E+02  0.51100000000E-03 0. -1.
        -11    1    3    3    0    0 -0.16102905844E+02 -0.13438553221E+02 -0.12916870491E+02  0.24632170688E+02  0.51100000000E-03 0.  1.
         12    1    3    3    0    0 -0.36806796595E+01 -0.21976923534E-01 -0.23912411278E+01  0.43892960565E+01  0.00000000000E+00 0. -1.
</event>
<event>
 7    1  0.2412036E-009  0.4778727E+02  0.7816164E-02  0.1312668E+00
        -11   -1    0    0    0    0  0.00000000000E+00  0.00000000000E+00  0.45593999997E+02  0.45594000000E+02  0.51100000000E-03 0. -1.
         11   -1    0    0    0    0 -0.00000000000E+00 -0.00000000000E+00 -0.45593999997E+02  0.45594000000E+02  0.51100000000E-03 0.  1.
    9900012    2    1    2    0    0 -0.45892236370E+01  0.13215847305E+02 -0.41084109208E+02  0.47787267022E+02  0.19999981661E+02 0.  0.
         12    1    1    2    0    0  0.45892236370E+01 -0.13215847305E+02  0.41084109208E+02  0.43400732978E+02  0.00000000000E+00 0. -1.
         11    1    3    3    0    0 -0.36841770805E+01  0.10108057490E+01  0.78672425013E+00  0.39004902678E+01  0.51100000000E-03 0. -1.
        -11    1    3    3    0    0 -0.24032716826E+01  0.65828363160E+01 -0.17974190786E+02  0.19291992728E+02  0.51100000000E-03 0.  1.
         12    1    3    3    0    0  0.14982251260E+01  0.56222052397E+01 -0.23896642672E+02  0.24594784026E+02  0.00000000000E+00 0. -1.
</event>
<event>
 7    1  0.2412036E-009  0.4778727E+02  0.7816164E-02  0.1312668E+00
        -11   -1    0    0    0    0  0.00000000000E+00  0.00000000000E+00  0.45593999997E+02  0.45594000000E+02  0.51100000000E-03 0.  1.
         11   -1    0    0    0    0 -0.00000000000E+00 -0.00000000000E+00 -0.45593999997E+02  0.45594000000E+02  0.51100000000E-03 0. -1.
    9900012    2    1    2    0    0  0.35743168945E+02 -0.14020575638E+02  0.20235424367E+02  0.47787273430E+02  0.20000010879E+02 0.  0.
         12    1    1    2    0    0 -0.35743168945E+02  0.14020575638E+02 -0.20235424367E+02  0.43400726570E+02  0.00000000000E+00 0. -1.
         11    1    3    3    0    0  0.35115319964E+01  0.54206840062E+00  0.49913091337E+01  0.61268150162E+01  0.51100000000E-03 0. -1.
        -11    1    3    3    0    0  0.19202417393E+02 -0.11645340280E+02  0.15138082731E+01  0.22508629450E+02  0.51100000000E-03 0.  1.
        -12    1    3    3    0    0  0.13029219556E+02 -0.29173037582E+01  0.13730306961E+02  0.19151828964E+02  0.00000000000E+00 0.  1.
</event>
<event>
 7    1  0.2412036E-009  0.4778727E+02  0.7816164E-02  0.1312668E+00
        -11   -1    0    0    0    0  0.00000000000E+00  0.00000000000E+00  0.45593999997E+02  0.45594000000E+02  0.51100000000E-03 0. -1.
         11   -1    0    0    0    0 -0.00000000000E+00 -0.00000000000E+00 -0.45593999997E+02  0.45594000000E+02  0.51100000000E-03 0.  1.
    9900012    2    1    2    0    0  0.16685077477E+02 -0.33793942224E+02 -0.21522100252E+02  0.47787272578E+02  0.20000006992E+02 0.  0.
         12    1    1    2    0    0 -0.16685077477E+02  0.33793942224E+02  0.21522100252E+02  0.43400727422E+02  0.00000000000E+00 0. -1.
         11    1    3    3    0    0  0.39804097193E+00 -0.65709047917E+01  0.17416495952E+01  0.68094471119E+01  0.51100000000E-03 0. -1.
        -11    1    3    3    0    0  0.16657847891E+02 -0.28126640257E+02 -0.22987789043E+02  0.39962860681E+02  0.51100000000E-03 0.  1.
         12    1    3    3    0    0 -0.37081138621E+00  0.90360282434E+00 -0.27596080513E+00  0.10149647847E+01  0.00000000000E+00 0. -1.
</event>
<event>
 7    1  0.2412036E-009  0.4778727E+02  0.7816164E-02  0.1312668E+00
        -11   -1    0    0    0    0  0.00000000000E+00  0.00000000000E+00  0.45593999997E+02  0.45594000000E+02  0.51100000000E-03 0. -1.
         11   -1    0    0    0    0 -0.00000000000E+00 -0.00000000000E+00 -0.45593999997E+02  0.45594000000E+02  0.51100000000E-03 0.  1.
    9900012    2    1    2    0    0 -0.28173138277E+02 -0.27277829105E+02 -0.18596167305E+02  0.47787272822E+02  0.20000008107E+02 0.  0.
         12    1    1    2    0    0  0.28173138277E+02  0.27277829105E+02  0.18596167305E+02  0.43400727178E+02  0.00000000000E+00 0. -1.
         11    1    3    3    0    0 -0.18684536404E+02 -0.21599904043E+02 -0.32877414852E+01  0.28748512999E+02  0.51100000000E-03 0. -1.
        -11    1    3    3    0    0 -0.64679904681E+01 -0.44557961874E+01 -0.90507461384E+01  0.11983531461E+02  0.51100000000E-03 0.  1.
         12    1    3    3    0    0 -0.30206114054E+01 -0.12221288746E+01 -0.62576796815E+01  0.70552283623E+01  0.00000000000E+00 0. -1.
</event>
<event>
 7    1  0.2412036E-009  0.4778727E+02  0.7816164E-02  0.1312668E+00
        -11   -1    0    0    0    0  0.00000000000E+00  0.00000000000E+00  0.45593999997E+02  0.45594000000E+02  0.51100000000E-03 0.  1.
         11   -1    0    0    0    0 -0.00000000000E+00 -0.00000000000E+00 -0.45593999997E+02  0.45594000000E+02  0.51100000000E-03 0. -1.
    9900012    2    1    2    0    0  0.25130073802E+01  0.17789538751E+02  0.39507471453E+02  0.47787271945E+02  0.20000004107E+02 0.  0.
         12    1    1    2    0    0 -0.25130073802E+01 -0.17789538751E+02 -0.39507471453E+02  0.43400728055E+02  0.00000000000E+00 0. -1.
         11    1    3    3    0    0  0.42447146816E+01  0.61080293290E+01  0.68069524032E+01  0.10082669601E+02  0.51100000000E-03 0. -1.
        -11    1    3    3    0    0 -0.42999465379E+00 -0.35032543468E+01  0.61587327768E+01  0.70984277201E+01  0.51100000000E-03 0.  1.
        -12    1    3    3    0    0 -0.13017126476E+01  0.15184763769E+02  0.26541786273E+02  0.30606174624E+02  0.00000000000E+00 0.  1.
</event>
<event>
 7    1  0.2412036E-009  0.4778727E+02  0.7816164E-02  0.1312668E+00
        -11   -1    0    0    0    0  0.00000000000E+00  0.00000000000E+00  0.45593999997E+02  0.45594000000E+02  0.51100000000E-03 0.  1.
         11   -1    0    0    0    0 -0.00000000000E+00 -0.00000000000E+00 -0.45593999997E+02  0.45594000000E+02  0.51100000000E-03 0. -1.
    9900012    2    1    2    0    0 -0.23541533122E+02 -0.24288259153E+02  0.27193747492E+02  0.47787271699E+02  0.20000002984E+02 0.  0.
         12    1    1    2    0    0  0.23541533122E+02  0.24288259153E+02 -0.27193747492E+02  0.43400728301E+02  0.00000000000E+00 0. -1.
         11    1    3    3    0    0 -0.34646780820E+01 -0.13071123023E+02  0.14600437846E+02  0.19900528558E+02  0.51100000000E-03 0. -1.
        -11    1    3    3    0    0 -0.13369518470E+02 -0.23201600838E+01  0.52876613133E+01  0.14563190906E+02  0.51100000000E-03 0.  1.
        -12    1    3    3    0    0 -0.67073365703E+01 -0.88969760460E+01  0.73056483319E+01  0.13323552236E+02  0.00000000000E+00 0.  1.
</event>
<event>
 7    1  0.2412036E-009  0.4778727E+02  0.7816164E-02  0.1312668E+00
        -11   -1    0    0    0    0  0.00000000000E+00  0.00000000000E+00  0.45593999997E+02  0.45594000000E+02  0.51100000000E-03 0. -1.
         11   -1    0    0    0    0 -0.00000000000E+00 -0.00000000000E+00 -0.45593999997E+02  0.45594000000E+02  0.51100000000E-03 0.  1.
    9900012    2    1    2    0    0 -0.32823959632E+02  0.15794352599E+02 -0.23595534598E+02  0.47787272438E+02  0.20000006353E+02 0.  0.
         12    1    1    2    0    0  0.32823959632E+02 -0.15794352599E+02  0.23595534598E+02  0.43400727562E+02  0.00000000000E+00 0. -1.
         11    1    3    3    0    0 -0.28998256336E+01 -0.27174846114E+01 -0.59168327575E+01  0.71275957700E+01  0.51100000000E-03 0. -1.
        -11    1    3    3    0    0 -0.11904010932E+02  0.11914587670E+02 -0.46753737561E+01  0.17479187499E+02  0.51100000000E-03 0.  1.
         12    1    3    3    0    0 -0.18020123066E+02  0.65972495408E+01 -0.13003328085E+02  0.23180489169E+02  0.00000000000E+00 0. -1.
</event>
<event>
 7    1  0.2412036E-009  0.4778727E+02  0.7816164E-02  0.1312668E+00
        -11   -1    0    0    0    0  0.00000000000E+00  0.00000000000E+00  0.45593999997E+02  0.45594000000E+02  0.51100000000E-03 0. -1.
         11   -1    0    0    0    0 -0.00000000000E+00 -0.00000000000E+00 -0.45593999997E+02  0.45594000000E+02  0.51100000000E-03 0.  1.
    9900012    2    1    2    0    0  0.23451303778E+02 -0.34089713542E+02 -0.13097738391E+02  0.47787274554E+02  0.20000016003E+02 0.  0.
         12    1    1    2    0    0 -0.23451303778E+02  0.34089713542E+02  0.13097738391E+02  0.43400725446E+02  0.00000000000E+00 0. -1.
         11    1    3    3    0    0  0.43533930620E+01 -0.18092363682E+02 -0.53945317782E+01  0.19374896854E+02  0.51100000000E-03 0. -1.
        -11    1    3    3    0    0  0.52303126421E+01 -0.10061927761E+02 -0.69684806966E+01  0.13310082047E+02  0.51100000000E-03 0.  1.
        -12    1    3    3    0    0  0.13867598074E+02 -0.59354220986E+01 -0.73472591578E+00  0.15102295654E+02  0.00000000000E+00 0.  1.
</event>
<event>
 7    1  0.2412036E-009  0.4778727E+02  0.7816164E-02  0.1312668E+00
        -11   -1    0    0    0    0  0.00000000000E+00  0.00000000000E+00  0.45593999997E+02  0.45594000000E+02  0.51100000000E-03 0. -1.
         11   -1    0    0    0    0 -0.00000000000E+00 -0.00000000000E+00 -0.45593999997E+02  0.45594000000E+02  0.51100000000E-03 0.  1.
    9900012    2    1    2    0    0 -0.18001370843E+02 -0.38409244370E+02  0.91817136114E+01  0.47787271087E+02  0.20000000195E+02 0.  0.
         12    1    1    2    0    0  0.18001370843E+02  0.38409244370E+02 -0.91817136114E+01  0.43400728913E+02  0.00000000000E+00 0. -1.
         11    1    3    3    0    0 -0.10255303695E+02 -0.38214739627E+01  0.42585847738E+01  0.11743528501E+02  0.51100000000E-03 0. -1.
        -11    1    3    3    0    0 -0.62388765894E+01 -0.20287489205E+02  0.42637661329E+01  0.21649145508E+02  0.51100000000E-03 0.  1.
         12    1    3    3    0    0 -0.15071905588E+01 -0.14300281203E+02  0.65936270470E+00  0.14394597078E+02  0.00000000000E+00 0. -1.
</event>
<event>
 7    1  0.2412036E-009  0.4778727E+02  0.7816164E-02  0.1312668E+00
        -11   -1    0    0    0    0  0.00000000000E+00  0.00000000000E+00  0.45593999997E+02  0.45594000000E+02  0.51100000000E-03 0.  1.
         11   -1    0    0    0    0 -0.00000000000E+00 -0.00000000000E+00 -0.45593999997E+02  0.45594000000E+02  0.51100000000E-03 0. -1.
    9900012    2    1    2    0    0 -0.24969823137E+02  0.34739412765E+02  0.73009922499E+01  0.47787270114E+02  0.19999995759E+02 0.  0.
         12    1    1    2    0    0  0.24969823137E+02 -0.34739412765E+02 -0.73009922499E+01  0.43400729886E+02  0.00000000000E+00 0. -1.
         11    1    3    3    0    0 -0.31172981771E+01  0.10552067362E+01  0.19454573368E+01  0.38230633910E+01  0.51100000000E-03 0. -1.
        -11    1    3    3    0    0 -0.18611724420E+01  0.13730062743E+02  0.72823237639E+01  0.15652821645E+02  0.51100000000E-03 0.  1.
        -12    1    3    3    0    0 -0.19991352518E+02  0.19954143286E+02 -0.19267888507E+01  0.28311385078E+02  0.00000000000E+00 0.  1.
</event>
<event>
 7    1  0.2412036E-009  0.4778727E+02  0.7816164E-02  0.1312668E+00
        -11   -1    0    0    0    0  0.00000000000E+00  0.00000000000E+00  0.45593999997E+02  0.45594000000E+02  0.51100000000E-03 0. -1.
         11   -1    0    0    0    0 -0.00000000000E+00 -0.00000000000E+00 -0.45593999997E+02  0.45594000000E+02  0.51100000000E-03 0.  1.
    9900012    2    1    2    0    0  0.80181355509E+01  0.14974919522E+02 -0.39938511159E+02  0.47787269753E+02  0.19999994112E+02 0.  0.
         12    1    1    2    0    0 -0.80181355509E+01 -0.14974919522E+02  0.39938511159E+02  0.43400730247E+02  0.00000000000E+00 0. -1.
         11    1    3    3    0    0  0.70037904127E+01  0.96892396720E+01 -0.79094834853E+01  0.14335074985E+02  0.51100000000E-03 0. -1.
        -11    1    3    3    0    0  0.30413906462E+01  0.75036049080E+00 -0.45273334859E+01  0.55054379192E+01  0.51100000000E-03 0.  1.
         12    1    3    3    0    0 -0.20270455081E+01  0.45353193593E+01 -0.27501694187E+02  0.27946756849E+02  0.00000000000E+00 0. -1.
</event>
<event>
 7    1  0.2412036E-009  0.4778727E+02  0.7816164E-02  0.1312668E+00
        -11   -1    0    0    0    0  0.00000000000E+00  0.00000000000E+00  0.45593999997E+02  0.45594000000E+02  0.51100000000E-03 0.  1.
         11   -1    0    0    0    0 -0.00000000000E+00 -0.00000000000E+00 -0.45593999997E+02  0.45594000000E+02  0.51100000000E-03 0. -1.
    9900012    2    1    2    0    0 -0.27300805743E+02  0.32796150767E+02  0.79184426177E+01  0.47787271517E+02  0.20000002154E+02 0.  0.
         12    1    1    2    0    0  0.27300805743E+02 -0.32796150767E+02 -0.79184426177E+01  0.43400728483E+02  0.00000000000E+00 0. -1.
         11    1    3    3    0    0 -0.17527025570E+02  0.22755919726E+02  0.13528466104E+02  0.31749770130E+02  0.51100000000E-03 0.  1.
        -11    1    3    3    0    0 -0.10446435686E+01  0.21535837331E+01 -0.32542521860E+01  0.40397228410E+01  0.51100000000E-03 0. -1.
        -12    1    3    3    0    0 -0.87291366048E+01  0.78866473081E+01 -0.23557713002E+01  0.11997778546E+02  0.00000000000E+00 0.  1.
</event>
<event>
 7    1  0.2412036E-009  0.4778728E+02  0.7816164E-02  0.1312668E+00
        -11   -1    0    0    0    0  0.00000000000E+00  0.00000000000E+00  0.45593999997E+02  0.45594000000E+02  0.51100000000E-03 0.  1.
         11   -1    0    0    0    0 -0.00000000000E+00 -0.00000000000E+00 -0.45593999997E+02  0.45594000000E+02  0.51100000000E-03 0. -1.
    9900012    2    1    2    0    0  0.22110289898E+02 -0.33869688606E+02  0.15735371515E+02  0.47787278320E+02  0.20000033171E+02 0.  0.
         12    1    1    2    0    0 -0.22110289898E+02  0.33869688606E+02 -0.15735371515E+02  0.43400721680E+02  0.00000000000E+00 0. -1.
         11    1    3    3    0    0  0.21438943020E+01 -0.15032240006E+02  0.12348016058E+02  0.19571357214E+02  0.51100000000E-03 0. -1.
        -11    1    3    3    0    0  0.10797013815E+02 -0.65713236025E+01  0.63078411667E+00  0.12655263335E+02  0.51100000000E-03 0.  1.
         12    1    3    3    0    0  0.91693817807E+01 -0.12266124998E+02  0.27565713407E+01  0.15560657771E+02  0.00000000000E+00 0. -1.
</event>
<event>
 7    1  0.2412036E-009  0.4778725E+02  0.7816164E-02  0.1312668E+00
        -11   -1    0    0    0    0  0.00000000000E+00  0.00000000000E+00  0.45593999997E+02  0.45594000000E+02  0.51100000000E-03 0. -1.
         11   -1    0    0    0    0 -0.00000000000E+00 -0.00000000000E+00 -0.45593999997E+02  0.45594000000E+02  0.51100000000E-03 0.  1.
    9900012    2    1    2    0    0  0.26259518195E+02 -0.10437013749E+01 -0.34539449916E+02  0.47787248752E+02  0.19999898362E+02 0.  0.
         12    1    1    2    0    0 -0.26259518195E+02  0.10437013749E+01  0.34539449916E+02  0.43400751248E+02  0.00000000000E+00 0. -1.
         11    1    3    3    0    0 -0.66153301625E+00 -0.16070980282E+01 -0.37293512891E+00  0.17774900493E+01  0.51100000000E-03 0. -1.
        -11    1    3    3    0    0  0.12103405223E+02 -0.39994978244E+01 -0.65325335292E+01  0.14323491034E+02  0.51100000000E-03 0.  1.
        -12    1    3    3    0    0  0.14817645988E+02  0.45628944777E+01 -0.27633981258E+02  0.31686267669E+02  0.00000000000E+00 0.  1.
</event>
<event>
 7    1  0.2412036E-009  0.4778727E+02  0.7816164E-02  0.1312668E+00
        -11   -1    0    0    0    0  0.00000000000E+00  0.00000000000E+00  0.45593999997E+02  0.45594000000E+02  0.51100000000E-03 0. -1.
         11   -1    0    0    0    0 -0.00000000000E+00 -0.00000000000E+00 -0.45593999997E+02  0.45594000000E+02  0.51100000000E-03 0.  1.
    9900012    2    1    2    0    0  0.10364135375E+02  0.42140264998E+02 -0.63729833723E+00  0.47787269760E+02  0.19999994143E+02 0.  0.
         12    1    1    2    0    0 -0.10364135375E+02 -0.42140264998E+02  0.63729833723E+00  0.43400730240E+02  0.00000000000E+00 0. -1.
         11    1    3    3    0    0  0.11045457753E+02  0.22622796947E+02 -0.80869861302E+01  0.26442246947E+02  0.51100000000E-03 0.  1.
        -11    1    3    3    0    0 -0.32374185521E+00  0.17976630266E+02  0.54339592572E+01  0.18782756932E+02  0.51100000000E-03 0. -1.
        -12    1    3    3    0    0 -0.35758052335E+00  0.15408377855E+01  0.20157285357E+01  0.25622658804E+01  0.00000000000E+00 0.  1.
</event>
<event>
 7    1  0.2412036E-009  0.4778727E+02  0.7816164E-02  0.1312668E+00
        -11   -1    0    0    0    0  0.00000000000E+00  0.00000000000E+00  0.45593999997E+02  0.45594000000E+02  0.51100000000E-03 0.  1.
         11   -1    0    0    0    0 -0.00000000000E+00 -0.00000000000E+00 -0.45593999997E+02  0.45594000000E+02  0.51100000000E-03 0. -1.
    9900012    2    1    2    0    0 -0.37733489692E+02 -0.61705701188E+00  0.21434232366E+02  0.47787270504E+02  0.19999997537E+02 0.  0.
         12    1    1    2    0    0  0.37733489692E+02  0.61705701188E+00 -0.21434232366E+02  0.43400729496E+02  0.00000000000E+00 0. -1.
         11    1    3    3    0    0 -0.13950695919E+02 -0.62226759740E+01  0.12288362448E+02  0.19604781682E+02  0.51100000000E-03 0. -1.
        -11    1    3    3    0    0 -0.13044519581E+02  0.19028959357E+01 -0.62798402232E+00  0.13197532657E+02  0.51100000000E-03 0.  1.
        -12    1    3    3    0    0 -0.10738274192E+02  0.37027230264E+01  0.97738539396E+01  0.14984956165E+02  0.00000000000E+00 0.  1.
</event>
<event>
 7    1  0.2412036E-009  0.4778727E+02  0.7816164E-02  0.1312668E+00
        -11   -1    0    0    0    0  0.00000000000E+00  0.00000000000E+00  0.45593999997E+02  0.45594000000E+02  0.51100000000E-03 0. -1.
         11   -1    0    0    0    0 -0.00000000000E+00 -0.00000000000E+00 -0.45593999997E+02  0.45594000000E+02  0.51100000000E-03 0.  1.
    9900012    2    1    2    0    0  0.71483461180E+01  0.22041503389E+02 -0.36697361643E+02  0.47787273331E+02  0.20000010423E+02 0.  0.
         12    1    1    2    0    0 -0.71483461180E+01 -0.22041503389E+02  0.36697361643E+02  0.43400726669E+02  0.00000000000E+00 0. -1.
         11    1    3    3    0    0 -0.52482399293E+01  0.39408517716E+01 -0.97034240861E+01  0.11714553952E+02  0.51100000000E-03 0. -1.
        -11    1    3    3    0    0  0.65113685505E+01  0.13985646029E+02 -0.12345463360E+02  0.19758711524E+02  0.51100000000E-03 0.  1.
         12    1    3    3    0    0  0.58852174968E+01  0.41150055884E+01 -0.14648474197E+02  0.16314007854E+02  0.00000000000E+00 0. -1.
</event>
<event>
 7    1  0.2412036E-009  0.4778727E+02  0.7816164E-02  0.1312668E+00
        -11   -1    0    0    0    0  0.00000000000E+00  0.00000000000E+00  0.45593999997E+02  0.45594000000E+02  0.51100000000E-03 0. -1.
         11   -1    0    0    0    0 -0.00000000000E+00 -0.00000000000E+00 -0.45593999997E+02  0.45594000000E+02  0.51100000000E-03 0.  1.
    9900012    2    1    2    0    0  0.18588556276E+02  0.38870785025E+02 -0.52106854467E+01  0.47787267336E+02  0.19999983093E+02 0.  0.
         12    1    1    2    0    0 -0.18588556276E+02 -0.38870785025E+02  0.52106854467E+01  0.43400732664E+02  0.00000000000E+00 0. -1.
         11    1    3    3    0    0  0.78972967217E+01  0.24519595405E+02  0.39541883499E+01  0.26061724043E+02  0.51100000000E-03 0. -1.
        -11    1    3    3    0    0  0.61620819147E+01  0.23557372099E+01 -0.48825269503E+01  0.82073029070E+01  0.51100000000E-03 0.  1.
         12    1    3    3    0    0  0.45291776397E+01  0.11995452411E+02 -0.42823468464E+01  0.13518240386E+02  0.00000000000E+00 0. -1.
</event>
<event>
 7    1  0.2412036E-009  0.4778727E+02  0.7816164E-02  0.1312668E+00
        -11   -1    0    0    0    0  0.00000000000E+00  0.00000000000E+00  0.45593999997E+02  0.45594000000E+02  0.51100000000E-03 0.  1.
         11   -1    0    0    0    0 -0.00000000000E+00 -0.00000000000E+00 -0.45593999997E+02  0.45594000000E+02  0.51100000000E-03 0. -1.
    9900012    2    1    2    0    0 -0.16522112214E+01  0.73356496596E+01  0.42744378629E+02  0.47787268874E+02  0.19999990105E+02 0.  0.
         12    1    1    2    0    0  0.16522112214E+01 -0.73356496596E+01 -0.42744378629E+02  0.43400731126E+02  0.00000000000E+00 0. -1.
         11    1    3    3    0    0  0.15603248111E+01 -0.51665509592E+01  0.15971332232E+02  0.16858568025E+02  0.51100000000E-03 0. -1.
        -11    1    3    3    0    0 -0.60503212589E+01  0.72489828340E+01  0.17827679236E+02  0.20173752419E+02  0.51100000000E-03 0.  1.
         12    1    3    3    0    0  0.28377852264E+01  0.52532177848E+01  0.89453671617E+01  0.10754948431E+02  0.00000000000E+00 0. -1.
</event>
<event>
 7    1  0.2412036E-009  0.4778728E+02  0.7816164E-02  0.1312668E+00
        -11   -1    0    0    0    0  0.00000000000E+00  0.00000000000E+00  0.45593999997E+02  0.45594000000E+02  0.51100000000E-03 0.  1.
         11   -1    0    0    0    0 -0.00000000000E+00 -0.00000000000E+00 -0.45593999997E+02  0.45594000000E+02  0.51100000000E-03 0. -1.
    9900012    2    1    2    0    0  0.18067696354E+02  0.39293060744E+02  0.36381153569E+01  0.47787283906E+02  0.20000058641E+02 0.  0.
         12    1    1    2    0    0 -0.18067696354E+02 -0.39293060744E+02 -0.36381153569E+01  0.43400716094E+02  0.00000000000E+00 0. -1.
         11    1    3    3    0    0 -0.75504987721E+00  0.17094674529E+02  0.46578598536E+01  0.17733968993E+02  0.51100000000E-03 0. -1.
        -11    1    3    3    0    0  0.12181796269E+02  0.18651647326E+02 -0.23750089161E+01  0.22403588460E+02  0.51100000000E-03 0.  1.
         12    1    3    3    0    0  0.66409499624E+01  0.35467388883E+01  0.13552644194E+01  0.76497264521E+01  0.00000000000E+00 0. -1.
</event>
<event>
 7    1  0.2412036E-009  0.4778727E+02  0.7816164E-02  0.1312668E+00
        -11   -1    0    0    0    0  0.00000000000E+00  0.00000000000E+00  0.45593999997E+02  0.45594000000E+02  0.51100000000E-03 0.  1.
         11   -1    0    0    0    0 -0.00000000000E+00 -0.00000000000E+00 -0.45593999997E+02  0.45594000000E+02  0.51100000000E-03 0. -1.
    9900012    2    1    2    0    0 -0.90743724806E+01 -0.58950407017E+01  0.42030077723E+02  0.47787272193E+02  0.20000005237E+02 0.  0.
         12    1    1    2    0    0  0.90743724806E+01  0.58950407017E+01 -0.42030077723E+02  0.43400727807E+02  0.00000000000E+00 0. -1.
         11    1    3    3    0    0  0.45497338935E-01  0.11545422025E+01  0.57945157723E+00  0.12925951016E+01  0.51100000000E-03 0. -1.
        -11    1    3    3    0    0 -0.11045046437E+02  0.24128844728E+01  0.20085052760E+02  0.23048305945E+02  0.51100000000E-03 0.  1.
        -12    1    3    3    0    0  0.19251766174E+01 -0.94624673770E+01  0.21365573385E+02  0.23446371147E+02  0.00000000000E+00 0.  1.
</event>
<event>
 7    1  0.2412036E-009  0.4778727E+02  0.7816164E-02  0.1312668E+00
        -11   -1    0    0    0    0  0.00000000000E+00  0.00000000000E+00  0.45593999997E+02  0.45594000000E+02  0.51100000000E-03 0.  1.
         11   -1    0    0    0    0 -0.00000000000E+00 -0.00000000000E+00 -0.45593999997E+02  0.45594000000E+02  0.51100000000E-03 0. -1.
    9900012    2    1    2    0    0  0.38994050196E+02 -0.95865077947E+01  0.16467732897E+02  0.47787270638E+02  0.19999998146E+02 0.  0.
         12    1    1    2    0    0 -0.38994050196E+02  0.95865077947E+01 -0.16467732897E+02  0.43400729362E+02  0.00000000000E+00 0. -1.
         11    1    3    3    0    0  0.17867455601E+01  0.38272283270E+01  0.59611300156E+00  0.42656168763E+01  0.51100000000E-03 0. -1.
        -11    1    3    3    0    0  0.13217198400E+01 -0.15676670006E+01  0.29311819627E+01  0.35771987812E+01  0.51100000000E-03 0.  1.
         12    1    3    3    0    0  0.35885584796E+02 -0.11846069121E+02  0.12940437933E+02  0.39944454980E+02  0.00000000000E+00 0. -1.
</event>
<event>
 7    1  0.2412036E-009  0.4778727E+02  0.7816164E-02  0.1312668E+00
        -11   -1    0    0    0    0  0.00000000000E+00  0.00000000000E+00  0.45593999997E+02  0.45594000000E+02  0.51100000000E-03 0.  1.
         11   -1    0    0    0    0 -0.00000000000E+00 -0.00000000000E+00 -0.45593999997E+02  0.45594000000E+02  0.51100000000E-03 0. -1.
    9900012    2    1    2    0    0 -0.13354694544E+02  0.40961401496E+02 -0.52382379019E+01  0.47787269417E+02  0.19999992579E+02 0.  0.
         12    1    1    2    0    0  0.13354694544E+02 -0.40961401496E+02  0.52382379019E+01  0.43400730583E+02  0.00000000000E+00 0. -1.
         11    1    3    3    0    0 -0.55511506342E+01  0.44772947923E+01 -0.40291842961E+01  0.81912006674E+01  0.51100000000E-03 0. -1.
        -11    1    3    3    0    0  0.52537833814E+00  0.26784837031E+02 -0.10458811894E+01  0.26810396956E+02  0.51100000000E-03 0.  1.
        -12    1    3    3    0    0 -0.83289222477E+01  0.96992696720E+01 -0.16317241635E+00  0.12785671794E+02  0.00000000000E+00 0.  1.
</event>
<event>
 7    1  0.2412036E-009  0.4778727E+02  0.7816164E-02  0.1312668E+00
        -11   -1    0    0    0    0  0.00000000000E+00  0.00000000000E+00  0.45593999997E+02  0.45594000000E+02  0.51100000000E-03 0.  1.
         11   -1    0    0    0    0 -0.00000000000E+00 -0.00000000000E+00 -0.45593999997E+02  0.45594000000E+02  0.51100000000E-03 0. -1.
    9900012    2    1    2    0    0 -0.42540589848E+02 -0.23157320521E+01  0.82800321071E+01  0.47787270383E+02  0.19999996986E+02 0.  0.
         12    1    1    2    0    0  0.42540589848E+02  0.23157320521E+01 -0.82800321071E+01  0.43400729617E+02  0.00000000000E+00 0. -1.
         11    1    3    3    0    0  0.51405958932E+00  0.17252748986E+01 -0.22277579131E+01  0.28642165277E+01  0.51100000000E-03 0. -1.
        -11    1    3    3    0    0 -0.29194950249E+02 -0.41146251018E+01  0.45318747665E+01  0.29829735985E+02  0.51100000000E-03 0.  1.
        -12    1    3    3    0    0 -0.13859699188E+02  0.73618151108E-01  0.59759152537E+01  0.15093317870E+02  0.00000000000E+00 0.  1.
</event>
<event>
 7    1  0.2412036E-009  0.4778727E+02  0.7816164E-02  0.1312668E+00
        -11   -1    0    0    0    0  0.00000000000E+00  0.00000000000E+00  0.45593999997E+02  0.45594000000E+02  0.51100000000E-03 0.  1.
         11   -1    0    0    0    0 -0.00000000000E+00 -0.00000000000E+00 -0.45593999997E+02  0.45594000000E+02  0.51100000000E-03 0. -1.
    9900012    2    1    2    0    0  0.14671814944E+01  0.35970576031E+02  0.24240218401E+02  0.47787272476E+02  0.20000006527E+02 0.  0.
         12    1    1    2    0    0 -0.14671814944E+01 -0.35970576031E+02 -0.24240218401E+02  0.43400727524E+02  0.00000000000E+00 0. -1.
         11    1    3    3    0    0  0.78092555945E+01  0.18642776645E+02  0.52311823448E+01  0.20878286878E+02  0.51100000000E-03 0. -1.
        -11    1    3    3    0    0 -0.47493783861E+01  0.15889164689E+02  0.14997986868E+02  0.22359824685E+02  0.51100000000E-03 0.  1.
        -12    1    3    3    0    0 -0.15926957140E+01  0.14386346965E+01  0.40110491880E+01  0.45491609134E+01  0.00000000000E+00 0.  1.
</event>
<event>
 7    1  0.2412036E-009  0.4778727E+02  0.7816164E-02  0.1312668E+00
        -11   -1    0    0    0    0  0.00000000000E+00  0.00000000000E+00  0.45593999997E+02  0.45594000000E+02  0.51100000000E-03 0.  1.
         11   -1    0    0    0    0 -0.00000000000E+00 -0.00000000000E+00 -0.45593999997E+02  0.45594000000E+02  0.51100000000E-03 0. -1.
    9900012    2    1    2    0    0  0.13760093388E+02 -0.21224001953E+02  0.35267896532E+02  0.47787274721E+02  0.20000016761E+02 0.  0.
         12    1    1    2    0    0 -0.13760093388E+02  0.21224001953E+02 -0.35267896532E+02  0.43400725279E+02  0.00000000000E+00 0. -1.
         11    1    3    3    0    0  0.16187403919E+02 -0.92796945956E+01  0.20158814242E+02  0.27468574213E+02  0.51100000000E-03 0. -1.
        -11    1    3    3    0    0  0.80922627749E-01 -0.98791877570E+01  0.13398049496E+02  0.16646700267E+02  0.51100000000E-03 0.  1.
         12    1    3    3    0    0 -0.25082331582E+01 -0.20651196008E+01  0.17110327940E+01  0.36720002401E+01  0.00000000000E+00 0. -1.
</event>
<event>
 7    1  0.2439576E-009  0.4778726E+02  0.7816164E-02  0.1312668E+00
        -11   -1    0    0    0    0  0.00000000000E+00  0.00000000000E+00  0.45593999997E+02  0.45594000000E+02  0.51100000000E-03 0.  1.
         11   -1    0    0    0    0 -0.00000000000E+00 -0.00000000000E+00 -0.45593999997E+02  0.45594000000E+02  0.51100000000E-03 0. -1.
    9900012    2    1    2    0    0 -0.23600644755E+02  0.30121209626E+02  0.20477942414E+02  0.47787264664E+02  0.19999970910E+02 0.  0.
         12    1    1    2    0    0  0.23600644755E+02 -0.30121209626E+02 -0.20477942414E+02  0.43400735336E+02  0.00000000000E+00 0. -1.
         11    1    3    3    0    0 -0.14303928356E+02  0.67598749454E+01  0.32376042983E+01  0.16148695227E+02  0.51100000000E-03 0. -1.
        -11    1    3    3    0    0 -0.27630363644E+01  0.14602503184E+02  0.61942809749E+01  0.16100825638E+02  0.51100000000E-03 0.  1.
        -12    1    3    3    0    0 -0.65336800346E+01  0.87588314965E+01  0.11046057141E+02  0.15537743798E+02  0.00000000000E+00 0.  1.
</event>
<event>
 7    1  0.2412036E-009  0.4778727E+02  0.7816164E-02  0.1312668E+00
        -11   -1    0    0    0    0  0.00000000000E+00  0.00000000000E+00  0.45593999997E+02  0.45594000000E+02  0.51100000000E-03 0.  1.
         11   -1    0    0    0    0 -0.00000000000E+00 -0.00000000000E+00 -0.45593999997E+02  0.45594000000E+02  0.51100000000E-03 0. -1.
    9900012    2    1    2    0    0  0.28536074571E+01 -0.14080785949E+02  0.40953774485E+02  0.47787271285E+02  0.20000001097E+02 0.  0.
         12    1    1    2    0    0 -0.28536074571E+01  0.14080785949E+02 -0.40953774485E+02  0.43400728715E+02  0.00000000000E+00 0. -1.
         11    1    3    3    0    0 -0.34032620037E+01  0.48415419326E+00  0.15252103268E+02  0.15634681062E+02  0.51100000000E-03 0. -1.
        -11    1    3    3    0    0  0.55187284351E+01 -0.57444121394E+01  0.20241621806E+02  0.21752652435E+02  0.51100000000E-03 0.  1.
         12    1    3    3    0    0  0.73814102570E+00 -0.88205280027E+01  0.54600494102E+01  0.10399937787E+02  0.00000000000E+00 0. -1.
</event>
<event>
 7    1  0.2412036E-009  0.4778727E+02  0.7816164E-02  0.1312668E+00
        -11   -1    0    0    0    0  0.00000000000E+00  0.00000000000E+00  0.45593999997E+02  0.45594000000E+02  0.51100000000E-03 0. -1.
         11   -1    0    0    0    0 -0.00000000000E+00 -0.00000000000E+00 -0.45593999997E+02  0.45594000000E+02  0.51100000000E-03 0.  1.
    9900012    2    1    2    0    0  0.23143210414E+02 -0.31859394814E+02 -0.18248133705E+02  0.47787267173E+02  0.19999982350E+02 0.  0.
         12    1    1    2    0    0 -0.23143210414E+02  0.31859394814E+02  0.18248133705E+02  0.43400732827E+02  0.00000000000E+00 0. -1.
         11    1    3    3    0    0  0.86498981280E+01 -0.86895541711E+01  0.17489478858E+01  0.12384987214E+02  0.51100000000E-03 0. -1.
        -11    1    3    3    0    0  0.95172457740E+01 -0.87272996602E+01 -0.13850732522E+02  0.18936380809E+02  0.51100000000E-03 0.  1.
        -12    1    3    3    0    0  0.49760665122E+01 -0.14442540983E+02 -0.61463490683E+01  0.16465899151E+02  0.00000000000E+00 0.  1.
</event>
<event>
 7    1  0.2412036E-009  0.4778727E+02  0.7816164E-02  0.1312668E+00
        -11   -1    0    0    0    0  0.00000000000E+00  0.00000000000E+00  0.45593999997E+02  0.45594000000E+02  0.51100000000E-03 0.  1.
         11   -1    0    0    0    0 -0.00000000000E+00 -0.00000000000E+00 -0.45593999997E+02  0.45594000000E+02  0.51100000000E-03 0. -1.
    9900012    2    1    2    0    0  0.98055780920E+01  0.40007356150E+02  0.13670608275E+02  0.47787269149E+02  0.19999991357E+02 0.  0.
         12    1    1    2    0    0 -0.98055780920E+01 -0.40007356150E+02 -0.13670608275E+02  0.43400730851E+02  0.00000000000E+00 0. -1.
         11    1    3    3    0    0 -0.40649649135E+01  0.11041825720E+02  0.18594689538E+01  0.11912324711E+02  0.51100000000E-03 0. -1.
        -11    1    3    3    0    0  0.14370609826E+02  0.20473948841E+02  0.11013955604E+02  0.27331378052E+02  0.51100000000E-03 0.  1.
        -12    1    3    3    0    0 -0.50006682024E+00  0.84915815895E+01  0.79718371702E+00  0.85435663862E+01  0.00000000000E+00 0.  1.
</event>
<event>
 7    1  0.2412036E-009  0.4778727E+02  0.7816164E-02  0.1312668E+00
        -11   -1    0    0    0    0  0.00000000000E+00  0.00000000000E+00  0.45593999997E+02  0.45594000000E+02  0.51100000000E-03 0.  1.
         11   -1    0    0    0    0 -0.00000000000E+00 -0.00000000000E+00 -0.45593999997E+02  0.45594000000E+02  0.51100000000E-03 0. -1.
    9900012    2    1    2    0    0  0.14818835931E+02 -0.30288324934E+02  0.27324763069E+02  0.47787271868E+02  0.20000003754E+02 0.  0.
         12    1    1    2    0    0 -0.14818835931E+02  0.30288324934E+02 -0.27324763069E+02  0.43400728132E+02  0.00000000000E+00 0. -1.
         11    1    3    3    0    0  0.75925703500E+01 -0.19179085748E+01  0.38644398771E+01  0.87326624603E+01  0.51100000000E-03 0.  1.
        -11    1    3    3    0    0  0.69671264630E+01 -0.18949219500E+02  0.21373924892E+02  0.29401674040E+02  0.51100000000E-03 0. -1.
         12    1    3    3    0    0  0.25913911803E+00 -0.94211968592E+01  0.20863982998E+01  0.96529353674E+01  0.00000000000E+00 0. -1.
</event>
<event>
 7    1  0.2412036E-009  0.4778727E+02  0.7816164E-02  0.1312668E+00
        -11   -1    0    0    0    0  0.00000000000E+00  0.00000000000E+00  0.45593999997E+02  0.45594000000E+02  0.51100000000E-03 0.  1.
         11   -1    0    0    0    0 -0.00000000000E+00 -0.00000000000E+00 -0.45593999997E+02  0.45594000000E+02  0.51100000000E-03 0. -1.
    9900012    2    1    2    0    0 -0.96584636197E+01  0.42300634583E+02  0.99684402792E+00  0.47787270701E+02  0.19999998436E+02 0.  0.
         12    1    1    2    0    0  0.96584636197E+01 -0.42300634583E+02 -0.99684402792E+00  0.43400729299E+02  0.00000000000E+00 0. -1.
         11    1    3    3    0    0 -0.31154664080E+01  0.27303507098E+01 -0.46630424520E+01  0.62373801478E+01  0.51100000000E-03 0. -1.
        -11    1    3    3    0    0  0.18689444779E+01  0.16513682236E+02  0.22061613284E+01  0.16764897928E+02  0.51100000000E-03 0.  1.
         12    1    3    3    0    0 -0.84119416896E+01  0.23056601637E+02  0.34537251514E+01  0.24784992626E+02  0.00000000000E+00 0. -1.
</event>
<event>
 7    1  0.2412036E-009  0.4778727E+02  0.7816164E-02  0.1312668E+00
        -11   -1    0    0    0    0  0.00000000000E+00  0.00000000000E+00  0.45593999997E+02  0.45594000000E+02  0.51100000000E-03 0.  1.
         11   -1    0    0    0    0 -0.00000000000E+00 -0.00000000000E+00 -0.45593999997E+02  0.45594000000E+02  0.51100000000E-03 0. -1.
    9900012    2    1    2    0    0 -0.11611978124E+01  0.89085606626E+01  0.42460715394E+02  0.47787272066E+02  0.20000004659E+02 0.  0.
         12    1    1    2    0    0  0.11611978124E+01 -0.89085606626E+01 -0.42460715394E+02  0.43400727934E+02  0.00000000000E+00 0. -1.
         11    1    3    3    0    0  0.10970299615E+01  0.96101794720E+01  0.15548444701E+02  0.18311558020E+02  0.51100000000E-03 0. -1.
        -11    1    3    3    0    0 -0.44536617333E+01 -0.11225614015E+01  0.26849394010E+02  0.27239405388E+02  0.51100000000E-03 0.  1.
        -12    1    3    3    0    0  0.21954339595E+01  0.42094259210E+00  0.62876681923E-01  0.22363086579E+01  0.00000000000E+00 0.  1.
</event>
<event>
 7    1  0.2412036E-009  0.4778727E+02  0.7816164E-02  0.1312668E+00
        -11   -1    0    0    0    0  0.00000000000E+00  0.00000000000E+00  0.45593999997E+02  0.45594000000E+02  0.51100000000E-03 0.  1.
         11   -1    0    0    0    0 -0.00000000000E+00 -0.00000000000E+00 -0.45593999997E+02  0.45594000000E+02  0.51100000000E-03 0. -1.
    9900012    2    1    2    0    0  0.36248662678E+02  0.19491908094E+02  0.13774023705E+02  0.47787265489E+02  0.19999974671E+02 0.  0.
         12    1    1    2    0    0 -0.36248662678E+02 -0.19491908094E+02 -0.13774023705E+02  0.43400734511E+02  0.00000000000E+00 0. -1.
         11    1    3    3    0    0  0.35522475088E+01 -0.23159652279E+01 -0.16560513816E+01  0.45524349243E+01  0.51100000000E-03 0. -1.
        -11    1    3    3    0    0  0.15964942792E+02  0.14344970721E+02  0.12020692847E+02  0.24599891059E+02  0.51100000000E-03 0.  1.
        -12    1    3    3    0    0  0.16731472377E+02  0.74629026002E+01  0.34093822402E+01  0.18634939506E+02  0.00000000000E+00 0.  1.
</event>
<event>
 7    1  0.2465117E-009  0.4778729E+02  0.7816164E-02  0.1312668E+00
        -11   -1    0    0    0    0  0.00000000000E+00  0.00000000000E+00  0.45593999997E+02  0.45594000000E+02  0.51100000000E-03 0.  1.
         11   -1    0    0    0    0 -0.00000000000E+00 -0.00000000000E+00 -0.45593999997E+02  0.45594000000E+02  0.51100000000E-03 0. -1.
    9900012    2    1    2    0    0  0.36561741595E+02  0.21402917645E+02 -0.94220990976E+01  0.47787288214E+02  0.20000078282E+02 0.  0.
         12    1    1    2    0    0 -0.36561741595E+02 -0.21402917645E+02  0.94220990976E+01  0.43400711786E+02  0.00000000000E+00 0. -1.
         11    1    3    3    0    0 -0.69344412459E+00  0.32673049119E+01 -0.46719600050E+00  0.33725981832E+01  0.51100000000E-03 0. -1.
        -11    1    3    3    0    0  0.29628759178E+02  0.81974717492E+01 -0.42550286050E+01  0.31034934867E+02  0.51100000000E-03 0.  1.
        -12    1    3    3    0    0  0.76264265411E+01  0.99381409834E+01 -0.46998744921E+01  0.13379755163E+02  0.00000000000E+00 0.  1.
</event>
<event>
 7    1  0.2412036E-009  0.4778728E+02  0.7816164E-02  0.1312668E+00
        -11   -1    0    0    0    0  0.00000000000E+00  0.00000000000E+00  0.45593999997E+02  0.45594000000E+02  0.51100000000E-03 0. -1.
         11   -1    0    0    0    0 -0.00000000000E+00 -0.00000000000E+00 -0.45593999997E+02  0.45594000000E+02  0.51100000000E-03 0.  1.
    9900012    2    1    2    0    0 -0.19622469029E+02 -0.30280593513E+02 -0.24117764767E+02  0.47787283282E+02  0.20000055794E+02 0.  0.
         12    1    1    2    0    0  0.19622469029E+02  0.30280593513E+02  0.24117764767E+02  0.43400716718E+02  0.00000000000E+00 0. -1.
         11    1    3    3    0    0 -0.13691837975E+02 -0.23112942875E+02 -0.78827918836E+01  0.27996659866E+02  0.51100000000E-03 0. -1.
        -11    1    3    3    0    0 -0.63418122056E+01 -0.79561579222E+01 -0.13435106364E+02  0.16852925983E+02  0.51100000000E-03 0.  1.
        -12    1    3    3    0    0  0.41118115129E+00  0.78850728428E+00 -0.27998665198E+01  0.29376974326E+01  0.00000000000E+00 0.  1.
</event>
<event>
 7    1  0.2412036E-009  0.4778727E+02  0.7816164E-02  0.1312668E+00
        -11   -1    0    0    0    0  0.00000000000E+00  0.00000000000E+00  0.45593999997E+02  0.45594000000E+02  0.51100000000E-03 0.  1.
         11   -1    0    0    0    0 -0.00000000000E+00 -0.00000000000E+00 -0.45593999997E+02  0.45594000000E+02  0.51100000000E-03 0. -1.
    9900012    2    1    2    0    0 -0.15174989789E+01 -0.43368353983E+02  0.71184013179E+00  0.47787266749E+02  0.19999980417E+02 0.  0.
         12    1    1    2    0    0  0.15174989789E+01  0.43368353983E+02 -0.71184013179E+00  0.43400733251E+02  0.00000000000E+00 0. -1.
         11    1    3    3    0    0  0.32562074028E+00 -0.82384674566E+00  0.15965515861E+01  0.18258503649E+01  0.51100000000E-03 0. -1.
        -11    1    3    3    0    0  0.47105762853E+01 -0.28629078156E+02  0.50959235172E+01  0.29458141180E+02  0.51100000000E-03 0.  1.
        -12    1    3    3    0    0 -0.65536960045E+01 -0.13915429081E+02 -0.59806349715E+01  0.16503275205E+02  0.00000000000E+00 0.  1.
</event>
<event>
 7    1  0.2412036E-009  0.4778726E+02  0.7816164E-02  0.1312668E+00
        -11   -1    0    0    0    0  0.00000000000E+00  0.00000000000E+00  0.45593999997E+02  0.45594000000E+02  0.51100000000E-03 0. -1.
         11   -1    0    0    0    0 -0.00000000000E+00 -0.00000000000E+00 -0.45593999997E+02  0.45594000000E+02  0.51100000000E-03 0.  1.
    9900012    2    1    2    0    0 -0.14588566760E+02  0.94668708695E+01 -0.39764008901E+02  0.47787258900E+02  0.19999944629E+02 0.  0.
         12    1    1    2    0    0  0.14588566760E+02 -0.94668708695E+01  0.39764008901E+02  0.43400741100E+02  0.00000000000E+00 0. -1.
         11    1    3    3    0    0  0.17262286744E+01 -0.57122606717E+00  0.31083096622E+00  0.18446627894E+01  0.51100000000E-03 0. -1.
        -11    1    3    3    0    0 -0.17458566013E+02  0.66081756842E+01 -0.35526116586E+02  0.40131963235E+02  0.51100000000E-03 0.  1.
        -12    1    3    3    0    0  0.11437705792E+01  0.34299212524E+01 -0.45487232808E+01  0.58106328761E+01  0.00000000000E+00 0.  1.
</event>
<event>
 7    1  0.2412036E-009  0.4778727E+02  0.7816164E-02  0.1312668E+00
        -11   -1    0    0    0    0  0.00000000000E+00  0.00000000000E+00  0.45593999997E+02  0.45594000000E+02  0.51100000000E-03 0. -1.
         11   -1    0    0    0    0 -0.00000000000E+00 -0.00000000000E+00 -0.45593999997E+02  0.45594000000E+02  0.51100000000E-03 0.  1.
    9900012    2    1    2    0    0 -0.32172040359E+02  0.19230718148E+02  0.21880645065E+02  0.47787270400E+02  0.19999997061E+02 0.  0.
         12    1    1    2    0    0  0.32172040359E+02 -0.19230718148E+02 -0.21880645065E+02  0.43400729600E+02  0.00000000000E+00 0. -1.
         11    1    3    3    0    0 -0.34565280681E+01  0.73266732748E+01 -0.74065113072E-01  0.81014328031E+01  0.51100000000E-03 0. -1.
        -11    1    3    3    0    0 -0.11587401385E+02  0.15038984395E+01  0.13720341043E+02  0.18021579841E+02  0.51100000000E-03 0.  1.
        -12    1    3    3    0    0 -0.17128110906E+02  0.10400146434E+02  0.82343691351E+01  0.21664257756E+02  0.00000000000E+00 0.  1.
</event>
<event>
 7    1  0.2412036E-009  0.4778727E+02  0.7816164E-02  0.1312668E+00
        -11   -1    0    0    0    0  0.00000000000E+00  0.00000000000E+00  0.45593999997E+02  0.45594000000E+02  0.51100000000E-03 0. -1.
         11   -1    0    0    0    0 -0.00000000000E+00 -0.00000000000E+00 -0.45593999997E+02  0.45594000000E+02  0.51100000000E-03 0.  1.
    9900012    2    1    2    0    0  0.66291297371E+01  0.42668258891E+02  0.43700644468E+01  0.47787272574E+02  0.20000006972E+02 0.  0.
         12    1    1    2    0    0 -0.66291297371E+01 -0.42668258891E+02 -0.43700644468E+01  0.43400727426E+02  0.00000000000E+00 0. -1.
         11    1    3    3    0    0  0.74961583648E+01  0.11627297182E+02 -0.45571567854E+01  0.14565510915E+02  0.51100000000E-03 0. -1.
        -11    1    3    3    0    0 -0.32746173509E+01  0.20576498920E+02  0.32882883578E+01  0.21093322811E+02  0.51100000000E-03 0.  1.
        -12    1    3    3    0    0  0.24075887232E+01  0.10464462789E+02  0.56389328745E+01  0.12128438848E+02  0.00000000000E+00 0.  1.
</event>
<event>
 7    1  0.2412036E-009  0.4778727E+02  0.7816164E-02  0.1312668E+00
        -11   -1    0    0    0    0  0.00000000000E+00  0.00000000000E+00  0.45593999997E+02  0.45594000000E+02  0.51100000000E-03 0.  1.
         11   -1    0    0    0    0 -0.00000000000E+00 -0.00000000000E+00 -0.45593999997E+02  0.45594000000E+02  0.51100000000E-03 0. -1.
    9900012    2    1    2    0    0 -0.14079424157E+01 -0.42001703161E+02  0.10839646520E+02  0.47787270663E+02  0.19999998262E+02 0.  0.
         12    1    1    2    0    0  0.14079424157E+01  0.42001703161E+02 -0.10839646520E+02  0.43400729337E+02  0.00000000000E+00 0. -1.
         11    1    3    3    0    0  0.12042219829E+01 -0.28027804400E+01 -0.34518890071E+01  0.46066546167E+01  0.51100000000E-03 0. -1.
        -11    1    3    3    0    0  0.37718373764E+01 -0.22930816428E+02  0.90044791235E+01  0.24922474672E+02  0.51100000000E-03 0.  1.
         12    1    3    3    0    0 -0.63840017751E+01 -0.16268106293E+02  0.52870564035E+01  0.18258141374E+02  0.00000000000E+00 0. -1.
</event>
<event>
 7    1  0.2412036E-009  0.4778727E+02  0.7816164E-02  0.1312668E+00
        -11   -1    0    0    0    0  0.00000000000E+00  0.00000000000E+00  0.45593999997E+02  0.45594000000E+02  0.51100000000E-03 0.  1.
         11   -1    0    0    0    0 -0.00000000000E+00 -0.00000000000E+00 -0.45593999997E+02  0.45594000000E+02  0.51100000000E-03 0. -1.
    9900012    2    1    2    0    0  0.18287208049E+02 -0.20519725010E+02  0.33587827699E+02  0.47787271178E+02  0.20000000610E+02 0.  0.
         12    1    1    2    0    0 -0.18287208049E+02  0.20519725010E+02 -0.33587827699E+02  0.43400728822E+02  0.00000000000E+00 0. -1.
         11    1    3    3    0    0  0.12777837915E+02 -0.53849004410E+01  0.25255281067E+02  0.28811447666E+02  0.51100000000E-03 0. -1.
        -11    1    3    3    0    0  0.24320068897E+01 -0.35532729542E+01  0.48734335809E+01  0.65031347308E+01  0.51100000000E-03 0.  1.
         12    1    3    3    0    0  0.30773632447E+01 -0.11581551615E+02  0.34591130510E+01  0.12472688782E+02  0.00000000000E+00 0. -1.
</event>
<event>
 7    1  0.2412036E-009  0.4778727E+02  0.7816164E-02  0.1312668E+00
        -11   -1    0    0    0    0  0.00000000000E+00  0.00000000000E+00  0.45593999997E+02  0.45594000000E+02  0.51100000000E-03 0.  1.
         11   -1    0    0    0    0 -0.00000000000E+00 -0.00000000000E+00 -0.45593999997E+02  0.45594000000E+02  0.51100000000E-03 0. -1.
    9900012    2    1    2    0    0  0.32024379748E+01 -0.12710617503E+01  0.43263749226E+02  0.47787271849E+02  0.20000003666E+02 0.  0.
         12    1    1    2    0    0 -0.32024379748E+01  0.12710617503E+01 -0.43263749226E+02  0.43400728151E+02  0.00000000000E+00 0. -1.
         11    1    3    3    0    0  0.10532223106E+01 -0.71938120841E+01  0.95402846874E+01  0.11994883981E+02  0.51100000000E-03 0. -1.
        -11    1    3    3    0    0  0.48757785080E+01  0.51650177775E+01  0.31208074488E+02  0.32006164066E+02  0.51100000000E-03 0.  1.
        -12    1    3    3    0    0 -0.27265628438E+01  0.75773255624E+00  0.25153900506E+01  0.37862238015E+01  0.00000000000E+00 0.  1.
</event>
<event>
 7    1  0.2412036E-009  0.4778727E+02  0.7816164E-02  0.1312668E+00
        -11   -1    0    0    0    0  0.00000000000E+00  0.00000000000E+00  0.45593999997E+02  0.45594000000E+02  0.51100000000E-03 0. -1.
         11   -1    0    0    0    0 -0.00000000000E+00 -0.00000000000E+00 -0.45593999997E+02  0.45594000000E+02  0.51100000000E-03 0.  1.
    9900012    2    1    2    0    0  0.34867522930E+02  0.64600553325E+01 -0.25022927017E+02  0.47787270205E+02  0.19999996174E+02 0.  0.
         12    1    1    2    0    0 -0.34867522930E+02 -0.64600553325E+01  0.25022927017E+02  0.43400729795E+02  0.00000000000E+00 0. -1.
         11    1    3    3    0    0 -0.16542234260E+01  0.29038389497E+01 -0.43095025464E+01  0.54534895477E+01  0.51100000000E-03 0. -1.
        -11    1    3    3    0    0  0.25298599155E+02  0.30466440033E+01 -0.16381629171E+02  0.30292885856E+02  0.51100000000E-03 0.  1.
         12    1    3    3    0    0  0.11223147201E+02  0.50957237962E+00 -0.43317952995E+01  0.12040894802E+02  0.00000000000E+00 0. -1.
</event>
<event>
 7    1  0.2412036E-009  0.4778727E+02  0.7816164E-02  0.1312668E+00
        -11   -1    0    0    0    0  0.00000000000E+00  0.00000000000E+00  0.45593999997E+02  0.45594000000E+02  0.51100000000E-03 0. -1.
         11   -1    0    0    0    0 -0.00000000000E+00 -0.00000000000E+00 -0.45593999997E+02  0.45594000000E+02  0.51100000000E-03 0.  1.
    9900012    2    1    2    0    0 -0.37487384764E+02 -0.21648016738E+02 -0.31116944912E+01  0.47787270885E+02  0.19999999272E+02 0.  0.
         12    1    1    2    0    0  0.37487384764E+02  0.21648016738E+02  0.31116944912E+01  0.43400729115E+02  0.00000000000E+00 0. -1.
         11    1    3    3    0    0 -0.24289945098E+02 -0.12623345468E+02  0.32125455700E+01  0.27562124972E+02  0.51100000000E-03 0. -1.
        -11    1    3    3    0    0 -0.13476867671E+02 -0.64885931961E+01 -0.18459154947E+01  0.15071005545E+02  0.51100000000E-03 0.  1.
         12    1    3    3    0    0  0.27942800436E+00 -0.25360780743E+01 -0.44783245664E+01  0.51541403678E+01  0.00000000000E+00 0. -1.
</event>
<event>
 7    1  0.2412036E-009  0.4778727E+02  0.7816164E-02  0.1312668E+00
        -11   -1    0    0    0    0  0.00000000000E+00  0.00000000000E+00  0.45593999997E+02  0.45594000000E+02  0.51100000000E-03 0.  1.
         11   -1    0    0    0    0 -0.00000000000E+00 -0.00000000000E+00 -0.45593999997E+02  0.45594000000E+02  0.51100000000E-03 0. -1.
    9900012    2    1    2    0    0 -0.17141614609E+02  0.19485344067E+02  0.34786630786E+02  0.47787271132E+02  0.20000000401E+02 0.  0.
         12    1    1    2    0    0  0.17141614609E+02 -0.19485344067E+02 -0.34786630786E+02  0.43400728868E+02  0.00000000000E+00 0. -1.
         11    1    3    3    0    0 -0.13435772493E+02  0.25493365173E+01  0.16165499245E+02  0.21174098924E+02  0.51100000000E-03 0. -1.
        -11    1    3    3    0    0 -0.39217614943E+01  0.16967143453E+02  0.19243693419E+02  0.25953495079E+02  0.51100000000E-03 0.  1.
         12    1    3    3    0    0  0.21591937845E+00 -0.31135903405E-01 -0.62256187784E+00  0.65967712876E+00  0.00000000000E+00 0. -1.
</event>
<event>
 7    1  0.2412036E-009  0.4778731E+02  0.7816164E-02  0.1312668E+00
        -11   -1    0    0    0    0  0.00000000000E+00  0.00000000000E+00  0.45593999997E+02  0.45594000000E+02  0.51100000000E-03 0. -1.
         11   -1    0    0    0    0 -0.00000000000E+00 -0.00000000000E+00 -0.45593999997E+02  0.45594000000E+02  0.51100000000E-03 0.  1.
    9900012    2    1    2    0    0 -0.32503038980E+02  0.14926364017E+01 -0.28721848495E+02  0.47787307755E+02  0.20000167379E+02 0.  0.
         12    1    1    2    0    0  0.32503038980E+02 -0.14926364017E+01  0.28721848495E+02  0.43400692245E+02  0.00000000000E+00 0. -1.
         11    1    3    3    0    0 -0.82471346221E+01  0.34747926597E+01  0.69815676417E+00  0.89764601392E+01  0.51100000000E-03 0. -1.
        -11    1    3    3    0    0 -0.90836673743E+01  0.22534648714E+01 -0.13389004325E+02  0.16335744671E+02  0.51100000000E-03 0.  1.
         12    1    3    3    0    0 -0.15172236983E+02 -0.42356211294E+01 -0.16031000934E+02  0.22475102945E+02  0.00000000000E+00 0. -1.
</event>
<event>
 7    1  0.2412036E-009  0.4778728E+02  0.7816164E-02  0.1312668E+00
        -11   -1    0    0    0    0  0.00000000000E+00  0.00000000000E+00  0.45593999997E+02  0.45594000000E+02  0.51100000000E-03 0.  1.
         11   -1    0    0    0    0 -0.00000000000E+00 -0.00000000000E+00 -0.45593999997E+02  0.45594000000E+02  0.51100000000E-03 0. -1.
    9900012    2    1    2    0    0 -0.43816607210E+01  0.22806788800E+02  0.36664344748E+02  0.47787277174E+02  0.20000027947E+02 0.  0.
         12    1    1    2    0    0  0.43816607210E+01 -0.22806788800E+02 -0.36664344748E+02  0.43400722826E+02  0.00000000000E+00 0. -1.
         11    1    3    3    0    0 -0.19683384612E+01 -0.13728367802E+01 -0.22563104501E+00  0.24103831132E+01  0.51100000000E-03 0. -1.
        -11    1    3    3    0    0 -0.58024796445E+01  0.16251823246E+02  0.28680313708E+02  0.33471643574E+02  0.51100000000E-03 0.  1.
        -12    1    3    3    0    0  0.33891573846E+01  0.79278023337E+01  0.82096620844E+01  0.11905250487E+02  0.00000000000E+00 0.  1.
</event>
<event>
 7    1  0.2412036E-009  0.4778727E+02  0.7816164E-02  0.1312668E+00
        -11   -1    0    0    0    0  0.00000000000E+00  0.00000000000E+00  0.45593999997E+02  0.45594000000E+02  0.51100000000E-03 0.  1.
         11   -1    0    0    0    0 -0.00000000000E+00 -0.00000000000E+00 -0.45593999997E+02  0.45594000000E+02  0.51100000000E-03 0. -1.
    9900012    2    1    2    0    0  0.37408844628E+02  0.23531931349E+01  0.21878391152E+02  0.47787272198E+02  0.20000005258E+02 0.  0.
         12    1    1    2    0    0 -0.37408844628E+02 -0.23531931349E+01 -0.21878391152E+02  0.43400727802E+02  0.00000000000E+00 0. -1.
         11    1    3    3    0    0  0.26427315675E+02  0.25458220055E+01  0.59915620698E+01  0.27217329770E+02  0.51100000000E-03 0. -1.
        -11    1    3    3    0    0  0.96338028435E+01  0.22144779977E+01  0.14310406989E+02  0.17392579409E+02  0.51100000000E-03 0.  1.
         12    1    3    3    0    0  0.13477261095E+01 -0.24071068683E+01  0.15764220933E+01  0.31773630195E+01  0.00000000000E+00 0. -1.
</event>
<event>
 7    1  0.2412036E-009  0.4778724E+02  0.7816164E-02  0.1312668E+00
        -11   -1    0    0    0    0  0.00000000000E+00  0.00000000000E+00  0.45593999997E+02  0.45594000000E+02  0.51100000000E-03 0.  1.
         11   -1    0    0    0    0 -0.00000000000E+00 -0.00000000000E+00 -0.45593999997E+02  0.45594000000E+02  0.51100000000E-03 0. -1.
    9900012    2    1    2    0    0 -0.36342114284E+02  0.91806631872E+01  0.21876756713E+02  0.47787235819E+02  0.19999839393E+02 0.  0.
         12    1    1    2    0    0  0.36342114284E+02 -0.91806631872E+01 -0.21876756713E+02  0.43400764181E+02  0.00000000000E+00 0. -1.
         11    1    3    3    0    0 -0.51805205760E+01 -0.98203373084E+00  0.57000431062E+00  0.53034977950E+01  0.51100000000E-03 0. -1.
        -11    1    3    3    0    0 -0.39665934122E+01 -0.34177030858E+01 -0.21266209597E+00  0.52402083078E+01  0.51100000000E-03 0.  1.
        -12    1    3    3    0    0 -0.27195000296E+02  0.13580400004E+02  0.21519414499E+02  0.37243529716E+02  0.00000000000E+00 0.  1.
</event>
<event>
 7    1  0.2412036E-009  0.4778727E+02  0.7816164E-02  0.1312668E+00
        -11   -1    0    0    0    0  0.00000000000E+00  0.00000000000E+00  0.45593999997E+02  0.45594000000E+02  0.51100000000E-03 0.  1.
         11   -1    0    0    0    0 -0.00000000000E+00 -0.00000000000E+00 -0.45593999997E+02  0.45594000000E+02  0.51100000000E-03 0. -1.
    9900012    2    1    2    0    0 -0.13482861985E+02  0.39434617025E+02  0.12113899124E+02  0.47787272595E+02  0.20000007071E+02 0.  0.
         12    1    1    2    0    0  0.13482861985E+02 -0.39434617025E+02 -0.12113899124E+02  0.43400727405E+02  0.00000000000E+00 0. -1.
         11    1    3    3    0    0  0.28651846163E+01  0.57622088238E+01 -0.28105602930E+01  0.70222206485E+01  0.51100000000E-03 0. -1.
        -11    1    3    3    0    0 -0.12827673560E+02  0.29414010883E+02  0.14530313783E+02  0.35225889117E+02  0.51100000000E-03 0.  1.
        -12    1    3    3    0    0 -0.35203730418E+01  0.42583973188E+01  0.39414563453E+00  0.55391628302E+01  0.00000000000E+00 0.  1.
</event>
<event>
 7    1  0.2412036E-009  0.4778727E+02  0.7816164E-02  0.1312668E+00
        -11   -1    0    0    0    0  0.00000000000E+00  0.00000000000E+00  0.45593999997E+02  0.45594000000E+02  0.51100000000E-03 0. -1.
         11   -1    0    0    0    0 -0.00000000000E+00 -0.00000000000E+00 -0.45593999997E+02  0.45594000000E+02  0.51100000000E-03 0.  1.
    9900012    2    1    2    0    0  0.19897231636E+02 -0.30624364719E+02 -0.23449342860E+02  0.47787271645E+02  0.20000002738E+02 0.  0.
         12    1    1    2    0    0 -0.19897231636E+02  0.30624364719E+02  0.23449342860E+02  0.43400728355E+02  0.00000000000E+00 0. -1.
         11    1    3    3    0    0 -0.60442492114E+00  0.81298991917E+00 -0.28739508278E+01  0.30472734888E+01  0.51100000000E-03 0. -1.
        -11    1    3    3    0    0  0.52004529232E+01 -0.73923643392E+01 -0.11909739003E+02  0.14951041586E+02  0.51100000000E-03 0.  1.
         12    1    3    3    0    0  0.15301203634E+02 -0.24044990299E+02 -0.86656530284E+01  0.29788956570E+02  0.00000000000E+00 0. -1.
</event>
<event>
 7    1  0.2412036E-009  0.4778727E+02  0.7816164E-02  0.1312668E+00
        -11   -1    0    0    0    0  0.00000000000E+00  0.00000000000E+00  0.45593999997E+02  0.45594000000E+02  0.51100000000E-03 0.  1.
         11   -1    0    0    0    0 -0.00000000000E+00 -0.00000000000E+00 -0.45593999997E+02  0.45594000000E+02  0.51100000000E-03 0. -1.
    9900012    2    1    2    0    0  0.32906706841E+02  0.19790940476E+02  0.20225988194E+02  0.47787270992E+02  0.19999999760E+02 0.  0.
         12    1    1    2    0    0 -0.32906706841E+02 -0.19790940476E+02 -0.20225988194E+02  0.43400729008E+02  0.00000000000E+00 0. -1.
         11    1    3    3    0    0  0.87006259203E+00  0.96121307638E+01  0.41851443919E+01  0.10519767135E+02  0.51100000000E-03 0. -1.
        -11    1    3    3    0    0  0.19939774629E+02  0.69604579741E+01  0.99159318058E+01  0.23331701423E+02  0.51100000000E-03 0.  1.
         12    1    3    3    0    0  0.12096869619E+02  0.32183517382E+01  0.61249119962E+01  0.13935802433E+02  0.00000000000E+00 0. -1.
</event>
<event>
 7    1  0.2412036E-009  0.4778727E+02  0.7816164E-02  0.1312668E+00
        -11   -1    0    0    0    0  0.00000000000E+00  0.00000000000E+00  0.45593999997E+02  0.45594000000E+02  0.51100000000E-03 0. -1.
         11   -1    0    0    0    0 -0.00000000000E+00 -0.00000000000E+00 -0.45593999997E+02  0.45594000000E+02  0.51100000000E-03 0.  1.
    9900012    2    1    2    0    0  0.30359185909E+02 -0.31002915338E+02  0.87324468187E+00  0.47787268615E+02  0.19999988924E+02 0.  0.
         12    1    1    2    0    0 -0.30359185909E+02  0.31002915338E+02 -0.87324468187E+00  0.43400731385E+02  0.00000000000E+00 0. -1.
         11    1    3    3    0    0  0.13716208199E+02 -0.11382637908E+02 -0.80837126106E+01  0.19571541149E+02  0.51100000000E-03 0.  1.
        -11    1    3    3    0    0  0.90031820658E+01 -0.15571033121E+02  0.47671023342E+01  0.18607515275E+02  0.51100000000E-03 0. -1.
         12    1    3    3    0    0  0.76397956438E+01 -0.40492443080E+01  0.41898549582E+01  0.96082121915E+01  0.00000000000E+00 0. -1.
</event>
<event>
 7    1  0.2412036E-009  0.4778726E+02  0.7816164E-02  0.1312668E+00
        -11   -1    0    0    0    0  0.00000000000E+00  0.00000000000E+00  0.45593999997E+02  0.45594000000E+02  0.51100000000E-03 0.  1.
         11   -1    0    0    0    0 -0.00000000000E+00 -0.00000000000E+00 -0.45593999997E+02  0.45594000000E+02  0.51100000000E-03 0. -1.
    9900012    2    1    2    0    0  0.73995668859E+01  0.36508944780E+02 -0.22270323801E+02  0.47787263125E+02  0.19999963894E+02 0.  0.
         12    1    1    2    0    0 -0.73995668859E+01 -0.36508944780E+02  0.22270323801E+02  0.43400736875E+02  0.00000000000E+00 0. -1.
         11    1    3    3    0    0  0.80603509298E+01  0.72180172232E+01 -0.15426598988E+00  0.10820943952E+02  0.51100000000E-03 0.  1.
        -11    1    3    3    0    0 -0.73677819449E+00  0.28802249516E+02 -0.20728952550E+02  0.35493688078E+02  0.51100000000E-03 0. -1.
         12    1    3    3    0    0  0.75994150570E-01  0.48867804062E+00 -0.13871052613E+01  0.14726310958E+01  0.00000000000E+00 0. -1.
</event>
<event>
 7    1  0.2412036E-009  0.4778727E+02  0.7816164E-02  0.1312668E+00
        -11   -1    0    0    0    0  0.00000000000E+00  0.00000000000E+00  0.45593999997E+02  0.45594000000E+02  0.51100000000E-03 0.  1.
         11   -1    0    0    0    0 -0.00000000000E+00 -0.00000000000E+00 -0.45593999997E+02  0.45594000000E+02  0.51100000000E-03 0. -1.
    9900012    2    1    2    0    0  0.45180441358E+01 -0.13507472998E+01  0.43143781559E+02  0.47787272722E+02  0.20000007646E+02 0.  0.
         12    1    1    2    0    0 -0.45180441358E+01  0.13507472998E+01 -0.43143781559E+02  0.43400727278E+02  0.00000000000E+00 0. -1.
         11    1    3    3    0    0 -0.40927307926E+01  0.15803507858E+01  0.52573942420E+01  0.68474921266E+01  0.51100000000E-03 0. -1.
        -11    1    3    3    0    0  0.63804951672E+01  0.28223324152E+01  0.30629750097E+02  0.31414294041E+02  0.51100000000E-03 0.  1.
        -12    1    3    3    0    0  0.22302797612E+01 -0.57534305007E+01  0.72566372198E+01  0.95254865534E+01  0.00000000000E+00 0.  1.
</event>
<event>
 7    1  0.2412036E-009  0.4778727E+02  0.7816164E-02  0.1312668E+00
        -11   -1    0    0    0    0  0.00000000000E+00  0.00000000000E+00  0.45593999997E+02  0.45594000000E+02  0.51100000000E-03 0.  1.
         11   -1    0    0    0    0 -0.00000000000E+00 -0.00000000000E+00 -0.45593999997E+02  0.45594000000E+02  0.51100000000E-03 0. -1.
    9900012    2    1    2    0    0  0.27532442156E+02 -0.17543030732E+02  0.28597735891E+02  0.47787265024E+02  0.19999972552E+02 0.  0.
         12    1    1    2    0    0 -0.27532442156E+02  0.17543030732E+02 -0.28597735891E+02  0.43400734976E+02  0.00000000000E+00 0. -1.
         11    1    3    3    0    0  0.80614166270E+01 -0.11353843722E+02  0.13996593204E+02  0.19743374252E+02  0.51100000000E-03 0. -1.
        -11    1    3    3    0    0  0.15037239938E+02 -0.95824462100E+01  0.13470837536E+02  0.22347378471E+02  0.51100000000E-03 0.  1.
         12    1    3    3    0    0  0.44337855908E+01  0.33932591998E+01  0.11303051505E+01  0.56965123010E+01  0.00000000000E+00 0. -1.
</event>
<event>
 7    1  0.2412036E-009  0.4778727E+02  0.7816164E-02  0.1312668E+00
        -11   -1    0    0    0    0  0.00000000000E+00  0.00000000000E+00  0.45593999997E+02  0.45594000000E+02  0.51100000000E-03 0.  1.
         11   -1    0    0    0    0 -0.00000000000E+00 -0.00000000000E+00 -0.45593999997E+02  0.45594000000E+02  0.51100000000E-03 0. -1.
    9900012    2    1    2    0    0  0.40038563946E+02 -0.29679959815E+01  0.16484161110E+02  0.47787272235E+02  0.20000005430E+02 0.  0.
         12    1    1    2    0    0 -0.40038563946E+02  0.29679959815E+01 -0.16484161110E+02  0.43400727765E+02  0.00000000000E+00 0. -1.
         11    1    3    3    0    0  0.16109496296E+01 -0.37142873437E+01 -0.32314752052E+00  0.40614669470E+01  0.51100000000E-03 0. -1.
        -11    1    3    3    0    0  0.20612449012E+02  0.52331012386E+01  0.13120246221E+02  0.24987982392E+02  0.51100000000E-03 0.  1.
        -12    1    3    3    0    0  0.17815165304E+02 -0.44868098764E+01  0.36870624094E+01  0.18737822896E+02  0.00000000000E+00 0.  1.
</event>
<event>
 7    1  0.2412036E-009  0.4778727E+02  0.7816164E-02  0.1312668E+00
        -11   -1    0    0    0    0  0.00000000000E+00  0.00000000000E+00  0.45593999997E+02  0.45594000000E+02  0.51100000000E-03 0.  1.
         11   -1    0    0    0    0 -0.00000000000E+00 -0.00000000000E+00 -0.45593999997E+02  0.45594000000E+02  0.51100000000E-03 0. -1.
    9900012    2    1    2    0    0  0.18128952194E+02 -0.35439246782E+02  0.17292312260E+02  0.47787272087E+02  0.20000004753E+02 0.  0.
         12    1    1    2    0    0 -0.18128952194E+02  0.35439246782E+02 -0.17292312260E+02  0.43400727913E+02  0.00000000000E+00 0. -1.
         11    1    3    3    0    0  0.16405223151E+02 -0.23424792998E+02  0.15091075799E+02  0.32335628070E+02  0.51100000000E-03 0. -1.
        -11    1    3    3    0    0  0.41692294328E+01 -0.10102484022E+02  0.42566062047E+01  0.11728655256E+02  0.51100000000E-03 0.  1.
         12    1    3    3    0    0 -0.24455003899E+01 -0.19119697619E+01 -0.20553697443E+01  0.37229887609E+01  0.00000000000E+00 0. -1.
</event>
<event>
 7    1  0.2412036E-009  0.4778727E+02  0.7816164E-02  0.1312668E+00
        -11   -1    0    0    0    0  0.00000000000E+00  0.00000000000E+00  0.45593999997E+02  0.45594000000E+02  0.51100000000E-03 0. -1.
         11   -1    0    0    0    0 -0.00000000000E+00 -0.00000000000E+00 -0.45593999997E+02  0.45594000000E+02  0.51100000000E-03 0.  1.
    9900012    2    1    2    0    0 -0.84680314857E+01 -0.42316494661E+02  0.46075832271E+01  0.47787273038E+02  0.20000009091E+02 0.  0.
         12    1    1    2    0    0  0.84680314857E+01  0.42316494661E+02 -0.46075832271E+01  0.43400726962E+02  0.00000000000E+00 0. -1.
         11    1    3    3    0    0 -0.12039323173E+02 -0.13443973442E+02  0.44654773219E+01  0.18591025048E+02  0.51100000000E-03 0. -1.
        -11    1    3    3    0    0  0.33650471443E+01 -0.24438827414E+02  0.93673503924E+00  0.24687188995E+02  0.51100000000E-03 0.  1.
         12    1    3    3    0    0  0.20624454318E+00 -0.44336938042E+01 -0.79462913406E+00  0.45090589952E+01  0.00000000000E+00 0. -1.
</event>
<event>
 7    1  0.2412036E-009  0.4778727E+02  0.7816164E-02  0.1312668E+00
        -11   -1    0    0    0    0  0.00000000000E+00  0.00000000000E+00  0.45593999997E+02  0.45594000000E+02  0.51100000000E-03 0.  1.
         11   -1    0    0    0    0 -0.00000000000E+00 -0.00000000000E+00 -0.45593999997E+02  0.45594000000E+02  0.51100000000E-03 0. -1.
    9900012    2    1    2    0    0 -0.12064581877E+02 -0.30081316622E+01  0.41581489390E+02  0.47787271298E+02  0.20000001156E+02 0.  0.
         12    1    1    2    0    0  0.12064581877E+02  0.30081316622E+01 -0.41581489390E+02  0.43400728702E+02  0.00000000000E+00 0. -1.
         11    1    3    3    0    0  0.43036863952E+01 -0.32789512109E+01  0.68224766222E+01  0.87074350502E+01  0.51100000000E-03 0. -1.
        -11    1    3    3    0    0 -0.92089358114E+01  0.35157130429E+01  0.21769391382E+02  0.23897094769E+02  0.51100000000E-03 0.  1.
         12    1    3    3    0    0 -0.71593324607E+01 -0.32448934942E+01  0.12989621386E+02  0.15182741479E+02  0.00000000000E+00 0. -1.
</event>
<event>
 7    1  0.2412036E-009  0.4778727E+02  0.7816164E-02  0.1312668E+00
        -11   -1    0    0    0    0  0.00000000000E+00  0.00000000000E+00  0.45593999997E+02  0.45594000000E+02  0.51100000000E-03 0.  1.
         11   -1    0    0    0    0 -0.00000000000E+00 -0.00000000000E+00 -0.45593999997E+02  0.45594000000E+02  0.51100000000E-03 0. -1.
    9900012    2    1    2    0    0  0.28402041821E+02  0.32801671048E+02 -0.99891956817E+00  0.47787269091E+02  0.19999991093E+02 0.  0.
         12    1    1    2    0    0 -0.28402041821E+02 -0.32801671048E+02  0.99891956817E+00  0.43400730909E+02  0.00000000000E+00 0. -1.
         11    1    3    3    0    0  0.18061994960E+02  0.10356967597E+02  0.25481083240E+01  0.20976064837E+02  0.51100000000E-03 0. -1.
        -11    1    3    3    0    0  0.83283054029E+01  0.22680303336E+02 -0.44937118168E+01  0.24575399823E+02  0.51100000000E-03 0.  1.
        -12    1    3    3    0    0  0.20117414582E+01 -0.23559988574E+00  0.94668392458E+00  0.22358044310E+01  0.00000000000E+00 0.  1.
</event>
<event>
 7    1  0.2412036E-009  0.4778728E+02  0.7816164E-02  0.1312668E+00
        -11   -1    0    0    0    0  0.00000000000E+00  0.00000000000E+00  0.45593999997E+02  0.45594000000E+02  0.51100000000E-03 0. -1.
         11   -1    0    0    0    0 -0.00000000000E+00 -0.00000000000E+00 -0.45593999997E+02  0.45594000000E+02  0.51100000000E-03 0.  1.
    9900012    2    1    2    0    0  0.20539400093E+02 -0.13855376382E+02 -0.35634030024E+02  0.47787279883E+02  0.20000040300E+02 0.  0.
         12    1    1    2    0    0 -0.20539400093E+02  0.13855376382E+02  0.35634030024E+02  0.43400720117E+02  0.00000000000E+00 0. -1.
         11    1    3    3    0    0 -0.15602500514E+01 -0.39547344977E+01  0.21731598896E+00  0.42569392373E+01  0.51100000000E-03 0. -1.
        -11    1    3    3    0    0  0.12605652517E+02 -0.33335572075E+01 -0.21022904112E+02  0.24738180543E+02  0.51100000000E-03 0.  1.
         12    1    3    3    0    0  0.94939976276E+01 -0.65670846773E+01 -0.14828441901E+02  0.18792160103E+02  0.00000000000E+00 0. -1.
</event>
<event>
 7    1  0.2412036E-009  0.4778727E+02  0.7816164E-02  0.1312668E+00
        -11   -1    0    0    0    0  0.00000000000E+00  0.00000000000E+00  0.45593999997E+02  0.45594000000E+02  0.51100000000E-03 0. -1.
         11   -1    0    0    0    0 -0.00000000000E+00 -0.00000000000E+00 -0.45593999997E+02  0.45594000000E+02  0.51100000000E-03 0.  1.
    9900012    2    1    2    0    0  0.30558140436E+02 -0.21819410631E+02 -0.21765499639E+02  0.47787267267E+02  0.19999982777E+02 0.  0.
         12    1    1    2    0    0 -0.30558140436E+02  0.21819410631E+02  0.21765499639E+02  0.43400732733E+02  0.00000000000E+00 0. -1.
         11    1    3    3    0    0  0.70358764533E+01 -0.63634943129E+01  0.27409775168E+01  0.98747443180E+01  0.51100000000E-03 0. -1.
        -11    1    3    3    0    0  0.13279795553E+02 -0.48377714719E+01 -0.12996685006E+02  0.19200802695E+02  0.51100000000E-03 0.  1.
        -12    1    3    3    0    0  0.10242468430E+02 -0.10618144846E+02 -0.11509792150E+02  0.18711720254E+02  0.00000000000E+00 0.  1.
</event>
<event>
 7    1  0.2412036E-009  0.4778726E+02  0.7816164E-02  0.1312668E+00
        -11   -1    0    0    0    0  0.00000000000E+00  0.00000000000E+00  0.45593999997E+02  0.45594000000E+02  0.51100000000E-03 0.  1.
         11   -1    0    0    0    0 -0.00000000000E+00 -0.00000000000E+00 -0.45593999997E+02  0.45594000000E+02  0.51100000000E-03 0. -1.
    9900012    2    1    2    0    0 -0.41697080212E+02  0.56359671778E+01  0.10640172287E+02  0.47787263940E+02  0.19999967607E+02 0.  0.
         12    1    1    2    0    0  0.41697080212E+02 -0.56359671778E+01 -0.10640172287E+02  0.43400736060E+02  0.00000000000E+00 0. -1.
         11    1    3    3    0    0  0.14142708050E+01  0.12127539326E+01  0.13513780766E+01  0.23015553389E+01  0.51100000000E-03 0. -1.
        -11    1    3    3    0    0 -0.30977377593E+02  0.29343751813E+01  0.18404949655E+01  0.31170433142E+02  0.51100000000E-03 0.  1.
        -12    1    3    3    0    0 -0.12133973424E+02  0.14888380639E+01  0.74482992446E+01  0.14315275459E+02  0.00000000000E+00 0.  1.
</event>
<event>
 7    1  0.2412036E-009  0.4778727E+02  0.7816164E-02  0.1312668E+00
        -11   -1    0    0    0    0  0.00000000000E+00  0.00000000000E+00  0.45593999997E+02  0.45594000000E+02  0.51100000000E-03 0. -1.
         11   -1    0    0    0    0 -0.00000000000E+00 -0.00000000000E+00 -0.45593999997E+02  0.45594000000E+02  0.51100000000E-03 0.  1.
    9900012    2    1    2    0    0 -0.27380679650E+02 -0.20865008705E+02 -0.26430529194E+02  0.47787273280E+02  0.20000010191E+02 0.  0.
         12    1    1    2    0    0  0.27380679650E+02  0.20865008705E+02  0.26430529194E+02  0.43400726720E+02  0.00000000000E+00 0. -1.
         11    1    3    3    0    0 -0.41444263177E+01 -0.39563392792E+01 -0.16209602501E+02  0.17192443209E+02  0.51100000000E-03 0. -1.
        -11    1    3    3    0    0 -0.12051593309E+02 -0.10042515004E+02 -0.62069900944E+01  0.16870676785E+02  0.51100000000E-03 0.  1.
         12    1    3    3    0    0 -0.11184660023E+02 -0.68661544216E+01 -0.40139365988E+01  0.13724153285E+02  0.00000000000E+00 0. -1.
</event>
<event>
 7    1  0.2412036E-009  0.4778727E+02  0.7816164E-02  0.1312668E+00
        -11   -1    0    0    0    0  0.00000000000E+00  0.00000000000E+00  0.45593999997E+02  0.45594000000E+02  0.51100000000E-03 0. -1.
         11   -1    0    0    0    0 -0.00000000000E+00 -0.00000000000E+00 -0.45593999997E+02  0.45594000000E+02  0.51100000000E-03 0.  1.
    9900012    2    1    2    0    0 -0.99856294722E+00 -0.14482837859E+01 -0.43365058960E+02  0.47787274286E+02  0.20000014779E+02 0.  0.
         12    1    1    2    0    0  0.99856294722E+00  0.14482837859E+01  0.43365058960E+02  0.43400725714E+02  0.00000000000E+00 0. -1.
         11    1    3    3    0    0 -0.71490913060E+01 -0.10220404745E+00 -0.60082157769E+01  0.93390903867E+01  0.51100000000E-03 0. -1.
        -11    1    3    3    0    0  0.50368278792E+01  0.19127740399E+01 -0.27045174088E+02  0.27576616567E+02  0.51100000000E-03 0.  1.
         12    1    3    3    0    0  0.11137004796E+01 -0.32588537783E+01 -0.10311669096E+02  0.10871567332E+02  0.00000000000E+00 0. -1.
</event>
<event>
 7    1  0.2412036E-009  0.4778727E+02  0.7816164E-02  0.1312668E+00
        -11   -1    0    0    0    0  0.00000000000E+00  0.00000000000E+00  0.45593999997E+02  0.45594000000E+02  0.51100000000E-03 0.  1.
         11   -1    0    0    0    0 -0.00000000000E+00 -0.00000000000E+00 -0.45593999997E+02  0.45594000000E+02  0.51100000000E-03 0. -1.
    9900012    2    1    2    0    0 -0.51990683761E+01 -0.43024974809E+02 -0.23333530668E+01  0.47787270676E+02  0.19999998320E+02 0.  0.
         12    1    1    2    0    0  0.51990683761E+01  0.43024974809E+02  0.23333530668E+01  0.43400729324E+02  0.00000000000E+00 0. -1.
         11    1    3    3    0    0  0.23046747037E+01 -0.82245693940E+01 -0.19771803807E+01  0.87672293072E+01  0.51100000000E-03 0. -1.
        -11    1    3    3    0    0  0.30860027219E+01 -0.21467004495E+02  0.22126016687E+01  0.21800259200E+02  0.51100000000E-03 0.  1.
        -12    1    3    3    0    0 -0.10589745802E+02 -0.13333400921E+02 -0.25687743548E+01  0.17219782169E+02  0.00000000000E+00 0.  1.
</event>
<event>
 7    1  0.2412036E-009  0.4778727E+02  0.7816164E-02  0.1312668E+00
        -11   -1    0    0    0    0  0.00000000000E+00  0.00000000000E+00  0.45593999997E+02  0.45594000000E+02  0.51100000000E-03 0.  1.
         11   -1    0    0    0    0 -0.00000000000E+00 -0.00000000000E+00 -0.45593999997E+02  0.45594000000E+02  0.51100000000E-03 0. -1.
    9900012    2    1    2    0    0  0.19041676151E+02 -0.34296612779E+02  0.18568258122E+02  0.47787270877E+02  0.19999999236E+02 0.  0.
         12    1    1    2    0    0 -0.19041676151E+02  0.34296612779E+02 -0.18568258122E+02  0.43400729123E+02  0.00000000000E+00 0. -1.
         11    1    3    3    0    0  0.19732473813E+02 -0.18507508269E+02  0.87612760490E+01  0.28436918669E+02  0.51100000000E-03 0. -1.
        -11    1    3    3    0    0  0.56310581765E+00 -0.12254964669E+02  0.96301666901E+01  0.15596196907E+02  0.51100000000E-03 0.  1.
         12    1    3    3    0    0 -0.12539034797E+01 -0.35341398400E+01  0.17681538253E+00  0.37541553011E+01  0.00000000000E+00 0. -1.
</event>
<event>
 7    1  0.2412036E-009  0.4778727E+02  0.7816164E-02  0.1312668E+00
        -11   -1    0    0    0    0  0.00000000000E+00  0.00000000000E+00  0.45593999997E+02  0.45594000000E+02  0.51100000000E-03 0.  1.
         11   -1    0    0    0    0 -0.00000000000E+00 -0.00000000000E+00 -0.45593999997E+02  0.45594000000E+02  0.51100000000E-03 0. -1.
    9900012    2    1    2    0    0  0.42471111492E+02 -0.61366122836E+01  0.64938522218E+01  0.47787269149E+02  0.19999991358E+02 0.  0.
         12    1    1    2    0    0 -0.42471111492E+02  0.61366122836E+01 -0.64938522218E+01  0.43400730851E+02  0.00000000000E+00 0. -1.
         11    1    3    3    0    0  0.24946769559E+02  0.10152204852E+01  0.11346254785E+02  0.27424614527E+02  0.51100000000E-03 0. -1.
        -11    1    3    3    0    0  0.15861809495E+02 -0.62554376827E+01 -0.60886860899E+01  0.18105236801E+02  0.51100000000E-03 0.  1.
         12    1    3    3    0    0  0.16625324388E+01 -0.89639508612E+00  0.12362835267E+01  0.22574178211E+01  0.00000000000E+00 0. -1.
</event>
<event>
 7    1  0.2412036E-009  0.4778727E+02  0.7816164E-02  0.1312668E+00
        -11   -1    0    0    0    0  0.00000000000E+00  0.00000000000E+00  0.45593999997E+02  0.45594000000E+02  0.51100000000E-03 0.  1.
         11   -1    0    0    0    0 -0.00000000000E+00 -0.00000000000E+00 -0.45593999997E+02  0.45594000000E+02  0.51100000000E-03 0. -1.
    9900012    2    1    2    0    0 -0.26680788050E+02 -0.18243453608E+02  0.28964376778E+02  0.47787272210E+02  0.20000005315E+02 0.  0.
         12    1    1    2    0    0  0.26680788050E+02  0.18243453608E+02 -0.28964376778E+02  0.43400727790E+02  0.00000000000E+00 0. -1.
         11    1    3    3    0    0 -0.54829687063E+01  0.36876750038E+01  0.55453974691E+01  0.86263159065E+01  0.51100000000E-03 0. -1.
        -11    1    3    3    0    0 -0.16378778248E+02 -0.16476592597E+02  0.13539174154E+02  0.26889621000E+02  0.51100000000E-03 0.  1.
        -12    1    3    3    0    0 -0.48190410965E+01 -0.54545360144E+01  0.98798051552E+01  0.12271335303E+02  0.00000000000E+00 0.  1.
</event>
<event>
 7    1  0.2412036E-009  0.4778727E+02  0.7816164E-02  0.1312668E+00
        -11   -1    0    0    0    0  0.00000000000E+00  0.00000000000E+00  0.45593999997E+02  0.45594000000E+02  0.51100000000E-03 0. -1.
         11   -1    0    0    0    0 -0.00000000000E+00 -0.00000000000E+00 -0.45593999997E+02  0.45594000000E+02  0.51100000000E-03 0.  1.
    9900012    2    1    2    0    0  0.17097877773E+02  0.31404662082E+02 -0.24597417042E+02  0.47787272472E+02  0.20000006507E+02 0.  0.
         12    1    1    2    0    0 -0.17097877773E+02 -0.31404662082E+02  0.24597417042E+02  0.43400727528E+02  0.00000000000E+00 0. -1.
         11    1    3    3    0    0  0.53602930459E+01  0.23201138914E+02 -0.10625007359E+02  0.26075206041E+02  0.51100000000E-03 0. -1.
        -11    1    3    3    0    0  0.12175536935E+02  0.63207320772E+01 -0.90788911860E+01  0.16450581117E+02  0.51100000000E-03 0.  1.
         12    1    3    3    0    0 -0.43795220779E+00  0.18827910916E+01 -0.48935184970E+01  0.52614853142E+01  0.00000000000E+00 0. -1.
</event>
<event>
 7    1  0.2412036E-009  0.4778727E+02  0.7816164E-02  0.1312668E+00
        -11   -1    0    0    0    0  0.00000000000E+00  0.00000000000E+00  0.45593999997E+02  0.45594000000E+02  0.51100000000E-03 0.  1.
         11   -1    0    0    0    0 -0.00000000000E+00 -0.00000000000E+00 -0.45593999997E+02  0.45594000000E+02  0.51100000000E-03 0. -1.
    9900012    2    1    2    0    0  0.33240756286E+01 -0.38313550482E+02  0.20115818333E+02  0.47787265254E+02  0.19999973599E+02 0.  0.
         12    1    1    2    0    0 -0.33240756286E+01  0.38313550482E+02 -0.20115818333E+02  0.43400734746E+02  0.00000000000E+00 0. -1.
         11    1    3    3    0    0  0.72210640045E+00 -0.29181415996E+02  0.16742364149E+02  0.33650902435E+02  0.51100000000E-03 0. -1.
        -11    1    3    3    0    0 -0.11189177897E+01 -0.41416611293E+01  0.60033208683E+01  0.73786987768E+01  0.51100000000E-03 0.  1.
         12    1    3    3    0    0  0.37208870178E+01 -0.49904733567E+01 -0.26298666843E+01  0.67576640417E+01  0.00000000000E+00 0. -1.
</event>
<event>
 7    1  0.2412036E-009  0.4778727E+02  0.7816164E-02  0.1312668E+00
        -11   -1    0    0    0    0  0.00000000000E+00  0.00000000000E+00  0.45593999997E+02  0.45594000000E+02  0.51100000000E-03 0. -1.
         11   -1    0    0    0    0 -0.00000000000E+00 -0.00000000000E+00 -0.45593999997E+02  0.45594000000E+02  0.51100000000E-03 0.  1.
    9900012    2    1    2    0    0  0.16478029405E+02 -0.13258662553E+02 -0.37898623220E+02  0.47787271576E+02  0.20000002425E+02 0.  0.
         12    1    1    2    0    0 -0.16478029405E+02  0.13258662553E+02  0.37898623220E+02  0.43400728424E+02  0.00000000000E+00 0. -1.
         11    1    3    3    0    0 -0.12760786863E+01 -0.13763211821E+01 -0.67415127510E+01  0.69979019172E+01  0.51100000000E-03 0. -1.
        -11    1    3    3    0    0  0.74854674760E+01 -0.13965309379E+02 -0.18489570601E+02  0.24350078248E+02  0.51100000000E-03 0.  1.
        -12    1    3    3    0    0  0.10268640615E+02  0.20829680085E+01 -0.12667539868E+02  0.16439291411E+02  0.00000000000E+00 0.  1.
</event>
<event>
 7    1  0.2412036E-009  0.4778731E+02  0.7816164E-02  0.1312668E+00
        -11   -1    0    0    0    0  0.00000000000E+00  0.00000000000E+00  0.45593999997E+02  0.45594000000E+02  0.51100000000E-03 0.  1.
         11   -1    0    0    0    0 -0.00000000000E+00 -0.00000000000E+00 -0.45593999997E+02  0.45594000000E+02  0.51100000000E-03 0. -1.
    9900012    2    1    2    0    0  0.15282388277E+02 -0.46634465003E+01  0.40352453267E+02  0.47787313261E+02  0.20000192482E+02 0.  0.
         12    1    1    2    0    0 -0.15282388277E+02  0.46634465003E+01 -0.40352453267E+02  0.43400686739E+02  0.00000000000E+00 0. -1.
         11    1    3    3    0    0  0.39091528893E+01 -0.63910242055E+01  0.53622835308E+01  0.92130750368E+01  0.51100000000E-03 0. -1.
        -11    1    3    3    0    0  0.88434628062E+01  0.49955775918E+01  0.31713067009E+02  0.33299868607E+02  0.51100000000E-03 0.  1.
        -12    1    3    3    0    0  0.25297725818E+01 -0.32679998866E+01  0.32771027279E+01  0.52743696176E+01  0.00000000000E+00 0.  1.
</event>
<event>
 7    1  0.2412036E-009  0.4778727E+02  0.7816164E-02  0.1312668E+00
        -11   -1    0    0    0    0  0.00000000000E+00  0.00000000000E+00  0.45593999997E+02  0.45594000000E+02  0.51100000000E-03 0.  1.
         11   -1    0    0    0    0 -0.00000000000E+00 -0.00000000000E+00 -0.45593999997E+02  0.45594000000E+02  0.51100000000E-03 0. -1.
    9900012    2    1    2    0    0  0.19082890137E+02  0.19393938131E+02  0.33813339220E+02  0.47787269114E+02  0.19999991199E+02 0.  0.
         12    1    1    2    0    0 -0.19082890137E+02 -0.19393938131E+02 -0.33813339220E+02  0.43400730886E+02  0.00000000000E+00 0. -1.
         11    1    3    3    0    0  0.42178828584E+01  0.83028590816E+01  0.24282967436E+02  0.26007508771E+02  0.51100000000E-03 0. -1.
        -11    1    3    3    0    0  0.75210420170E+01  0.89476731961E+01  0.74151241808E+01  0.13842362353E+02  0.51100000000E-03 0.  1.
         12    1    3    3    0    0  0.73439652617E+01  0.21434058529E+01  0.21152476036E+01  0.79373979892E+01  0.00000000000E+00 0. -1.
</event>
<event>
 7    1  0.2412036E-009  0.4778727E+02  0.7816164E-02  0.1312668E+00
        -11   -1    0    0    0    0  0.00000000000E+00  0.00000000000E+00  0.45593999997E+02  0.45594000000E+02  0.51100000000E-03 0. -1.
         11   -1    0    0    0    0 -0.00000000000E+00 -0.00000000000E+00 -0.45593999997E+02  0.45594000000E+02  0.51100000000E-03 0.  1.
    9900012    2    1    2    0    0  0.32416527564E+02 -0.25983347247E+02  0.12556177671E+02  0.47787271997E+02  0.20000004344E+02 0.  0.
         12    1    1    2    0    0 -0.32416527564E+02  0.25983347247E+02 -0.12556177671E+02  0.43400728003E+02  0.00000000000E+00 0. -1.
         11    1    3    3    0    0  0.24331994062E+02 -0.21412452795E+02  0.15575906271E+02  0.35960366046E+02  0.51100000000E-03 0. -1.
        -11    1    3    3    0    0  0.15156516092E+01 -0.16413252572E+01  0.20460871610E+01  0.30294589174E+01  0.51100000000E-03 0.  1.
         12    1    3    3    0    0  0.65688818926E+01 -0.29295691946E+01 -0.50658157610E+01  0.87974470336E+01  0.00000000000E+00 0. -1.
</event>
<event>
 7    1  0.2412036E-009  0.4778727E+02  0.7816164E-02  0.1312668E+00
        -11   -1    0    0    0    0  0.00000000000E+00  0.00000000000E+00  0.45593999997E+02  0.45594000000E+02  0.51100000000E-03 0.  1.
         11   -1    0    0    0    0 -0.00000000000E+00 -0.00000000000E+00 -0.45593999997E+02  0.45594000000E+02  0.51100000000E-03 0. -1.
    9900012    2    1    2    0    0 -0.27918123738E+02  0.28914487957E+02 -0.16375417491E+02  0.47787267922E+02  0.19999985763E+02 0.  0.
         12    1    1    2    0    0  0.27918123738E+02 -0.28914487957E+02  0.16375417491E+02  0.43400732078E+02  0.00000000000E+00 0. -1.
         11    1    3    3    0    0 -0.36667164520E+01 -0.10322147303E+01 -0.54987141223E+01  0.66892551191E+01  0.51100000000E-03 0. -1.
        -11    1    3    3    0    0 -0.16738165465E+02  0.23600542631E+02 -0.42621789694E+01  0.29245819623E+02  0.51100000000E-03 0.  1.
        -12    1    3    3    0    0 -0.75132418216E+01  0.63461600570E+01 -0.66145243997E+01  0.11852193180E+02  0.00000000000E+00 0.  1.
</event>
<event>
 7    1  0.2412036E-009  0.4778727E+02  0.7816164E-02  0.1312668E+00
        -11   -1    0    0    0    0  0.00000000000E+00  0.00000000000E+00  0.45593999997E+02  0.45594000000E+02  0.51100000000E-03 0.  1.
         11   -1    0    0    0    0 -0.00000000000E+00 -0.00000000000E+00 -0.45593999997E+02  0.45594000000E+02  0.51100000000E-03 0. -1.
    9900012    2    1    2    0    0  0.39477965776E+01  0.43037668666E+02  0.39745664401E+01  0.47787271891E+02  0.20000003859E+02 0.  0.
         12    1    1    2    0    0 -0.39477965776E+01 -0.43037668666E+02 -0.39745664401E+01  0.43400728109E+02  0.00000000000E+00 0. -1.
         11    1    3    3    0    0  0.24189666921E+01  0.18933340352E+01  0.26849990016E+01  0.40798693026E+01  0.51100000000E-03 0. -1.
        -11    1    3    3    0    0 -0.27789057228E+01  0.34599953957E+02  0.49448129305E+01  0.35061806942E+02  0.51100000000E-03 0.  1.
        -12    1    3    3    0    0  0.43077356083E+01  0.65443806737E+01 -0.36552454920E+01  0.86455956464E+01  0.00000000000E+00 0.  1.
</event>
<event>
 7    1  0.2412036E-009  0.4778727E+02  0.7816164E-02  0.1312668E+00
        -11   -1    0    0    0    0  0.00000000000E+00  0.00000000000E+00  0.45593999997E+02  0.45594000000E+02  0.51100000000E-03 0. -1.
         11   -1    0    0    0    0 -0.00000000000E+00 -0.00000000000E+00 -0.45593999997E+02  0.45594000000E+02  0.51100000000E-03 0.  1.
    9900012    2    1    2    0    0  0.29962890552E+02 -0.15828538010E+02 -0.27116517792E+02  0.47787274627E+02  0.20000016334E+02 0.  0.
         12    1    1    2    0    0 -0.29962890552E+02  0.15828538010E+02  0.27116517792E+02  0.43400725373E+02  0.00000000000E+00 0. -1.
         11    1    3    3    0    0  0.10843440731E+02  0.23413245608E+01 -0.64654468823E+01  0.12839938132E+02  0.51100000000E-03 0. -1.
        -11    1    3    3    0    0  0.72763876339E+01 -0.10716059463E+01 -0.46012433789E+01  0.86755747473E+01  0.51100000000E-03 0.  1.
         12    1    3    3    0    0  0.11843062186E+02 -0.17098256624E+02 -0.16049827531E+02  0.26271761747E+02  0.00000000000E+00 0. -1.
</event>
<event>
 7    1  0.2412036E-009  0.4778727E+02  0.7816164E-02  0.1312668E+00
        -11   -1    0    0    0    0  0.00000000000E+00  0.00000000000E+00  0.45593999997E+02  0.45594000000E+02  0.51100000000E-03 0. -1.
         11   -1    0    0    0    0 -0.00000000000E+00 -0.00000000000E+00 -0.45593999997E+02  0.45594000000E+02  0.51100000000E-03 0.  1.
    9900012    2    1    2    0    0  0.19197683674E+02  0.28757517074E+02  0.26231232126E+02  0.47787269758E+02  0.19999994133E+02 0.  0.
         12    1    1    2    0    0 -0.19197683674E+02 -0.28757517074E+02 -0.26231232126E+02  0.43400730242E+02  0.00000000000E+00 0. -1.
         11    1    3    3    0    0  0.25556851990E+01  0.89499506083E+01  0.16049837969E+02  0.18553448246E+02  0.51100000000E-03 0. -1.
        -11    1    3    3    0    0  0.14820570276E+02  0.12919796502E+02  0.46231735241E+01  0.20197628045E+02  0.51100000000E-03 0.  1.
         12    1    3    3    0    0  0.18214281988E+01  0.68877699642E+01  0.55582206333E+01  0.90361934669E+01  0.00000000000E+00 0. -1.
</event>
<event>
 7    1  0.2412036E-009  0.4778727E+02  0.7816164E-02  0.1312668E+00
        -11   -1    0    0    0    0  0.00000000000E+00  0.00000000000E+00  0.45593999997E+02  0.45594000000E+02  0.51100000000E-03 0. -1.
         11   -1    0    0    0    0 -0.00000000000E+00 -0.00000000000E+00 -0.45593999997E+02  0.45594000000E+02  0.51100000000E-03 0.  1.
    9900012    2    1    2    0    0  0.12718586175E+02 -0.27723168702E+02 -0.30875340976E+02  0.47787271924E+02  0.20000004010E+02 0.  0.
         12    1    1    2    0    0 -0.12718586175E+02  0.27723168702E+02  0.30875340976E+02  0.43400728076E+02  0.00000000000E+00 0. -1.
         11    1    3    3    0    0  0.45243780468E+01 -0.16385004098E+02 -0.91390228381E+01  0.19299225236E+02  0.51100000000E-03 0. -1.
        -11    1    3    3    0    0  0.24066032958E+01  0.24447191994E+01 -0.47728206124E+01  0.58777723881E+01  0.51100000000E-03 0.  1.
         12    1    3    3    0    0  0.57876048320E+01 -0.13782883803E+02 -0.16963497526E+02  0.22610274300E+02  0.00000000000E+00 0. -1.
</event>
<event>
 7    1  0.2412036E-009  0.4778724E+02  0.7816164E-02  0.1312668E+00
        -11   -1    0    0    0    0  0.00000000000E+00  0.00000000000E+00  0.45593999997E+02  0.45594000000E+02  0.51100000000E-03 0.  1.
         11   -1    0    0    0    0 -0.00000000000E+00 -0.00000000000E+00 -0.45593999997E+02  0.45594000000E+02  0.51100000000E-03 0. -1.
    9900012    2    1    2    0    0 -0.18407197417E+01  0.90538620112E+01  0.42405954607E+02  0.47787243641E+02  0.19999875054E+02 0.  0.
         12    1    1    2    0    0  0.18407197417E+01 -0.90538620112E+01 -0.42405954607E+02  0.43400756359E+02  0.00000000000E+00 0. -1.
         11    1    3    3    0    0  0.53878223183E+01  0.82120362147E+01  0.14765570363E+02  0.17733816186E+02  0.51100000000E-03 0. -1.
        -11    1    3    3    0    0  0.35181949261E+00 -0.32921819620E+00  0.16617358377E+02  0.16624342431E+02  0.51100000000E-03 0.  1.
         12    1    3    3    0    0 -0.75803615526E+01  0.11710439927E+01  0.11023025866E+02  0.13429085023E+02  0.00000000000E+00 0. -1.
</event>
<event>
 7    1  0.2412036E-009  0.4778727E+02  0.7816164E-02  0.1312668E+00
        -11   -1    0    0    0    0  0.00000000000E+00  0.00000000000E+00  0.45593999997E+02  0.45594000000E+02  0.51100000000E-03 0.  1.
         11   -1    0    0    0    0 -0.00000000000E+00 -0.00000000000E+00 -0.45593999997E+02  0.45594000000E+02  0.51100000000E-03 0. -1.
    9900012    2    1    2    0    0 -0.69399773752E+01  0.10164042208E+02  0.41619136302E+02  0.47787267903E+02  0.19999985679E+02 0.  0.
         12    1    1    2    0    0  0.69399773752E+01 -0.10164042208E+02 -0.41619136302E+02  0.43400732097E+02  0.00000000000E+00 0. -1.
         11    1    3    3    0    0 -0.24649523685E+01  0.56604823816E+01  0.13254970161E+01  0.63145857799E+01  0.51100000000E-03 0. -1.
        -11    1    3    3    0    0 -0.48790323098E+01 -0.12511894787E+00  0.25629287010E+02  0.26089863241E+02  0.51100000000E-03 0.  1.
        -12    1    3    3    0    0  0.40400730310E+00  0.46286787742E+01  0.14664352276E+02  0.15382818882E+02  0.00000000000E+00 0.  1.
</event>
<event>
 7    1  0.2412036E-009  0.4778727E+02  0.7816164E-02  0.1312668E+00
        -11   -1    0    0    0    0  0.00000000000E+00  0.00000000000E+00  0.45593999997E+02  0.45594000000E+02  0.51100000000E-03 0.  1.
         11   -1    0    0    0    0 -0.00000000000E+00 -0.00000000000E+00 -0.45593999997E+02  0.45594000000E+02  0.51100000000E-03 0. -1.
    9900012    2    1    2    0    0 -0.10531188865E+02 -0.39847521580E+02  0.13597512772E+02  0.47787271106E+02  0.20000000278E+02 0.  0.
         12    1    1    2    0    0  0.10531188865E+02  0.39847521580E+02 -0.13597512772E+02  0.43400728894E+02  0.00000000000E+00 0. -1.
         11    1    3    3    0    0 -0.11852104204E+02 -0.15973957514E+02  0.59128571241E+01  0.20750941481E+02  0.51100000000E-03 0. -1.
        -11    1    3    3    0    0 -0.12027234732E+01 -0.23953698768E+01  0.44145340300E+01  0.51645378847E+01  0.51100000000E-03 0.  1.
         12    1    3    3    0    0  0.25236388129E+01 -0.21478194190E+02  0.32701216180E+01  0.21871791740E+02  0.00000000000E+00 0. -1.
</event>
<event>
 7    1  0.2412036E-009  0.4778727E+02  0.7816164E-02  0.1312668E+00
        -11   -1    0    0    0    0  0.00000000000E+00  0.00000000000E+00  0.45593999997E+02  0.45594000000E+02  0.51100000000E-03 0. -1.
         11   -1    0    0    0    0 -0.00000000000E+00 -0.00000000000E+00 -0.45593999997E+02  0.45594000000E+02  0.51100000000E-03 0.  1.
    9900012    2    1    2    0    0  0.60257126647E+01 -0.18912705888E+02 -0.38595640546E+02  0.47787272745E+02  0.20000007755E+02 0.  0.
         12    1    1    2    0    0 -0.60257126647E+01  0.18912705888E+02  0.38595640546E+02  0.43400727255E+02  0.00000000000E+00 0. -1.
         11    1    3    3    0    0 -0.19074786815E+01 -0.68418902157E+01 -0.27616620886E+02  0.28515393843E+02  0.51100000000E-03 0. -1.
        -11    1    3    3    0    0  0.28299250571E+01 -0.96037334506E+01 -0.56724772809E+01  0.11507265999E+02  0.51100000000E-03 0.  1.
         12    1    3    3    0    0  0.51032662892E+01 -0.24670822214E+01 -0.53065423790E+01  0.77646129025E+01  0.00000000000E+00 0. -1.
</event>
<event>
 7    1  0.2412036E-009  0.4778727E+02  0.7816164E-02  0.1312668E+00
        -11   -1    0    0    0    0  0.00000000000E+00  0.00000000000E+00  0.45593999997E+02  0.45594000000E+02  0.51100000000E-03 0.  1.
         11   -1    0    0    0    0 -0.00000000000E+00 -0.00000000000E+00 -0.45593999997E+02  0.45594000000E+02  0.51100000000E-03 0. -1.
    9900012    2    1    2    0    0  0.34299113512E+02  0.19731748592E+01  0.26519815070E+02  0.47787271918E+02  0.20000003981E+02 0.  0.
         12    1    1    2    0    0 -0.34299113512E+02 -0.19731748592E+01 -0.26519815070E+02  0.43400728082E+02  0.00000000000E+00 0. -1.
         11    1    3    3    0    0  0.41449356487E+01  0.53165193162E+01  0.68373348211E+01  0.96018236231E+01  0.51100000000E-03 0. -1.
        -11    1    3    3    0    0  0.19230203647E+02 -0.73434499388E+01  0.15702807232E+02  0.25890251921E+02  0.51100000000E-03 0.  1.
        -12    1    3    3    0    0  0.10923974216E+02  0.40001054818E+01  0.39796730170E+01  0.12295196373E+02  0.00000000000E+00 0.  1.
</event>
<event>
 7    1  0.2412036E-009  0.4778729E+02  0.7816164E-02  0.1312668E+00
        -11   -1    0    0    0    0  0.00000000000E+00  0.00000000000E+00  0.45593999997E+02  0.45594000000E+02  0.51100000000E-03 0.  1.
         11   -1    0    0    0    0 -0.00000000000E+00 -0.00000000000E+00 -0.45593999997E+02  0.45594000000E+02  0.51100000000E-03 0. -1.
    9900012    2    1    2    0    0  0.21503720060E+01  0.37793225027E+02  0.21228977830E+02  0.47787291971E+02  0.20000095413E+02 0.  0.
         12    1    1    2    0    0 -0.21503720060E+01 -0.37793225027E+02 -0.21228977830E+02  0.43400708029E+02  0.00000000000E+00 0. -1.
         11    1    3    3    0    0 -0.28102547862E+00  0.46477996784E+01  0.23227274605E+01  0.52034681019E+01  0.51100000000E-03 0. -1.
        -11    1    3    3    0    0  0.96321865640E+01  0.12798178524E+02  0.45145881593E+01  0.16641931920E+02  0.51100000000E-03 0.  1.
        -12    1    3    3    0    0 -0.72007890794E+01  0.20347246825E+02  0.14391662210E+02  0.25941891949E+02  0.00000000000E+00 0.  1.
</event>
<event>
 7    1  0.2412036E-009  0.4778729E+02  0.7816164E-02  0.1312668E+00
        -11   -1    0    0    0    0  0.00000000000E+00  0.00000000000E+00  0.45593999997E+02  0.45594000000E+02  0.51100000000E-03 0. -1.
         11   -1    0    0    0    0 -0.00000000000E+00 -0.00000000000E+00 -0.45593999997E+02  0.45594000000E+02  0.51100000000E-03 0.  1.
    9900012    2    1    2    0    0 -0.31092181089E+02 -0.28085815747E+02 -0.11317464912E+02  0.47787288219E+02  0.20000078304E+02 0.  0.
         12    1    1    2    0    0  0.31092181089E+02  0.28085815747E+02  0.11317464912E+02  0.43400711781E+02  0.00000000000E+00 0. -1.
         11    1    3    3    0    0 -0.13743966386E+02 -0.60249346321E+01 -0.63352090945E+01  0.16288993949E+02  0.51100000000E-03 0. -1.
        -11    1    3    3    0    0 -0.16173899942E+02 -0.23852032759E+02 -0.53891281423E+01  0.29318206093E+02  0.51100000000E-03 0.  1.
        -12    1    3    3    0    0 -0.11743147607E+01  0.17911516442E+01  0.40687232449E+00  0.21800881767E+01  0.00000000000E+00 0.  1.
</event>
<event>
 7    1  0.2412036E-009  0.4778727E+02  0.7816164E-02  0.1312668E+00
        -11   -1    0    0    0    0  0.00000000000E+00  0.00000000000E+00  0.45593999997E+02  0.45594000000E+02  0.51100000000E-03 0.  1.
         11   -1    0    0    0    0 -0.00000000000E+00 -0.00000000000E+00 -0.45593999997E+02  0.45594000000E+02  0.51100000000E-03 0. -1.
    9900012    2    1    2    0    0 -0.16654191271E+02 -0.37787323784E+02 -0.13355874944E+02  0.47787270500E+02  0.19999997518E+02 0.  0.
         12    1    1    2    0    0  0.16654191271E+02  0.37787323784E+02  0.13355874944E+02  0.43400729500E+02  0.00000000000E+00 0. -1.
         11    1    3    3    0    0 -0.20101247747E+01  0.45162153092E+00  0.16082084590E+01  0.26135987309E+01  0.51100000000E-03 0. -1.
        -11    1    3    3    0    0 -0.11996775949E+02 -0.34026115941E+02 -0.85899840343E+01  0.37087558900E+02  0.51100000000E-03 0.  1.
        -12    1    3    3    0    0 -0.26472905471E+01 -0.42128293735E+01 -0.63740993686E+01  0.80861128691E+01  0.00000000000E+00 0.  1.
</event>
<event>
 7    1  0.2412036E-009  0.4778727E+02  0.7816164E-02  0.1312668E+00
        -11   -1    0    0    0    0  0.00000000000E+00  0.00000000000E+00  0.45593999997E+02  0.45594000000E+02  0.51100000000E-03 0. -1.
         11   -1    0    0    0    0 -0.00000000000E+00 -0.00000000000E+00 -0.45593999997E+02  0.45594000000E+02  0.51100000000E-03 0.  1.
    9900012    2    1    2    0    0  0.30266443012E+02 -0.13529200200E+02  0.28009396522E+02  0.47787272769E+02  0.20000007865E+02 0.  0.
         12    1    1    2    0    0 -0.30266443012E+02  0.13529200200E+02 -0.28009396522E+02  0.43400727231E+02  0.00000000000E+00 0. -1.
         11    1    3    3    0    0  0.17696156802E+02 -0.69121175805E+01  0.44099111567E+01  0.19503298482E+02  0.51100000000E-03 0. -1.
        -11    1    3    3    0    0  0.12657276708E+02 -0.46293604805E+01  0.19227045728E+02  0.23480138838E+02  0.51100000000E-03 0.  1.
         12    1    3    3    0    0 -0.86990498933E-01 -0.19877221394E+01  0.43724396366E+01  0.48038354495E+01  0.00000000000E+00 0. -1.
</event>
<event>
 7    1  0.2412036E-009  0.4778727E+02  0.7816164E-02  0.1312668E+00
        -11   -1    0    0    0    0  0.00000000000E+00  0.00000000000E+00  0.45593999997E+02  0.45594000000E+02  0.51100000000E-03 0. -1.
         11   -1    0    0    0    0 -0.00000000000E+00 -0.00000000000E+00 -0.45593999997E+02  0.45594000000E+02  0.51100000000E-03 0.  1.
    9900012    2    1    2    0    0 -0.13388558058E+02  0.36170340035E+02 -0.19901663003E+02  0.47787272179E+02  0.20000005171E+02 0.  0.
         12    1    1    2    0    0  0.13388558058E+02 -0.36170340035E+02  0.19901663003E+02  0.43400727821E+02  0.00000000000E+00 0. -1.
         11    1    3    3    0    0 -0.52703406157E+00  0.10238713439E+02 -0.84469924532E+01  0.13283851082E+02  0.51100000000E-03 0. -1.
        -11    1    3    3    0    0 -0.11314603666E+02  0.26344382888E+02 -0.66409207863E+01  0.29430402563E+02  0.51100000000E-03 0.  1.
        -12    1    3    3    0    0 -0.15469203306E+01 -0.41275629165E+00 -0.48137497634E+01  0.50730185344E+01  0.00000000000E+00 0.  1.
</event>
<event>
 7    1  0.2412036E-009  0.4778727E+02  0.7816164E-02  0.1312668E+00
        -11   -1    0    0    0    0  0.00000000000E+00  0.00000000000E+00  0.45593999997E+02  0.45594000000E+02  0.51100000000E-03 0.  1.
         11   -1    0    0    0    0 -0.00000000000E+00 -0.00000000000E+00 -0.45593999997E+02  0.45594000000E+02  0.51100000000E-03 0. -1.
    9900012    2    1    2    0    0  0.21114763863E+02 -0.10362114209E+02  0.36474878361E+02  0.47787269415E+02  0.19999992570E+02 0.  0.
         12    1    1    2    0    0 -0.21114763863E+02  0.10362114209E+02 -0.36474878361E+02  0.43400730585E+02  0.00000000000E+00 0. -1.
         11    1    3    3    0    0  0.31461137450E+01 -0.97977368159E+01  0.17025628545E+02  0.19893861014E+02  0.51100000000E-03 0. -1.
        -11    1    3    3    0    0  0.38257628072E+01  0.23920004851E+01  0.89825250982E+01  0.10052058733E+02  0.51100000000E-03 0.  1.
         12    1    3    3    0    0  0.14142887311E+02 -0.29563778779E+01  0.10466724718E+02  0.17841349667E+02  0.00000000000E+00 0. -1.
</event>
<event>
 7    1  0.2412036E-009  0.4778728E+02  0.7816164E-02  0.1312668E+00
        -11   -1    0    0    0    0  0.00000000000E+00  0.00000000000E+00  0.45593999997E+02  0.45594000000E+02  0.51100000000E-03 0. -1.
         11   -1    0    0    0    0 -0.00000000000E+00 -0.00000000000E+00 -0.45593999997E+02  0.45594000000E+02  0.51100000000E-03 0.  1.
    9900012    2    1    2    0    0 -0.20856955918E+02  0.36645247208E+02  0.10282800098E+02  0.47787277299E+02  0.20000028516E+02 0.  0.
         12    1    1    2    0    0  0.20856955918E+02 -0.36645247208E+02 -0.10282800098E+02  0.43400722701E+02  0.00000000000E+00 0. -1.
         11    1    3    3    0    0  0.21282372011E+01  0.30843067148E+01  0.40390574757E+01  0.55096576163E+01  0.51100000000E-03 0. -1.
        -11    1    3    3    0    0 -0.22536259959E+02  0.31061425281E+02  0.79860866559E+01  0.39197866444E+02  0.51100000000E-03 0.  1.
        -12    1    3    3    0    0 -0.44893316061E+00  0.24995152122E+01 -0.17423440333E+01  0.30797532383E+01  0.00000000000E+00 0.  1.
</event>
<event>
 7    1  0.2412036E-009  0.4778727E+02  0.7816164E-02  0.1312668E+00
        -11   -1    0    0    0    0  0.00000000000E+00  0.00000000000E+00  0.45593999997E+02  0.45594000000E+02  0.51100000000E-03 0.  1.
         11   -1    0    0    0    0 -0.00000000000E+00 -0.00000000000E+00 -0.45593999997E+02  0.45594000000E+02  0.51100000000E-03 0. -1.
    9900012    2    1    2    0    0 -0.14531859721E+02 -0.33490009492E+02  0.23470565704E+02  0.47787272620E+02  0.20000007182E+02 0.  0.
         12    1    1    2    0    0  0.14531859721E+02  0.33490009492E+02 -0.23470565704E+02  0.43400727380E+02  0.00000000000E+00 0. -1.
         11    1    3    3    0    0 -0.39811027638E+01 -0.26560802240E+02  0.14153506191E+02  0.30358641811E+02  0.51100000000E-03 0. -1.
        -11    1    3    3    0    0  0.42008394927E+00 -0.30117468376E+01  0.14287353740E+01  0.33598176391E+01  0.51100000000E-03 0.  1.
         12    1    3    3    0    0 -0.10970840906E+02 -0.39174604140E+01  0.78883241394E+01  0.14068813170E+02  0.00000000000E+00 0. -1.
</event>
<event>
 7    1  0.2412036E-009  0.4778727E+02  0.7816164E-02  0.1312668E+00
        -11   -1    0    0    0    0  0.00000000000E+00  0.00000000000E+00  0.45593999997E+02  0.45594000000E+02  0.51100000000E-03 0.  1.
         11   -1    0    0    0    0 -0.00000000000E+00 -0.00000000000E+00 -0.45593999997E+02  0.45594000000E+02  0.51100000000E-03 0. -1.
    9900012    2    1    2    0    0 -0.12511230929E+02  0.26744783355E+02  0.31808947507E+02  0.47787268698E+02  0.19999989301E+02 0.  0.
         12    1    1    2    0    0  0.12511230929E+02 -0.26744783355E+02 -0.31808947507E+02  0.43400731302E+02  0.00000000000E+00 0. -1.
         11    1    3    3    0    0 -0.13391718810E+02  0.22848428450E+02  0.20220789378E+02  0.33320701353E+02  0.51100000000E-03 0. -1.
        -11    1    3    3    0    0 -0.12305264520E+01  0.32223873863E+01  0.11748875820E+02  0.12244756392E+02  0.51100000000E-03 0.  1.
         12    1    3    3    0    0  0.21110143333E+01  0.67396751788E+00 -0.16071769071E+00  0.22218109520E+01  0.00000000000E+00 0. -1.
</event>
<event>
 7    1  0.2412036E-009  0.4778727E+02  0.7816164E-02  0.1312668E+00
        -11   -1    0    0    0    0  0.00000000000E+00  0.00000000000E+00  0.45593999997E+02  0.45594000000E+02  0.51100000000E-03 0.  1.
         11   -1    0    0    0    0 -0.00000000000E+00 -0.00000000000E+00 -0.45593999997E+02  0.45594000000E+02  0.51100000000E-03 0. -1.
    9900012    2    1    2    0    0 -0.55951698932E+01 -0.30099331636E+02  0.30762765710E+02  0.47787269070E+02  0.19999991000E+02 0.  0.
         12    1    1    2    0    0  0.55951698932E+01  0.30099331636E+02 -0.30762765710E+02  0.43400730930E+02  0.00000000000E+00 0. -1.
         11    1    3    3    0    0 -0.42340593862E+01 -0.84428163309E+01  0.55324025351E+01  0.10946044242E+02  0.51100000000E-03 0. -1.
        -11    1    3    3    0    0 -0.60655219977E+01 -0.11166926632E+02  0.21088894314E+02  0.24621784484E+02  0.51100000000E-03 0.  1.
        -12    1    3    3    0    0  0.47044114906E+01 -0.10489588673E+02  0.41414688609E+01  0.12219440344E+02  0.00000000000E+00 0.  1.
</event>
<event>
 7    1  0.2412036E-009  0.4778727E+02  0.7816164E-02  0.1312668E+00
        -11   -1    0    0    0    0  0.00000000000E+00  0.00000000000E+00  0.45593999997E+02  0.45594000000E+02  0.51100000000E-03 0.  1.
         11   -1    0    0    0    0 -0.00000000000E+00 -0.00000000000E+00 -0.45593999997E+02  0.45594000000E+02  0.51100000000E-03 0. -1.
    9900012    2    1    2    0    0  0.31812194232E+02 -0.15821130453E+02  0.24925880132E+02  0.47787269925E+02  0.19999994897E+02 0.  0.
         12    1    1    2    0    0 -0.31812194232E+02  0.15821130453E+02 -0.24925880132E+02  0.43400730075E+02  0.00000000000E+00 0. -1.
         11    1    3    3    0    0  0.12604667411E+02 -0.57231826411E+00  0.28284226368E+01  0.12930783565E+02  0.51100000000E-03 0. -1.
        -11    1    3    3    0    0  0.78616369570E+01 -0.12622351467E+02  0.15464404054E+02  0.21454064538E+02  0.51100000000E-03 0.  1.
        -12    1    3    3    0    0  0.11345889864E+02 -0.26264607215E+01  0.66330534407E+01  0.13402421822E+02  0.00000000000E+00 0.  1.
</event>
<event>
 7    1  0.2412036E-009  0.4778727E+02  0.7816164E-02  0.1312668E+00
        -11   -1    0    0    0    0  0.00000000000E+00  0.00000000000E+00  0.45593999997E+02  0.45594000000E+02  0.51100000000E-03 0.  1.
         11   -1    0    0    0    0 -0.00000000000E+00 -0.00000000000E+00 -0.45593999997E+02  0.45594000000E+02  0.51100000000E-03 0. -1.
    9900012    2    1    2    0    0 -0.29892020056E+02 -0.26782878715E+02  0.16515682545E+02  0.47787271605E+02  0.20000002558E+02 0.  0.
         12    1    1    2    0    0  0.29892020056E+02  0.26782878715E+02 -0.16515682545E+02  0.43400728395E+02  0.00000000000E+00 0. -1.
         11    1    3    3    0    0 -0.60175907160E+00 -0.16449348595E+01  0.39791699902E+01  0.43476106938E+01  0.51100000000E-03 0. -1.
        -11    1    3    3    0    0 -0.25354652509E+02 -0.18000315651E+02  0.15529452812E+02  0.34756778796E+02  0.51100000000E-03 0.  1.
        -12    1    3    3    0    0 -0.39356084752E+01 -0.71376282040E+01 -0.29929402572E+01  0.86828821155E+01  0.00000000000E+00 0.  1.
</event>
<event>
 7    1  0.2412036E-009  0.4778727E+02  0.7816164E-02  0.1312668E+00
        -11   -1    0    0    0    0  0.00000000000E+00  0.00000000000E+00  0.45593999997E+02  0.45594000000E+02  0.51100000000E-03 0.  1.
         11   -1    0    0    0    0 -0.00000000000E+00 -0.00000000000E+00 -0.45593999997E+02  0.45594000000E+02  0.51100000000E-03 0. -1.
    9900012    2    1    2    0    0  0.29134396925E+02 -0.22605728162E+02  0.22886492238E+02  0.47787267784E+02  0.19999985135E+02 0.  0.
         12    1    1    2    0    0 -0.29134396925E+02  0.22605728162E+02 -0.22886492238E+02  0.43400732216E+02  0.00000000000E+00 0. -1.
         11    1    3    3    0    0  0.10384962137E+02 -0.16201996337E+02  0.17638309334E+02  0.26104828678E+02  0.51100000000E-03 0. -1.
        -11    1    3    3    0    0  0.17350422061E+02 -0.71835986544E+01  0.62520497792E+01  0.19792154052E+02  0.51100000000E-03 0.  1.
         12    1    3    3    0    0  0.13990127274E+01  0.77986682949E+00 -0.10038668752E+01  0.18902850543E+01  0.00000000000E+00 0. -1.
</event>
<event>
 7    1  0.2412036E-009  0.4778727E+02  0.7816164E-02  0.1312668E+00
        -11   -1    0    0    0    0  0.00000000000E+00  0.00000000000E+00  0.45593999997E+02  0.45594000000E+02  0.51100000000E-03 0. -1.
         11   -1    0    0    0    0 -0.00000000000E+00 -0.00000000000E+00 -0.45593999997E+02  0.45594000000E+02  0.51100000000E-03 0.  1.
    9900012    2    1    2    0    0 -0.17023728562E+02 -0.28215753131E+02  0.28243356075E+02  0.47787271650E+02  0.20000002762E+02 0.  0.
         12    1    1    2    0    0  0.17023728562E+02  0.28215753131E+02 -0.28243356075E+02  0.43400728350E+02  0.00000000000E+00 0. -1.
         11    1    3    3    0    0 -0.19813353286E+01 -0.30911673841E+01 -0.30248345750E+01  0.47571661678E+01  0.51100000000E-03 0. -1.
        -11    1    3    3    0    0 -0.46455171097E+01 -0.11641571797E+02  0.13461186112E+02  0.18393220352E+02  0.51100000000E-03 0.  1.
         12    1    3    3    0    0 -0.10396876124E+02 -0.13483013950E+02  0.17807004538E+02  0.24636885130E+02  0.00000000000E+00 0. -1.
</event>
<event>
 7    1  0.2412036E-009  0.4778727E+02  0.7816164E-02  0.1312668E+00
        -11   -1    0    0    0    0  0.00000000000E+00  0.00000000000E+00  0.45593999997E+02  0.45594000000E+02  0.51100000000E-03 0. -1.
         11   -1    0    0    0    0 -0.00000000000E+00 -0.00000000000E+00 -0.45593999997E+02  0.45594000000E+02  0.51100000000E-03 0.  1.
    9900012    2    1    2    0    0  0.37201779426E+02 -0.79030566139E+01 -0.20909154952E+02  0.47787268934E+02  0.19999990376E+02 0.  0.
         12    1    1    2    0    0 -0.37201779426E+02  0.79030566139E+01  0.20909154952E+02  0.43400731066E+02  0.00000000000E+00 0. -1.
         11    1    3    3    0    0  0.23349519446E+01 -0.19094088246E+01 -0.20524923484E+01  0.36483650783E+01  0.51100000000E-03 0. -1.
        -11    1    3    3    0    0  0.31429406936E+02 -0.10203943042E+02 -0.19943150956E+02  0.38596079390E+02  0.51100000000E-03 0.  1.
        -12    1    3    3    0    0  0.34374205454E+01  0.42102952523E+01  0.10864883526E+01  0.55428244657E+01  0.00000000000E+00 0.  1.
</event>
<event>
 7    1  0.2412036E-009  0.4778727E+02  0.7816164E-02  0.1312668E+00
        -11   -1    0    0    0    0  0.00000000000E+00  0.00000000000E+00  0.45593999997E+02  0.45594000000E+02  0.51100000000E-03 0. -1.
         11   -1    0    0    0    0 -0.00000000000E+00 -0.00000000000E+00 -0.45593999997E+02  0.45594000000E+02  0.51100000000E-03 0.  1.
    9900012    2    1    2    0    0 -0.34074139939E+02  0.14651512345E+02 -0.22536851150E+02  0.47787268597E+02  0.19999988839E+02 0.  0.
         12    1    1    2    0    0  0.34074139939E+02 -0.14651512345E+02  0.22536851150E+02  0.43400731403E+02  0.00000000000E+00 0. -1.
         11    1    3    3    0    0 -0.27649302536E+02  0.12688409580E+02 -0.19097987437E+02  0.35919532191E+02  0.51100000000E-03 0.  1.
        -11    1    3    3    0    0 -0.51789560226E+01  0.35936724091E+01 -0.59201826679E+01  0.86478107027E+01  0.51100000000E-03 0. -1.
         12    1    3    3    0    0 -0.12458813799E+01 -0.16305696435E+01  0.24813189549E+01  0.32199257027E+01  0.00000000000E+00 0. -1.
</event>
<event>
 7    1  0.2412036E-009  0.4778731E+02  0.7816164E-02  0.1312668E+00
        -11   -1    0    0    0    0  0.00000000000E+00  0.00000000000E+00  0.45593999997E+02  0.45594000000E+02  0.51100000000E-03 0.  1.
         11   -1    0    0    0    0 -0.00000000000E+00 -0.00000000000E+00 -0.45593999997E+02  0.45594000000E+02  0.51100000000E-03 0. -1.
    9900012    2    1    2    0    0 -0.50221063908E+01 -0.21107655335E+01  0.43057441016E+02  0.47787307487E+02  0.20000166157E+02 0.  0.
         12    1    1    2    0    0  0.50221063908E+01  0.21107655335E+01 -0.43057441016E+02  0.43400692513E+02  0.00000000000E+00 0. -1.
         11    1    3    3    0    0 -0.11769511837E+02 -0.79443164973E+00  0.24412235742E+02  0.27112908083E+02  0.51100000000E-03 0.  1.
        -11    1    3    3    0    0  0.30607909265E+01 -0.34400319962E+01  0.83651006665E+01  0.95486737641E+01  0.51100000000E-03 0. -1.
        -12    1    3    3    0    0  0.36866145194E+01  0.21236981124E+01  0.10280104607E+02  0.11125725640E+02  0.00000000000E+00 0.  1.
</event>
<event>
 7    1  0.2412036E-009  0.4778726E+02  0.7816164E-02  0.1312668E+00
        -11   -1    0    0    0    0  0.00000000000E+00  0.00000000000E+00  0.45593999997E+02  0.45594000000E+02  0.51100000000E-03 0.  1.
         11   -1    0    0    0    0 -0.00000000000E+00 -0.00000000000E+00 -0.45593999997E+02  0.45594000000E+02  0.51100000000E-03 0. -1.
    9900012    2    1    2    0    0 -0.36534417961E+02 -0.19149175266E+02  0.13497014331E+02  0.47787262622E+02  0.19999961599E+02 0.  0.
         12    1    1    2    0    0  0.36534417961E+02  0.19149175266E+02 -0.13497014331E+02  0.43400737378E+02  0.00000000000E+00 0. -1.
         11    1    3    3    0    0 -0.25221417396E+02 -0.70200922289E+01  0.17633499459E+01  0.26239493014E+02  0.51100000000E-03 0. -1.
        -11    1    3    3    0    0 -0.94020365494E+01 -0.85915248075E+01  0.12025573156E+02  0.17516477950E+02  0.51100000000E-03 0.  1.
        -12    1    3    3    0    0 -0.19109640157E+01 -0.35375582294E+01 -0.29190877138E+00  0.40312916573E+01  0.00000000000E+00 0.  1.
</event>
<event>
 7    1  0.2412036E-009  0.4778727E+02  0.7816164E-02  0.1312668E+00
        -11   -1    0    0    0    0  0.00000000000E+00  0.00000000000E+00  0.45593999997E+02  0.45594000000E+02  0.51100000000E-03 0. -1.
         11   -1    0    0    0    0 -0.00000000000E+00 -0.00000000000E+00 -0.45593999997E+02  0.45594000000E+02  0.51100000000E-03 0.  1.
    9900012    2    1    2    0    0  0.38757121499E+02  0.80848559785E+01 -0.17780445626E+02  0.47787267175E+02  0.19999982356E+02 0.  0.
         12    1    1    2    0    0 -0.38757121499E+02 -0.80848559785E+01  0.17780445626E+02  0.43400732825E+02  0.00000000000E+00 0. -1.
         11    1    3    3    0    0  0.16628634226E+01  0.28463938497E+01 -0.81883006683E+00  0.33966977565E+01  0.51100000000E-03 0. -1.
        -11    1    3    3    0    0  0.24914513914E+02  0.11368258107E+02 -0.11496815047E+02  0.29700960463E+02  0.51100000000E-03 0.  1.
        -12    1    3    3    0    0  0.12179744163E+02 -0.61297959780E+01 -0.54648005125E+01  0.14689608955E+02  0.00000000000E+00 0.  1.
</event>
<event>
 7    1  0.2412036E-009  0.4778727E+02  0.7816164E-02  0.1312668E+00
        -11   -1    0    0    0    0  0.00000000000E+00  0.00000000000E+00  0.45593999997E+02  0.45594000000E+02  0.51100000000E-03 0.  1.
         11   -1    0    0    0    0 -0.00000000000E+00 -0.00000000000E+00 -0.45593999997E+02  0.45594000000E+02  0.51100000000E-03 0. -1.
    9900012    2    1    2    0    0  0.16126033773E+02 -0.40255428981E+02 -0.17535431348E+01  0.47787269117E+02  0.19999991211E+02 0.  0.
         12    1    1    2    0    0 -0.16126033773E+02  0.40255428981E+02  0.17535431348E+01  0.43400730883E+02  0.00000000000E+00 0. -1.
         11    1    3    3    0    0  0.14326139254E+02 -0.24643517940E+02 -0.29055197299E+00  0.28506589819E+02  0.51100000000E-03 0. -1.
        -11    1    3    3    0    0  0.63564965609E+01 -0.71723855185E+01 -0.14281290000E+01  0.96895673410E+01  0.51100000000E-03 0.  1.
         12    1    3    3    0    0 -0.45566020415E+01 -0.84395255220E+01 -0.34862161831E-01  0.95911119569E+01  0.00000000000E+00 0. -1.
</event>
<event>
 7    1  0.2412036E-009  0.4778727E+02  0.7816164E-02  0.1312668E+00
        -11   -1    0    0    0    0  0.00000000000E+00  0.00000000000E+00  0.45593999997E+02  0.45594000000E+02  0.51100000000E-03 0.  1.
         11   -1    0    0    0    0 -0.00000000000E+00 -0.00000000000E+00 -0.45593999997E+02  0.45594000000E+02  0.51100000000E-03 0. -1.
    9900012    2    1    2    0    0 -0.42306363052E+02 -0.96841921876E+01 -0.10703867763E+00  0.47787269704E+02  0.19999993887E+02 0.  0.
         12    1    1    2    0    0  0.42306363052E+02  0.96841921876E+01  0.10703867763E+00  0.43400730296E+02  0.00000000000E+00 0. -1.
         11    1    3    3    0    0  0.81409981289E+00  0.22186246931E+01 -0.14435712744E+01  0.27692873306E+01  0.51100000000E-03 0. -1.
        -11    1    3    3    0    0 -0.29263182900E+02 -0.67622041769E+01 -0.10178599070E+01  0.30051577626E+02  0.51100000000E-03 0.  1.
         12    1    3    3    0    0 -0.13857279965E+02 -0.51406127038E+01  0.23543925038E+01  0.14966404747E+02  0.00000000000E+00 0. -1.
</event>
<event>
 7    1  0.2412036E-009  0.4778727E+02  0.7816164E-02  0.1312668E+00
        -11   -1    0    0    0    0  0.00000000000E+00  0.00000000000E+00  0.45593999997E+02  0.45594000000E+02  0.51100000000E-03 0.  1.
         11   -1    0    0    0    0 -0.00000000000E+00 -0.00000000000E+00 -0.45593999997E+02  0.45594000000E+02  0.51100000000E-03 0. -1.
    9900012    2    1    2    0    0 -0.24214597249E+02 -0.25362084731E+02  0.25574229541E+02  0.47787270992E+02  0.19999999761E+02 0.  0.
         12    1    1    2    0    0  0.24214597249E+02  0.25362084731E+02 -0.25574229541E+02  0.43400729008E+02  0.00000000000E+00 0. -1.
         11    1    3    3    0    0 -0.19781006373E+01  0.93299108465E+00 -0.17686189638E+01  0.28127153776E+01  0.51100000000E-03 0. -1.
        -11    1    3    3    0    0 -0.19642797518E+02 -0.17607852906E+02  0.22632291861E+02  0.34757684236E+02  0.51100000000E-03 0.  1.
        -12    1    3    3    0    0 -0.25936990930E+01 -0.86872229100E+01  0.47105566441E+01  0.10216871379E+02  0.00000000000E+00 0.  1.
</event>
<event>
 7    1  0.2412036E-009  0.4778727E+02  0.7816164E-02  0.1312668E+00
        -11   -1    0    0    0    0  0.00000000000E+00  0.00000000000E+00  0.45593999997E+02  0.45594000000E+02  0.51100000000E-03 0. -1.
         11   -1    0    0    0    0 -0.00000000000E+00 -0.00000000000E+00 -0.45593999997E+02  0.45594000000E+02  0.51100000000E-03 0.  1.
    9900012    2    1    2    0    0  0.34773251898E+02 -0.14067633255E+02 -0.21829931053E+02  0.47787271403E+02  0.20000001636E+02 0.  0.
         12    1    1    2    0    0 -0.34773251898E+02  0.14067633255E+02  0.21829931053E+02  0.43400728597E+02  0.00000000000E+00 0. -1.
         11    1    3    3    0    0  0.31359801573E+01 -0.13225644266E+00 -0.49810791822E+01  0.58875303306E+01  0.51100000000E-03 0. -1.
        -11    1    3    3    0    0  0.24839401261E+02 -0.39471623968E+01 -0.15954630689E+02  0.29784663615E+02  0.51100000000E-03 0.  1.
        -12    1    3    3    0    0  0.67978704796E+01 -0.99882144160E+01 -0.89422118109E+00  0.12115077457E+02  0.00000000000E+00 0.  1.
</event>
<event>
 7    1  0.2412036E-009  0.4778727E+02  0.7816164E-02  0.1312668E+00
        -11   -1    0    0    0    0  0.00000000000E+00  0.00000000000E+00  0.45593999997E+02  0.45594000000E+02  0.51100000000E-03 0.  1.
         11   -1    0    0    0    0 -0.00000000000E+00 -0.00000000000E+00 -0.45593999997E+02  0.45594000000E+02  0.51100000000E-03 0. -1.
    9900012    2    1    2    0    0  0.78139561466E+01 -0.31081468561E+02  0.29266155970E+02  0.47787268625E+02  0.19999988971E+02 0.  0.
         12    1    1    2    0    0 -0.78139561466E+01  0.31081468561E+02 -0.29266155970E+02  0.43400731375E+02  0.00000000000E+00 0. -1.
         11    1    3    3    0    0  0.50064178519E+01 -0.59267774924E+01 -0.75350351449E+00  0.77947853697E+01  0.51100000000E-03 0. -1.
        -11    1    3    3    0    0  0.39532457596E+01 -0.16574853545E+02  0.24061704238E+02  0.29484225158E+02  0.51100000000E-03 0.  1.
        -12    1    3    3    0    0 -0.11457074649E+01 -0.85798375236E+01  0.59579552463E+01  0.10508258097E+02  0.00000000000E+00 0.  1.
</event>
<event>
 7    1  0.2412036E-009  0.4778727E+02  0.7816164E-02  0.1312668E+00
        -11   -1    0    0    0    0  0.00000000000E+00  0.00000000000E+00  0.45593999997E+02  0.45594000000E+02  0.51100000000E-03 0. -1.
         11   -1    0    0    0    0 -0.00000000000E+00 -0.00000000000E+00 -0.45593999997E+02  0.45594000000E+02  0.51100000000E-03 0.  1.
    9900012    2    1    2    0    0  0.19303682948E+02 -0.37575404867E+01 -0.38689428617E+02  0.47787272211E+02  0.20000005321E+02 0.  0.
         12    1    1    2    0    0 -0.19303682948E+02  0.37575404867E+01  0.38689428617E+02  0.43400727789E+02  0.00000000000E+00 0. -1.
         11    1    3    3    0    0  0.11830511207E+01 -0.75448357264E+01 -0.14246922649E+02  0.16164744394E+02  0.51100000000E-03 0. -1.
        -11    1    3    3    0    0  0.15766126102E+02  0.33029142584E+01 -0.24376214889E+02  0.29217799839E+02  0.51100000000E-03 0.  1.
         12    1    3    3    0    0  0.23545057249E+01  0.48438098133E+00 -0.66291079415E-01  0.24047279786E+01  0.00000000000E+00 0. -1.
</event>
<event>
 7    1  0.2412036E-009  0.4778727E+02  0.7816164E-02  0.1312668E+00
        -11   -1    0    0    0    0  0.00000000000E+00  0.00000000000E+00  0.45593999997E+02  0.45594000000E+02  0.51100000000E-03 0. -1.
         11   -1    0    0    0    0 -0.00000000000E+00 -0.00000000000E+00 -0.45593999997E+02  0.45594000000E+02  0.51100000000E-03 0.  1.
    9900012    2    1    2    0    0 -0.80619027084E+01 -0.40053128930E+02 -0.14641579656E+02  0.47787271121E+02  0.20000000350E+02 0.  0.
         12    1    1    2    0    0  0.80619027084E+01  0.40053128930E+02  0.14641579656E+02  0.43400728879E+02  0.00000000000E+00 0. -1.
         11    1    3    3    0    0 -0.31955718725E+01 -0.54991058916E+00 -0.45529942849E+01  0.55896188124E+01  0.51100000000E-03 0. -1.
        -11    1    3    3    0    0 -0.34409933912E+01 -0.34014021689E+01 -0.14176053453E+01  0.50417831577E+01  0.51100000000E-03 0.  1.
         12    1    3    3    0    0 -0.14253374447E+01 -0.36101816172E+02 -0.86709800261E+01  0.37155869151E+02  0.00000000000E+00 0. -1.
</event>
<event>
 7    1  0.2412036E-009  0.4778727E+02  0.7816164E-02  0.1312668E+00
        -11   -1    0    0    0    0  0.00000000000E+00  0.00000000000E+00  0.45593999997E+02  0.45594000000E+02  0.51100000000E-03 0.  1.
         11   -1    0    0    0    0 -0.00000000000E+00 -0.00000000000E+00 -0.45593999997E+02  0.45594000000E+02  0.51100000000E-03 0. -1.
    9900012    2    1    2    0    0 -0.81333413756E+01  0.42416566563E+02  0.42786447247E+01  0.47787272338E+02  0.20000005898E+02 0.  0.
         12    1    1    2    0    0  0.81333413756E+01 -0.42416566563E+02 -0.42786447247E+01  0.43400727662E+02  0.00000000000E+00 0. -1.
         11    1    3    3    0    0  0.34055204979E+01  0.12335519465E+02  0.67700448344E+01  0.14477434775E+02  0.51100000000E-03 0. -1.
        -11    1    3    3    0    0 -0.99241817444E+01  0.29969221597E+02 -0.20706574648E+01  0.31637497516E+02  0.51100000000E-03 0.  1.
        -12    1    3    3    0    0 -0.16146801291E+01  0.11182550031E+00 -0.42074264491E+00  0.16723400477E+01  0.00000000000E+00 0.  1.
</event>
<event>
 7    1  0.2412036E-009  0.4778727E+02  0.7816164E-02  0.1312668E+00
        -11   -1    0    0    0    0  0.00000000000E+00  0.00000000000E+00  0.45593999997E+02  0.45594000000E+02  0.51100000000E-03 0. -1.
         11   -1    0    0    0    0 -0.00000000000E+00 -0.00000000000E+00 -0.45593999997E+02  0.45594000000E+02  0.51100000000E-03 0.  1.
    9900012    2    1    2    0    0 -0.29400155046E+02  0.31246554127E+02 -0.65503479945E+01  0.47787270509E+02  0.19999997559E+02 0.  0.
         12    1    1    2    0    0  0.29400155046E+02 -0.31246554127E+02  0.65503479945E+01  0.43400729491E+02  0.00000000000E+00 0. -1.
         11    1    3    3    0    0 -0.11161042248E+02  0.18241045691E+02 -0.10150437799E+02  0.23671417358E+02  0.51100000000E-03 0. -1.
        -11    1    3    3    0    0 -0.94403619769E+01  0.65971761817E+01 -0.22852375437E+01  0.11741613123E+02  0.51100000000E-03 0.  1.
         12    1    3    3    0    0 -0.87987508207E+01  0.64083322538E+01  0.58853273484E+01  0.12374240028E+02  0.00000000000E+00 0. -1.
</event>
<event>
 7    1  0.2412036E-009  0.4778727E+02  0.7816164E-02  0.1312668E+00
        -11   -1    0    0    0    0  0.00000000000E+00  0.00000000000E+00  0.45593999997E+02  0.45594000000E+02  0.51100000000E-03 0. -1.
         11   -1    0    0    0    0 -0.00000000000E+00 -0.00000000000E+00 -0.45593999997E+02  0.45594000000E+02  0.51100000000E-03 0.  1.
    9900012    2    1    2    0    0 -0.21293055790E+02 -0.34772470218E+02 -0.14869582337E+02  0.47787269720E+02  0.19999993961E+02 0.  0.
         12    1    1    2    0    0  0.21293055790E+02  0.34772470218E+02  0.14869582337E+02  0.43400730280E+02  0.00000000000E+00 0. -1.
         11    1    3    3    0    0  0.57592804299E+00 -0.82384192389E+01 -0.29548406405E+01  0.87712215875E+01  0.51100000000E-03 0. -1.
        -11    1    3    3    0    0 -0.18374052097E+02 -0.15243942203E+02 -0.26937993678E+01  0.24025821935E+02  0.51100000000E-03 0.  1.
        -12    1    3    3    0    0 -0.34949317366E+01 -0.11290108776E+02 -0.92209423289E+01  0.14990226198E+02  0.00000000000E+00 0.  1.
</event>
<event>
 7    1  0.2412036E-009  0.4778726E+02  0.7816164E-02  0.1312668E+00
        -11   -1    0    0    0    0  0.00000000000E+00  0.00000000000E+00  0.45593999997E+02  0.45594000000E+02  0.51100000000E-03 0.  1.
         11   -1    0    0    0    0 -0.00000000000E+00 -0.00000000000E+00 -0.45593999997E+02  0.45594000000E+02  0.51100000000E-03 0. -1.
    9900012    2    1    2    0    0 -0.20186964127E+02 -0.20696623519E+02  0.32369124270E+02  0.47787263235E+02  0.19999964394E+02 0.  0.
         12    1    1    2    0    0  0.20186964127E+02  0.20696623519E+02 -0.32369124270E+02  0.43400736765E+02  0.00000000000E+00 0. -1.
         11    1    3    3    0    0 -0.12582744922E+02 -0.17603159816E+02  0.12637011530E+02  0.25057748621E+02  0.51100000000E-03 0.  1.
        -11    1    3    3    0    0 -0.36123571679E+01  0.24572931172E+01  0.90036327042E+01  0.10007637878E+02  0.51100000000E-03 0. -1.
        -12    1    3    3    0    0 -0.39918620375E+01 -0.55507568195E+01  0.10728480036E+02  0.12721876736E+02  0.00000000000E+00 0.  1.
</event>
<event>
 7    1  0.2412036E-009  0.4778727E+02  0.7816164E-02  0.1312668E+00
        -11   -1    0    0    0    0  0.00000000000E+00  0.00000000000E+00  0.45593999997E+02  0.45594000000E+02  0.51100000000E-03 0.  1.
         11   -1    0    0    0    0 -0.00000000000E+00 -0.00000000000E+00 -0.45593999997E+02  0.45594000000E+02  0.51100000000E-03 0. -1.
    9900012    2    1    2    0    0  0.13983858349E+02  0.21016162070E+01  0.41032402958E+02  0.47787272155E+02  0.20000005062E+02 0.  0.
         12    1    1    2    0    0 -0.13983858349E+02 -0.21016162070E+01 -0.41032402958E+02  0.43400727845E+02  0.00000000000E+00 0. -1.
         11    1    3    3    0    0  0.20316599658E+01 -0.42861299468E+01  0.26858904832E+01  0.54509228656E+01  0.51100000000E-03 0. -1.
        -11    1    3    3    0    0  0.14130730495E+02  0.45366530459E+01  0.29226208196E+02  0.32778499217E+02  0.51100000000E-03 0.  1.
         12    1    3    3    0    0 -0.21785321117E+01  0.18510931078E+01  0.91203042790E+01  0.95578500719E+01  0.00000000000E+00 0. -1.
</event>
<event>
 7    1  0.2412036E-009  0.4778727E+02  0.7816164E-02  0.1312668E+00
        -11   -1    0    0    0    0  0.00000000000E+00  0.00000000000E+00  0.45593999997E+02  0.45594000000E+02  0.51100000000E-03 0.  1.
         11   -1    0    0    0    0 -0.00000000000E+00 -0.00000000000E+00 -0.45593999997E+02  0.45594000000E+02  0.51100000000E-03 0. -1.
    9900012    2    1    2    0    0 -0.45246636637E+01 -0.42587467410E+02  0.70326547022E+01  0.47787271967E+02  0.20000004205E+02 0.  0.
         12    1    1    2    0    0  0.45246636637E+01  0.42587467410E+02 -0.70326547022E+01  0.43400728033E+02  0.00000000000E+00 0. -1.
         11    1    3    3    0    0 -0.10517898278E+02 -0.22158226091E+02  0.36814646993E+01  0.24802547254E+02  0.51100000000E-03 0. -1.
        -11    1    3    3    0    0  0.31252056940E+01 -0.18960429860E+02  0.15147265886E+01  0.19275871135E+02  0.51100000000E-03 0.  1.
         12    1    3    3    0    0  0.28680289205E+01 -0.14688114586E+01  0.18364634144E+01  0.37088535778E+01  0.00000000000E+00 0. -1.
</event>
<event>
 7    1  0.2412036E-009  0.4778727E+02  0.7816164E-02  0.1312668E+00
        -11   -1    0    0    0    0  0.00000000000E+00  0.00000000000E+00  0.45593999997E+02  0.45594000000E+02  0.51100000000E-03 0.  1.
         11   -1    0    0    0    0 -0.00000000000E+00 -0.00000000000E+00 -0.45593999997E+02  0.45594000000E+02  0.51100000000E-03 0. -1.
    9900012    2    1    2    0    0 -0.34811789170E+02 -0.23641835640E+02  0.10621977749E+02  0.47787268797E+02  0.19999989752E+02 0.  0.
         12    1    1    2    0    0  0.34811789170E+02  0.23641835640E+02 -0.10621977749E+02  0.43400731203E+02  0.00000000000E+00 0. -1.
         11    1    3    3    0    0  0.13037624270E+00 -0.93561841429E+00  0.11257189555E+01  0.14695656534E+01  0.51100000000E-03 0. -1.
        -11    1    3    3    0    0 -0.83451386214E+01 -0.81079906905E+00 -0.40357817729E+01  0.93051742874E+01  0.51100000000E-03 0.  1.
        -12    1    3    3    0    0 -0.26597026792E+02 -0.21895418156E+02  0.13532040567E+02  0.37012528856E+02  0.00000000000E+00 0.  1.
</event>
<event>
 7    1  0.2412036E-009  0.4778727E+02  0.7816164E-02  0.1312668E+00
        -11   -1    0    0    0    0  0.00000000000E+00  0.00000000000E+00  0.45593999997E+02  0.45594000000E+02  0.51100000000E-03 0. -1.
         11   -1    0    0    0    0 -0.00000000000E+00 -0.00000000000E+00 -0.45593999997E+02  0.45594000000E+02  0.51100000000E-03 0.  1.
    9900012    2    1    2    0    0 -0.61285438588E+01  0.41492610931E+02 -0.11154720084E+02  0.47787267381E+02  0.19999983296E+02 0.  0.
         12    1    1    2    0    0  0.61285438588E+01 -0.41492610931E+02  0.11154720084E+02  0.43400732619E+02  0.00000000000E+00 0. -1.
         11    1    3    3    0    0 -0.67790636673E+01  0.73753399745E+01 -0.87984460330E+01  0.13332816537E+02  0.51100000000E-03 0. -1.
        -11    1    3    3    0    0 -0.35469298542E+00  0.26566963573E+02 -0.33233728723E+01  0.26776373319E+02  0.51100000000E-03 0.  1.
         12    1    3    3    0    0  0.10052127939E+01  0.75503073841E+01  0.96709882144E+00  0.76780775254E+01  0.00000000000E+00 0. -1.
</event>
<event>
 7    1  0.2412036E-009  0.4778727E+02  0.7816164E-02  0.1312668E+00
        -11   -1    0    0    0    0  0.00000000000E+00  0.00000000000E+00  0.45593999997E+02  0.45594000000E+02  0.51100000000E-03 0.  1.
         11   -1    0    0    0    0 -0.00000000000E+00 -0.00000000000E+00 -0.45593999997E+02  0.45594000000E+02  0.51100000000E-03 0. -1.
    9900012    2    1    2    0    0  0.84800401783E+00  0.36901334670E+02  0.22829709226E+02  0.47787271497E+02  0.20000002062E+02 0.  0.
         12    1    1    2    0    0 -0.84800401783E+00 -0.36901334670E+02 -0.22829709226E+02  0.43400728503E+02  0.00000000000E+00 0. -1.
         11    1    3    3    0    0  0.69596359046E+01  0.69670047202E+01  0.58994113018E+01  0.11479492178E+02  0.51100000000E-03 0. -1.
        -11    1    3    3    0    0 -0.79619404457E+01  0.15200667563E+02  0.10568004635E+02  0.20152804079E+02  0.51100000000E-03 0.  1.
        -12    1    3    3    0    0  0.18503085589E+01  0.14733662387E+02  0.63622932899E+01  0.16154975240E+02  0.00000000000E+00 0.  1.
</event>
<event>
 7    1  0.2412036E-009  0.4778727E+02  0.7816164E-02  0.1312668E+00
        -11   -1    0    0    0    0  0.00000000000E+00  0.00000000000E+00  0.45593999997E+02  0.45594000000E+02  0.51100000000E-03 0.  1.
         11   -1    0    0    0    0 -0.00000000000E+00 -0.00000000000E+00 -0.45593999997E+02  0.45594000000E+02  0.51100000000E-03 0. -1.
    9900012    2    1    2    0    0 -0.30707717601E+02 -0.27430348786E+02  0.13719895481E+02  0.47787268592E+02  0.19999988817E+02 0.  0.
         12    1    1    2    0    0  0.30707717601E+02  0.27430348786E+02 -0.13719895481E+02  0.43400731408E+02  0.00000000000E+00 0. -1.
         11    1    3    3    0    0 -0.12007765520E+02 -0.15389892170E+02  0.13465049453E+02  0.23713767537E+02  0.51100000000E-03 0. -1.
        -11    1    3    3    0    0 -0.32646135197E+01 -0.15556889363E+01  0.36155249973E+01  0.51136963898E+01  0.51100000000E-03 0.  1.
         12    1    3    3    0    0 -0.15435338561E+02 -0.10484767680E+02 -0.33606789691E+01  0.18959804665E+02  0.00000000000E+00 0. -1.
</event>
<event>
 7    1  0.2412036E-009  0.4778726E+02  0.7816164E-02  0.1312668E+00
        -11   -1    0    0    0    0  0.00000000000E+00  0.00000000000E+00  0.45593999997E+02  0.45594000000E+02  0.51100000000E-03 0.  1.
         11   -1    0    0    0    0 -0.00000000000E+00 -0.00000000000E+00 -0.45593999997E+02  0.45594000000E+02  0.51100000000E-03 0. -1.
    9900012    2    1    2    0    0 -0.27286849189E+02 -0.31888539178E+02 -0.11053206977E+02  0.47787257448E+02  0.19999938007E+02 0.  0.
         12    1    1    2    0    0  0.27286849189E+02  0.31888539178E+02  0.11053206977E+02  0.43400742552E+02  0.00000000000E+00 0. -1.
         11    1    3    3    0    0 -0.25699484330E+01 -0.87580761426E+00 -0.77701046708E+00  0.28240785139E+01  0.51100000000E-03 0. -1.
        -11    1    3    3    0    0 -0.20458483150E+02 -0.10990603723E+02 -0.41099094716E+01  0.23584619122E+02  0.51100000000E-03 0.  1.
        -12    1    3    3    0    0 -0.42584176062E+01 -0.20022127841E+02 -0.61662870383E+01  0.21378559812E+02  0.00000000000E+00 0.  1.
</event>
<event>
 7    1  0.2412036E-009  0.4778727E+02  0.7816164E-02  0.1312668E+00
        -11   -1    0    0    0    0  0.00000000000E+00  0.00000000000E+00  0.45593999997E+02  0.45594000000E+02  0.51100000000E-03 0. -1.
         11   -1    0    0    0    0 -0.00000000000E+00 -0.00000000000E+00 -0.45593999997E+02  0.45594000000E+02  0.51100000000E-03 0.  1.
    9900012    2    1    2    0    0 -0.14501181523E+02  0.26499962379E+02 -0.31162333007E+02  0.47787271089E+02  0.20000000201E+02 0.  0.
         12    1    1    2    0    0  0.14501181523E+02 -0.26499962379E+02  0.31162333007E+02  0.43400728911E+02  0.00000000000E+00 0. -1.
         11    1    3    3    0    0 -0.18447577948E+02  0.22883737842E+02 -0.21337835035E+02  0.36321918919E+02  0.51100000000E-03 0. -1.
        -11    1    3    3    0    0  0.38484896227E+01  0.38443253273E+01 -0.98093786248E+01  0.11216667012E+02  0.51100000000E-03 0.  1.
         12    1    3    3    0    0  0.97906802479E-01 -0.22810079043E+00 -0.15119347016E-01  0.24868515682E+00  0.00000000000E+00 0. -1.
</event>
<event>
 7    1  0.2412036E-009  0.4778729E+02  0.7816164E-02  0.1312668E+00
        -11   -1    0    0    0    0  0.00000000000E+00  0.00000000000E+00  0.45593999997E+02  0.45594000000E+02  0.51100000000E-03 0. -1.
         11   -1    0    0    0    0 -0.00000000000E+00 -0.00000000000E+00 -0.45593999997E+02  0.45594000000E+02  0.51100000000E-03 0.  1.
    9900012    2    1    2    0    0  0.25336228479E+02  0.63128114266E+01  0.34667639764E+02  0.47787293687E+02  0.20000103237E+02 0.  0.
         12    1    1    2    0    0 -0.25336228479E+02 -0.63128114266E+01 -0.34667639764E+02  0.43400706313E+02  0.00000000000E+00 0. -1.
         11    1    3    3    0    0 -0.10854619935E+01 -0.19853006253E+01  0.22193852913E+01  0.31694349093E+01  0.51100000000E-03 0. -1.
        -11    1    3    3    0    0  0.69706865773E+01 -0.35490007307E+01  0.74842318272E+01  0.10825876586E+02  0.51100000000E-03 0.  1.
        -12    1    3    3    0    0  0.19451003895E+02  0.11847112783E+02  0.24964022646E+02  0.33791982192E+02  0.00000000000E+00 0.  1.
</event>
<event>
 7    1  0.2412036E-009  0.4778727E+02  0.7816164E-02  0.1312668E+00
        -11   -1    0    0    0    0  0.00000000000E+00  0.00000000000E+00  0.45593999997E+02  0.45594000000E+02  0.51100000000E-03 0.  1.
         11   -1    0    0    0    0 -0.00000000000E+00 -0.00000000000E+00 -0.45593999997E+02  0.45594000000E+02  0.51100000000E-03 0. -1.
    9900012    2    1    2    0    0  0.33509494892E+02  0.58987263824E+01  0.26943311058E+02  0.47787271531E+02  0.20000002218E+02 0.  0.
         12    1    1    2    0    0 -0.33509494892E+02 -0.58987263824E+01 -0.26943311058E+02  0.43400728469E+02  0.00000000000E+00 0. -1.
         11    1    3    3    0    0 -0.22070672675E+01  0.18789201108E+01  0.12390303319E+01  0.31522504867E+01  0.51100000000E-03 0. -1.
        -11    1    3    3    0    0  0.31855595174E+02  0.18301113722E+01  0.23792442345E+02  0.39802117588E+02  0.51100000000E-03 0.  1.
         12    1    3    3    0    0  0.38609669862E+01  0.21896948993E+01  0.19118383813E+01  0.48329034563E+01  0.00000000000E+00 0. -1.
</event>
<event>
 7    1  0.2412036E-009  0.4778727E+02  0.7816164E-02  0.1312668E+00
        -11   -1    0    0    0    0  0.00000000000E+00  0.00000000000E+00  0.45593999997E+02  0.45594000000E+02  0.51100000000E-03 0.  1.
         11   -1    0    0    0    0 -0.00000000000E+00 -0.00000000000E+00 -0.45593999997E+02  0.45594000000E+02  0.51100000000E-03 0. -1.
    9900012    2    1    2    0    0  0.19008066303E+02 -0.37135938473E+02  0.11968232531E+02  0.47787273038E+02  0.20000009091E+02 0.  0.
         12    1    1    2    0    0 -0.19008066303E+02  0.37135938473E+02 -0.11968232531E+02  0.43400726962E+02  0.00000000000E+00 0. -1.
         11    1    3    3    0    0 -0.18170413534E+01 -0.40288229719E+01  0.32142681846E+01  0.54648489497E+01  0.51100000000E-03 0. -1.
        -11    1    3    3    0    0  0.17255122346E+02 -0.22796034115E+02  0.11897693543E+02  0.30966974835E+02  0.51100000000E-03 0.  1.
        -12    1    3    3    0    0  0.35699853110E+01 -0.10311081387E+02 -0.31437291969E+01  0.11355449254E+02  0.00000000000E+00 0.  1.
</event>
<event>
 7    1  0.2412036E-009  0.4778727E+02  0.7816164E-02  0.1312668E+00
        -11   -1    0    0    0    0  0.00000000000E+00  0.00000000000E+00  0.45593999997E+02  0.45594000000E+02  0.51100000000E-03 0.  1.
         11   -1    0    0    0    0 -0.00000000000E+00 -0.00000000000E+00 -0.45593999997E+02  0.45594000000E+02  0.51100000000E-03 0. -1.
    9900012    2    1    2    0    0 -0.18512318315E+02 -0.27833760572E+02  0.27680308186E+02  0.47787267077E+02  0.19999981910E+02 0.  0.
         12    1    1    2    0    0  0.18512318315E+02  0.27833760572E+02 -0.27680308186E+02  0.43400732923E+02  0.00000000000E+00 0. -1.
         11    1    3    3    0    0 -0.10711636694E+02 -0.38781635815E+01  0.13513434091E+02  0.17674620636E+02  0.51100000000E-03 0. -1.
        -11    1    3    3    0    0 -0.57206016254E+01 -0.16349762962E+02  0.50163094906E+01  0.18033396603E+02  0.51100000000E-03 0.  1.
        -12    1    3    3    0    0 -0.20800799955E+01 -0.76058340287E+01  0.91505646044E+01  0.12079249838E+02  0.00000000000E+00 0.  1.
</event>
<event>
 7    1  0.2412036E-009  0.4778727E+02  0.7816164E-02  0.1312668E+00
        -11   -1    0    0    0    0  0.00000000000E+00  0.00000000000E+00  0.45593999997E+02  0.45594000000E+02  0.51100000000E-03 0.  1.
         11   -1    0    0    0    0 -0.00000000000E+00 -0.00000000000E+00 -0.45593999997E+02  0.45594000000E+02  0.51100000000E-03 0. -1.
    9900012    2    1    2    0    0  0.29064485389E+02  0.24861812492E+02  0.20512665395E+02  0.47787268751E+02  0.19999989545E+02 0.  0.
         12    1    1    2    0    0 -0.29064485389E+02 -0.24861812492E+02 -0.20512665395E+02  0.43400731249E+02  0.00000000000E+00 0. -1.
         11    1    3    3    0    0  0.23265991281E+01  0.37486465490E+01  0.58349810535E+01  0.73152182885E+01  0.51100000000E-03 0. -1.
        -11    1    3    3    0    0  0.28830769497E+02  0.20880320097E+02  0.14099321226E+02  0.38288273615E+02  0.51100000000E-03 0.  1.
        -12    1    3    3    0    0 -0.20928832359E+01  0.23284584557E+00  0.57836311556E+00  0.21837768477E+01  0.00000000000E+00 0.  1.
</event>
<event>
 7    1  0.2412036E-009  0.4778727E+02  0.7816164E-02  0.1312668E+00
        -11   -1    0    0    0    0  0.00000000000E+00  0.00000000000E+00  0.45593999997E+02  0.45594000000E+02  0.51100000000E-03 0. -1.
         11   -1    0    0    0    0 -0.00000000000E+00 -0.00000000000E+00 -0.45593999997E+02  0.45594000000E+02  0.51100000000E-03 0.  1.
    9900012    2    1    2    0    0  0.16487654589E+02 -0.16080464072E+02 -0.36785855454E+02  0.47787271434E+02  0.20000001774E+02 0.  0.
         12    1    1    2    0    0 -0.16487654589E+02  0.16080464072E+02  0.36785855454E+02  0.43400728566E+02  0.00000000000E+00 0. -1.
         11    1    3    3    0    0  0.61908919506E+00 -0.19920751502E+01 -0.28750921360E+01  0.35521528524E+01  0.51100000000E-03 0. -1.
        -11    1    3    3    0    0 -0.35366725810E+01 -0.60848421161E+01 -0.11858226837E+02  0.13789521402E+02  0.51100000000E-03 0.  1.
        -12    1    3    3    0    0  0.19405237975E+02 -0.80035468055E+01 -0.22052536481E+02  0.30445597179E+02  0.00000000000E+00 0.  1.
</event>
<event>
 7    1  0.2412036E-009  0.4778728E+02  0.7816164E-02  0.1312668E+00
        -11   -1    0    0    0    0  0.00000000000E+00  0.00000000000E+00  0.45593999997E+02  0.45594000000E+02  0.51100000000E-03 0.  1.
         11   -1    0    0    0    0 -0.00000000000E+00 -0.00000000000E+00 -0.45593999997E+02  0.45594000000E+02  0.51100000000E-03 0. -1.
    9900012    2    1    2    0    0  0.21117203752E+01 -0.21714338998E+01  0.43294900453E+02  0.47787275428E+02  0.20000019985E+02 0.  0.
         12    1    1    2    0    0 -0.21117203752E+01  0.21714338998E+01 -0.43294900453E+02  0.43400724572E+02  0.00000000000E+00 0. -1.
         11    1    3    3    0    0  0.10280235417E+02  0.10464597953E+01  0.16416112247E+02  0.19397604489E+02  0.51100000000E-03 0. -1.
        -11    1    3    3    0    0 -0.38541957346E+01 -0.44109176422E+00  0.13970221644E+02  0.14498844083E+02  0.51100000000E-03 0.  1.
         12    1    3    3    0    0 -0.43143193070E+01 -0.27768019308E+01  0.12908566562E+02  0.13890826856E+02  0.00000000000E+00 0. -1.
</event>
<event>
 7    1  0.2412036E-009  0.4778727E+02  0.7816164E-02  0.1312668E+00
        -11   -1    0    0    0    0  0.00000000000E+00  0.00000000000E+00  0.45593999997E+02  0.45594000000E+02  0.51100000000E-03 0.  1.
         11   -1    0    0    0    0 -0.00000000000E+00 -0.00000000000E+00 -0.45593999997E+02  0.45594000000E+02  0.51100000000E-03 0. -1.
    9900012    2    1    2    0    0 -0.20725018517E+02 -0.26642032169E+02  0.27281844773E+02  0.47787270457E+02  0.19999997323E+02 0.  0.
         12    1    1    2    0    0  0.20725018517E+02  0.26642032169E+02 -0.27281844773E+02  0.43400729543E+02  0.00000000000E+00 0. -1.
         11    1    3    3    0    0 -0.12571798346E+02 -0.23032984479E+02  0.17298492271E+02  0.31429386293E+02  0.51100000000E-03 0. -1.
        -11    1    3    3    0    0 -0.41502748195E+01 -0.67059648826E+01  0.64032637799E+01  0.10158569455E+02  0.51100000000E-03 0.  1.
         12    1    3    3    0    0 -0.40029453522E+01  0.30969171934E+01  0.35800887226E+01  0.61993147087E+01  0.00000000000E+00 0. -1.
</event>
<event>
 7    1  0.2412036E-009  0.4778727E+02  0.7816164E-02  0.1312668E+00
        -11   -1    0    0    0    0  0.00000000000E+00  0.00000000000E+00  0.45593999997E+02  0.45594000000E+02  0.51100000000E-03 0.  1.
         11   -1    0    0    0    0 -0.00000000000E+00 -0.00000000000E+00 -0.45593999997E+02  0.45594000000E+02  0.51100000000E-03 0. -1.
    9900012    2    1    2    0    0 -0.20688719047E+02 -0.19287393553E+02  0.32918026943E+02  0.47787272544E+02  0.20000006839E+02 0.  0.
         12    1    1    2    0    0  0.20688719047E+02  0.19287393553E+02 -0.32918026943E+02  0.43400727456E+02  0.00000000000E+00 0. -1.
         11    1    3    3    0    0 -0.10571455628E+02 -0.23918297660E+01  0.25941094522E+01  0.11144771322E+02  0.51100000000E-03 0. -1.
        -11    1    3    3    0    0 -0.25449953334E+01 -0.81399925519E+01  0.16800905535E+02  0.18841626974E+02  0.51100000000E-03 0.  1.
        -12    1    3    3    0    0 -0.75722680860E+01 -0.87555712355E+01  0.13523011956E+02  0.17800874248E+02  0.00000000000E+00 0.  1.
</event>
<event>
 7    1  0.2412036E-009  0.4778727E+02  0.7816164E-02  0.1312668E+00
        -11   -1    0    0    0    0  0.00000000000E+00  0.00000000000E+00  0.45593999997E+02  0.45594000000E+02  0.51100000000E-03 0.  1.
         11   -1    0    0    0    0 -0.00000000000E+00 -0.00000000000E+00 -0.45593999997E+02  0.45594000000E+02  0.51100000000E-03 0. -1.
    9900012    2    1    2    0    0  0.29279084329E+02 -0.61809471963E+00  0.32030866229E+02  0.47787271762E+02  0.20000003270E+02 0.  0.
         12    1    1    2    0    0 -0.29279084329E+02  0.61809471963E+00 -0.32030866229E+02  0.43400728238E+02  0.00000000000E+00 0. -1.
         11    1    3    3    0    0  0.11494661474E+02  0.70637522768E+01  0.17785441965E+02  0.22323659753E+02  0.51100000000E-03 0. -1.
        -11    1    3    3    0    0  0.90356892918E+01 -0.75914030890E+01  0.10996689322E+02  0.16130724043E+02  0.51100000000E-03 0.  1.
        -12    1    3    3    0    0  0.87487335626E+01 -0.90443907420E-01  0.32487349422E+01  0.93328879654E+01  0.00000000000E+00 0.  1.
</event>
<event>
 7    1  0.2412036E-009  0.4778727E+02  0.7816164E-02  0.1312668E+00
        -11   -1    0    0    0    0  0.00000000000E+00  0.00000000000E+00  0.45593999997E+02  0.45594000000E+02  0.51100000000E-03 0. -1.
         11   -1    0    0    0    0 -0.00000000000E+00 -0.00000000000E+00 -0.45593999997E+02  0.45594000000E+02  0.51100000000E-03 0.  1.
    9900012    2    1    2    0    0 -0.37360797904E+02  0.22056726866E+02  0.11378794702E+01  0.47787272014E+02  0.20000004419E+02 0.  0.
         12    1    1    2    0    0  0.37360797904E+02 -0.22056726866E+02 -0.11378794702E+01  0.43400727986E+02  0.00000000000E+00 0. -1.
         11    1    3    3    0    0 -0.13888277660E+02  0.22318760714E+01  0.51368798696E+01  0.14975081376E+02  0.51100000000E-03 0. -1.
        -11    1    3    3    0    0 -0.17231229484E+02  0.18951210268E+02 -0.53182664020E+00  0.25619259942E+02  0.51100000000E-03 0.  1.
        -12    1    3    3    0    0 -0.62412907588E+01  0.87364052714E+00 -0.34671737592E+01  0.71929306950E+01  0.00000000000E+00 0.  1.
</event>
<event>
 7    1  0.2412036E-009  0.4778727E+02  0.7816164E-02  0.1312668E+00
        -11   -1    0    0    0    0  0.00000000000E+00  0.00000000000E+00  0.45593999997E+02  0.45594000000E+02  0.51100000000E-03 0.  1.
         11   -1    0    0    0    0 -0.00000000000E+00 -0.00000000000E+00 -0.45593999997E+02  0.45594000000E+02  0.51100000000E-03 0. -1.
    9900012    2    1    2    0    0  0.84999170597E+01 -0.16958078857E+02  0.39035859537E+02  0.47787270071E+02  0.19999995562E+02 0.  0.
         12    1    1    2    0    0 -0.84999170597E+01  0.16958078857E+02 -0.39035859537E+02  0.43400729929E+02  0.00000000000E+00 0. -1.
         11    1    3    3    0    0  0.83347873839E+01 -0.89383914988E+01  0.69745237317E+01  0.14071513951E+02  0.51100000000E-03 0. -1.
        -11    1    3    3    0    0  0.26716081574E+01 -0.32781809939E+01  0.21014814947E+02  0.21436100586E+02  0.51100000000E-03 0.  1.
         12    1    3    3    0    0 -0.25064784816E+01 -0.47415063645E+01  0.11046520858E+02  0.12279655535E+02  0.00000000000E+00 0. -1.
</event>
<event>
 7    1  0.2412036E-009  0.4778727E+02  0.7816164E-02  0.1312668E+00
        -11   -1    0    0    0    0  0.00000000000E+00  0.00000000000E+00  0.45593999997E+02  0.45594000000E+02  0.51100000000E-03 0.  1.
         11   -1    0    0    0    0 -0.00000000000E+00 -0.00000000000E+00 -0.45593999997E+02  0.45594000000E+02  0.51100000000E-03 0. -1.
    9900012    2    1    2    0    0  0.17750714253E+01  0.41102252012E+02  0.13823058792E+02  0.47787274736E+02  0.20000016833E+02 0.  0.
         12    1    1    2    0    0 -0.17750714253E+01 -0.41102252012E+02 -0.13823058792E+02  0.43400725264E+02  0.00000000000E+00 0. -1.
         11    1    3    3    0    0 -0.87487795468E+01  0.18400069462E+02  0.60619475782E+01  0.21256784998E+02  0.51100000000E-03 0. -1.
        -11    1    3    3    0    0  0.75569469193E+01  0.18925888421E+02  0.49707435014E+01  0.20976295919E+02  0.51100000000E-03 0.  1.
         12    1    3    3    0    0  0.29669040527E+01  0.37762941299E+01  0.27903677122E+01  0.55541938194E+01  0.00000000000E+00 0. -1.
</event>
<event>
 7    1  0.2412036E-009  0.4778729E+02  0.7816164E-02  0.1312668E+00
        -11   -1    0    0    0    0  0.00000000000E+00  0.00000000000E+00  0.45593999997E+02  0.45594000000E+02  0.51100000000E-03 0.  1.
         11   -1    0    0    0    0 -0.00000000000E+00 -0.00000000000E+00 -0.45593999997E+02  0.45594000000E+02  0.51100000000E-03 0. -1.
    9900012    2    1    2    0    0  0.40892621927E+02 -0.11369912923E+02  0.90631418955E+01  0.47787285847E+02  0.20000067493E+02 0.  0.
         12    1    1    2    0    0 -0.40892621927E+02  0.11369912923E+02 -0.90631418955E+01  0.43400714153E+02  0.00000000000E+00 0. -1.
         11    1    3    3    0    0  0.23159678733E+02  0.30735490019E+01  0.87796312879E+00  0.23379226720E+02  0.51100000000E-03 0. -1.
        -11    1    3    3    0    0  0.26958013753E+01 -0.11859245179E+01  0.11737488314E+01  0.31704019615E+01  0.51100000000E-03 0.  1.
         12    1    3    3    0    0  0.15037141818E+02 -0.13257537407E+02  0.70114299353E+01  0.21237657166E+02  0.00000000000E+00 0. -1.
</event>
<event>
 7    1  0.2412036E-009  0.4778727E+02  0.7816164E-02  0.1312668E+00
        -11   -1    0    0    0    0  0.00000000000E+00  0.00000000000E+00  0.45593999997E+02  0.45594000000E+02  0.51100000000E-03 0.  1.
         11   -1    0    0    0    0 -0.00000000000E+00 -0.00000000000E+00 -0.45593999997E+02  0.45594000000E+02  0.51100000000E-03 0. -1.
    9900012    2    1    2    0    0 -0.52114235664E+01 -0.35897583666E+02  0.23829136681E+02  0.47787271854E+02  0.20000003690E+02 0.  0.
         12    1    1    2    0    0  0.52114235664E+01  0.35897583666E+02 -0.23829136681E+02  0.43400728146E+02  0.00000000000E+00 0. -1.
         11    1    3    3    0    0 -0.10087221545E+01 -0.12420306713E+02  0.15670687680E+02  0.20021288467E+02  0.51100000000E-03 0. -1.
        -11    1    3    3    0    0 -0.78750333370E+01 -0.18790435108E+02  0.48068367929E+01  0.20933281678E+02  0.51100000000E-03 0.  1.
        -12    1    3    3    0    0  0.36723319251E+01 -0.46868418450E+01  0.33516122087E+01  0.68327017091E+01  0.00000000000E+00 0.  1.
</event>
<event>
 7    1  0.2412036E-009  0.4778727E+02  0.7816164E-02  0.1312668E+00
        -11   -1    0    0    0    0  0.00000000000E+00  0.00000000000E+00  0.45593999997E+02  0.45594000000E+02  0.51100000000E-03 0.  1.
         11   -1    0    0    0    0 -0.00000000000E+00 -0.00000000000E+00 -0.45593999997E+02  0.45594000000E+02  0.51100000000E-03 0. -1.
    9900012    2    1    2    0    0 -0.33491866565E+01 -0.14506511624E+02  0.40767233518E+02  0.47787271211E+02  0.20000000759E+02 0.  0.
         12    1    1    2    0    0  0.33491866565E+01  0.14506511624E+02 -0.40767233518E+02  0.43400728789E+02  0.00000000000E+00 0. -1.
         11    1    3    3    0    0  0.70441053285E+00  0.22220235355E+01 -0.31306275671E+00  0.23519335326E+01  0.51100000000E-03 0. -1.
        -11    1    3    3    0    0  0.15508557940E+01 -0.14241437828E+01  0.11227499500E+02  0.11423225660E+02  0.51100000000E-03 0.  1.
         12    1    3    3    0    0 -0.56044529833E+01 -0.15304391377E+02  0.29852796775E+02  0.34012112018E+02  0.00000000000E+00 0. -1.
</event>
<event>
 7    1  0.2412036E-009  0.4778728E+02  0.7816164E-02  0.1312668E+00
        -11   -1    0    0    0    0  0.00000000000E+00  0.00000000000E+00  0.45593999997E+02  0.45594000000E+02  0.51100000000E-03 0.  1.
         11   -1    0    0    0    0 -0.00000000000E+00 -0.00000000000E+00 -0.45593999997E+02  0.45594000000E+02  0.51100000000E-03 0. -1.
    9900012    2    1    2    0    0  0.24966446412E+02 -0.15257287213E+02  0.32054867137E+02  0.47787276888E+02  0.20000026641E+02 0.  0.
         12    1    1    2    0    0 -0.24966446412E+02  0.15257287213E+02 -0.32054867137E+02  0.43400723112E+02  0.00000000000E+00 0. -1.
         11    1    3    3    0    0  0.40317903015E+01 -0.15047731786E+01  0.11700314806E+02  0.12466637163E+02  0.51100000000E-03 0. -1.
        -11    1    3    3    0    0  0.22938073235E+02 -0.13871811034E+02  0.18359858210E+02  0.32491025513E+02  0.51100000000E-03 0.  1.
        -12    1    3    3    0    0 -0.20034171249E+01  0.11929699934E+00  0.19946941208E+01  0.28296142116E+01  0.00000000000E+00 0.  1.
</event>
<event>
 7    1  0.2412036E-009  0.4778730E+02  0.7816164E-02  0.1312668E+00
        -11   -1    0    0    0    0  0.00000000000E+00  0.00000000000E+00  0.45593999997E+02  0.45594000000E+02  0.51100000000E-03 0.  1.
         11   -1    0    0    0    0 -0.00000000000E+00 -0.00000000000E+00 -0.45593999997E+02  0.45594000000E+02  0.51100000000E-03 0. -1.
    9900012    2    1    2    0    0  0.20965266586E+02 -0.36073476333E+02  0.11949182447E+02  0.47787296561E+02  0.20000116341E+02 0.  0.
         12    1    1    2    0    0 -0.20965266586E+02  0.36073476333E+02 -0.11949182447E+02  0.43400703439E+02  0.00000000000E+00 0. -1.
         11    1    3    3    0    0  0.17327098898E+02 -0.19307713395E+02  0.83167618560E+01  0.27243066656E+02  0.51100000000E-03 0. -1.
        -11    1    3    3    0    0  0.56123243519E+01 -0.43156857636E+01  0.35912523201E+01  0.79385402769E+01  0.51100000000E-03 0.  1.
         12    1    3    3    0    0 -0.19741566635E+01 -0.12450077175E+02  0.41168271236E-01  0.12605689629E+02  0.00000000000E+00 0. -1.
</event>
<event>
 7    1  0.2412036E-009  0.4778727E+02  0.7816164E-02  0.1312668E+00
        -11   -1    0    0    0    0  0.00000000000E+00  0.00000000000E+00  0.45593999997E+02  0.45594000000E+02  0.51100000000E-03 0.  1.
         11   -1    0    0    0    0 -0.00000000000E+00 -0.00000000000E+00 -0.45593999997E+02  0.45594000000E+02  0.51100000000E-03 0. -1.
    9900012    2    1    2    0    0  0.16796206865E+02 -0.39133002258E+02  0.83736940698E+01  0.47787272090E+02  0.20000004765E+02 0.  0.
         12    1    1    2    0    0 -0.16796206865E+02  0.39133002258E+02 -0.83736940698E+01  0.43400727910E+02  0.00000000000E+00 0. -1.
         11    1    3    3    0    0  0.83029758611E+00  0.70642545605E-01 -0.27599814390E+01  0.28830335162E+01  0.51100000000E-03 0. -1.
        -11    1    3    3    0    0  0.12386552199E+02 -0.23926288324E+02  0.11290265850E+02  0.29212395513E+02  0.51100000000E-03 0.  1.
         12    1    3    3    0    0  0.35793570792E+01 -0.15277356479E+02 -0.15659034149E+00  0.15691843060E+02  0.00000000000E+00 0. -1.
</event>
<event>
 7    1  0.2412036E-009  0.4778727E+02  0.7816164E-02  0.1312668E+00
        -11   -1    0    0    0    0  0.00000000000E+00  0.00000000000E+00  0.45593999997E+02  0.45594000000E+02  0.51100000000E-03 0.  1.
         11   -1    0    0    0    0 -0.00000000000E+00 -0.00000000000E+00 -0.45593999997E+02  0.45594000000E+02  0.51100000000E-03 0. -1.
    9900012    2    1    2    0    0  0.21964234161E+02 -0.31285010442E+02 -0.20553439558E+02  0.47787270302E+02  0.19999996615E+02 0.  0.
         12    1    1    2    0    0 -0.21964234161E+02  0.31285010442E+02  0.20553439558E+02  0.43400729698E+02  0.00000000000E+00 0. -1.
         11    1    3    3    0    0 -0.43420840248E+00 -0.41998547022E+01  0.32506537294E+01  0.53286082973E+01  0.51100000000E-03 0. -1.
        -11    1    3    3    0    0  0.16459982885E+02 -0.19584436835E+02 -0.16906989714E+02  0.30664759972E+02  0.51100000000E-03 0.  1.
         12    1    3    3    0    0  0.59384596785E+01 -0.75007189049E+01 -0.68971035736E+01  0.11793902032E+02  0.00000000000E+00 0. -1.
</event>
<event>
 7    1  0.2412036E-009  0.4778727E+02  0.7816164E-02  0.1312668E+00
        -11   -1    0    0    0    0  0.00000000000E+00  0.00000000000E+00  0.45593999997E+02  0.45594000000E+02  0.51100000000E-03 0.  1.
         11   -1    0    0    0    0 -0.00000000000E+00 -0.00000000000E+00 -0.45593999997E+02  0.45594000000E+02  0.51100000000E-03 0. -1.
    9900012    2    1    2    0    0  0.11021980776E+02 -0.32904553219E+02  0.26065868370E+02  0.47787272165E+02  0.20000005107E+02 0.  0.
         12    1    1    2    0    0 -0.11021980776E+02  0.32904553219E+02 -0.26065868370E+02  0.43400727835E+02  0.00000000000E+00 0. -1.
         11    1    3    3    0    0  0.12674135623E+02 -0.19602434359E+02  0.12769367934E+02  0.26607252851E+02  0.51100000000E-03 0. -1.
        -11    1    3    3    0    0  0.23673994964E+01 -0.11631738443E+02  0.79538478856E+01  0.14288653402E+02  0.51100000000E-03 0.  1.
         12    1    3    3    0    0 -0.40195543437E+01 -0.16703804168E+01  0.53426525497E+01  0.68913659114E+01  0.00000000000E+00 0. -1.
</event>
<event>
 7    1  0.2412036E-009  0.4778727E+02  0.7816164E-02  0.1312668E+00
        -11   -1    0    0    0    0  0.00000000000E+00  0.00000000000E+00  0.45593999997E+02  0.45594000000E+02  0.51100000000E-03 0. -1.
         11   -1    0    0    0    0 -0.00000000000E+00 -0.00000000000E+00 -0.45593999997E+02  0.45594000000E+02  0.51100000000E-03 0.  1.
    9900012    2    1    2    0    0 -0.37827582656E+02 -0.40109598892E+01 -0.20895195726E+02  0.47787274047E+02  0.20000013689E+02 0.  0.
         12    1    1    2    0    0  0.37827582656E+02  0.40109598892E+01  0.20895195726E+02  0.43400725953E+02  0.00000000000E+00 0. -1.
         11    1    3    3    0    0  0.18584723878E+00  0.54994727397E+00  0.10389651617E+01  0.11901386762E+01  0.51100000000E-03 0. -1.
        -11    1    3    3    0    0 -0.35403954057E+02 -0.77806238038E+01 -0.22090866267E+02  0.42449787306E+02  0.51100000000E-03 0.  1.
        -12    1    3    3    0    0 -0.26094758375E+01  0.32197166406E+01  0.15670537903E+00  0.41473480645E+01  0.00000000000E+00 0.  1.
</event>
<event>
 7    1  0.2412036E-009  0.4778728E+02  0.7816164E-02  0.1312668E+00
        -11   -1    0    0    0    0  0.00000000000E+00  0.00000000000E+00  0.45593999997E+02  0.45594000000E+02  0.51100000000E-03 0.  1.
         11   -1    0    0    0    0 -0.00000000000E+00 -0.00000000000E+00 -0.45593999997E+02  0.45594000000E+02  0.51100000000E-03 0. -1.
    9900012    2    1    2    0    0  0.29343471481E+02 -0.31948069451E+02 -0.13798190890E+01  0.47787281562E+02  0.20000047954E+02 0.  0.
         12    1    1    2    0    0 -0.29343471481E+02  0.31948069451E+02  0.13798190890E+01  0.43400718438E+02  0.00000000000E+00 0. -1.
         11    1    3    3    0    0  0.14288359586E+01 -0.64421179753E+01 -0.55848300173E+01  0.86448124785E+01  0.51100000000E-03 0. -1.
        -11    1    3    3    0    0  0.24920596349E+02 -0.17822464664E+02  0.39591819404E+01  0.30892579869E+02  0.51100000000E-03 0.  1.
        -12    1    3    3    0    0  0.29940391739E+01 -0.76834868113E+01  0.24582898792E+00  0.82498892142E+01  0.00000000000E+00 0.  1.
</event>
<event>
 7    1  0.2412036E-009  0.4778727E+02  0.7816164E-02  0.1312668E+00
        -11   -1    0    0    0    0  0.00000000000E+00  0.00000000000E+00  0.45593999997E+02  0.45594000000E+02  0.51100000000E-03 0.  1.
         11   -1    0    0    0    0 -0.00000000000E+00 -0.00000000000E+00 -0.45593999997E+02  0.45594000000E+02  0.51100000000E-03 0. -1.
    9900012    2    1    2    0    0  0.43189538247E+02 -0.30571764595E+01  0.29900547812E+01  0.47787274551E+02  0.20000015987E+02 0.  0.
         12    1    1    2    0    0 -0.43189538247E+02  0.30571764595E+01 -0.29900547812E+01  0.43400725449E+02  0.00000000000E+00 0. -1.
         11    1    3    3    0    0  0.33319922234E+01  0.26252233453E+01  0.47669464021E+01  0.63810459998E+01  0.51100000000E-03 0. -1.
        -11    1    3    3    0    0  0.39000241912E+02 -0.66369733900E+01 -0.45429002787E+00  0.39563552225E+02  0.51100000000E-03 0.  1.
        -12    1    3    3    0    0  0.85730411216E+00  0.95457358513E+00 -0.13226015930E+01  0.18426763264E+01  0.00000000000E+00 0.  1.
</event>
<event>
 7    1  0.2412036E-009  0.4778727E+02  0.7816164E-02  0.1312668E+00
        -11   -1    0    0    0    0  0.00000000000E+00  0.00000000000E+00  0.45593999997E+02  0.45594000000E+02  0.51100000000E-03 0. -1.
         11   -1    0    0    0    0 -0.00000000000E+00 -0.00000000000E+00 -0.45593999997E+02  0.45594000000E+02  0.51100000000E-03 0.  1.
    9900012    2    1    2    0    0 -0.30513846961E+02  0.55213959586E+00 -0.30858115860E+02  0.47787273866E+02  0.20000012865E+02 0.  0.
         12    1    1    2    0    0  0.30513846961E+02 -0.55213959586E+00  0.30858115860E+02  0.43400726134E+02  0.00000000000E+00 0. -1.
         11    1    3    3    0    0 -0.17195654598E+02  0.18262758264E+01 -0.21209718564E+02  0.27365635061E+02  0.51100000000E-03 0. -1.
        -11    1    3    3    0    0 -0.15169681986E+02 -0.36270310120E+00 -0.10202329018E+02  0.18284920638E+02  0.51100000000E-03 0.  1.
         12    1    3    3    0    0  0.18514896231E+01 -0.91143312933E+00  0.55393172155E+00  0.21367181672E+01  0.00000000000E+00 0. -1.
</event>
<event>
 7    1  0.2412036E-009  0.4778728E+02  0.7816164E-02  0.1312668E+00
        -11   -1    0    0    0    0  0.00000000000E+00  0.00000000000E+00  0.45593999997E+02  0.45594000000E+02  0.51100000000E-03 0.  1.
         11   -1    0    0    0    0 -0.00000000000E+00 -0.00000000000E+00 -0.45593999997E+02  0.45594000000E+02  0.51100000000E-03 0. -1.
    9900012    2    1    2    0    0 -0.10749516535E+01 -0.35024545113E+02  0.25607588247E+02  0.47787275845E+02  0.20000021886E+02 0.  0.
         12    1    1    2    0    0  0.10749516535E+01  0.35024545113E+02 -0.25607588247E+02  0.43400724155E+02  0.00000000000E+00 0. -1.
         11    1    3    3    0    0 -0.30377074688E+01 -0.60411485464E+01  0.48854815462E+01  0.83421263851E+01  0.51100000000E-03 0. -1.
        -11    1    3    3    0    0 -0.55597785927E+01 -0.23403938897E+02  0.16508719446E+02  0.29175217427E+02  0.51100000000E-03 0.  1.
        -12    1    3    3    0    0  0.75225344080E+01 -0.55794576695E+01  0.42133872539E+01  0.10269932033E+02  0.00000000000E+00 0.  1.
</event>
<event>
 7    1  0.2412036E-009  0.4778727E+02  0.7816164E-02  0.1312668E+00
        -11   -1    0    0    0    0  0.00000000000E+00  0.00000000000E+00  0.45593999997E+02  0.45594000000E+02  0.51100000000E-03 0. -1.
         11   -1    0    0    0    0 -0.00000000000E+00 -0.00000000000E+00 -0.45593999997E+02  0.45594000000E+02  0.51100000000E-03 0.  1.
    9900012    2    1    2    0    0  0.21871142294E+02 -0.36520081158E+02  0.84593184033E+01  0.47787271194E+02  0.20000000683E+02 0.  0.
         12    1    1    2    0    0 -0.21871142294E+02  0.36520081158E+02 -0.84593184033E+01  0.43400728806E+02  0.00000000000E+00 0. -1.
         11    1    3    3    0    0  0.80912355605E+01 -0.17848027769E+01  0.39988300080E+01  0.92002312766E+01  0.51100000000E-03 0. -1.
        -11    1    3    3    0    0  0.13113958779E+02 -0.22262757502E+02  0.30122756287E+01  0.26013075389E+02  0.51100000000E-03 0.  1.
         12    1    3    3    0    0  0.66594795394E+00 -0.12472520879E+02  0.14482127665E+01  0.12573964529E+02  0.00000000000E+00 0. -1.
</event>
<event>
 7    1  0.2412036E-009  0.4778727E+02  0.7816164E-02  0.1312668E+00
        -11   -1    0    0    0    0  0.00000000000E+00  0.00000000000E+00  0.45593999997E+02  0.45594000000E+02  0.51100000000E-03 0. -1.
         11   -1    0    0    0    0 -0.00000000000E+00 -0.00000000000E+00 -0.45593999997E+02  0.45594000000E+02  0.51100000000E-03 0.  1.
    9900012    2    1    2    0    0  0.18414283204E+01  0.43331849435E+02 -0.16071513614E+01  0.47787274554E+02  0.20000016003E+02 0.  0.
         12    1    1    2    0    0 -0.18414283204E+01 -0.43331849435E+02  0.16071513614E+01  0.43400725446E+02  0.00000000000E+00 0. -1.
         11    1    3    3    0    0 -0.81909427409E+01  0.24715458043E+02 -0.18100763824E+01  0.26100225785E+02  0.51100000000E-03 0. -1.
        -11    1    3    3    0    0  0.49241055334E+01  0.10664267009E+02 -0.21635544114E+01  0.11943800655E+02  0.51100000000E-03 0.  1.
         12    1    3    3    0    0  0.51082655280E+01  0.79521243830E+01  0.23664794324E+01  0.97432481140E+01  0.00000000000E+00 0. -1.
</event>
<event>
 7    1  0.2412036E-009  0.4778727E+02  0.7816164E-02  0.1312668E+00
        -11   -1    0    0    0    0  0.00000000000E+00  0.00000000000E+00  0.45593999997E+02  0.45594000000E+02  0.51100000000E-03 0. -1.
         11   -1    0    0    0    0 -0.00000000000E+00 -0.00000000000E+00 -0.45593999997E+02  0.45594000000E+02  0.51100000000E-03 0.  1.
    9900012    2    1    2    0    0 -0.35363123569E+02  0.12886195757E+02  0.21610613382E+02  0.47787272352E+02  0.20000005962E+02 0.  0.
         12    1    1    2    0    0  0.35363123569E+02 -0.12886195757E+02 -0.21610613382E+02  0.43400727648E+02  0.00000000000E+00 0. -1.
         11    1    3    3    0    0 -0.14976628099E+02  0.20332879414E+01  0.12210344797E+02  0.19430032666E+02  0.51100000000E-03 0. -1.
        -11    1    3    3    0    0 -0.11469755964E+02  0.11472600210E+02  0.12664195998E+01  0.16272052001E+02  0.51100000000E-03 0.  1.
        -12    1    3    3    0    0 -0.89167395061E+01 -0.61969239491E+00  0.81338489846E+01  0.12085187685E+02  0.00000000000E+00 0.  1.
</event>
<event>
 7    1  0.2412036E-009  0.4778727E+02  0.7816164E-02  0.1312668E+00
        -11   -1    0    0    0    0  0.00000000000E+00  0.00000000000E+00  0.45593999997E+02  0.45594000000E+02  0.51100000000E-03 0.  1.
         11   -1    0    0    0    0 -0.00000000000E+00 -0.00000000000E+00 -0.45593999997E+02  0.45594000000E+02  0.51100000000E-03 0. -1.
    9900012    2    1    2    0    0 -0.22234356250E+02 -0.25458176179E+02  0.27223856634E+02  0.47787266109E+02  0.19999977499E+02 0.  0.
         12    1    1    2    0    0  0.22234356250E+02  0.25458176179E+02 -0.27223856634E+02  0.43400733891E+02  0.00000000000E+00 0. -1.
         11    1    3    3    0    0 -0.16850965088E+01 -0.25293511349E+01 -0.18177923420E+00  0.30447021790E+01  0.51100000000E-03 0. -1.
        -11    1    3    3    0    0 -0.20634372548E+02 -0.14323193975E+02  0.13844122647E+02  0.28680846365E+02  0.51100000000E-03 0.  1.
        -12    1    3    3    0    0  0.85112806895E-01 -0.86056310688E+01  0.13561513222E+02  0.16061717565E+02  0.00000000000E+00 0.  1.
</event>
<event>
 7    1  0.2412036E-009  0.4778727E+02  0.7816164E-02  0.1312668E+00
        -11   -1    0    0    0    0  0.00000000000E+00  0.00000000000E+00  0.45593999997E+02  0.45594000000E+02  0.51100000000E-03 0.  1.
         11   -1    0    0    0    0 -0.00000000000E+00 -0.00000000000E+00 -0.45593999997E+02  0.45594000000E+02  0.51100000000E-03 0. -1.
    9900012    2    1    2    0    0 -0.36642518446E+02 -0.39075198505E+01  0.22927720238E+02  0.47787271611E+02  0.20000002581E+02 0.  0.
         12    1    1    2    0    0  0.36642518446E+02  0.39075198505E+01 -0.22927720238E+02  0.43400728389E+02  0.00000000000E+00 0. -1.
         11    1    3    3    0    0 -0.12849903405E+02 -0.20825225549E+01  0.36371053898E+01  0.13516118288E+02  0.51100000000E-03 0. -1.
        -11    1    3    3    0    0  0.80598887725E+00 -0.24513458471E+01  0.54720180071E+01  0.60499335421E+01  0.51100000000E-03 0.  1.
        -12    1    3    3    0    0 -0.24598603918E+02  0.62634855161E+00  0.13818596841E+02  0.28221219780E+02  0.00000000000E+00 0.  1.
</event>
<event>
 7    1  0.2412036E-009  0.4778727E+02  0.7816164E-02  0.1312668E+00
        -11   -1    0    0    0    0  0.00000000000E+00  0.00000000000E+00  0.45593999997E+02  0.45594000000E+02  0.51100000000E-03 0. -1.
         11   -1    0    0    0    0 -0.00000000000E+00 -0.00000000000E+00 -0.45593999997E+02  0.45594000000E+02  0.51100000000E-03 0.  1.
    9900012    2    1    2    0    0  0.43324766179E+02  0.12150268147E+00 -0.25637615260E+01  0.47787274193E+02  0.20000014357E+02 0.  0.
         12    1    1    2    0    0 -0.43324766179E+02 -0.12150268147E+00  0.25637615260E+01  0.43400725807E+02  0.00000000000E+00 0. -1.
         11    1    3    3    0    0 -0.48398008847E+00 -0.22525509484E+01  0.18048950039E+01  0.29267505423E+01  0.51100000000E-03 0. -1.
        -11    1    3    3    0    0  0.29361448801E+02  0.23902732022E+01  0.92718894091E+00  0.29473170194E+02  0.51100000000E-03 0.  1.
         12    1    3    3    0    0  0.14447297467E+02 -0.16219572382E-01 -0.52958454708E+01  0.15387353457E+02  0.00000000000E+00 0. -1.
</event>
<event>
 7    1  0.2412036E-009  0.4778727E+02  0.7816164E-02  0.1312668E+00
        -11   -1    0    0    0    0  0.00000000000E+00  0.00000000000E+00  0.45593999997E+02  0.45594000000E+02  0.51100000000E-03 0.  1.
         11   -1    0    0    0    0 -0.00000000000E+00 -0.00000000000E+00 -0.45593999997E+02  0.45594000000E+02  0.51100000000E-03 0. -1.
    9900012    2    1    2    0    0 -0.32706145185E+02 -0.18922842936E+02  0.21350818206E+02  0.47787270101E+02  0.19999995700E+02 0.  0.
         12    1    1    2    0    0  0.32706145185E+02  0.18922842936E+02 -0.21350818206E+02  0.43400729899E+02  0.00000000000E+00 0. -1.
         11    1    3    3    0    0 -0.49911856628E+00 -0.49400973300E+01  0.91336297185E+01  0.10396002745E+02  0.51100000000E-03 0. -1.
        -11    1    3    3    0    0 -0.48907694869E+01 -0.37651918529E+01  0.22918048423E+01  0.65839703492E+01  0.51100000000E-03 0.  1.
         12    1    3    3    0    0 -0.27316257132E+02 -0.10217553753E+02  0.99253836457E+01  0.30807297007E+02  0.00000000000E+00 0. -1.
</event>
<event>
 7    1  0.2412036E-009  0.4778727E+02  0.7816164E-02  0.1312668E+00
        -11   -1    0    0    0    0  0.00000000000E+00  0.00000000000E+00  0.45593999997E+02  0.45594000000E+02  0.51100000000E-03 0.  1.
         11   -1    0    0    0    0 -0.00000000000E+00 -0.00000000000E+00 -0.45593999997E+02  0.45594000000E+02  0.51100000000E-03 0. -1.
    9900012    2    1    2    0    0 -0.29842751416E+02  0.10618550392E+02  0.29669513115E+02  0.47787269211E+02  0.19999991642E+02 0.  0.
         12    1    1    2    0    0  0.29842751416E+02 -0.10618550392E+02 -0.29669513115E+02  0.43400730789E+02  0.00000000000E+00 0. -1.
         11    1    3    3    0    0 -0.16747092513E+02 -0.74717147717E+00  0.14353771998E+02  0.22069303199E+02  0.51100000000E-03 0. -1.
        -11    1    3    3    0    0 -0.78630751737E+01  0.98073793501E+01  0.40629301089E+01  0.13210603402E+02  0.51100000000E-03 0.  1.
        -12    1    3    3    0    0 -0.52325837297E+01  0.15583425188E+01  0.11252811008E+02  0.12507362611E+02  0.00000000000E+00 0.  1.
</event>
<event>
 7    1  0.2412036E-009  0.4778727E+02  0.7816164E-02  0.1312668E+00
        -11   -1    0    0    0    0  0.00000000000E+00  0.00000000000E+00  0.45593999997E+02  0.45594000000E+02  0.51100000000E-03 0.  1.
         11   -1    0    0    0    0 -0.00000000000E+00 -0.00000000000E+00 -0.45593999997E+02  0.45594000000E+02  0.51100000000E-03 0. -1.
    9900012    2    1    2    0    0 -0.32572743148E+02  0.28607287758E+02 -0.20646854464E+01  0.47787269187E+02  0.19999991533E+02 0.  0.
         12    1    1    2    0    0  0.32572743148E+02 -0.28607287758E+02  0.20646854464E+01  0.43400730813E+02  0.00000000000E+00 0. -1.
         11    1    3    3    0    0 -0.15393910311E+02  0.16278921169E+02 -0.10412124694E+02  0.24706033474E+02  0.51100000000E-03 0. -1.
        -11    1    3    3    0    0 -0.14309306662E+02  0.92115994285E+01  0.51712524164E+01  0.17786277660E+02  0.51100000000E-03 0.  1.
         12    1    3    3    0    0 -0.28695261747E+01  0.31167671606E+01  0.31761868314E+01  0.52949580536E+01  0.00000000000E+00 0. -1.
</event>
<event>
 7    1  0.2412036E-009  0.4778728E+02  0.7816164E-02  0.1312668E+00
        -11   -1    0    0    0    0  0.00000000000E+00  0.00000000000E+00  0.45593999997E+02  0.45594000000E+02  0.51100000000E-03 0.  1.
         11   -1    0    0    0    0 -0.00000000000E+00 -0.00000000000E+00 -0.45593999997E+02  0.45594000000E+02  0.51100000000E-03 0. -1.
    9900012    2    1    2    0    0  0.37418203601E+02  0.20712826392E+02  0.73810251367E+01  0.47787278002E+02  0.20000031722E+02 0.  0.
         12    1    1    2    0    0 -0.37418203601E+02 -0.20712826392E+02 -0.73810251367E+01  0.43400721998E+02  0.00000000000E+00 0. -1.
         11    1    3    3    0    0 -0.95498140375E+00  0.30113705397E+01 -0.21860639684E+01  0.38417727606E+01  0.51100000000E-03 0. -1.
        -11    1    3    3    0    0  0.19498015752E+02  0.12810328646E+02  0.63971350425E+01  0.24190917207E+02  0.51100000000E-03 0.  1.
         12    1    3    3    0    0  0.18875169252E+02  0.48911272066E+01  0.31699540627E+01  0.19754588034E+02  0.00000000000E+00 0. -1.
</event>
<event>
 7    1  0.2412036E-009  0.4778727E+02  0.7816164E-02  0.1312668E+00
        -11   -1    0    0    0    0  0.00000000000E+00  0.00000000000E+00  0.45593999997E+02  0.45594000000E+02  0.51100000000E-03 0.  1.
         11   -1    0    0    0    0 -0.00000000000E+00 -0.00000000000E+00 -0.45593999997E+02  0.45594000000E+02  0.51100000000E-03 0. -1.
    9900012    2    1    2    0    0  0.38735830544E+02 -0.18109515748E+02 -0.74299553661E+01  0.47787269991E+02  0.19999995197E+02 0.  0.
         12    1    1    2    0    0 -0.38735830544E+02  0.18109515748E+02  0.74299553661E+01  0.43400730009E+02  0.00000000000E+00 0. -1.
         11    1    3    3    0    0  0.20654030089E+01 -0.23631214982E+01 -0.58945237134E+01  0.66779969207E+01  0.51100000000E-03 0. -1.
        -11    1    3    3    0    0  0.23228730498E+02 -0.12279274021E+02  0.31396672434E+01  0.26461519262E+02  0.51100000000E-03 0.  1.
        -12    1    3    3    0    0  0.13441697038E+02 -0.34671202288E+01 -0.46750988961E+01  0.14647753808E+02  0.00000000000E+00 0.  1.
</event>
<event>
 7    1  0.2412036E-009  0.4778727E+02  0.7816164E-02  0.1312668E+00
        -11   -1    0    0    0    0  0.00000000000E+00  0.00000000000E+00  0.45593999997E+02  0.45594000000E+02  0.51100000000E-03 0. -1.
         11   -1    0    0    0    0 -0.00000000000E+00 -0.00000000000E+00 -0.45593999997E+02  0.45594000000E+02  0.51100000000E-03 0.  1.
    9900012    2    1    2    0    0  0.16747520138E+02 -0.38966278927E+02  0.92072088605E+01  0.47787273978E+02  0.20000013377E+02 0.  0.
         12    1    1    2    0    0 -0.16747520138E+02  0.38966278927E+02 -0.92072088605E+01  0.43400726022E+02  0.00000000000E+00 0. -1.
         11    1    3    3    0    0  0.30411842368E+01 -0.16652143230E+02  0.91150034133E+01  0.19225658980E+02  0.51100000000E-03 0. -1.
        -11    1    3    3    0    0  0.10048466569E+02 -0.59389577925E+01  0.12721116064E+01  0.11741429566E+02  0.51100000000E-03 0.  1.
        -12    1    3    3    0    0  0.36578693329E+01 -0.16375177904E+02 -0.11799061591E+01  0.16820185433E+02  0.00000000000E+00 0.  1.
</event>
<event>
 7    1  0.2412036E-009  0.4778726E+02  0.7816164E-02  0.1312668E+00
        -11   -1    0    0    0    0  0.00000000000E+00  0.00000000000E+00  0.45593999997E+02  0.45594000000E+02  0.51100000000E-03 0. -1.
         11   -1    0    0    0    0 -0.00000000000E+00 -0.00000000000E+00 -0.45593999997E+02  0.45594000000E+02  0.51100000000E-03 0.  1.
    9900012    2    1    2    0    0 -0.16537169248E+02  0.38687785096E+02 -0.10648998488E+02  0.47787264394E+02  0.19999969676E+02 0.  0.
         12    1    1    2    0    0  0.16537169248E+02 -0.38687785096E+02  0.10648998488E+02  0.43400735606E+02  0.00000000000E+00 0. -1.
         11    1    3    3    0    0  0.38811128618E+01  0.96184262664E+01 -0.58544828425E+01  0.11910169205E+02  0.51100000000E-03 0. -1.
        -11    1    3    3    0    0 -0.68100421716E+01  0.98837443540E+01 -0.91454404848E+00  0.12037502561E+02  0.51100000000E-03 0.  1.
         12    1    3    3    0    0 -0.13608239938E+02  0.19185614476E+02 -0.38799715973E+01  0.23839592627E+02  0.00000000000E+00 0. -1.
</event>
<event>
 7    1  0.2412036E-009  0.4778727E+02  0.7816164E-02  0.1312668E+00
        -11   -1    0    0    0    0  0.00000000000E+00  0.00000000000E+00  0.45593999997E+02  0.45594000000E+02  0.51100000000E-03 0. -1.
         11   -1    0    0    0    0 -0.00000000000E+00 -0.00000000000E+00 -0.45593999997E+02  0.45594000000E+02  0.51100000000E-03 0.  1.
    9900012    2    1    2    0    0 -0.41554626648E+02 -0.12407143966E+02 -0.17026569451E+01  0.47787271228E+02  0.20000000837E+02 0.  0.
         12    1    1    2    0    0  0.41554626648E+02  0.12407143966E+02  0.17026569451E+01  0.43400728772E+02  0.00000000000E+00 0. -1.
         11    1    3    3    0    0 -0.58082154032E+01  0.62105934731E+00  0.14171596846E+01  0.60107755503E+01  0.51100000000E-03 0.  1.
        -11    1    3    3    0    0 -0.17979917437E+01 -0.11758288436E+01  0.45302003388E+01  0.50137873061E+01  0.51100000000E-03 0. -1.
        -12    1    3    3    0    0 -0.33948419501E+02 -0.11852374470E+02 -0.76500169684E+01  0.36762708372E+02  0.00000000000E+00 0.  1.
</event>
<event>
 7    1  0.2412036E-009  0.4778729E+02  0.7816164E-02  0.1312668E+00
        -11   -1    0    0    0    0  0.00000000000E+00  0.00000000000E+00  0.45593999997E+02  0.45594000000E+02  0.51100000000E-03 0.  1.
         11   -1    0    0    0    0 -0.00000000000E+00 -0.00000000000E+00 -0.45593999997E+02  0.45594000000E+02  0.51100000000E-03 0. -1.
    9900012    2    1    2    0    0  0.44781064950E+00 -0.11235754560E+02  0.41918715611E+02  0.47787292248E+02  0.20000096675E+02 0.  0.
         12    1    1    2    0    0 -0.44781064950E+00  0.11235754560E+02 -0.41918715611E+02  0.43400707752E+02  0.00000000000E+00 0. -1.
         11    1    3    3    0    0 -0.29750281069E+01 -0.76489681102E+01  0.94546371576E+01  0.12519890951E+02  0.51100000000E-03 0. -1.
        -11    1    3    3    0    0  0.47317851736E+01  0.31112790351E+01  0.22419321181E+02  0.23123490451E+02  0.51100000000E-03 0.  1.
        -12    1    3    3    0    0 -0.13089464172E+01 -0.66980654851E+01  0.10044757272E+02  0.12143910846E+02  0.00000000000E+00 0.  1.
</event>
<event>
 7    1  0.2412036E-009  0.4778727E+02  0.7816164E-02  0.1312668E+00
        -11   -1    0    0    0    0  0.00000000000E+00  0.00000000000E+00  0.45593999997E+02  0.45594000000E+02  0.51100000000E-03 0.  1.
         11   -1    0    0    0    0 -0.00000000000E+00 -0.00000000000E+00 -0.45593999997E+02  0.45594000000E+02  0.51100000000E-03 0. -1.
    9900012    2    1    2    0    0  0.19789971561E+02  0.21524055566E+02  0.32073276246E+02  0.47787274297E+02  0.20000014831E+02 0.  0.
         12    1    1    2    0    0 -0.19789971561E+02 -0.21524055566E+02 -0.32073276246E+02  0.43400725703E+02  0.00000000000E+00 0. -1.
         11    1    3    3    0    0  0.15188419626E+02  0.12179720977E+02  0.14726569567E+02  0.24411176646E+02  0.51100000000E-03 0. -1.
        -11    1    3    3    0    0 -0.84184499648E+00  0.81185467315E+01  0.15466608688E+02  0.17488152807E+02  0.51100000000E-03 0.  1.
        -12    1    3    3    0    0  0.54433969318E+01  0.12257878578E+01  0.18800979912E+01  0.58879448440E+01  0.00000000000E+00 0.  1.
</event>
<event>
 7    1  0.2412036E-009  0.4778727E+02  0.7816164E-02  0.1312668E+00
        -11   -1    0    0    0    0  0.00000000000E+00  0.00000000000E+00  0.45593999997E+02  0.45594000000E+02  0.51100000000E-03 0. -1.
         11   -1    0    0    0    0 -0.00000000000E+00 -0.00000000000E+00 -0.45593999997E+02  0.45594000000E+02  0.51100000000E-03 0.  1.
    9900012    2    1    2    0    0  0.21154942637E+02 -0.12742181528E+02 -0.35689332226E+02  0.47787271633E+02  0.20000002683E+02 0.  0.
         12    1    1    2    0    0 -0.21154942637E+02  0.12742181528E+02  0.35689332226E+02  0.43400728367E+02  0.00000000000E+00 0. -1.
         11    1    3    3    0    0  0.18825379494E+02 -0.29926325842E+01 -0.15807782388E+02  0.24763617409E+02  0.51100000000E-03 0. -1.
        -11    1    3    3    0    0 -0.16333302693E+01 -0.54567122360E+01 -0.85307581647E+01  0.10257548992E+02  0.51100000000E-03 0.  1.
        -12    1    3    3    0    0  0.39628934127E+01 -0.42928367074E+01 -0.11350791673E+02  0.12766105232E+02  0.00000000000E+00 0.  1.
</event>
<event>
 7    1  0.2412036E-009  0.4778727E+02  0.7816164E-02  0.1312668E+00
        -11   -1    0    0    0    0  0.00000000000E+00  0.00000000000E+00  0.45593999997E+02  0.45594000000E+02  0.51100000000E-03 0.  1.
         11   -1    0    0    0    0 -0.00000000000E+00 -0.00000000000E+00 -0.45593999997E+02  0.45594000000E+02  0.51100000000E-03 0. -1.
    9900012    2    1    2    0    0 -0.40133625804E+02  0.22401617137E+01  0.16367560980E+02  0.47787270776E+02  0.19999998777E+02 0.  0.
         12    1    1    2    0    0  0.40133625804E+02 -0.22401617137E+01 -0.16367560980E+02  0.43400729224E+02  0.00000000000E+00 0. -1.
         11    1    3    3    0    0 -0.20752126884E+02 -0.54246844137E+01  0.29268109920E+01  0.21648191473E+02  0.51100000000E-03 0. -1.
        -11    1    3    3    0    0 -0.55133474811E+01  0.49207127218E+01  0.12979628921E+01  0.75030075349E+01  0.51100000000E-03 0.  1.
         12    1    3    3    0    0 -0.13868151439E+02  0.27441334056E+01  0.12142787096E+02  0.18636071768E+02  0.00000000000E+00 0. -1.
</event>
<event>
 7    1  0.2412036E-009  0.4778727E+02  0.7816164E-02  0.1312668E+00
        -11   -1    0    0    0    0  0.00000000000E+00  0.00000000000E+00  0.45593999997E+02  0.45594000000E+02  0.51100000000E-03 0.  1.
         11   -1    0    0    0    0 -0.00000000000E+00 -0.00000000000E+00 -0.45593999997E+02  0.45594000000E+02  0.51100000000E-03 0. -1.
    9900012    2    1    2    0    0 -0.21752860265E+02  0.31474847847E+01  0.37423647998E+02  0.47787273974E+02  0.20000013355E+02 0.  0.
         12    1    1    2    0    0  0.21752860265E+02 -0.31474847847E+01 -0.37423647998E+02  0.43400726026E+02  0.00000000000E+00 0. -1.
         11    1    3    3    0    0 -0.15017452633E+02  0.23942581937E+01  0.24531550341E+02  0.28862663049E+02  0.51100000000E-03 0. -1.
        -11    1    3    3    0    0 -0.74403190439E+01 -0.29573624910E+01  0.12858565265E+02  0.15147509409E+02  0.51100000000E-03 0.  1.
         12    1    3    3    0    0  0.70491141192E+00  0.37105890820E+01  0.33532391467E-01  0.37771015151E+01  0.00000000000E+00 0. -1.
</event>
<event>
 7    1  0.2412036E-009  0.4778730E+02  0.7816164E-02  0.1312668E+00
        -11   -1    0    0    0    0  0.00000000000E+00  0.00000000000E+00  0.45593999997E+02  0.45594000000E+02  0.51100000000E-03 0. -1.
         11   -1    0    0    0    0 -0.00000000000E+00 -0.00000000000E+00 -0.45593999997E+02  0.45594000000E+02  0.51100000000E-03 0.  1.
    9900012    2    1    2    0    0 -0.39065720704E+02  0.12943395515E+02  0.13782557993E+02  0.47787298088E+02  0.20000123303E+02 0.  0.
         12    1    1    2    0    0  0.39065720704E+02 -0.12943395515E+02 -0.13782557993E+02  0.43400701912E+02  0.00000000000E+00 0. -1.
         11    1    3    3    0    0 -0.92547075261E+01 -0.40119271843E+01  0.55315376890E+01  0.11504046270E+02  0.51100000000E-03 0. -1.
        -11    1    3    3    0    0 -0.23357953777E+02  0.14434848463E+02  0.98530368666E+01  0.29172610280E+02  0.51100000000E-03 0.  1.
        -12    1    3    3    0    0 -0.64530594008E+01  0.25204742366E+01 -0.16020165627E+01  0.71106415375E+01  0.00000000000E+00 0.  1.
</event>
<event>
 7    1  0.2412036E-009  0.4778729E+02  0.7816164E-02  0.1312668E+00
        -11   -1    0    0    0    0  0.00000000000E+00  0.00000000000E+00  0.45593999997E+02  0.45594000000E+02  0.51100000000E-03 0.  1.
         11   -1    0    0    0    0 -0.00000000000E+00 -0.00000000000E+00 -0.45593999997E+02  0.45594000000E+02  0.51100000000E-03 0. -1.
    9900012    2    1    2    0    0  0.20044951326E+02 -0.79763889013E+01  0.37658980815E+02  0.47787289296E+02  0.20000083217E+02 0.  0.
         12    1    1    2    0    0 -0.20044951326E+02  0.79763889013E+01 -0.37658980815E+02  0.43400710704E+02  0.00000000000E+00 0. -1.
         11    1    3    3    0    0 -0.13472883390E+01  0.31468437619E+01  0.72194250672E+01  0.79898629583E+01  0.51100000000E-03 0. -1.
        -11    1    3    3    0    0  0.17236716197E+02 -0.45240615469E+01  0.20475950526E+02  0.27144724502E+02  0.51100000000E-03 0.  1.
         12    1    3    3    0    0  0.41555234684E+01 -0.65991711162E+01  0.99636052220E+01  0.12652701836E+02  0.00000000000E+00 0. -1.
</event>
<event>
 7    1  0.2412036E-009  0.4778727E+02  0.7816164E-02  0.1312668E+00
        -11   -1    0    0    0    0  0.00000000000E+00  0.00000000000E+00  0.45593999997E+02  0.45594000000E+02  0.51100000000E-03 0.  1.
         11   -1    0    0    0    0 -0.00000000000E+00 -0.00000000000E+00 -0.45593999997E+02  0.45594000000E+02  0.51100000000E-03 0. -1.
    9900012    2    1    2    0    0 -0.21582879346E+02  0.26082673465E+02  0.27156893008E+02  0.47787269893E+02  0.19999994751E+02 0.  0.
         12    1    1    2    0    0  0.21582879346E+02 -0.26082673465E+02 -0.27156893008E+02  0.43400730107E+02  0.00000000000E+00 0. -1.
         11    1    3    3    0    0 -0.36769102789E+01  0.73805654023E+01 -0.14521442132E+01  0.83726422313E+01  0.51100000000E-03 0. -1.
        -11    1    3    3    0    0 -0.14762299413E+02  0.17516102411E+02  0.20915104234E+02  0.31019041136E+02  0.51100000000E-03 0.  1.
        -12    1    3    3    0    0 -0.31436696544E+01  0.11860056519E+01  0.76939329871E+01  0.83955865258E+01  0.00000000000E+00 0.  1.
</event>
<event>
 7    1  0.2412036E-009  0.4778728E+02  0.7816164E-02  0.1312668E+00
        -11   -1    0    0    0    0  0.00000000000E+00  0.00000000000E+00  0.45593999997E+02  0.45594000000E+02  0.51100000000E-03 0. -1.
         11   -1    0    0    0    0 -0.00000000000E+00 -0.00000000000E+00 -0.45593999997E+02  0.45594000000E+02  0.51100000000E-03 0.  1.
    9900012    2    1    2    0    0  0.42117704871E+02 -0.23633893370E+01  0.10204696693E+02  0.47787279875E+02  0.20000040264E+02 0.  0.
         12    1    1    2    0    0 -0.42117704871E+02  0.23633893370E+01 -0.10204696693E+02  0.43400720125E+02  0.00000000000E+00 0. -1.
         11    1    3    3    0    0  0.24040530805E+01 -0.47569536504E+01  0.38596409320E+01  0.65806464447E+01  0.51100000000E-03 0. -1.
        -11    1    3    3    0    0  0.36136526971E+02  0.30817573552E+01  0.81030623762E+01  0.37161881411E+02  0.51100000000E-03 0.  1.
         12    1    3    3    0    0  0.35771248195E+01 -0.68819304184E+00 -0.17580066156E+01  0.40447520193E+01  0.00000000000E+00 0. -1.
</event>
<event>
 7    1  0.2412036E-009  0.4778727E+02  0.7816164E-02  0.1312668E+00
        -11   -1    0    0    0    0  0.00000000000E+00  0.00000000000E+00  0.45593999997E+02  0.45594000000E+02  0.51100000000E-03 0. -1.
         11   -1    0    0    0    0 -0.00000000000E+00 -0.00000000000E+00 -0.45593999997E+02  0.45594000000E+02  0.51100000000E-03 0.  1.
    9900012    2    1    2    0    0  0.34764758201E+02  0.13982001282E+02 -0.21898365042E+02  0.47787272309E+02  0.20000005766E+02 0.  0.
         12    1    1    2    0    0 -0.34764758201E+02 -0.13982001282E+02  0.21898365042E+02  0.43400727691E+02  0.00000000000E+00 0. -1.
         11    1    3    3    0    0  0.33242711268E+01  0.90722138052E+01 -0.67366643250E+01  0.11778730337E+02  0.51100000000E-03 0. -1.
        -11    1    3    3    0    0  0.21035134348E+02  0.27450338372E+01 -0.13767237844E+02  0.25289304576E+02  0.51100000000E-03 0.  1.
         12    1    3    3    0    0  0.10405352726E+02  0.21647536392E+01 -0.13944628728E+01  0.10719237397E+02  0.00000000000E+00 0. -1.
</event>
<event>
 7    1  0.2412036E-009  0.4778728E+02  0.7816164E-02  0.1312668E+00
        -11   -1    0    0    0    0  0.00000000000E+00  0.00000000000E+00  0.45593999997E+02  0.45594000000E+02  0.51100000000E-03 0. -1.
         11   -1    0    0    0    0 -0.00000000000E+00 -0.00000000000E+00 -0.45593999997E+02  0.45594000000E+02  0.51100000000E-03 0.  1.
    9900012    2    1    2    0    0  0.81234003413E+01 -0.76861100115E+01 -0.41935149114E+02  0.47787278216E+02  0.20000032697E+02 0.  0.
         12    1    1    2    0    0 -0.81234003413E+01  0.76861100115E+01  0.41935149114E+02  0.43400721784E+02  0.00000000000E+00 0. -1.
         11    1    3    3    0    0  0.45708618114E+01  0.43749615745E+01 -0.95090489557E+01  0.11421693341E+02  0.51100000000E-03 0. -1.
        -11    1    3    3    0    0  0.45837114743E+01 -0.13702936919E+02 -0.29598884051E+02  0.32937438097E+02  0.51100000000E-03 0.  1.
         12    1    3    3    0    0 -0.10311729444E+01  0.16418653326E+01 -0.28272161069E+01  0.34281467773E+01  0.00000000000E+00 0. -1.
</event>
<event>
 7    1  0.2412036E-009  0.4778727E+02  0.7816164E-02  0.1312668E+00
        -11   -1    0    0    0    0  0.00000000000E+00  0.00000000000E+00  0.45593999997E+02  0.45594000000E+02  0.51100000000E-03 0. -1.
         11   -1    0    0    0    0 -0.00000000000E+00 -0.00000000000E+00 -0.45593999997E+02  0.45594000000E+02  0.51100000000E-03 0.  1.
    9900012    2    1    2    0    0  0.10901433130E+02 -0.36825376793E+02 -0.20215678000E+02  0.47787271237E+02  0.20000000876E+02 0.  0.
         12    1    1    2    0    0 -0.10901433130E+02  0.36825376793E+02  0.20215678000E+02  0.43400728763E+02  0.00000000000E+00 0. -1.
         11    1    3    3    0    0  0.87829823213E+01 -0.22871161571E+02 -0.22513841518E+02  0.33273170426E+02  0.51100000000E-03 0. -1.
        -11    1    3    3    0    0  0.89107791505E+00 -0.80315749014E+01  0.25106487709E+01  0.84618894320E+01  0.51100000000E-03 0.  1.
         12    1    3    3    0    0  0.12273728936E+01 -0.59226403204E+01 -0.21248525254E+00  0.60522113783E+01  0.00000000000E+00 0. -1.
</event>
<event>
 7    1  0.2412036E-009  0.4778727E+02  0.7816164E-02  0.1312668E+00
        -11   -1    0    0    0    0  0.00000000000E+00  0.00000000000E+00  0.45593999997E+02  0.45594000000E+02  0.51100000000E-03 0.  1.
         11   -1    0    0    0    0 -0.00000000000E+00 -0.00000000000E+00 -0.45593999997E+02  0.45594000000E+02  0.51100000000E-03 0. -1.
    9900012    2    1    2    0    0 -0.77381140732E+01 -0.24190996926E+02  0.35192906013E+02  0.47787269876E+02  0.19999994672E+02 0.  0.
         12    1    1    2    0    0  0.77381140732E+01  0.24190996926E+02 -0.35192906013E+02  0.43400730124E+02  0.00000000000E+00 0. -1.
         11    1    3    3    0    0 -0.39190737377E+01 -0.16611666763E+02  0.92627800541E+01  0.19419209721E+02  0.51100000000E-03 0. -1.
        -11    1    3    3    0    0 -0.54667260907E+01 -0.72846516194E+01  0.24594314769E+02  0.26226543092E+02  0.51100000000E-03 0.  1.
         12    1    3    3    0    0  0.16476857552E+01 -0.29467854347E+00  0.13358111901E+01  0.21415170622E+01  0.00000000000E+00 0. -1.
</event>
<event>
 7    1  0.2412036E-009  0.4778727E+02  0.7816164E-02  0.1312668E+00
        -11   -1    0    0    0    0  0.00000000000E+00  0.00000000000E+00  0.45593999997E+02  0.45594000000E+02  0.51100000000E-03 0.  1.
         11   -1    0    0    0    0 -0.00000000000E+00 -0.00000000000E+00 -0.45593999997E+02  0.45594000000E+02  0.51100000000E-03 0. -1.
    9900012    2    1    2    0    0  0.16578559313E+02 -0.45641569987E+01  0.39849007384E+02  0.47787267892E+02  0.19999985626E+02 0.  0.
         12    1    1    2    0    0 -0.16578559313E+02  0.45641569987E+01 -0.39849007384E+02  0.43400732108E+02  0.00000000000E+00 0. -1.
         11    1    3    3    0    0  0.47060131329E+01 -0.61785065744E+01  0.35466115858E+01  0.85380886092E+01  0.51100000000E-03 0. -1.
        -11    1    3    3    0    0 -0.12031510772E+01  0.20092361075E+00  0.73378009666E+01  0.74384989144E+01  0.51100000000E-03 0.  1.
         12    1    3    3    0    0  0.13075697257E+02  0.14134259649E+01  0.28964594832E+02  0.31810680368E+02  0.00000000000E+00 0. -1.
</event>
<event>
 7    1  0.2412036E-009  0.4778727E+02  0.7816164E-02  0.1312668E+00
        -11   -1    0    0    0    0  0.00000000000E+00  0.00000000000E+00  0.45593999997E+02  0.45594000000E+02  0.51100000000E-03 0.  1.
         11   -1    0    0    0    0 -0.00000000000E+00 -0.00000000000E+00 -0.45593999997E+02  0.45594000000E+02  0.51100000000E-03 0. -1.
    9900012    2    1    2    0    0  0.37554948553E+02  0.21738415293E+02 -0.83093642936E+00  0.47787270564E+02  0.19999997809E+02 0.  0.
         12    1    1    2    0    0 -0.37554948553E+02 -0.21738415293E+02  0.83093642936E+00  0.43400729436E+02  0.00000000000E+00 0. -1.
         11    1    3    3    0    0  0.74807556378E+01 -0.25255448224E+01 -0.37150433917E+01  0.87259170994E+01  0.51100000000E-03 0. -1.
        -11    1    3    3    0    0  0.19860226441E+02  0.17008738164E+02 -0.23984101600E+00  0.26149250318E+02  0.51100000000E-03 0.  1.
         12    1    3    3    0    0  0.10213966474E+02  0.72552219509E+01  0.31239479783E+01  0.12912103146E+02  0.00000000000E+00 0. -1.
</event>
<event>
 7    1  0.2412036E-009  0.4778727E+02  0.7816164E-02  0.1312668E+00
        -11   -1    0    0    0    0  0.00000000000E+00  0.00000000000E+00  0.45593999997E+02  0.45594000000E+02  0.51100000000E-03 0. -1.
         11   -1    0    0    0    0 -0.00000000000E+00 -0.00000000000E+00 -0.45593999997E+02  0.45594000000E+02  0.51100000000E-03 0.  1.
    9900012    2    1    2    0    0 -0.41555954717E+02 -0.12408021446E+02  0.16633483600E+01  0.47787273089E+02  0.20000009321E+02 0.  0.
         12    1    1    2    0    0  0.41555954717E+02  0.12408021446E+02 -0.16633483600E+01  0.43400726911E+02  0.00000000000E+00 0. -1.
         11    1    3    3    0    0 -0.45088137692E+01 -0.36318979560E+01 -0.40837473791E+01  0.70849895755E+01  0.51100000000E-03 0. -1.
        -11    1    3    3    0    0 -0.37305511534E+02 -0.63375750519E+01  0.55009549029E+01  0.38237763447E+02  0.51100000000E-03 0.  1.
        -12    1    3    3    0    0  0.25837058592E+00 -0.24385484382E+01  0.24614083623E+00  0.24645200661E+01  0.00000000000E+00 0.  1.
</event>
<event>
 7    1  0.2412036E-009  0.4778727E+02  0.7816164E-02  0.1312668E+00
        -11   -1    0    0    0    0  0.00000000000E+00  0.00000000000E+00  0.45593999997E+02  0.45594000000E+02  0.51100000000E-03 0. -1.
         11   -1    0    0    0    0 -0.00000000000E+00 -0.00000000000E+00 -0.45593999997E+02  0.45594000000E+02  0.51100000000E-03 0.  1.
    9900012    2    1    2    0    0  0.21336963261E+02 -0.28430903054E+02 -0.24900621975E+02  0.47787271614E+02  0.20000002596E+02 0.  0.
         12    1    1    2    0    0 -0.21336963261E+02  0.28430903054E+02  0.24900621975E+02  0.43400728386E+02  0.00000000000E+00 0. -1.
         11    1    3    3    0    0  0.10724912207E+02 -0.70183579952E+01 -0.15232181940E+02  0.19907296595E+02  0.51100000000E-03 0. -1.
        -11    1    3    3    0    0  0.10793654088E+02 -0.19538270796E+02 -0.11622689655E+02  0.25166126229E+02  0.51100000000E-03 0.  1.
        -12    1    3    3    0    0 -0.18160303399E+00 -0.18742742629E+01  0.19542496205E+01  0.27138487898E+01  0.00000000000E+00 0.  1.
</event>
<event>
 7    1  0.2412036E-009  0.4778727E+02  0.7816164E-02  0.1312668E+00
        -11   -1    0    0    0    0  0.00000000000E+00  0.00000000000E+00  0.45593999997E+02  0.45594000000E+02  0.51100000000E-03 0.  1.
         11   -1    0    0    0    0 -0.00000000000E+00 -0.00000000000E+00 -0.45593999997E+02  0.45594000000E+02  0.51100000000E-03 0. -1.
    9900012    2    1    2    0    0  0.10307161048E+02 -0.21443846019E+02  0.36298028758E+02  0.47787274284E+02  0.20000014771E+02 0.  0.
         12    1    1    2    0    0 -0.10307161048E+02  0.21443846019E+02 -0.36298028758E+02  0.43400725716E+02  0.00000000000E+00 0. -1.
         11    1    3    3    0    0  0.61333440351E+01 -0.28176558453E+01  0.47271108251E+01  0.82403076720E+01  0.51100000000E-03 0. -1.
        -11    1    3    3    0    0 -0.52704219754E+01 -0.74505367971E+01  0.13496454468E+02  0.16292394846E+02  0.51100000000E-03 0.  1.
        -12    1    3    3    0    0  0.94442389886E+01 -0.11175653376E+02  0.18074463465E+02  0.23254571766E+02  0.00000000000E+00 0.  1.
</event>
<event>
 7    1  0.2412036E-009  0.4778728E+02  0.7816164E-02  0.1312668E+00
        -11   -1    0    0    0    0  0.00000000000E+00  0.00000000000E+00  0.45593999997E+02  0.45594000000E+02  0.51100000000E-03 0.  1.
         11   -1    0    0    0    0 -0.00000000000E+00 -0.00000000000E+00 -0.45593999997E+02  0.45594000000E+02  0.51100000000E-03 0. -1.
    9900012    2    1    2    0    0  0.13640015391E+02  0.24789888767E+02  0.32909484025E+02  0.47787277151E+02  0.20000027844E+02 0.  0.
         12    1    1    2    0    0 -0.13640015391E+02 -0.24789888767E+02 -0.32909484025E+02  0.43400722849E+02  0.00000000000E+00 0. -1.
         11    1    3    3    0    0  0.85324453143E+01  0.15611642560E+02  0.28246072552E+02  0.33382130270E+02  0.51100000000E-03 0. -1.
        -11    1    3    3    0    0  0.36921739829E+00  0.18327853016E+01  0.53204040384E+01  0.56393370924E+01  0.51100000000E-03 0.  1.
         12    1    3    3    0    0  0.47383526787E+01  0.73454609062E+01 -0.65699256541E+00  0.87658097894E+01  0.00000000000E+00 0. -1.
</event>
<event>
 7    1  0.2412036E-009  0.4778727E+02  0.7816164E-02  0.1312668E+00
        -11   -1    0    0    0    0  0.00000000000E+00  0.00000000000E+00  0.45593999997E+02  0.45594000000E+02  0.51100000000E-03 0.  1.
         11   -1    0    0    0    0 -0.00000000000E+00 -0.00000000000E+00 -0.45593999997E+02  0.45594000000E+02  0.51100000000E-03 0. -1.
    9900012    2    1    2    0    0 -0.17200529769E+02 -0.31999499509E+02  0.23744417256E+02  0.47787267933E+02  0.19999985813E+02 0.  0.
         12    1    1    2    0    0  0.17200529769E+02  0.31999499509E+02 -0.23744417256E+02  0.43400732067E+02  0.00000000000E+00 0. -1.
         11    1    3    3    0    0 -0.82790180925E+01 -0.11534784880E+01  0.83157319394E+01  0.11790846074E+02  0.51100000000E-03 0. -1.
        -11    1    3    3    0    0 -0.40987990068E+01 -0.21623449755E+02  0.11815863284E+02  0.24979758966E+02  0.51100000000E-03 0.  1.
         12    1    3    3    0    0 -0.48227126698E+01 -0.92225712659E+01  0.36128220321E+01  0.11016662892E+02  0.00000000000E+00 0. -1.
</event>
<event>
 7    1  0.2412036E-009  0.4778727E+02  0.7816164E-02  0.1312668E+00
        -11   -1    0    0    0    0  0.00000000000E+00  0.00000000000E+00  0.45593999997E+02  0.45594000000E+02  0.51100000000E-03 0. -1.
         11   -1    0    0    0    0 -0.00000000000E+00 -0.00000000000E+00 -0.45593999997E+02  0.45594000000E+02  0.51100000000E-03 0.  1.
    9900012    2    1    2    0    0 -0.54074085027E+01 -0.32502915891E+02 -0.28247904326E+02  0.47787266055E+02  0.19999977251E+02 0.  0.
         12    1    1    2    0    0  0.54074085027E+01  0.32502915891E+02  0.28247904326E+02  0.43400733945E+02  0.00000000000E+00 0. -1.
         11    1    3    3    0    0 -0.84955595407E+01 -0.75064534107E+01 -0.10113586928E+02  0.15192301193E+02  0.51100000000E-03 0. -1.
        -11    1    3    3    0    0  0.66907005900E+00 -0.19827547521E+02 -0.18148921835E+02  0.26887964956E+02  0.51100000000E-03 0.  1.
         12    1    3    3    0    0  0.24190809791E+01 -0.51689149592E+01  0.14604436789E-01  0.57069999061E+01  0.00000000000E+00 0. -1.
</event>
<event>
 7    1  0.2412036E-009  0.4778727E+02  0.7816164E-02  0.1312668E+00
        -11   -1    0    0    0    0  0.00000000000E+00  0.00000000000E+00  0.45593999997E+02  0.45594000000E+02  0.51100000000E-03 0. -1.
         11   -1    0    0    0    0 -0.00000000000E+00 -0.00000000000E+00 -0.45593999997E+02  0.45594000000E+02  0.51100000000E-03 0.  1.
    9900012    2    1    2    0    0  0.36992436769E+02  0.18366960005E+02 -0.13335570443E+02  0.47787273774E+02  0.20000012446E+02 0.  0.
         12    1    1    2    0    0 -0.36992436769E+02 -0.18366960005E+02  0.13335570443E+02  0.43400726226E+02  0.00000000000E+00 0. -1.
         11    1    3    3    0    0  0.85565905520E+01  0.21516766710E+01 -0.10114632619E+02  0.13422024723E+02  0.51100000000E-03 0.  1.
        -11    1    3    3    0    0  0.14883771323E+02  0.13840438017E+02 -0.33921092271E+01  0.20605600661E+02  0.51100000000E-03 0. -1.
         12    1    3    3    0    0  0.13552074893E+02  0.23748453165E+01  0.17117140355E+00  0.13759648391E+02  0.00000000000E+00 0. -1.
</event>
<event>
 7    1  0.2412036E-009  0.4778727E+02  0.7816164E-02  0.1312668E+00
        -11   -1    0    0    0    0  0.00000000000E+00  0.00000000000E+00  0.45593999997E+02  0.45594000000E+02  0.51100000000E-03 0.  1.
         11   -1    0    0    0    0 -0.00000000000E+00 -0.00000000000E+00 -0.45593999997E+02  0.45594000000E+02  0.51100000000E-03 0. -1.
    9900012    2    1    2    0    0 -0.25464872205E+02 -0.32704868483E+02 -0.12866821408E+02  0.47787271527E+02  0.20000002200E+02 0.  0.
         12    1    1    2    0    0  0.25464872205E+02  0.32704868483E+02  0.12866821408E+02  0.43400728473E+02  0.00000000000E+00 0. -1.
         11    1    3    3    0    0 -0.85816166544E+01 -0.11924267254E+02 -0.11557926090E+02  0.18692724513E+02  0.51100000000E-03 0. -1.
        -11    1    3    3    0    0 -0.39351331501E+01 -0.65017702779E+01  0.46616667928E+01  0.89156843374E+01  0.51100000000E-03 0.  1.
        -12    1    3    3    0    0 -0.12948122400E+02 -0.14278830951E+02 -0.59705621099E+01  0.20178862677E+02  0.00000000000E+00 0.  1.
</event>
<event>
 7    1  0.2412036E-009  0.4778727E+02  0.7816164E-02  0.1312668E+00
        -11   -1    0    0    0    0  0.00000000000E+00  0.00000000000E+00  0.45593999997E+02  0.45594000000E+02  0.51100000000E-03 0.  1.
         11   -1    0    0    0    0 -0.00000000000E+00 -0.00000000000E+00 -0.45593999997E+02  0.45594000000E+02  0.51100000000E-03 0. -1.
    9900012    2    1    2    0    0 -0.10311112655E+02 -0.20873362607E+02  0.36627954633E+02  0.47787269922E+02  0.19999994882E+02 0.  0.
         12    1    1    2    0    0  0.10311112655E+02  0.20873362607E+02 -0.36627954633E+02  0.43400730078E+02  0.00000000000E+00 0. -1.
         11    1    3    3    0    0 -0.45243888447E+01 -0.77544046448E+01  0.18311775772E+01  0.91626468553E+01  0.51100000000E-03 0. -1.
        -11    1    3    3    0    0  0.89462929905E+00 -0.30231960772E+01  0.15702291469E+02  0.16015680870E+02  0.51100000000E-03 0.  1.
        -12    1    3    3    0    0 -0.66813531094E+01 -0.10095761885E+02  0.19094485587E+02  0.22608942197E+02  0.00000000000E+00 0.  1.
</event>
<event>
 7    1  0.2596392E-009  0.4778727E+02  0.7816164E-02  0.1312668E+00
        -11   -1    0    0    0    0  0.00000000000E+00  0.00000000000E+00  0.45593999997E+02  0.45594000000E+02  0.51100000000E-03 0.  1.
         11   -1    0    0    0    0 -0.00000000000E+00 -0.00000000000E+00 -0.45593999997E+02  0.45594000000E+02  0.51100000000E-03 0. -1.
    9900012    2    1    2    0    0  0.29697307343E+02 -0.16831766842E+02  0.26802700794E+02  0.47787271799E+02  0.20000003443E+02 0.  0.
         12    1    1    2    0    0 -0.29697307343E+02  0.16831766842E+02 -0.26802700794E+02  0.43400728201E+02  0.00000000000E+00 0. -1.
         11    1    3    3    0    0 -0.39750305320E+00 -0.35163791529E+01 -0.77637005639E+00  0.36229382758E+01  0.51100000000E-03 0. -1.
        -11    1    3    3    0    0  0.24780482387E+02 -0.11008999128E+02  0.16719447849E+02  0.31856087421E+02  0.51100000000E-03 0.  1.
        -12    1    3    3    0    0  0.53143280096E+01 -0.23063885608E+01  0.10859623002E+02  0.12308246103E+02  0.00000000000E+00 0.  1.
</event>
<event>
 7    1  0.2412036E-009  0.4778721E+02  0.7816164E-02  0.1312668E+00
        -11   -1    0    0    0    0  0.00000000000E+00  0.00000000000E+00  0.45593999997E+02  0.45594000000E+02  0.51100000000E-03 0. -1.
         11   -1    0    0    0    0 -0.00000000000E+00 -0.00000000000E+00 -0.45593999997E+02  0.45594000000E+02  0.51100000000E-03 0.  1.
    9900012    2    1    2    0    0  0.30364883278E+02 -0.29478137119E+02 -0.96250785697E+01  0.47787206897E+02  0.19999707526E+02 0.  0.
         12    1    1    2    0    0 -0.30364883278E+02  0.29478137119E+02  0.96250785697E+01  0.43400793103E+02  0.00000000000E+00 0. -1.
         11    1    3    3    0    0  0.17552573077E+02 -0.22929185112E+02 -0.13631037455E+02  0.31931888981E+02  0.51100000000E-03 0. -1.
        -11    1    3    3    0    0  0.99722567984E+01 -0.37630209159E+01  0.69817312618E+00  0.10681464227E+02  0.51100000000E-03 0.  1.
         12    1    3    3    0    0  0.28400534025E+01 -0.27859310905E+01  0.33077857588E+01  0.51738536891E+01  0.00000000000E+00 0. -1.
</event>
<event>
 7    1  0.2412036E-009  0.4778727E+02  0.7816164E-02  0.1312668E+00
        -11   -1    0    0    0    0  0.00000000000E+00  0.00000000000E+00  0.45593999997E+02  0.45594000000E+02  0.51100000000E-03 0. -1.
         11   -1    0    0    0    0 -0.00000000000E+00 -0.00000000000E+00 -0.45593999997E+02  0.45594000000E+02  0.51100000000E-03 0.  1.
    9900012    2    1    2    0    0 -0.38298508656E+02  0.19372555410E+02 -0.64460367863E+01  0.47787273524E+02  0.20000011306E+02 0.  0.
         12    1    1    2    0    0  0.38298508656E+02 -0.19372555410E+02  0.64460367863E+01  0.43400726476E+02  0.00000000000E+00 0. -1.
         11    1    3    3    0    0 -0.74643918116E+01  0.45299254138E+01 -0.17278456400E+01  0.89007202062E+01  0.51100000000E-03 0. -1.
        -11    1    3    3    0    0 -0.13891552812E+02  0.30824699012E+01 -0.10246090769E+02  0.17534515578E+02  0.51100000000E-03 0.  1.
        -12    1    3    3    0    0 -0.16942564032E+02  0.11760160095E+02  0.55278996227E+01  0.21352037741E+02  0.00000000000E+00 0.  1.
</event>
<event>
 7    1  0.2412036E-009  0.4778728E+02  0.7816164E-02  0.1312668E+00
        -11   -1    0    0    0    0  0.00000000000E+00  0.00000000000E+00  0.45593999997E+02  0.45594000000E+02  0.51100000000E-03 0.  1.
         11   -1    0    0    0    0 -0.00000000000E+00 -0.00000000000E+00 -0.45593999997E+02  0.45594000000E+02  0.51100000000E-03 0. -1.
    9900012    2    1    2    0    0  0.20638605480E+01 -0.51483717982E+01  0.43044827464E+02  0.47787280836E+02  0.20000044643E+02 0.  0.
         12    1    1    2    0    0 -0.20638605480E+01  0.51483717982E+01 -0.43044827464E+02  0.43400719164E+02  0.00000000000E+00 0. -1.
         11    1    3    3    0    0  0.90607550069E+00 -0.45875219592E+01  0.20521640721E+02  0.21047661834E+02  0.51100000000E-03 0. -1.
        -11    1    3    3    0    0 -0.62274830373E+01  0.20847258274E+01  0.10180948760E+02  0.12115252563E+02  0.51100000000E-03 0.  1.
        -12    1    3    3    0    0  0.73852680846E+01 -0.26455756665E+01  0.12342237983E+02  0.14624366438E+02  0.00000000000E+00 0.  1.
</event>
<event>
 7    1  0.2412036E-009  0.4778727E+02  0.7816164E-02  0.1312668E+00
        -11   -1    0    0    0    0  0.00000000000E+00  0.00000000000E+00  0.45593999997E+02  0.45594000000E+02  0.51100000000E-03 0. -1.
         11   -1    0    0    0    0 -0.00000000000E+00 -0.00000000000E+00 -0.45593999997E+02  0.45594000000E+02  0.51100000000E-03 0.  1.
    9900012    2    1    2    0    0 -0.32807211575E+02 -0.10926806279E+02 -0.26228135356E+02  0.47787270616E+02  0.19999998047E+02 0.  0.
         12    1    1    2    0    0  0.32807211575E+02  0.10926806279E+02  0.26228135356E+02  0.43400729384E+02  0.00000000000E+00 0. -1.
         11    1    3    3    0    0 -0.10477001582E+02 -0.36380733511E+00 -0.19640849879E+00  0.10485155911E+02  0.51100000000E-03 0. -1.
        -11    1    3    3    0    0 -0.21502132962E+02 -0.12135207761E+02 -0.25382933096E+02  0.35410426178E+02  0.51100000000E-03 0.  1.
         12    1    3    3    0    0 -0.82807703146E+00  0.15722088177E+01 -0.64879376169E+00  0.18916885266E+01  0.00000000000E+00 0. -1.
</event>
<event>
 7    1  0.2412036E-009  0.4778729E+02  0.7816164E-02  0.1312668E+00
        -11   -1    0    0    0    0  0.00000000000E+00  0.00000000000E+00  0.45593999997E+02  0.45594000000E+02  0.51100000000E-03 0.  1.
         11   -1    0    0    0    0 -0.00000000000E+00 -0.00000000000E+00 -0.45593999997E+02  0.45594000000E+02  0.51100000000E-03 0. -1.
    9900012    2    1    2    0    0 -0.95828536663E+01 -0.35253487224E+02  0.23430375906E+02  0.47787286170E+02  0.20000068964E+02 0.  0.
         12    1    1    2    0    0  0.95828536663E+01  0.35253487224E+02 -0.23430375906E+02  0.43400713830E+02  0.00000000000E+00 0. -1.
         11    1    3    3    0    0  0.38372047740E+01 -0.14838873288E+02  0.61018553483E+01  0.16496937288E+02  0.51100000000E-03 0. -1.
        -11    1    3    3    0    0 -0.91435836881E+01 -0.19550857250E+02  0.13300546401E+02  0.25352429404E+02  0.51100000000E-03 0.  1.
         12    1    3    3    0    0 -0.42764747522E+01 -0.86375668619E+00  0.40279741565E+01  0.59379194778E+01  0.00000000000E+00 0. -1.
</event>
<event>
 7    1  0.2412036E-009  0.4778727E+02  0.7816164E-02  0.1312668E+00
        -11   -1    0    0    0    0  0.00000000000E+00  0.00000000000E+00  0.45593999997E+02  0.45594000000E+02  0.51100000000E-03 0.  1.
         11   -1    0    0    0    0 -0.00000000000E+00 -0.00000000000E+00 -0.45593999997E+02  0.45594000000E+02  0.51100000000E-03 0. -1.
    9900012    2    1    2    0    0 -0.20603309404E+02 -0.23653564048E+02  0.29993927920E+02  0.47787272326E+02  0.20000005843E+02 0.  0.
         12    1    1    2    0    0  0.20603309404E+02  0.23653564048E+02 -0.29993927920E+02  0.43400727674E+02  0.00000000000E+00 0. -1.
         11    1    3    3    0    0 -0.10244913181E+01 -0.52768289080E-01 -0.11687610346E+01  0.15551107904E+01  0.51100000000E-03 0.  1.
        -11    1    3    3    0    0 -0.14471854196E+02 -0.10062540008E+02  0.90706161377E+01  0.19823353719E+02  0.51100000000E-03 0. -1.
        -12    1    3    3    0    0 -0.51069638894E+01 -0.13538255751E+02  0.22092072817E+02  0.26408807817E+02  0.00000000000E+00 0.  1.
</event>
<event>
 7    1  0.2412036E-009  0.4778727E+02  0.7816164E-02  0.1312668E+00
        -11   -1    0    0    0    0  0.00000000000E+00  0.00000000000E+00  0.45593999997E+02  0.45594000000E+02  0.51100000000E-03 0. -1.
         11   -1    0    0    0    0 -0.00000000000E+00 -0.00000000000E+00 -0.45593999997E+02  0.45594000000E+02  0.51100000000E-03 0.  1.
    9900012    2    1    2    0    0  0.17876054491E+02  0.35953557489E+02 -0.16474582939E+02  0.47787268402E+02  0.19999987950E+02 0.  0.
         12    1    1    2    0    0 -0.17876054491E+02 -0.35953557489E+02  0.16474582939E+02  0.43400731598E+02  0.00000000000E+00 0. -1.
         11    1    3    3    0    0 -0.28476010518E+01  0.32061495928E+01  0.33153058714E+00  0.43009463788E+01  0.51100000000E-03 0. -1.
        -11    1    3    3    0    0  0.16656788336E+02  0.30844248299E+02 -0.12366299186E+02  0.37171785088E+02  0.51100000000E-03 0.  1.
         12    1    3    3    0    0  0.40668672066E+01  0.19031595971E+01 -0.44398143400E+01  0.63145369349E+01  0.00000000000E+00 0. -1.
</event>
<event>
 7    1  0.2412036E-009  0.4778727E+02  0.7816164E-02  0.1312668E+00
        -11   -1    0    0    0    0  0.00000000000E+00  0.00000000000E+00  0.45593999997E+02  0.45594000000E+02  0.51100000000E-03 0. -1.
         11   -1    0    0    0    0 -0.00000000000E+00 -0.00000000000E+00 -0.45593999997E+02  0.45594000000E+02  0.51100000000E-03 0.  1.
    9900012    2    1    2    0    0  0.23644159949E+02 -0.28533103220E+02 -0.22592900159E+02  0.47787269400E+02  0.19999992501E+02 0.  0.
         12    1    1    2    0    0 -0.23644159949E+02  0.28533103220E+02  0.22592900159E+02  0.43400730600E+02  0.00000000000E+00 0. -1.
         11    1    3    3    0    0  0.71984186056E+00 -0.11856725879E+01  0.28436570351E+01  0.31639180432E+01  0.51100000000E-03 0. -1.
        -11    1    3    3    0    0  0.22749353255E+02 -0.23302149469E+02 -0.23321518315E+02  0.40055167708E+02  0.51100000000E-03 0.  1.
         12    1    3    3    0    0  0.17496483344E+00 -0.40452811635E+01 -0.21150388792E+01  0.45681836484E+01  0.00000000000E+00 0. -1.
</event>
<event>
 7    1  0.2412036E-009  0.4778727E+02  0.7816164E-02  0.1312668E+00
        -11   -1    0    0    0    0  0.00000000000E+00  0.00000000000E+00  0.45593999997E+02  0.45594000000E+02  0.51100000000E-03 0. -1.
         11   -1    0    0    0    0 -0.00000000000E+00 -0.00000000000E+00 -0.45593999997E+02  0.45594000000E+02  0.51100000000E-03 0.  1.
    9900012    2    1    2    0    0  0.42642908015E+02  0.49944936826E+01  0.63451137151E+01  0.47787273749E+02  0.20000012330E+02 0.  0.
         12    1    1    2    0    0 -0.42642908015E+02 -0.49944936826E+01 -0.63451137151E+01  0.43400726251E+02  0.00000000000E+00 0. -1.
         11    1    3    3    0    0  0.21046114163E+01 -0.31050050632E+01 -0.25604788652E+01  0.45416404455E+01  0.51100000000E-03 0. -1.
        -11    1    3    3    0    0  0.39922201569E+02  0.63168971920E+01  0.87341477338E+01  0.41351792043E+02  0.51100000000E-03 0.  1.
        -12    1    3    3    0    0  0.61609502944E+00  0.17826015538E+01  0.17144484657E+00  0.18938412606E+01  0.00000000000E+00 0.  1.
</event>
<event>
 7    1  0.2412036E-009  0.4778728E+02  0.7816164E-02  0.1312668E+00
        -11   -1    0    0    0    0  0.00000000000E+00  0.00000000000E+00  0.45593999997E+02  0.45594000000E+02  0.51100000000E-03 0.  1.
         11   -1    0    0    0    0 -0.00000000000E+00 -0.00000000000E+00 -0.45593999997E+02  0.45594000000E+02  0.51100000000E-03 0. -1.
    9900012    2    1    2    0    0  0.64477810378E+01 -0.19494154205E+02  0.38236459529E+02  0.47787276898E+02  0.20000026689E+02 0.  0.
         12    1    1    2    0    0 -0.64477810378E+01  0.19494154205E+02 -0.38236459529E+02  0.43400723102E+02  0.00000000000E+00 0. -1.
         11    1    3    3    0    0 -0.24752253455E+01 -0.16374719250E+01  0.11885611561E+02  0.12250543550E+02  0.51100000000E-03 0. -1.
        -11    1    3    3    0    0  0.10646527963E+02 -0.16218464474E+02  0.16703524855E+02  0.25600681444E+02  0.51100000000E-03 0.  1.
        -12    1    3    3    0    0 -0.17235215796E+01 -0.16382178063E+01  0.96473231122E+01  0.99360519044E+01  0.00000000000E+00 0.  1.
</event>
<event>
 7    1  0.2412036E-009  0.4778728E+02  0.7816164E-02  0.1312668E+00
        -11   -1    0    0    0    0  0.00000000000E+00  0.00000000000E+00  0.45593999997E+02  0.45594000000E+02  0.51100000000E-03 0.  1.
         11   -1    0    0    0    0 -0.00000000000E+00 -0.00000000000E+00 -0.45593999997E+02  0.45594000000E+02  0.51100000000E-03 0. -1.
    9900012    2    1    2    0    0 -0.20796263316E+02 -0.29115325945E+02  0.24564937450E+02  0.47787275067E+02  0.20000018340E+02 0.  0.
         12    1    1    2    0    0  0.20796263316E+02  0.29115325945E+02 -0.24564937450E+02  0.43400724933E+02  0.00000000000E+00 0. -1.
         11    1    3    3    0    0  0.12227812824E+01 -0.11715731178E+02  0.40176416724E+01  0.12445681820E+02  0.51100000000E-03 0. -1.
        -11    1    3    3    0    0 -0.16254110485E+02 -0.14655586772E+02  0.18439068360E+02  0.28617854105E+02  0.51100000000E-03 0.  1.
         12    1    3    3    0    0 -0.57649341133E+01 -0.27440079942E+01  0.21082274173E+01  0.67237391417E+01  0.00000000000E+00 0. -1.
</event>
<event>
 7    1  0.2412036E-009  0.4778727E+02  0.7816164E-02  0.1312668E+00
        -11   -1    0    0    0    0  0.00000000000E+00  0.00000000000E+00  0.45593999997E+02  0.45594000000E+02  0.51100000000E-03 0.  1.
         11   -1    0    0    0    0 -0.00000000000E+00 -0.00000000000E+00 -0.45593999997E+02  0.45594000000E+02  0.51100000000E-03 0. -1.
    9900012    2    1    2    0    0 -0.13390272865E+02  0.39564144670E+02  0.11789923919E+02  0.47787271240E+02  0.20000000893E+02 0.  0.
         12    1    1    2    0    0  0.13390272865E+02 -0.39564144670E+02 -0.11789923919E+02  0.43400728760E+02  0.00000000000E+00 0. -1.
         11    1    3    3    0    0 -0.12933273186E+01  0.17824793482E+01 -0.10132230942E+01  0.24241595408E+01  0.51100000000E-03 0. -1.
        -11    1    3    3    0    0 -0.91653012185E+01  0.28214198322E+02  0.71972498464E+00  0.29674260525E+02  0.51100000000E-03 0.  1.
        -12    1    3    3    0    0 -0.29316443282E+01  0.95674669998E+01  0.12083422029E+02  0.15688851175E+02  0.00000000000E+00 0.  1.
</event>
<event>
 7    1  0.2412036E-009  0.4778725E+02  0.7816164E-02  0.1312668E+00
        -11   -1    0    0    0    0  0.00000000000E+00  0.00000000000E+00  0.45593999997E+02  0.45594000000E+02  0.51100000000E-03 0. -1.
         11   -1    0    0    0    0 -0.00000000000E+00 -0.00000000000E+00 -0.45593999997E+02  0.45594000000E+02  0.51100000000E-03 0.  1.
    9900012    2    1    2    0    0  0.37785985740E+02 -0.16317266256E+02 -0.13769222361E+02  0.47787246771E+02  0.19999889326E+02 0.  0.
         12    1    1    2    0    0 -0.37785985740E+02  0.16317266256E+02  0.13769222361E+02  0.43400753229E+02  0.00000000000E+00 0. -1.
         11    1    3    3    0    0  0.33404502761E+02 -0.67999039227E+01 -0.12918805546E+02  0.36455384171E+02  0.51100000000E-03 0.  1.
        -11    1    3    3    0    0  0.32129868562E+00 -0.47528028556E+01 -0.16047656585E+01  0.50266928402E+01  0.51100000000E-03 0. -1.
        -12    1    3    3    0    0  0.40601842938E+01 -0.47645594778E+01  0.75434884360E+00  0.63051697594E+01  0.00000000000E+00 0.  1.
</event>
<event>
 7    1  0.2412036E-009  0.4778727E+02  0.7816164E-02  0.1312668E+00
        -11   -1    0    0    0    0  0.00000000000E+00  0.00000000000E+00  0.45593999997E+02  0.45594000000E+02  0.51100000000E-03 0.  1.
         11   -1    0    0    0    0 -0.00000000000E+00 -0.00000000000E+00 -0.45593999997E+02  0.45594000000E+02  0.51100000000E-03 0. -1.
    9900012    2    1    2    0    0  0.12188638688E+02 -0.33107625396E+02  0.25277376521E+02  0.47787268022E+02  0.19999986220E+02 0.  0.
         12    1    1    2    0    0 -0.12188638688E+02  0.33107625396E+02 -0.25277376521E+02  0.43400731978E+02  0.00000000000E+00 0. -1.
         11    1    3    3    0    0  0.10093660927E+01 -0.11791253129E+01  0.32152327854E+01  0.35702770954E+01  0.51100000000E-03 0. -1.
        -11    1    3    3    0    0  0.25390422145E+01 -0.10083629836E+02  0.17395437773E+02  0.20266415115E+02  0.51100000000E-03 0.  1.
        -12    1    3    3    0    0  0.86402303809E+01 -0.21844870248E+02  0.46667059621E+01  0.23950575812E+02  0.00000000000E+00 0.  1.
</event>
<event>
 7    1  0.2412036E-009  0.4778727E+02  0.7816164E-02  0.1312668E+00
        -11   -1    0    0    0    0  0.00000000000E+00  0.00000000000E+00  0.45593999997E+02  0.45594000000E+02  0.51100000000E-03 0.  1.
         11   -1    0    0    0    0 -0.00000000000E+00 -0.00000000000E+00 -0.45593999997E+02  0.45594000000E+02  0.51100000000E-03 0. -1.
    9900012    2    1    2    0    0  0.35209344384E+02  0.16107974557E+02  0.19607609262E+02  0.47787272848E+02  0.20000008225E+02 0.  0.
         12    1    1    2    0    0 -0.35209344384E+02 -0.16107974557E+02 -0.19607609262E+02  0.43400727152E+02  0.00000000000E+00 0. -1.
         11    1    3    3    0    0 -0.78535469855E+00  0.43460796118E+01  0.25742251793E+01  0.51119297266E+01  0.51100000000E-03 0. -1.
        -11    1    3    3    0    0  0.31916586858E+02  0.13514692947E+02  0.15618279481E+02  0.38016392469E+02  0.51100000000E-03 0.  1.
        -12    1    3    3    0    0  0.40781122248E+01 -0.17527980020E+01  0.14151046022E+01  0.46589506532E+01  0.00000000000E+00 0.  1.
</event>
<event>
 7    1  0.2412036E-009  0.4778726E+02  0.7816164E-02  0.1312668E+00
        -11   -1    0    0    0    0  0.00000000000E+00  0.00000000000E+00  0.45593999997E+02  0.45594000000E+02  0.51100000000E-03 0.  1.
         11   -1    0    0    0    0 -0.00000000000E+00 -0.00000000000E+00 -0.45593999997E+02  0.45594000000E+02  0.51100000000E-03 0. -1.
    9900012    2    1    2    0    0  0.74558132485E+01 -0.43527689161E+00  0.42753309058E+02  0.47787262073E+02  0.19999959096E+02 0.  0.
         12    1    1    2    0    0 -0.74558132485E+01  0.43527689161E+00 -0.42753309058E+02  0.43400737927E+02  0.00000000000E+00 0. -1.
         11    1    3    3    0    0  0.91310621748E+01 -0.37491042938E+01  0.23768907469E+02  0.25736997533E+02  0.51100000000E-03 0. -1.
        -11    1    3    3    0    0  0.31827762777E+01  0.16048156804E+01  0.15321368503E+02  0.15730538175E+02  0.51100000000E-03 0.  1.
         12    1    3    3    0    0 -0.48580252040E+01  0.17090117217E+01  0.36630330860E+01  0.63197263657E+01  0.00000000000E+00 0. -1.
</event>
<event>
 7    1  0.2412036E-009  0.4778727E+02  0.7816164E-02  0.1312668E+00
        -11   -1    0    0    0    0  0.00000000000E+00  0.00000000000E+00  0.45593999997E+02  0.45594000000E+02  0.51100000000E-03 0.  1.
         11   -1    0    0    0    0 -0.00000000000E+00 -0.00000000000E+00 -0.45593999997E+02  0.45594000000E+02  0.51100000000E-03 0. -1.
    9900012    2    1    2    0    0 -0.99768378743E+01 -0.23781395595E+01  0.42171439585E+02  0.47787272374E+02  0.20000006064E+02 0.  0.
         12    1    1    2    0    0  0.99768378743E+01  0.23781395595E+01 -0.42171439585E+02  0.43400727626E+02  0.00000000000E+00 0. -1.
         11    1    3    3    0    0 -0.66656184053E+01  0.62731309990E+01  0.10465812560E+02  0.13903807898E+02  0.51100000000E-03 0. -1.
        -11    1    3    3    0    0 -0.48974121070E+01 -0.61908028032E+01  0.15274932689E+02  0.17194017960E+02  0.51100000000E-03 0.  1.
         12    1    3    3    0    0  0.15861926380E+01 -0.24604677554E+01  0.16430694336E+02  0.16689446517E+02  0.00000000000E+00 0. -1.
</event>
<event>
 7    1  0.2412036E-009  0.4778727E+02  0.7816164E-02  0.1312668E+00
        -11   -1    0    0    0    0  0.00000000000E+00  0.00000000000E+00  0.45593999997E+02  0.45594000000E+02  0.51100000000E-03 0. -1.
         11   -1    0    0    0    0 -0.00000000000E+00 -0.00000000000E+00 -0.45593999997E+02  0.45594000000E+02  0.51100000000E-03 0.  1.
    9900012    2    1    2    0    0  0.81177503513E+01 -0.37448770029E+02 -0.20379280569E+02  0.47787270467E+02  0.19999997369E+02 0.  0.
         12    1    1    2    0    0 -0.81177503513E+01  0.37448770029E+02  0.20379280569E+02  0.43400729533E+02  0.00000000000E+00 0. -1.
         11    1    3    3    0    0  0.10318975640E+02 -0.28811513539E+02 -0.13038407075E+02  0.33265366825E+02  0.51100000000E-03 0.  1.
        -11    1    3    3    0    0 -0.15781223259E+01  0.33377013936E+00  0.12840344104E+01  0.20617025027E+01  0.51100000000E-03 0. -1.
        -12    1    3    3    0    0 -0.62310296230E+00 -0.89710266289E+01 -0.86249079049E+01  0.12460201140E+02  0.00000000000E+00 0.  1.
</event>
<event>
 7    1  0.2412036E-009  0.4778727E+02  0.7816164E-02  0.1312668E+00
        -11   -1    0    0    0    0  0.00000000000E+00  0.00000000000E+00  0.45593999997E+02  0.45594000000E+02  0.51100000000E-03 0. -1.
         11   -1    0    0    0    0 -0.00000000000E+00 -0.00000000000E+00 -0.45593999997E+02  0.45594000000E+02  0.51100000000E-03 0.  1.
    9900012    2    1    2    0    0 -0.13123387720E+02 -0.38909396018E+02  0.14051997838E+02  0.47787273658E+02  0.20000011916E+02 0.  0.
         12    1    1    2    0    0  0.13123387720E+02  0.38909396018E+02 -0.14051997838E+02  0.43400726342E+02  0.00000000000E+00 0. -1.
         11    1    3    3    0    0 -0.49446790437E+01 -0.24346609814E+02  0.14198730187E+02  0.28614877240E+02  0.51100000000E-03 0. -1.
        -11    1    3    3    0    0 -0.26028192737E+01 -0.23900994042E+01 -0.39044271818E+01  0.52660986710E+01  0.51100000000E-03 0.  1.
        -12    1    3    3    0    0 -0.55758894031E+01 -0.12172686800E+02  0.37576948328E+01  0.13906297747E+02  0.00000000000E+00 0.  1.
</event>
<event>
 7    1  0.2412036E-009  0.4778728E+02  0.7816164E-02  0.1312668E+00
        -11   -1    0    0    0    0  0.00000000000E+00  0.00000000000E+00  0.45593999997E+02  0.45594000000E+02  0.51100000000E-03 0.  1.
         11   -1    0    0    0    0 -0.00000000000E+00 -0.00000000000E+00 -0.45593999997E+02  0.45594000000E+02  0.51100000000E-03 0. -1.
    9900012    2    1    2    0    0 -0.30085315032E+02  0.84833386521E+01  0.30108630411E+02  0.47787276037E+02  0.20000022765E+02 0.  0.
         12    1    1    2    0    0  0.30085315032E+02 -0.84833386521E+01 -0.30108630411E+02  0.43400723963E+02  0.00000000000E+00 0. -1.
         11    1    3    3    0    0 -0.22815048238E+02  0.83048096362E+00  0.14511229943E+02  0.27051652804E+02  0.51100000000E-03 0. -1.
        -11    1    3    3    0    0 -0.87014584394E+01  0.40897582602E+01  0.94076114991E+01  0.13451567045E+02  0.51100000000E-03 0.  1.
         12    1    3    3    0    0  0.14311916456E+01  0.35630994282E+01  0.61897889689E+01  0.72840561874E+01  0.00000000000E+00 0. -1.
</event>
<event>
 7    1  0.2412036E-009  0.4778727E+02  0.7816164E-02  0.1312668E+00
        -11   -1    0    0    0    0  0.00000000000E+00  0.00000000000E+00  0.45593999997E+02  0.45594000000E+02  0.51100000000E-03 0. -1.
         11   -1    0    0    0    0 -0.00000000000E+00 -0.00000000000E+00 -0.45593999997E+02  0.45594000000E+02  0.51100000000E-03 0.  1.
    9900012    2    1    2    0    0 -0.18606366979E+02  0.24687169292E+02 -0.30462600396E+02  0.47787271404E+02  0.20000001638E+02 0.  0.
         12    1    1    2    0    0  0.18606366979E+02 -0.24687169292E+02  0.30462600396E+02  0.43400728596E+02  0.00000000000E+00 0. -1.
         11    1    3    3    0    0  0.36254599138E+01  0.12295762571E+01 -0.14248986462E+01  0.40848688806E+01  0.51100000000E-03 0. -1.
        -11    1    3    3    0    0 -0.84606829672E+01  0.12337536807E+02 -0.13407386811E+02  0.20088703097E+02  0.51100000000E-03 0.  1.
         12    1    3    3    0    0 -0.13771143925E+02  0.11120056227E+02 -0.15630314939E+02  0.23613699426E+02  0.00000000000E+00 0. -1.
</event>
<event>
 7    1  0.2412036E-009  0.4778727E+02  0.7816164E-02  0.1312668E+00
        -11   -1    0    0    0    0  0.00000000000E+00  0.00000000000E+00  0.45593999997E+02  0.45594000000E+02  0.51100000000E-03 0.  1.
         11   -1    0    0    0    0 -0.00000000000E+00 -0.00000000000E+00 -0.45593999997E+02  0.45594000000E+02  0.51100000000E-03 0. -1.
    9900012    2    1    2    0    0 -0.31011675333E+02 -0.95057134454E+01  0.28836442624E+02  0.47787273989E+02  0.20000013426E+02 0.  0.
         12    1    1    2    0    0  0.31011675333E+02  0.95057134454E+01 -0.28836442624E+02  0.43400726011E+02  0.00000000000E+00 0. -1.
         11    1    3    3    0    0 -0.91967531851E+01 -0.89138232082E+01  0.33316864026E+01  0.13233920352E+02  0.51100000000E-03 0. -1.
        -11    1    3    3    0    0 -0.11883149914E+02 -0.40946453681E+01  0.16170755011E+02  0.20480934804E+02  0.51100000000E-03 0.  1.
         12    1    3    3    0    0 -0.99317722336E+01  0.35027551310E+01  0.93340012109E+01  0.14072418833E+02  0.00000000000E+00 0. -1.
</event>
<event>
 7    1  0.2412036E-009  0.4778727E+02  0.7816164E-02  0.1312668E+00
        -11   -1    0    0    0    0  0.00000000000E+00  0.00000000000E+00  0.45593999997E+02  0.45594000000E+02  0.51100000000E-03 0.  1.
         11   -1    0    0    0    0 -0.00000000000E+00 -0.00000000000E+00 -0.45593999997E+02  0.45594000000E+02  0.51100000000E-03 0. -1.
    9900012    2    1    2    0    0  0.23756253550E+02  0.36110082960E+02 -0.39147759076E+01  0.47787272535E+02  0.20000006797E+02 0.  0.
         12    1    1    2    0    0 -0.23756253550E+02 -0.36110082960E+02  0.39147759076E+01  0.43400727465E+02  0.00000000000E+00 0. -1.
         11    1    3    3    0    0  0.16001199537E+02  0.10895037900E+02  0.37673417223E+01  0.19721386903E+02  0.51100000000E-03 0.  1.
        -11    1    3    3    0    0  0.62931332989E+01  0.17146545362E+02 -0.78109381626E+01  0.19865001883E+02  0.51100000000E-03 0. -1.
        -12    1    3    3    0    0  0.14619207138E+01  0.80684996975E+01  0.12882053269E+00  0.82008837494E+01  0.00000000000E+00 0.  1.
</event>
<event>
 7    1  0.2609304E-009  0.4778727E+02  0.7816164E-02  0.1312668E+00
        -11   -1    0    0    0    0  0.00000000000E+00  0.00000000000E+00  0.45593999997E+02  0.45594000000E+02  0.51100000000E-03 0. -1.
         11   -1    0    0    0    0 -0.00000000000E+00 -0.00000000000E+00 -0.45593999997E+02  0.45594000000E+02  0.51100000000E-03 0.  1.
    9900012    2    1    2    0    0  0.35396634878E+02  0.12197943494E+02 -0.21952487035E+02  0.47787271052E+02  0.20000000036E+02 0.  0.
         12    1    1    2    0    0 -0.35396634878E+02 -0.12197943494E+02  0.21952487035E+02  0.43400728948E+02  0.00000000000E+00 0. -1.
         11    1    3    3    0    0  0.87484769012E+00 -0.78462273825E+00  0.63680146196E+00  0.13366030396E+01  0.51100000000E-03 0. -1.
        -11    1    3    3    0    0  0.99392179237E+01  0.27601122597E+01  0.16492942567E+01  0.10446360344E+02  0.51100000000E-03 0.  1.
        -12    1    3    3    0    0  0.24582569264E+02  0.10222453973E+02 -0.24238582754E+02  0.36004307669E+02  0.00000000000E+00 0.  1.
</event>
<event>
 7    1  0.2412036E-009  0.4778727E+02  0.7816164E-02  0.1312668E+00
        -11   -1    0    0    0    0  0.00000000000E+00  0.00000000000E+00  0.45593999997E+02  0.45594000000E+02  0.51100000000E-03 0. -1.
         11   -1    0    0    0    0 -0.00000000000E+00 -0.00000000000E+00 -0.45593999997E+02  0.45594000000E+02  0.51100000000E-03 0.  1.
    9900012    2    1    2    0    0 -0.10173744302E+01 -0.18471547453E+02 -0.39260541369E+02  0.47787271611E+02  0.20000002585E+02 0.  0.
         12    1    1    2    0    0  0.10173744302E+01  0.18471547453E+02  0.39260541369E+02  0.43400728389E+02  0.00000000000E+00 0. -1.
         11    1    3    3    0    0  0.27534182632E+01 -0.10348622558E+02 -0.18378284839E+02  0.21270558405E+02  0.51100000000E-03 0. -1.
        -11    1    3    3    0    0 -0.28773134158E+01 -0.11975781987E+02 -0.16817355597E+02  0.20845184965E+02  0.51100000000E-03 0.  1.
         12    1    3    3    0    0 -0.89347927773E+00  0.38528570920E+01 -0.40649009333E+01  0.56715282411E+01  0.00000000000E+00 0. -1.
</event>
<event>
 7    1  0.2412036E-009  0.4778727E+02  0.7816164E-02  0.1312668E+00
        -11   -1    0    0    0    0  0.00000000000E+00  0.00000000000E+00  0.45593999997E+02  0.45594000000E+02  0.51100000000E-03 0.  1.
         11   -1    0    0    0    0 -0.00000000000E+00 -0.00000000000E+00 -0.45593999997E+02  0.45594000000E+02  0.51100000000E-03 0. -1.
    9900012    2    1    2    0    0 -0.39821181677E+02  0.17154351228E+02  0.19039942623E+01  0.47787268781E+02  0.19999989679E+02 0.  0.
         12    1    1    2    0    0  0.39821181677E+02 -0.17154351228E+02 -0.19039942623E+01  0.43400731219E+02  0.00000000000E+00 0. -1.
         11    1    3    3    0    0  0.31578058436E+00  0.25084515380E+01 -0.62700546110E+00  0.26048383069E+01  0.51100000000E-03 0. -1.
        -11    1    3    3    0    0 -0.18788777116E+02  0.74407007870E+01  0.84228220633E+01  0.21893517431E+02  0.51100000000E-03 0.  1.
        -12    1    3    3    0    0 -0.21348185146E+02  0.72051989025E+01 -0.58918223399E+01  0.23288913043E+02  0.00000000000E+00 0.  1.
</event>
<event>
 7    1  0.2412036E-009  0.4778727E+02  0.7816164E-02  0.1312668E+00
        -11   -1    0    0    0    0  0.00000000000E+00  0.00000000000E+00  0.45593999997E+02  0.45594000000E+02  0.51100000000E-03 0.  1.
         11   -1    0    0    0    0 -0.00000000000E+00 -0.00000000000E+00 -0.45593999997E+02  0.45594000000E+02  0.51100000000E-03 0. -1.
    9900012    2    1    2    0    0 -0.30864177072E+02 -0.23743032177E+02 -0.19164925228E+02  0.47787270027E+02  0.19999995359E+02 0.  0.
         12    1    1    2    0    0  0.30864177072E+02  0.23743032177E+02  0.19164925228E+02  0.43400729973E+02  0.00000000000E+00 0. -1.
         11    1    3    3    0    0 -0.67896169442E+01 -0.16641156076E+02 -0.89710406116E+01  0.20087472307E+02  0.51100000000E-03 0. -1.
        -11    1    3    3    0    0 -0.18231996583E+02 -0.78237125060E+01 -0.73017997750E+01  0.21140777115E+02  0.51100000000E-03 0.  1.
        -12    1    3    3    0    0 -0.58425635441E+01  0.72183640513E+00 -0.28920848410E+01  0.65590206045E+01  0.00000000000E+00 0.  1.
</event>
<event>
 7    1  0.2412036E-009  0.4778727E+02  0.7816164E-02  0.1312668E+00
        -11   -1    0    0    0    0  0.00000000000E+00  0.00000000000E+00  0.45593999997E+02  0.45594000000E+02  0.51100000000E-03 0. -1.
         11   -1    0    0    0    0 -0.00000000000E+00 -0.00000000000E+00 -0.45593999997E+02  0.45594000000E+02  0.51100000000E-03 0.  1.
    9900012    2    1    2    0    0 -0.19289925758E+02 -0.21520378574E+02 -0.32378928983E+02  0.47787274524E+02  0.20000015867E+02 0.  0.
         12    1    1    2    0    0  0.19289925758E+02  0.21520378574E+02  0.32378928983E+02  0.43400725476E+02  0.00000000000E+00 0. -1.
         11    1    3    3    0    0 -0.45064740352E+01 -0.18717759306E+01  0.38231196511E+00  0.48946926425E+01  0.51100000000E-03 0. -1.
        -11    1    3    3    0    0 -0.11178863280E+02 -0.10101867834E+02 -0.27628659428E+02  0.31469946616E+02  0.51100000000E-03 0.  1.
        -12    1    3    3    0    0 -0.36045884428E+01 -0.95467348089E+01 -0.51325815203E+01  0.11422635266E+02  0.00000000000E+00 0.  1.
</event>
<event>
 7    1  0.2412036E-009  0.4778727E+02  0.7816164E-02  0.1312668E+00
        -11   -1    0    0    0    0  0.00000000000E+00  0.00000000000E+00  0.45593999997E+02  0.45594000000E+02  0.51100000000E-03 0.  1.
         11   -1    0    0    0    0 -0.00000000000E+00 -0.00000000000E+00 -0.45593999997E+02  0.45594000000E+02  0.51100000000E-03 0. -1.
    9900012    2    1    2    0    0  0.39525416837E+02  0.11543629929E+01  0.17889440895E+02  0.47787271601E+02  0.20000002536E+02 0.  0.
         12    1    1    2    0    0 -0.39525416837E+02 -0.11543629929E+01 -0.17889440895E+02  0.43400728399E+02  0.00000000000E+00 0. -1.
         11    1    3    3    0    0  0.29758584666E+02 -0.25704278579E+01  0.55691783868E+01  0.30384144037E+02  0.51100000000E-03 0.  1.
        -11    1    3    3    0    0  0.57941387549E+01  0.52296945045E+01  0.62770122731E+01  0.10016118603E+02  0.51100000000E-03 0. -1.
         12    1    3    3    0    0  0.39726934160E+01 -0.15049036537E+01  0.60432502349E+01  0.73870089608E+01  0.00000000000E+00 0. -1.
</event>
<event>
 7    1  0.2412036E-009  0.4778727E+02  0.7816164E-02  0.1312668E+00
        -11   -1    0    0    0    0  0.00000000000E+00  0.00000000000E+00  0.45593999997E+02  0.45594000000E+02  0.51100000000E-03 0. -1.
         11   -1    0    0    0    0 -0.00000000000E+00 -0.00000000000E+00 -0.45593999997E+02  0.45594000000E+02  0.51100000000E-03 0.  1.
    9900012    2    1    2    0    0  0.35319540360E+02  0.18810578583E+02 -0.16802246811E+02  0.47787270792E+02  0.19999998850E+02 0.  0.
         12    1    1    2    0    0 -0.35319540360E+02 -0.18810578583E+02  0.16802246811E+02  0.43400729208E+02  0.00000000000E+00 0. -1.
         11    1    3    3    0    0  0.22720415909E+02  0.16158194977E+02 -0.19145700914E+02  0.33821035285E+02  0.51100000000E-03 0.  1.
        -11    1    3    3    0    0  0.54510552098E+01 -0.12664703527E+01  0.13256534012E+01  0.57511135666E+01  0.51100000000E-03 0. -1.
        -12    1    3    3    0    0  0.71480692409E+01  0.39188539584E+01  0.10178007020E+01  0.82151219400E+01  0.00000000000E+00 0.  1.
</event>
<event>
 7    1  0.2412036E-009  0.4778727E+02  0.7816164E-02  0.1312668E+00
        -11   -1    0    0    0    0  0.00000000000E+00  0.00000000000E+00  0.45593999997E+02  0.45594000000E+02  0.51100000000E-03 0.  1.
         11   -1    0    0    0    0 -0.00000000000E+00 -0.00000000000E+00 -0.45593999997E+02  0.45594000000E+02  0.51100000000E-03 0. -1.
    9900012    2    1    2    0    0  0.23334580990E+02 -0.15147763661E+02  0.33311644138E+02  0.47787273634E+02  0.20000011805E+02 0.  0.
         12    1    1    2    0    0 -0.23334580990E+02  0.15147763661E+02 -0.33311644138E+02  0.43400726366E+02  0.00000000000E+00 0. -1.
         11    1    3    3    0    0  0.15021762476E+01 -0.84413210095E+01  0.46572553817E+01  0.97571748891E+01  0.51100000000E-03 0. -1.
        -11    1    3    3    0    0  0.46173953207E+01 -0.60863470804E+01  0.10710399417E+02  0.13155858629E+02  0.51100000000E-03 0.  1.
         12    1    3    3    0    0  0.17215009422E+02 -0.62009557148E+00  0.17943989339E+02  0.24874240115E+02  0.00000000000E+00 0. -1.
</event>
<event>
 7    1  0.2431438E-009  0.4778726E+02  0.7816164E-02  0.1312668E+00
        -11   -1    0    0    0    0  0.00000000000E+00  0.00000000000E+00  0.45593999997E+02  0.45594000000E+02  0.51100000000E-03 0.  1.
         11   -1    0    0    0    0 -0.00000000000E+00 -0.00000000000E+00 -0.45593999997E+02  0.45594000000E+02  0.51100000000E-03 0. -1.
    9900012    2    1    2    0    0 -0.87270334605E+01 -0.38399349694E+02  0.18246994394E+02  0.47787262975E+02  0.19999963207E+02 0.  0.
         12    1    1    2    0    0  0.87270334605E+01  0.38399349694E+02 -0.18246994394E+02  0.43400737025E+02  0.00000000000E+00 0. -1.
         11    1    3    3    0    0 -0.59249327277E+01 -0.61406315392E+01 -0.11451862923E+01  0.86095084316E+01  0.51100000000E-03 0. -1.
        -11    1    3    3    0    0  0.76393860079E+00 -0.29533780763E+02  0.17153594125E+02  0.34162458928E+02  0.51100000000E-03 0.  1.
        -12    1    3    3    0    0 -0.35660393335E+01 -0.27249373915E+01  0.22385865615E+01  0.50152956153E+01  0.00000000000E+00 0.  1.
</event>
<event>
 7    1  0.2412036E-009  0.4778727E+02  0.7816164E-02  0.1312668E+00
        -11   -1    0    0    0    0  0.00000000000E+00  0.00000000000E+00  0.45593999997E+02  0.45594000000E+02  0.51100000000E-03 0.  1.
         11   -1    0    0    0    0 -0.00000000000E+00 -0.00000000000E+00 -0.45593999997E+02  0.45594000000E+02  0.51100000000E-03 0. -1.
    9900012    2    1    2    0    0 -0.39120648000E+02 -0.12010382315E+02  0.14455062992E+02  0.47787271557E+02  0.20000002338E+02 0.  0.
         12    1    1    2    0    0  0.39120648000E+02  0.12010382315E+02 -0.14455062992E+02  0.43400728443E+02  0.00000000000E+00 0. -1.
         11    1    3    3    0    0 -0.51609917774E+01  0.24296465092E+01 -0.24586914253E+01  0.62116167035E+01  0.51100000000E-03 0. -1.
        -11    1    3    3    0    0 -0.23043918892E+02 -0.11313733746E+02  0.72770111273E+01  0.26682909519E+02  0.51100000000E-03 0.  1.
         12    1    3    3    0    0 -0.10915737330E+02 -0.31262950788E+01  0.96367432898E+01  0.14892745335E+02  0.00000000000E+00 0. -1.
</event>
<event>
 7    1  0.2412036E-009  0.4778728E+02  0.7816164E-02  0.1312668E+00
        -11   -1    0    0    0    0  0.00000000000E+00  0.00000000000E+00  0.45593999997E+02  0.45594000000E+02  0.51100000000E-03 0.  1.
         11   -1    0    0    0    0 -0.00000000000E+00 -0.00000000000E+00 -0.45593999997E+02  0.45594000000E+02  0.51100000000E-03 0. -1.
    9900012    2    1    2    0    0 -0.97330717471E+01  0.42035702475E+02  0.46786307615E+01  0.47787279338E+02  0.20000037813E+02 0.  0.
         12    1    1    2    0    0  0.97330717471E+01 -0.42035702475E+02 -0.46786307615E+01  0.43400720662E+02  0.00000000000E+00 0. -1.
         11    1    3    3    0    0  0.46930927852E+01  0.68972042203E+01  0.11558945418E+01  0.84221516491E+01  0.51100000000E-03 0. -1.
        -11    1    3    3    0    0 -0.13004225954E+02  0.35428344908E+02  0.31753594328E+01  0.37872951079E+02  0.51100000000E-03 0.  1.
        -12    1    3    3    0    0 -0.14219385785E+01 -0.28984665382E+00  0.34737678684E+00  0.14921766102E+01  0.00000000000E+00 0.  1.
</event>
<event>
 7    1  0.2412036E-009  0.4778728E+02  0.7816164E-02  0.1312668E+00
        -11   -1    0    0    0    0  0.00000000000E+00  0.00000000000E+00  0.45593999997E+02  0.45594000000E+02  0.51100000000E-03 0.  1.
         11   -1    0    0    0    0 -0.00000000000E+00 -0.00000000000E+00 -0.45593999997E+02  0.45594000000E+02  0.51100000000E-03 0. -1.
    9900012    2    1    2    0    0  0.42947241703E+02  0.30012907620E+01 -0.54908513897E+01  0.47787276906E+02  0.20000026724E+02 0.  0.
         12    1    1    2    0    0 -0.42947241703E+02 -0.30012907620E+01  0.54908513897E+01  0.43400723094E+02  0.00000000000E+00 0. -1.
         11    1    3    3    0    0  0.18867766934E+02  0.89901613219E+01  0.81933674012E+00  0.20916188530E+02  0.51100000000E-03 0. -1.
        -11    1    3    3    0    0  0.31685660369E+01  0.16701399268E+01 -0.22633363483E+01  0.42369646909E+01  0.51100000000E-03 0.  1.
         12    1    3    3    0    0  0.20910908732E+02 -0.76590104867E+01 -0.40468517816E+01  0.22634123685E+02  0.00000000000E+00 0. -1.
</event>
<event>
 7    1  0.2412036E-009  0.4778727E+02  0.7816164E-02  0.1312668E+00
        -11   -1    0    0    0    0  0.00000000000E+00  0.00000000000E+00  0.45593999997E+02  0.45594000000E+02  0.51100000000E-03 0. -1.
         11   -1    0    0    0    0 -0.00000000000E+00 -0.00000000000E+00 -0.45593999997E+02  0.45594000000E+02  0.51100000000E-03 0.  1.
    9900012    2    1    2    0    0 -0.17410464233E+01 -0.14395464276E+02 -0.40906753579E+02  0.47787272786E+02  0.20000007938E+02 0.  0.
         12    1    1    2    0    0  0.17410464233E+01  0.14395464276E+02  0.40906753579E+02  0.43400727214E+02  0.00000000000E+00 0. -1.
         11    1    3    3    0    0 -0.55739547371E+00 -0.14644185334E+01 -0.67175972694E+01  0.68979217660E+01  0.51100000000E-03 0. -1.
        -11    1    3    3    0    0  0.64045632029E+01 -0.13367666606E+02 -0.22185617829E+02  0.26681727438E+02  0.51100000000E-03 0.  1.
        -12    1    3    3    0    0 -0.75882141525E+01  0.43662086349E+00 -0.12003538480E+02  0.14207623582E+02  0.00000000000E+00 0.  1.
</event>
<event>
 7    1  0.2412036E-009  0.4778728E+02  0.7816164E-02  0.1312668E+00
        -11   -1    0    0    0    0  0.00000000000E+00  0.00000000000E+00  0.45593999997E+02  0.45594000000E+02  0.51100000000E-03 0.  1.
         11   -1    0    0    0    0 -0.00000000000E+00 -0.00000000000E+00 -0.45593999997E+02  0.45594000000E+02  0.51100000000E-03 0. -1.
    9900012    2    1    2    0    0  0.43025459531E+02 -0.55324569853E+01 -0.13506415146E+01  0.47787280183E+02  0.20000041667E+02 0.  0.
         12    1    1    2    0    0 -0.43025459531E+02  0.55324569853E+01  0.13506415146E+01  0.43400719817E+02  0.00000000000E+00 0. -1.
         11    1    3    3    0    0 -0.16638141557E+01  0.16399561329E+01 -0.86654607107E+00  0.24917134700E+01  0.51100000000E-03 0. -1.
        -11    1    3    3    0    0  0.17588861559E+02 -0.23781273470E+01 -0.89233569776E+00  0.17771319700E+02  0.51100000000E-03 0.  1.
         12    1    3    3    0    0  0.27100412127E+02 -0.47942857712E+01  0.40824025422E+00  0.27524247013E+02  0.00000000000E+00 0. -1.
</event>
<event>
 7    1  0.2412036E-009  0.4778727E+02  0.7816164E-02  0.1312668E+00
        -11   -1    0    0    0    0  0.00000000000E+00  0.00000000000E+00  0.45593999997E+02  0.45594000000E+02  0.51100000000E-03 0. -1.
         11   -1    0    0    0    0 -0.00000000000E+00 -0.00000000000E+00 -0.45593999997E+02  0.45594000000E+02  0.51100000000E-03 0.  1.
    9900012    2    1    2    0    0 -0.11646604555E+02  0.36471920877E+02 -0.20439644066E+02  0.47787268903E+02  0.19999990239E+02 0.  0.
         12    1    1    2    0    0  0.11646604555E+02 -0.36471920877E+02  0.20439644066E+02  0.43400731097E+02  0.00000000000E+00 0. -1.
         11    1    3    3    0    0 -0.90285129353E+01  0.12981843200E+02 -0.54404650628E+01  0.16722468689E+02  0.51100000000E-03 0. -1.
        -11    1    3    3    0    0  0.28258925065E+01  0.15910361533E+02 -0.14513210529E+02  0.21720003515E+02  0.51100000000E-03 0.  1.
        -12    1    3    3    0    0 -0.54439841263E+01  0.75797161439E+01 -0.48596847437E+00  0.93447966992E+01  0.00000000000E+00 0.  1.
</event>
<event>
 7    1  0.2412036E-009  0.4778727E+02  0.7816164E-02  0.1312668E+00
        -11   -1    0    0    0    0  0.00000000000E+00  0.00000000000E+00  0.45593999997E+02  0.45594000000E+02  0.51100000000E-03 0.  1.
         11   -1    0    0    0    0 -0.00000000000E+00 -0.00000000000E+00 -0.45593999997E+02  0.45594000000E+02  0.51100000000E-03 0. -1.
    9900012    2    1    2    0    0 -0.36280450467E+02  0.15446203557E+02  0.18131941449E+02  0.47787267389E+02  0.19999983334E+02 0.  0.
         12    1    1    2    0    0  0.36280450467E+02 -0.15446203557E+02 -0.18131941449E+02  0.43400732611E+02  0.00000000000E+00 0. -1.
         11    1    3    3    0    0  0.11397743596E+01  0.24078319940E+01  0.45817421829E+01  0.52999153006E+01  0.51100000000E-03 0. -1.
        -11    1    3    3    0    0 -0.28073748442E+02  0.10081506986E+02  0.13355347199E+02  0.32682371912E+02  0.51100000000E-03 0.  1.
         12    1    3    3    0    0 -0.93464763847E+01  0.29568645769E+01  0.19485206699E+00  0.98049801766E+01  0.00000000000E+00 0. -1.
</event>
<event>
 7    1  0.2412036E-009  0.4778727E+02  0.7816164E-02  0.1312668E+00
        -11   -1    0    0    0    0  0.00000000000E+00  0.00000000000E+00  0.45593999997E+02  0.45594000000E+02  0.51100000000E-03 0.  1.
         11   -1    0    0    0    0 -0.00000000000E+00 -0.00000000000E+00 -0.45593999997E+02  0.45594000000E+02  0.51100000000E-03 0. -1.
    9900012    2    1    2    0    0 -0.15100372415E+02 -0.33038994384E+02  0.23749249101E+02  0.47787271552E+02  0.20000002313E+02 0.  0.
         12    1    1    2    0    0  0.15100372415E+02  0.33038994384E+02 -0.23749249101E+02  0.43400728448E+02  0.00000000000E+00 0. -1.
         11    1    3    3    0    0 -0.59272441246E+01 -0.39228581773E+01 -0.89759195840E+00  0.71642662413E+01  0.51100000000E-03 0. -1.
        -11    1    3    3    0    0 -0.71176052412E+00 -0.15009138300E+02  0.16326106156E+02  0.22188343292E+02  0.51100000000E-03 0.  1.
         12    1    3    3    0    0 -0.84613677662E+01 -0.14106997906E+02  0.83207349042E+01  0.18434662019E+02  0.00000000000E+00 0. -1.
</event>
<event>
 7    1  0.2412036E-009  0.4778728E+02  0.7816164E-02  0.1312668E+00
        -11   -1    0    0    0    0  0.00000000000E+00  0.00000000000E+00  0.45593999997E+02  0.45594000000E+02  0.51100000000E-03 0. -1.
         11   -1    0    0    0    0 -0.00000000000E+00 -0.00000000000E+00 -0.45593999997E+02  0.45594000000E+02  0.51100000000E-03 0.  1.
    9900012    2    1    2    0    0 -0.24878227832E+02 -0.34639170062E+02  0.80513648093E+01  0.47787276528E+02  0.20000025000E+02 0.  0.
         12    1    1    2    0    0  0.24878227832E+02  0.34639170062E+02 -0.80513648093E+01  0.43400723472E+02  0.00000000000E+00 0. -1.
         11    1    3    3    0    0 -0.85450502113E+01 -0.88306992268E+01  0.50603807395E+01  0.13289341046E+02  0.51100000000E-03 0. -1.
        -11    1    3    3    0    0 -0.16874455275E+02 -0.26748660400E+02  0.51865189979E+01  0.32048994580E+02  0.51100000000E-03 0.  1.
        -12    1    3    3    0    0  0.54127765441E+00  0.94018956518E+00 -0.21955349281E+01  0.24489409013E+01  0.00000000000E+00 0.  1.
</event>
<event>
 7    1  0.2412036E-009  0.4778727E+02  0.7816164E-02  0.1312668E+00
        -11   -1    0    0    0    0  0.00000000000E+00  0.00000000000E+00  0.45593999997E+02  0.45594000000E+02  0.51100000000E-03 0. -1.
         11   -1    0    0    0    0 -0.00000000000E+00 -0.00000000000E+00 -0.45593999997E+02  0.45594000000E+02  0.51100000000E-03 0.  1.
    9900012    2    1    2    0    0 -0.10525084614E+02 -0.38181517391E+02 -0.17748745260E+02  0.47787266887E+02  0.19999981046E+02 0.  0.
         12    1    1    2    0    0  0.10525084614E+02  0.38181517391E+02  0.17748745260E+02  0.43400733113E+02  0.00000000000E+00 0. -1.
         11    1    3    3    0    0 -0.90082698799E+00 -0.11462318923E+00  0.50332848236E-01  0.90948413649E+00  0.51100000000E-03 0. -1.
        -11    1    3    3    0    0 -0.29963609154E+00 -0.99346276754E+01  0.33274150279E+01  0.10481331016E+02  0.51100000000E-03 0.  1.
        -12    1    3    3    0    0 -0.93246215341E+01 -0.28132266527E+02 -0.21126493136E+02  0.36396451735E+02  0.00000000000E+00 0.  1.
</event>
<event>
 7    1  0.2412036E-009  0.4778727E+02  0.7816164E-02  0.1312668E+00
        -11   -1    0    0    0    0  0.00000000000E+00  0.00000000000E+00  0.45593999997E+02  0.45594000000E+02  0.51100000000E-03 0.  1.
         11   -1    0    0    0    0 -0.00000000000E+00 -0.00000000000E+00 -0.45593999997E+02  0.45594000000E+02  0.51100000000E-03 0. -1.
    9900012    2    1    2    0    0  0.28863263343E+02  0.49638515694E+01  0.32029601187E+02  0.47787272524E+02  0.20000006746E+02 0.  0.
         12    1    1    2    0    0 -0.28863263343E+02 -0.49638515694E+01 -0.32029601187E+02  0.43400727476E+02  0.00000000000E+00 0. -1.
         11    1    3    3    0    0  0.22979294597E+02 -0.43473395682E+01  0.22503472954E+02  0.32455409977E+02  0.51100000000E-03 0. -1.
        -11    1    3    3    0    0  0.61659476888E+01  0.63565219769E+01  0.58786187064E+01  0.10629319861E+02  0.51100000000E-03 0.  1.
         12    1    3    3    0    0 -0.28197894255E+00  0.29546691608E+01  0.36475095265E+01  0.47025426866E+01  0.00000000000E+00 0. -1.
</event>
<event>
 7    1  0.2412036E-009  0.4778727E+02  0.7816164E-02  0.1312668E+00
        -11   -1    0    0    0    0  0.00000000000E+00  0.00000000000E+00  0.45593999997E+02  0.45594000000E+02  0.51100000000E-03 0. -1.
         11   -1    0    0    0    0 -0.00000000000E+00 -0.00000000000E+00 -0.45593999997E+02  0.45594000000E+02  0.51100000000E-03 0.  1.
    9900012    2    1    2    0    0 -0.36017386006E+02  0.67647866556E+01 -0.23250993578E+02  0.47787272637E+02  0.20000007263E+02 0.  0.
         12    1    1    2    0    0  0.36017386006E+02 -0.67647866556E+01  0.23250993578E+02  0.43400727363E+02  0.00000000000E+00 0. -1.
         11    1    3    3    0    0 -0.17474188813E+02 -0.14130900578E+01 -0.16419144294E+02  0.24019417100E+02  0.51100000000E-03 0. -1.
        -11    1    3    3    0    0 -0.13238803280E+02  0.29354595541E+01  0.13663532545E+00  0.13561028890E+02  0.51100000000E-03 0.  1.
        -12    1    3    3    0    0 -0.53043939127E+01  0.52424171594E+01 -0.69684846095E+01  0.10206826647E+02  0.00000000000E+00 0.  1.
</event>
<event>
 7    1  0.2412036E-009  0.4778728E+02  0.7816164E-02  0.1312668E+00
        -11   -1    0    0    0    0  0.00000000000E+00  0.00000000000E+00  0.45593999997E+02  0.45594000000E+02  0.51100000000E-03 0.  1.
         11   -1    0    0    0    0 -0.00000000000E+00 -0.00000000000E+00 -0.45593999997E+02  0.45594000000E+02  0.51100000000E-03 0. -1.
    9900012    2    1    2    0    0  0.21318674598E+02  0.12845388692E+02  0.35554648471E+02  0.47787275061E+02  0.20000018315E+02 0.  0.
         12    1    1    2    0    0 -0.21318674598E+02 -0.12845388692E+02 -0.35554648471E+02  0.43400724939E+02  0.00000000000E+00 0. -1.
         11    1    3    3    0    0  0.77344647574E+01  0.91948443908E+01  0.81687268745E+01  0.14529115853E+02  0.51100000000E-03 0. -1.
        -11    1    3    3    0    0  0.63019287383E+00 -0.37200382745E+01  0.76192725176E+01  0.85023021459E+01  0.51100000000E-03 0.  1.
        -12    1    3    3    0    0  0.12954016967E+02  0.73705825754E+01  0.19766649079E+02  0.24755857063E+02  0.00000000000E+00 0.  1.
</event>
<event>
 7    1  0.2412036E-009  0.4778727E+02  0.7816164E-02  0.1312668E+00
        -11   -1    0    0    0    0  0.00000000000E+00  0.00000000000E+00  0.45593999997E+02  0.45594000000E+02  0.51100000000E-03 0.  1.
         11   -1    0    0    0    0 -0.00000000000E+00 -0.00000000000E+00 -0.45593999997E+02  0.45594000000E+02  0.51100000000E-03 0. -1.
    9900012    2    1    2    0    0  0.81066069468E+01 -0.14038596345E+02  0.40259460456E+02  0.47787269363E+02  0.19999992336E+02 0.  0.
         12    1    1    2    0    0 -0.81066069468E+01  0.14038596345E+02 -0.40259460456E+02  0.43400730637E+02  0.00000000000E+00 0. -1.
         11    1    3    3    0    0 -0.99967648355E+00  0.11634880317E+01 -0.77952082720E+00  0.17206715122E+01  0.51100000000E-03 0. -1.
        -11    1    3    3    0    0  0.59986193711E+01 -0.10170281115E+01  0.86948382332E+01  0.10612162489E+02  0.51100000000E-03 0.  1.
        -12    1    3    3    0    0  0.31076640592E+01 -0.14185056266E+02  0.32344143050E+02  0.35454435362E+02  0.00000000000E+00 0.  1.
</event>
<event>
 7    1  0.2412036E-009  0.4778727E+02  0.7816164E-02  0.1312668E+00
        -11   -1    0    0    0    0  0.00000000000E+00  0.00000000000E+00  0.45593999997E+02  0.45594000000E+02  0.51100000000E-03 0.  1.
         11   -1    0    0    0    0 -0.00000000000E+00 -0.00000000000E+00 -0.45593999997E+02  0.45594000000E+02  0.51100000000E-03 0. -1.
    9900012    2    1    2    0    0  0.92497251870E+01 -0.21610773685E+02  0.36483427827E+02  0.47787268885E+02  0.19999990154E+02 0.  0.
         12    1    1    2    0    0 -0.92497251870E+01  0.21610773685E+02 -0.36483427827E+02  0.43400731115E+02  0.00000000000E+00 0. -1.
         11    1    3    3    0    0 -0.81264358665E+00 -0.68573116733E+01  0.18432963757E+02  0.19683934213E+02  0.51100000000E-03 0.  1.
        -11    1    3    3    0    0  0.24412573731E+01 -0.59272654145E+01 -0.23653965495E+00  0.64146834781E+01  0.51100000000E-03 0. -1.
        -12    1    3    3    0    0  0.76211114006E+01 -0.88261965972E+01  0.18287003725E+02  0.21688651194E+02  0.00000000000E+00 0.  1.
</event>
<event>
 7    1  0.2412036E-009  0.4778733E+02  0.7816164E-02  0.1312668E+00
        -11   -1    0    0    0    0  0.00000000000E+00  0.00000000000E+00  0.45593999997E+02  0.45594000000E+02  0.51100000000E-03 0. -1.
         11   -1    0    0    0    0 -0.00000000000E+00 -0.00000000000E+00 -0.45593999997E+02  0.45594000000E+02  0.51100000000E-03 0.  1.
    9900012    2    1    2    0    0 -0.25343588749E+02  0.15257778406E+02 -0.31757218884E+02  0.47787328994E+02  0.20000264212E+02 0.  0.
         12    1    1    2    0    0  0.25343588749E+02 -0.15257778406E+02  0.31757218884E+02  0.43400671006E+02  0.00000000000E+00 0. -1.
         11    1    3    3    0    0  0.52600081069E+00 -0.20615048281E+01 -0.56086355341E+01  0.59986058234E+01  0.51100000000E-03 0. -1.
        -11    1    3    3    0    0 -0.17959210261E+02  0.15838830216E+02 -0.22825845696E+02  0.33082034517E+02  0.51100000000E-03 0.  1.
         12    1    3    3    0    0 -0.79103792984E+01  0.14804530189E+01 -0.33227376540E+01  0.87066886532E+01  0.00000000000E+00 0. -1.
</event>
<event>
 7    1  0.2412036E-009  0.4778727E+02  0.7816164E-02  0.1312668E+00
        -11   -1    0    0    0    0  0.00000000000E+00  0.00000000000E+00  0.45593999997E+02  0.45594000000E+02  0.51100000000E-03 0. -1.
         11   -1    0    0    0    0 -0.00000000000E+00 -0.00000000000E+00 -0.45593999997E+02  0.45594000000E+02  0.51100000000E-03 0.  1.
    9900012    2    1    2    0    0  0.40389328189E+02  0.15065722662E+02  0.50348051365E+01  0.47787273121E+02  0.20000009468E+02 0.  0.
         12    1    1    2    0    0 -0.40389328189E+02 -0.15065722662E+02 -0.50348051365E+01  0.43400726879E+02  0.00000000000E+00 0. -1.
         11    1    3    3    0    0  0.13664394599E+02  0.11427354281E+02  0.97717577809E+01  0.20317168996E+02  0.51100000000E-03 0. -1.
        -11    1    3    3    0    0  0.17377456183E+02  0.13574730920E+01 -0.27642904396E+01  0.17648229897E+02  0.51100000000E-03 0.  1.
         12    1    3    3    0    0  0.93474774066E+01  0.22808952889E+01 -0.19726622047E+01  0.98218742285E+01  0.00000000000E+00 0. -1.
</event>
<event>
 7    1  0.2412036E-009  0.4778727E+02  0.7816164E-02  0.1312668E+00
        -11   -1    0    0    0    0  0.00000000000E+00  0.00000000000E+00  0.45593999997E+02  0.45594000000E+02  0.51100000000E-03 0.  1.
         11   -1    0    0    0    0 -0.00000000000E+00 -0.00000000000E+00 -0.45593999997E+02  0.45594000000E+02  0.51100000000E-03 0. -1.
    9900012    2    1    2    0    0 -0.20874530646E+02 -0.37303513428E+02  0.75050304599E+01  0.47787266988E+02  0.19999981503E+02 0.  0.
         12    1    1    2    0    0  0.20874530646E+02  0.37303513428E+02 -0.75050304599E+01  0.43400733012E+02  0.00000000000E+00 0. -1.
         11    1    3    3    0    0 -0.61845929523E+01 -0.16683127615E+02  0.10050777840E+01  0.17820946064E+02  0.51100000000E-03 0. -1.
        -11    1    3    3    0    0 -0.84818849595E+01 -0.36983956087E+01  0.75041624601E+01  0.11913561895E+02  0.51100000000E-03 0.  1.
        -12    1    3    3    0    0 -0.62080527346E+01 -0.16921990205E+02 -0.10042097842E+01  0.18052759028E+02  0.00000000000E+00 0.  1.
</event>
<event>
 7    1  0.2412036E-009  0.4778728E+02  0.7816164E-02  0.1312668E+00
        -11   -1    0    0    0    0  0.00000000000E+00  0.00000000000E+00  0.45593999997E+02  0.45594000000E+02  0.51100000000E-03 0.  1.
         11   -1    0    0    0    0 -0.00000000000E+00 -0.00000000000E+00 -0.45593999997E+02  0.45594000000E+02  0.51100000000E-03 0. -1.
    9900012    2    1    2    0    0 -0.21307746526E+02  0.10304751499E+02  0.36378769813E+02  0.47787275829E+02  0.20000021815E+02 0.  0.
         12    1    1    2    0    0  0.21307746526E+02 -0.10304751499E+02 -0.36378769813E+02  0.43400724171E+02  0.00000000000E+00 0. -1.
         11    1    3    3    0    0 -0.18314470038E+01 -0.41299773320E+01  0.87556798712E+01  0.98525550574E+01  0.51100000000E-03 0.  1.
        -11    1    3    3    0    0 -0.11750386927E+02  0.13502079950E+02  0.16391072939E+02  0.24270249860E+02  0.51100000000E-03 0. -1.
        -12    1    3    3    0    0 -0.77259125950E+01  0.93264888172E+00  0.11232017002E+02  0.13664470912E+02  0.00000000000E+00 0.  1.
</event>
<event>
 7    1  0.2412036E-009  0.4778728E+02  0.7816164E-02  0.1312668E+00
        -11   -1    0    0    0    0  0.00000000000E+00  0.00000000000E+00  0.45593999997E+02  0.45594000000E+02  0.51100000000E-03 0.  1.
         11   -1    0    0    0    0 -0.00000000000E+00 -0.00000000000E+00 -0.45593999997E+02  0.45594000000E+02  0.51100000000E-03 0. -1.
    9900012    2    1    2    0    0 -0.23607979577E+02  0.22660468272E+02  0.28509459260E+02  0.47787276626E+02  0.20000025449E+02 0.  0.
         12    1    1    2    0    0  0.23607979577E+02 -0.22660468272E+02 -0.28509459260E+02  0.43400723374E+02  0.00000000000E+00 0. -1.
         11    1    3    3    0    0 -0.11441929436E+02  0.73345374177E+00  0.91219927904E+01  0.14651500140E+02  0.51100000000E-03 0. -1.
        -11    1    3    3    0    0 -0.94729272834E+01  0.72047119526E+01  0.88717883197E+01  0.14844286911E+02  0.51100000000E-03 0.  1.
         12    1    3    3    0    0 -0.26931228575E+01  0.14722302578E+02  0.10515678150E+02  0.18291489575E+02  0.00000000000E+00 0. -1.
</event>
<event>
 7    1  0.2412036E-009  0.4778727E+02  0.7816164E-02  0.1312668E+00
        -11   -1    0    0    0    0  0.00000000000E+00  0.00000000000E+00  0.45593999997E+02  0.45594000000E+02  0.51100000000E-03 0. -1.
         11   -1    0    0    0    0 -0.00000000000E+00 -0.00000000000E+00 -0.45593999997E+02  0.45594000000E+02  0.51100000000E-03 0.  1.
    9900012    2    1    2    0    0  0.18890172379E+02  0.38707126076E+02 -0.53426091429E+01  0.47787266204E+02  0.19999977930E+02 0.  0.
         12    1    1    2    0    0 -0.18890172379E+02 -0.38707126076E+02  0.53426091429E+01  0.43400733796E+02  0.00000000000E+00 0. -1.
         11    1    3    3    0    0  0.11662696628E+02  0.22165866386E+02 -0.11077569169E+02  0.27387162398E+02  0.51100000000E-03 0. -1.
        -11    1    3    3    0    0  0.86751889780E+01  0.11985377130E+02  0.44420853200E+01  0.15447986633E+02  0.51100000000E-03 0.  1.
         12    1    3    3    0    0 -0.14477132269E+01  0.45558825604E+01  0.12928747060E+01  0.49521171732E+01  0.00000000000E+00 0. -1.
</event>
<event>
 7    1  0.2412036E-009  0.4778727E+02  0.7816164E-02  0.1312668E+00
        -11   -1    0    0    0    0  0.00000000000E+00  0.00000000000E+00  0.45593999997E+02  0.45594000000E+02  0.51100000000E-03 0.  1.
         11   -1    0    0    0    0 -0.00000000000E+00 -0.00000000000E+00 -0.45593999997E+02  0.45594000000E+02  0.51100000000E-03 0. -1.
    9900012    2    1    2    0    0 -0.28691643163E+02  0.21134052622E+02  0.24774276355E+02  0.47787270322E+02  0.19999996707E+02 0.  0.
         12    1    1    2    0    0  0.28691643163E+02 -0.21134052622E+02 -0.24774276355E+02  0.43400729678E+02  0.00000000000E+00 0. -1.
         11    1    3    3    0    0 -0.37807883724E+01  0.51327212101E+01 -0.16357175309E+01  0.65813949767E+01  0.51100000000E-03 0. -1.
        -11    1    3    3    0    0 -0.12131526286E+02  0.14149163604E+02  0.17019358920E+02  0.25239479769E+02  0.51100000000E-03 0.  1.
         12    1    3    3    0    0 -0.12779328505E+02  0.18521678077E+01  0.93906349660E+01  0.15966395576E+02  0.00000000000E+00 0. -1.
</event>
<event>
 7    1  0.2412036E-009  0.4778727E+02  0.7816164E-02  0.1312668E+00
        -11   -1    0    0    0    0  0.00000000000E+00  0.00000000000E+00  0.45593999997E+02  0.45594000000E+02  0.51100000000E-03 0.  1.
         11   -1    0    0    0    0 -0.00000000000E+00 -0.00000000000E+00 -0.45593999997E+02  0.45594000000E+02  0.51100000000E-03 0. -1.
    9900012    2    1    2    0    0  0.38492799793E+02 -0.12927716894E+02  0.15323244838E+02  0.47787270371E+02  0.19999996929E+02 0.  0.
         12    1    1    2    0    0 -0.38492799793E+02  0.12927716894E+02 -0.15323244838E+02  0.43400729629E+02  0.00000000000E+00 0. -1.
         11    1    3    3    0    0  0.16301772261E+02 -0.85613313185E+01  0.12734594096E+02  0.22387810519E+02  0.51100000000E-03 0. -1.
        -11    1    3    3    0    0  0.17687738023E+02  0.15757610992E+01  0.25760435854E+01  0.17943664626E+02  0.51100000000E-03 0.  1.
        -12    1    3    3    0    0  0.45032895093E+01 -0.59421466744E+01  0.12607156351E-01  0.74557952255E+01  0.00000000000E+00 0.  1.
</event>
<event>
 7    1  0.2412036E-009  0.4778727E+02  0.7816164E-02  0.1312668E+00
        -11   -1    0    0    0    0  0.00000000000E+00  0.00000000000E+00  0.45593999997E+02  0.45594000000E+02  0.51100000000E-03 0. -1.
         11   -1    0    0    0    0 -0.00000000000E+00 -0.00000000000E+00 -0.45593999997E+02  0.45594000000E+02  0.51100000000E-03 0.  1.
    9900012    2    1    2    0    0  0.18122139938E+02 -0.39026105243E+02 -0.56722227476E+01  0.47787274692E+02  0.20000016629E+02 0.  0.
         12    1    1    2    0    0 -0.18122139938E+02  0.39026105243E+02  0.56722227476E+01  0.43400725308E+02  0.00000000000E+00 0. -1.
         11    1    3    3    0    0  0.84033813594E+01 -0.55997229664E+01  0.23640412006E+01  0.10371229755E+02  0.51100000000E-03 0. -1.
        -11    1    3    3    0    0  0.10499069877E+02 -0.33757645122E+02 -0.86180315071E+01  0.36387903756E+02  0.51100000000E-03 0.  1.
         12    1    3    3    0    0 -0.78031129789E+00  0.33126284531E+00  0.58176755882E+00  0.10281411804E+01  0.00000000000E+00 0. -1.
</event>
<event>
 7    1  0.2412036E-009  0.4778727E+02  0.7816164E-02  0.1312668E+00
        -11   -1    0    0    0    0  0.00000000000E+00  0.00000000000E+00  0.45593999997E+02  0.45594000000E+02  0.51100000000E-03 0. -1.
         11   -1    0    0    0    0 -0.00000000000E+00 -0.00000000000E+00 -0.45593999997E+02  0.45594000000E+02  0.51100000000E-03 0.  1.
    9900012    2    1    2    0    0  0.32466350874E+02  0.24239549833E+02 -0.15556464406E+02  0.47787270743E+02  0.19999998627E+02 0.  0.
         12    1    1    2    0    0 -0.32466350874E+02 -0.24239549833E+02  0.15556464406E+02  0.43400729257E+02  0.00000000000E+00 0. -1.
         11    1    3    3    0    0  0.15306773605E+02  0.11762055254E+02 -0.15505197574E+02  0.24759935663E+02  0.51100000000E-03 0.  1.
        -11    1    3    3    0    0  0.54563383729E+01  0.68021864405E+01  0.37265718216E+01  0.94830747447E+01  0.51100000000E-03 0. -1.
        -12    1    3    3    0    0  0.11703238896E+02  0.56753081393E+01 -0.37778386536E+01  0.13544260335E+02  0.00000000000E+00 0.  1.
</event>
<event>
 7    1  0.2412036E-009  0.4778728E+02  0.7816164E-02  0.1312668E+00
        -11   -1    0    0    0    0  0.00000000000E+00  0.00000000000E+00  0.45593999997E+02  0.45594000000E+02  0.51100000000E-03 0.  1.
         11   -1    0    0    0    0 -0.00000000000E+00 -0.00000000000E+00 -0.45593999997E+02  0.45594000000E+02  0.51100000000E-03 0. -1.
    9900012    2    1    2    0    0 -0.79215970416E+01 -0.11220508002E+02  0.41170022351E+02  0.47787282957E+02  0.20000054312E+02 0.  0.
         12    1    1    2    0    0  0.79215970416E+01  0.11220508002E+02 -0.41170022351E+02  0.43400717043E+02  0.00000000000E+00 0. -1.
         11    1    3    3    0    0 -0.57690245401E+01  0.86958295037E+00  0.21178402509E+02  0.21967306429E+02  0.51100000000E-03 0. -1.
        -11    1    3    3    0    0 -0.48074869187E+01 -0.12067235523E+02  0.13161758504E+02  0.18492214330E+02  0.51100000000E-03 0.  1.
        -12    1    3    3    0    0  0.26549144173E+01 -0.22855429742E-01  0.68298613382E+01  0.73277621981E+01  0.00000000000E+00 0.  1.
</event>
<event>
 7    1  0.2412036E-009  0.4778727E+02  0.7816164E-02  0.1312668E+00
        -11   -1    0    0    0    0  0.00000000000E+00  0.00000000000E+00  0.45593999997E+02  0.45594000000E+02  0.51100000000E-03 0.  1.
         11   -1    0    0    0    0 -0.00000000000E+00 -0.00000000000E+00 -0.45593999997E+02  0.45594000000E+02  0.51100000000E-03 0. -1.
    9900012    2    1    2    0    0  0.36264333464E+02 -0.23215156207E+02 -0.54385984194E+01  0.47787265996E+02  0.19999976984E+02 0.  0.
         12    1    1    2    0    0 -0.36264333464E+02  0.23215156207E+02  0.54385984194E+01  0.43400734004E+02  0.00000000000E+00 0. -1.
         11    1    3    3    0    0  0.26719511636E+01  0.19267073257E+01  0.15851218098E-01  0.32942033425E+01  0.51100000000E-03 0. -1.
        -11    1    3    3    0    0  0.17297774644E+02 -0.14571197924E+02  0.38733165514E+01  0.22946359144E+02  0.51100000000E-03 0.  1.
        -12    1    3    3    0    0  0.16294607656E+02 -0.10570665609E+02 -0.93277661890E+01  0.21546703510E+02  0.00000000000E+00 0.  1.
</event>
<event>
 7    1  0.2412036E-009  0.4778727E+02  0.7816164E-02  0.1312668E+00
        -11   -1    0    0    0    0  0.00000000000E+00  0.00000000000E+00  0.45593999997E+02  0.45594000000E+02  0.51100000000E-03 0. -1.
         11   -1    0    0    0    0 -0.00000000000E+00 -0.00000000000E+00 -0.45593999997E+02  0.45594000000E+02  0.51100000000E-03 0.  1.
    9900012    2    1    2    0    0  0.28379341113E+02  0.25916402656E+02 -0.20163740949E+02  0.47787269848E+02  0.19999994547E+02 0.  0.
         12    1    1    2    0    0 -0.28379341113E+02 -0.25916402656E+02  0.20163740949E+02  0.43400730152E+02  0.00000000000E+00 0. -1.
         11    1    3    3    0    0  0.47638748326E+01  0.11246180424E+02  0.10049261649E+00  0.12213974643E+02  0.51100000000E-03 0. -1.
        -11    1    3    3    0    0  0.20387768812E+02  0.13925169105E+02 -0.20717048746E+02  0.32229917169E+02  0.51100000000E-03 0.  1.
        -12    1    3    3    0    0  0.32276974684E+01  0.74505312767E+00  0.45281517988E+00  0.33433780369E+01  0.00000000000E+00 0.  1.
</event>
<event>
 7    1  0.2412036E-009  0.4778727E+02  0.7816164E-02  0.1312668E+00
        -11   -1    0    0    0    0  0.00000000000E+00  0.00000000000E+00  0.45593999997E+02  0.45594000000E+02  0.51100000000E-03 0.  1.
         11   -1    0    0    0    0 -0.00000000000E+00 -0.00000000000E+00 -0.45593999997E+02  0.45594000000E+02  0.51100000000E-03 0. -1.
    9900012    2    1    2    0    0  0.20349605400E+02 -0.18808887627E+02  0.33402733847E+02  0.47787270488E+02  0.19999997462E+02 0.  0.
         12    1    1    2    0    0 -0.20349605400E+02  0.18808887627E+02 -0.33402733847E+02  0.43400729512E+02  0.00000000000E+00 0. -1.
         11    1    3    3    0    0 -0.33137961590E+01 -0.36762650274E+00  0.13069962707E+01  0.35811497793E+01  0.51100000000E-03 0. -1.
        -11    1    3    3    0    0  0.10553249061E+02 -0.62755251153E+01  0.15805015603E+02  0.20013790237E+02  0.51100000000E-03 0.  1.
         12    1    3    3    0    0  0.13110152499E+02 -0.12165736009E+02  0.16290721974E+02  0.24192330471E+02  0.00000000000E+00 0. -1.
</event>
<event>
 7    1  0.2412036E-009  0.4778727E+02  0.7816164E-02  0.1312668E+00
        -11   -1    0    0    0    0  0.00000000000E+00  0.00000000000E+00  0.45593999997E+02  0.45594000000E+02  0.51100000000E-03 0. -1.
         11   -1    0    0    0    0 -0.00000000000E+00 -0.00000000000E+00 -0.45593999997E+02  0.45594000000E+02  0.51100000000E-03 0.  1.
    9900012    2    1    2    0    0 -0.11448505019E+02 -0.39888111609E+02 -0.12708002566E+02  0.47787273691E+02  0.20000012066E+02 0.  0.
         12    1    1    2    0    0  0.11448505019E+02  0.39888111609E+02  0.12708002566E+02  0.43400726309E+02  0.00000000000E+00 0. -1.
         11    1    3    3    0    0  0.30958685434E+01 -0.29067557273E+01 -0.52100496536E+01  0.67214766644E+01  0.51100000000E-03 0.  1.
        -11    1    3    3    0    0 -0.90680243385E+01 -0.19476915706E+02 -0.66955514162E+00  0.21494827638E+02  0.51100000000E-03 0. -1.
        -12    1    3    3    0    0 -0.54763492244E+01 -0.17504440176E+02 -0.68283977705E+01  0.19570969388E+02  0.00000000000E+00 0.  1.
</event>
<event>
 7    1  0.2412036E-009  0.4778727E+02  0.7816164E-02  0.1312668E+00
        -11   -1    0    0    0    0  0.00000000000E+00  0.00000000000E+00  0.45593999997E+02  0.45594000000E+02  0.51100000000E-03 0.  1.
         11   -1    0    0    0    0 -0.00000000000E+00 -0.00000000000E+00 -0.45593999997E+02  0.45594000000E+02  0.51100000000E-03 0. -1.
    9900012    2    1    2    0    0 -0.35170769604E+02  0.76616536464E+01  0.24247460249E+02  0.47787270747E+02  0.19999998645E+02 0.  0.
         12    1    1    2    0    0  0.35170769604E+02 -0.76616536464E+01 -0.24247460249E+02  0.43400729253E+02  0.00000000000E+00 0. -1.
         11    1    3    3    0    0 -0.14439491395E+02  0.71815248510E+01  0.20123876305E+01  0.16251858822E+02  0.51100000000E-03 0. -1.
        -11    1    3    3    0    0 -0.28251347910E+01 -0.27041110860E+01  0.59661739790E+01  0.71336411152E+01  0.51100000000E-03 0.  1.
         12    1    3    3    0    0 -0.17906143418E+02  0.31842398814E+01  0.16268898640E+02  0.24401770810E+02  0.00000000000E+00 0. -1.
</event>
<event>
 7    1  0.2412036E-009  0.4778727E+02  0.7816164E-02  0.1312668E+00
        -11   -1    0    0    0    0  0.00000000000E+00  0.00000000000E+00  0.45593999997E+02  0.45594000000E+02  0.51100000000E-03 0.  1.
         11   -1    0    0    0    0 -0.00000000000E+00 -0.00000000000E+00 -0.45593999997E+02  0.45594000000E+02  0.51100000000E-03 0. -1.
    9900012    2    1    2    0    0  0.33435693800E+02  0.12992088887E+02  0.24431197570E+02  0.47787269496E+02  0.19999992942E+02 0.  0.
         12    1    1    2    0    0 -0.33435693800E+02 -0.12992088887E+02 -0.24431197570E+02  0.43400730504E+02  0.00000000000E+00 0. -1.
         11    1    3    3    0    0  0.97340915963E+01  0.78466135240E+01 -0.37287623399E+00  0.12508433953E+02  0.51100000000E-03 0. -1.
        -11    1    3    3    0    0  0.86884364753E+01  0.34775351719E+01  0.58291142364E+01  0.11025459278E+02  0.51100000000E-03 0.  1.
         12    1    3    3    0    0  0.15013165728E+02  0.16679401910E+01  0.18974959568E+02  0.24253376265E+02  0.00000000000E+00 0. -1.
</event>
<event>
 7    1  0.2412036E-009  0.4778727E+02  0.7816164E-02  0.1312668E+00
        -11   -1    0    0    0    0  0.00000000000E+00  0.00000000000E+00  0.45593999997E+02  0.45594000000E+02  0.51100000000E-03 0. -1.
         11   -1    0    0    0    0 -0.00000000000E+00 -0.00000000000E+00 -0.45593999997E+02  0.45594000000E+02  0.51100000000E-03 0.  1.
    9900012    2    1    2    0    0 -0.35277255141E+02  0.25212659246E+02  0.18602761464E+01  0.47787267934E+02  0.19999985817E+02 0.  0.
         12    1    1    2    0    0  0.35277255141E+02 -0.25212659246E+02 -0.18602761464E+01  0.43400732066E+02  0.00000000000E+00 0. -1.
         11    1    3    3    0    0 -0.19099085290E+02  0.24941478194E+02  0.27134492139E+01  0.31531178226E+02  0.51100000000E-03 0. -1.
        -11    1    3    3    0    0 -0.14421499045E+02  0.65184689688E+00 -0.76674157804E+00  0.14456570548E+02  0.51100000000E-03 0.  1.
         12    1    3    3    0    0 -0.17566708057E+01 -0.38066584498E+00 -0.86431489423E-01  0.17995191601E+01  0.00000000000E+00 0. -1.
</event>
<event>
 7    1  0.2412036E-009  0.4778729E+02  0.7816164E-02  0.1312668E+00
        -11   -1    0    0    0    0  0.00000000000E+00  0.00000000000E+00  0.45593999997E+02  0.45594000000E+02  0.51100000000E-03 0. -1.
         11   -1    0    0    0    0 -0.00000000000E+00 -0.00000000000E+00 -0.45593999997E+02  0.45594000000E+02  0.51100000000E-03 0.  1.
    9900012    2    1    2    0    0  0.15877496443E+02 -0.39820580753E+02 -0.67711453417E+01  0.47787286249E+02  0.20000069325E+02 0.  0.
         12    1    1    2    0    0 -0.15877496443E+02  0.39820580753E+02  0.67711453417E+01  0.43400713751E+02  0.00000000000E+00 0. -1.
         11    1    3    3    0    0  0.85788456140E+01 -0.50882159530E+01 -0.28616661881E+01  0.10376688647E+02  0.51100000000E-03 0. -1.
        -11    1    3    3    0    0  0.90229564374E+01 -0.33622495367E+02 -0.24591027010E+01  0.34898898607E+02  0.51100000000E-03 0.  1.
        -12    1    3    3    0    0 -0.17243056080E+01 -0.11098694328E+01 -0.14503764526E+01  0.25116989951E+01  0.00000000000E+00 0.  1.
</event>
<event>
 7    1  0.2412036E-009  0.4778727E+02  0.7816164E-02  0.1312668E+00
        -11   -1    0    0    0    0  0.00000000000E+00  0.00000000000E+00  0.45593999997E+02  0.45594000000E+02  0.51100000000E-03 0.  1.
         11   -1    0    0    0    0 -0.00000000000E+00 -0.00000000000E+00 -0.45593999997E+02  0.45594000000E+02  0.51100000000E-03 0. -1.
    9900012    2    1    2    0    0  0.11080081825E+02  0.24262923412E+02  0.34236907039E+02  0.47787268793E+02  0.19999989733E+02 0.  0.
         12    1    1    2    0    0 -0.11080081825E+02 -0.24262923412E+02 -0.34236907039E+02  0.43400731207E+02  0.00000000000E+00 0. -1.
         11    1    3    3    0    0  0.65444225780E-01  0.90491634653E+01  0.23276661151E+01  0.93439644783E+01  0.51100000000E-03 0. -1.
        -11    1    3    3    0    0  0.75508355907E+01  0.12067394959E+02  0.30330182777E+02  0.33504583668E+02  0.51100000000E-03 0.  1.
        -12    1    3    3    0    0  0.34638020086E+01  0.31463649882E+01  0.15790581466E+01  0.49387206465E+01  0.00000000000E+00 0.  1.
</event>
<event>
 7    1  0.2412036E-009  0.4778727E+02  0.7816164E-02  0.1312668E+00
        -11   -1    0    0    0    0  0.00000000000E+00  0.00000000000E+00  0.45593999997E+02  0.45594000000E+02  0.51100000000E-03 0. -1.
         11   -1    0    0    0    0 -0.00000000000E+00 -0.00000000000E+00 -0.45593999997E+02  0.45594000000E+02  0.51100000000E-03 0.  1.
    9900012    2    1    2    0    0 -0.24557509835E+02 -0.30594253782E+02  0.18561891173E+02  0.47787268927E+02  0.19999990344E+02 0.  0.
         12    1    1    2    0    0  0.24557509835E+02  0.30594253782E+02 -0.18561891173E+02  0.43400731073E+02  0.00000000000E+00 0. -1.
         11    1    3    3    0    0 -0.72291547933E+01 -0.18514014063E+02  0.89929808894E+01  0.21815203443E+02  0.51100000000E-03 0. -1.
        -11    1    3    3    0    0 -0.75323925543E+01 -0.49198204245E+00  0.75294299578E+01  0.10661674337E+02  0.51100000000E-03 0.  1.
        -12    1    3    3    0    0 -0.97959624873E+01 -0.11588257677E+02  0.20394803254E+01  0.15310391146E+02  0.00000000000E+00 0.  1.
</event>
<event>
 7    1  0.2412036E-009  0.4778727E+02  0.7816164E-02  0.1312668E+00
        -11   -1    0    0    0    0  0.00000000000E+00  0.00000000000E+00  0.45593999997E+02  0.45594000000E+02  0.51100000000E-03 0.  1.
         11   -1    0    0    0    0 -0.00000000000E+00 -0.00000000000E+00 -0.45593999997E+02  0.45594000000E+02  0.51100000000E-03 0. -1.
    9900012    2    1    2    0    0  0.13615051892E+02 -0.25392757457E+02  0.32457067835E+02  0.47787273950E+02  0.20000013245E+02 0.  0.
         12    1    1    2    0    0 -0.13615051892E+02  0.25392757457E+02 -0.32457067835E+02  0.43400726050E+02  0.00000000000E+00 0. -1.
         11    1    3    3    0    0  0.28268455287E+01  0.24923813327E+01  0.45205243546E+01  0.58854193608E+01  0.51100000000E-03 0. -1.
        -11    1    3    3    0    0  0.33088322124E+01 -0.14274973150E+02  0.18965929724E+02  0.23967263498E+02  0.51100000000E-03 0.  1.
         12    1    3    3    0    0  0.74793741505E+01 -0.13610165640E+02  0.89706137567E+01  0.17934591091E+02  0.00000000000E+00 0. -1.
</event>
<event>
 7    1  0.2412036E-009  0.4778727E+02  0.7816164E-02  0.1312668E+00
        -11   -1    0    0    0    0  0.00000000000E+00  0.00000000000E+00  0.45593999997E+02  0.45594000000E+02  0.51100000000E-03 0. -1.
         11   -1    0    0    0    0 -0.00000000000E+00 -0.00000000000E+00 -0.45593999997E+02  0.45594000000E+02  0.51100000000E-03 0.  1.
    9900012    2    1    2    0    0  0.16763183430E+01  0.28101887286E+02 -0.33031755938E+02  0.47787274055E+02  0.20000013727E+02 0.  0.
         12    1    1    2    0    0 -0.16763183430E+01 -0.28101887286E+02  0.33031755938E+02  0.43400725945E+02  0.00000000000E+00 0. -1.
         11    1    3    3    0    0 -0.21431977308E+01 -0.13127721487E+01 -0.85421422381E+01  0.89042047093E+01  0.51100000000E-03 0. -1.
        -11    1    3    3    0    0 -0.14404399887E+01  0.52031731804E+01 -0.50225939826E+01  0.73738951092E+01  0.51100000000E-03 0.  1.
         12    1    3    3    0    0  0.52599560624E+01  0.24211486254E+02 -0.19467019717E+02  0.31509174237E+02  0.00000000000E+00 0. -1.
</event>
<event>
 7    1  0.2412036E-009  0.4778727E+02  0.7816164E-02  0.1312668E+00
        -11   -1    0    0    0    0  0.00000000000E+00  0.00000000000E+00  0.45593999997E+02  0.45594000000E+02  0.51100000000E-03 0.  1.
         11   -1    0    0    0    0 -0.00000000000E+00 -0.00000000000E+00 -0.45593999997E+02  0.45594000000E+02  0.51100000000E-03 0. -1.
    9900012    2    1    2    0    0  0.30774934462E+02 -0.27298763367E+01  0.30480720067E+02  0.47787272912E+02  0.20000008514E+02 0.  0.
         12    1    1    2    0    0 -0.30774934462E+02  0.27298763367E+01 -0.30480720067E+02  0.43400727088E+02  0.00000000000E+00 0. -1.
         11    1    3    3    0    0 -0.85919815241E+00 -0.20352656191E+01  0.42468453267E+01  0.47870892091E+01  0.51100000000E-03 0. -1.
        -11    1    3    3    0    0  0.29204241017E+02 -0.16175559527E+01  0.27466263361E+02  0.40123556721E+02  0.51100000000E-03 0.  1.
        -12    1    3    3    0    0  0.24298915975E+01  0.92294523500E+00 -0.12323886204E+01  0.28766269821E+01  0.00000000000E+00 0.  1.
</event>
<event>
 7    1  0.2412036E-009  0.4778727E+02  0.7816164E-02  0.1312668E+00
        -11   -1    0    0    0    0  0.00000000000E+00  0.00000000000E+00  0.45593999997E+02  0.45594000000E+02  0.51100000000E-03 0.  1.
         11   -1    0    0    0    0 -0.00000000000E+00 -0.00000000000E+00 -0.45593999997E+02  0.45594000000E+02  0.51100000000E-03 0. -1.
    9900012    2    1    2    0    0  0.26970330016E+02 -0.25421113375E+02  0.22582986288E+02  0.47787274476E+02  0.20000015644E+02 0.  0.
         12    1    1    2    0    0 -0.26970330016E+02  0.25421113375E+02 -0.22582986288E+02  0.43400725524E+02  0.00000000000E+00 0. -1.
         11    1    3    3    0    0  0.10522308968E+01 -0.76343339194E+01  0.80916055677E+00  0.77488699383E+01  0.51100000000E-03 0. -1.
        -11    1    3    3    0    0  0.96943176742E+01 -0.11277939038E+01  0.10002646660E+02  0.13975144176E+02  0.51100000000E-03 0.  1.
        -12    1    3    3    0    0  0.16223781445E+02 -0.16658985551E+02  0.11771179071E+02  0.26063260362E+02  0.00000000000E+00 0.  1.
</event>
<event>
 7    1  0.2412036E-009  0.4778727E+02  0.7816164E-02  0.1312668E+00
        -11   -1    0    0    0    0  0.00000000000E+00  0.00000000000E+00  0.45593999997E+02  0.45594000000E+02  0.51100000000E-03 0. -1.
         11   -1    0    0    0    0 -0.00000000000E+00 -0.00000000000E+00 -0.45593999997E+02  0.45594000000E+02  0.51100000000E-03 0.  1.
    9900012    2    1    2    0    0  0.33934319678E+01 -0.21609031122E+02 -0.37485428459E+02  0.47787274738E+02  0.20000016839E+02 0.  0.
         12    1    1    2    0    0 -0.33934319678E+01  0.21609031122E+02  0.37485428459E+02  0.43400725262E+02  0.00000000000E+00 0. -1.
         11    1    3    3    0    0 -0.58886987312E+00  0.27165263311E+01 -0.13413186142E+01  0.30863277403E+01  0.51100000000E-03 0. -1.
        -11    1    3    3    0    0  0.36350500111E+01 -0.91118142511E+01 -0.21260997212E+02  0.23415139339E+02  0.51100000000E-03 0.  1.
         12    1    3    3    0    0  0.34725182979E+00 -0.15213743202E+02 -0.14883112632E+02  0.21285807658E+02  0.00000000000E+00 0. -1.
</event>
<event>
 7    1  0.2412036E-009  0.4778727E+02  0.7816164E-02  0.1312668E+00
        -11   -1    0    0    0    0  0.00000000000E+00  0.00000000000E+00  0.45593999997E+02  0.45594000000E+02  0.51100000000E-03 0. -1.
         11   -1    0    0    0    0 -0.00000000000E+00 -0.00000000000E+00 -0.45593999997E+02  0.45594000000E+02  0.51100000000E-03 0.  1.
    9900012    2    1    2    0    0 -0.72363303435E+01 -0.19308515547E+01 -0.42749626863E+02  0.47787271187E+02  0.20000000651E+02 0.  0.
         12    1    1    2    0    0  0.72363303435E+01  0.19308515547E+01  0.42749626863E+02  0.43400728813E+02  0.00000000000E+00 0. -1.
         11    1    3    3    0    0  0.91543588518E+00  0.19532558530E+01 -0.41837566238E+01  0.47071276842E+01  0.51100000000E-03 0. -1.
        -11    1    3    3    0    0 -0.27717651569E+01  0.65770515610E+01 -0.18374160397E+02  0.19711673188E+02  0.51100000000E-03 0.  1.
        -12    1    3    3    0    0 -0.53800010718E+01 -0.10461158969E+02 -0.20191709842E+02  0.23368470314E+02  0.00000000000E+00 0.  1.
</event>
<event>
 7    1  0.2412036E-009  0.4778727E+02  0.7816164E-02  0.1312668E+00
        -11   -1    0    0    0    0  0.00000000000E+00  0.00000000000E+00  0.45593999997E+02  0.45594000000E+02  0.51100000000E-03 0. -1.
         11   -1    0    0    0    0 -0.00000000000E+00 -0.00000000000E+00 -0.45593999997E+02  0.45594000000E+02  0.51100000000E-03 0.  1.
    9900012    2    1    2    0    0  0.44548928030E+00  0.33838318043E+02 -0.27173393645E+02  0.47787267853E+02  0.19999985451E+02 0.  0.
         12    1    1    2    0    0 -0.44548928030E+00 -0.33838318043E+02  0.27173393645E+02  0.43400732147E+02  0.00000000000E+00 0. -1.
         11    1    3    3    0    0  0.17761095781E+01  0.11761584061E+02 -0.87190004919E+00  0.11926845132E+02  0.51100000000E-03 0. -1.
        -11    1    3    3    0    0 -0.16170945247E+01  0.23719062557E+01 -0.96262965441E+01  0.10045223711E+02  0.51100000000E-03 0.  1.
         12    1    3    3    0    0  0.28647422683E+00  0.19704827727E+02 -0.16675197051E+02  0.25815199010E+02  0.00000000000E+00 0. -1.
</event>
<event>
 7    1  0.2412036E-009  0.4778727E+02  0.7816164E-02  0.1312668E+00
        -11   -1    0    0    0    0  0.00000000000E+00  0.00000000000E+00  0.45593999997E+02  0.45594000000E+02  0.51100000000E-03 0.  1.
         11   -1    0    0    0    0 -0.00000000000E+00 -0.00000000000E+00 -0.45593999997E+02  0.45594000000E+02  0.51100000000E-03 0. -1.
    9900012    2    1    2    0    0 -0.20362804234E+02  0.22944713497E+02  0.30700481072E+02  0.47787271760E+02  0.20000003263E+02 0.  0.
         12    1    1    2    0    0  0.20362804234E+02 -0.22944713497E+02 -0.30700481072E+02  0.43400728240E+02  0.00000000000E+00 0. -1.
         11    1    3    3    0    0 -0.21480125469E+01  0.46200611219E+01  0.45838587814E+01  0.68535161969E+01  0.51100000000E-03 0. -1.
        -11    1    3    3    0    0 -0.28923810342E+01  0.13809970355E+02  0.62237050691E+01  0.15421272785E+02  0.51100000000E-03 0.  1.
        -12    1    3    3    0    0 -0.15322410652E+02  0.45146820196E+01  0.19892917221E+02  0.25512482778E+02  0.00000000000E+00 0.  1.
</event>
<event>
 7    1  0.2412036E-009  0.4778727E+02  0.7816164E-02  0.1312668E+00
        -11   -1    0    0    0    0  0.00000000000E+00  0.00000000000E+00  0.45593999997E+02  0.45594000000E+02  0.51100000000E-03 0.  1.
         11   -1    0    0    0    0 -0.00000000000E+00 -0.00000000000E+00 -0.45593999997E+02  0.45594000000E+02  0.51100000000E-03 0. -1.
    9900012    2    1    2    0    0  0.61367254839E+01 -0.36531698509E+01  0.42809088599E+02  0.47787272860E+02  0.20000008278E+02 0.  0.
         12    1    1    2    0    0 -0.61367254839E+01  0.36531698509E+01 -0.42809088599E+02  0.43400727140E+02  0.00000000000E+00 0. -1.
         11    1    3    3    0    0  0.11056288151E+01  0.14127171295E+01  0.85758024202E-01  0.17959786927E+01  0.51100000000E-03 0. -1.
        -11    1    3    3    0    0  0.11985149638E+01 -0.35986787707E+01  0.81127007297E+00  0.38787996089E+01  0.51100000000E-03 0.  1.
        -12    1    3    3    0    0  0.38325817050E+01 -0.14672082097E+01  0.41912060502E+02  0.42112494558E+02  0.00000000000E+00 0.  1.
</event>
<event>
 7    1  0.2412036E-009  0.4778727E+02  0.7816164E-02  0.1312668E+00
        -11   -1    0    0    0    0  0.00000000000E+00  0.00000000000E+00  0.45593999997E+02  0.45594000000E+02  0.51100000000E-03 0. -1.
         11   -1    0    0    0    0 -0.00000000000E+00 -0.00000000000E+00 -0.45593999997E+02  0.45594000000E+02  0.51100000000E-03 0.  1.
    9900012    2    1    2    0    0 -0.33564752723E+02  0.87676001877E+01 -0.26079872644E+02  0.47787271947E+02  0.20000004116E+02 0.  0.
         12    1    1    2    0    0  0.33564752723E+02 -0.87676001877E+01  0.26079872644E+02  0.43400728053E+02  0.00000000000E+00 0. -1.
         11    1    3    3    0    0 -0.11027817956E+02 -0.23355146346E+01 -0.10100761876E+02  0.15135811449E+02  0.51100000000E-03 0. -1.
        -11    1    3    3    0    0 -0.75179121671E+00  0.35834847904E+00 -0.65373716004E+01  0.65902072326E+01  0.51100000000E-03 0.  1.
        -12    1    3    3    0    0 -0.21785143550E+02  0.10744766343E+02 -0.94417391679E+01  0.26061253266E+02  0.00000000000E+00 0.  1.
</event>
<event>
 7    1  0.2412036E-009  0.4778727E+02  0.7816164E-02  0.1312668E+00
        -11   -1    0    0    0    0  0.00000000000E+00  0.00000000000E+00  0.45593999997E+02  0.45594000000E+02  0.51100000000E-03 0. -1.
         11   -1    0    0    0    0 -0.00000000000E+00 -0.00000000000E+00 -0.45593999997E+02  0.45594000000E+02  0.51100000000E-03 0.  1.
    9900012    2    1    2    0    0  0.38181992447E+02 -0.54540470824E+01 -0.19900056545E+02  0.47787269277E+02  0.19999991942E+02 0.  0.
         12    1    1    2    0    0 -0.38181992447E+02  0.54540470824E+01  0.19900056545E+02  0.43400730723E+02  0.00000000000E+00 0. -1.
         11    1    3    3    0    0  0.28492121299E+02 -0.67128428098E+01 -0.11427742568E+02  0.31423821142E+02  0.51100000000E-03 0. -1.
        -11    1    3    3    0    0 -0.10465718988E+01  0.27785760021E+01 -0.78392936138E+00  0.30708863287E+01  0.51100000000E-03 0.  1.
        -12    1    3    3    0    0  0.10736443047E+02 -0.15197802747E+01 -0.76883846151E+01  0.13292561806E+02  0.00000000000E+00 0.  1.
</event>
<event>
 7    1  0.2412036E-009  0.4778727E+02  0.7816164E-02  0.1312668E+00
        -11   -1    0    0    0    0  0.00000000000E+00  0.00000000000E+00  0.45593999997E+02  0.45594000000E+02  0.51100000000E-03 0.  1.
         11   -1    0    0    0    0 -0.00000000000E+00 -0.00000000000E+00 -0.45593999997E+02  0.45594000000E+02  0.51100000000E-03 0. -1.
    9900012    2    1    2    0    0 -0.11375853066E+02  0.77287661624E+01  0.41164056143E+02  0.47787269851E+02  0.19999994558E+02 0.  0.
         12    1    1    2    0    0  0.11375853066E+02 -0.77287661624E+01 -0.41164056143E+02  0.43400730149E+02  0.00000000000E+00 0. -1.
         11    1    3    3    0    0 -0.26378593200E+01 -0.25145894826E+00  0.33105743949E+02  0.33211621702E+02  0.51100000000E-03 0. -1.
        -11    1    3    3    0    0 -0.31831126413E+01  0.29901590369E+01  0.14425005066E+01  0.45993548597E+01  0.51100000000E-03 0.  1.
         12    1    3    3    0    0 -0.55548811050E+01  0.49900660738E+01  0.66158116866E+01  0.99762932888E+01  0.00000000000E+00 0. -1.
</event>
<event>
 7    1  0.2412036E-009  0.4778727E+02  0.7816164E-02  0.1312668E+00
        -11   -1    0    0    0    0  0.00000000000E+00  0.00000000000E+00  0.45593999997E+02  0.45594000000E+02  0.51100000000E-03 0.  1.
         11   -1    0    0    0    0 -0.00000000000E+00 -0.00000000000E+00 -0.45593999997E+02  0.45594000000E+02  0.51100000000E-03 0. -1.
    9900012    2    1    2    0    0 -0.33542954956E+02 -0.14671379285E+02  0.23307603512E+02  0.47787267532E+02  0.19999983984E+02 0.  0.
         12    1    1    2    0    0  0.33542954956E+02  0.14671379285E+02 -0.23307603512E+02  0.43400732468E+02  0.00000000000E+00 0. -1.
         11    1    3    3    0    0 -0.19961165777E+02 -0.34368520030E+01  0.21593558104E+02  0.29606449343E+02  0.51100000000E-03 0. -1.
        -11    1    3    3    0    0 -0.11324327280E+02 -0.75593036471E+01  0.23630479593E+01  0.13819097506E+02  0.51100000000E-03 0.  1.
         12    1    3    3    0    0 -0.22574618997E+01 -0.36752236350E+01 -0.64900255193E+00  0.43617206820E+01  0.00000000000E+00 0. -1.
</event>
<event>
 7    1  0.2412036E-009  0.4778727E+02  0.7816164E-02  0.1312668E+00
        -11   -1    0    0    0    0  0.00000000000E+00  0.00000000000E+00  0.45593999997E+02  0.45594000000E+02  0.51100000000E-03 0.  1.
         11   -1    0    0    0    0 -0.00000000000E+00 -0.00000000000E+00 -0.45593999997E+02  0.45594000000E+02  0.51100000000E-03 0. -1.
    9900012    2    1    2    0    0  0.43194435818E+02  0.32381568259E+01 -0.27162970394E+01  0.47787271724E+02  0.20000003099E+02 0.  0.
         12    1    1    2    0    0 -0.43194435818E+02 -0.32381568259E+01  0.27162970394E+01  0.43400728276E+02  0.00000000000E+00 0. -1.
         11    1    3    3    0    0  0.15503521906E+02  0.83976093882E+01  0.31475117588E+01  0.17910495958E+02  0.51100000000E-03 0. -1.
        -11    1    3    3    0    0  0.27458629664E+02 -0.36951248956E+01 -0.49783402975E+01  0.28149851925E+02  0.51100000000E-03 0.  1.
         12    1    3    3    0    0  0.23228424802E+00 -0.14643276666E+01 -0.88546850074E+00  0.17269238411E+01  0.00000000000E+00 0. -1.
</event>
<event>
 7    1  0.2412036E-009  0.4778727E+02  0.7816164E-02  0.1312668E+00
        -11   -1    0    0    0    0  0.00000000000E+00  0.00000000000E+00  0.45593999997E+02  0.45594000000E+02  0.51100000000E-03 0.  1.
         11   -1    0    0    0    0 -0.00000000000E+00 -0.00000000000E+00 -0.45593999997E+02  0.45594000000E+02  0.51100000000E-03 0. -1.
    9900012    2    1    2    0    0  0.85145370311E+01 -0.14801712864E+02  0.39900319494E+02  0.47787267975E+02  0.19999986005E+02 0.  0.
         12    1    1    2    0    0 -0.85145370311E+01  0.14801712864E+02 -0.39900319494E+02  0.43400732025E+02  0.00000000000E+00 0. -1.
         11    1    3    3    0    0 -0.51769961977E+01  0.47036159589E+00  0.11027856872E+02  0.12191642921E+02  0.51100000000E-03 0. -1.
        -11    1    3    3    0    0  0.10686819992E+02 -0.10320261527E+02  0.22715542311E+02  0.27142435084E+02  0.51100000000E-03 0.  1.
        -12    1    3    3    0    0  0.30047132364E+01 -0.49518129330E+01  0.61569203114E+01  0.84531899705E+01  0.00000000000E+00 0.  1.
</event>
<event>
 7    1  0.2412036E-009  0.4778729E+02  0.7816164E-02  0.1312668E+00
        -11   -1    0    0    0    0  0.00000000000E+00  0.00000000000E+00  0.45593999997E+02  0.45594000000E+02  0.51100000000E-03 0.  1.
         11   -1    0    0    0    0 -0.00000000000E+00 -0.00000000000E+00 -0.45593999997E+02  0.45594000000E+02  0.51100000000E-03 0. -1.
    9900012    2    1    2    0    0  0.39446061080E+02  0.31994953994E+01 -0.17815538091E+02  0.47787286837E+02  0.20000072006E+02 0.  0.
         12    1    1    2    0    0 -0.39446061080E+02 -0.31994953994E+01  0.17815538091E+02  0.43400713163E+02  0.00000000000E+00 0. -1.
         11    1    3    3    0    0 -0.53192782096E+00 -0.24293610671E+00 -0.11721455529E+01  0.13099200804E+01  0.51100000000E-03 0. -1.
        -11    1    3    3    0    0  0.52731567455E+01 -0.46581024428E+01 -0.61019671912E+01  0.93133293882E+01  0.51100000000E-03 0.  1.
        -12    1    3    3    0    0  0.34704832156E+02  0.81005339489E+01 -0.10541425347E+02  0.37164037369E+02  0.00000000000E+00 0.  1.
</event>
<event>
 7    1  0.2412036E-009  0.4778727E+02  0.7816164E-02  0.1312668E+00
        -11   -1    0    0    0    0  0.00000000000E+00  0.00000000000E+00  0.45593999997E+02  0.45594000000E+02  0.51100000000E-03 0. -1.
         11   -1    0    0    0    0 -0.00000000000E+00 -0.00000000000E+00 -0.45593999997E+02  0.45594000000E+02  0.51100000000E-03 0.  1.
    9900012    2    1    2    0    0  0.16236817838E+02 -0.38798442161E+02 -0.10708402615E+02  0.47787271271E+02  0.20000001033E+02 0.  0.
         12    1    1    2    0    0 -0.16236817838E+02  0.38798442161E+02  0.10708402615E+02  0.43400728729E+02  0.00000000000E+00 0. -1.
         11    1    3    3    0    0  0.36090122743E+01 -0.34046112571E+00  0.27408568777E+01  0.45445769946E+01  0.51100000000E-03 0. -1.
        -11    1    3    3    0    0  0.86088906060E+01 -0.23891247378E+02 -0.11923631445E+02  0.28054904845E+02  0.51100000000E-03 0.  1.
         12    1    3    3    0    0  0.40189149577E+01 -0.14566733657E+02 -0.15256280477E+01  0.15187789432E+02  0.00000000000E+00 0. -1.
</event>
<event>
 7    1  0.2412036E-009  0.4778733E+02  0.7816164E-02  0.1312668E+00
        -11   -1    0    0    0    0  0.00000000000E+00  0.00000000000E+00  0.45593999997E+02  0.45594000000E+02  0.51100000000E-03 0.  1.
         11   -1    0    0    0    0 -0.00000000000E+00 -0.00000000000E+00 -0.45593999997E+02  0.45594000000E+02  0.51100000000E-03 0. -1.
    9900012    2    1    2    0    0  0.99952753170E+01 -0.35090904814E+02  0.23501943345E+02  0.47787326384E+02  0.20000252313E+02 0.  0.
         12    1    1    2    0    0 -0.99952753170E+01  0.35090904814E+02 -0.23501943345E+02  0.43400673616E+02  0.00000000000E+00 0. -1.
         11    1    3    3    0    0 -0.29422258846E+00 -0.13977325782E+01 -0.12814457684E+01  0.19189389803E+01  0.51100000000E-03 0. -1.
        -11    1    3    3    0    0  0.95109528928E+01 -0.30552397426E+02  0.27064483472E+02  0.41909348351E+02  0.51100000000E-03 0.  1.
        -12    1    3    3    0    0  0.77854501266E+00 -0.31407748102E+01 -0.22810943582E+01  0.39590390521E+01  0.00000000000E+00 0.  1.
</event>
<event>
 7    1  0.2412036E-009  0.4778727E+02  0.7816164E-02  0.1312668E+00
        -11   -1    0    0    0    0  0.00000000000E+00  0.00000000000E+00  0.45593999997E+02  0.45594000000E+02  0.51100000000E-03 0.  1.
         11   -1    0    0    0    0 -0.00000000000E+00 -0.00000000000E+00 -0.45593999997E+02  0.45594000000E+02  0.51100000000E-03 0. -1.
    9900012    2    1    2    0    0 -0.19254442917E+02 -0.80338301717E+01  0.38057157790E+02  0.47787271224E+02  0.20000000818E+02 0.  0.
         12    1    1    2    0    0  0.19254442917E+02  0.80338301717E+01 -0.38057157790E+02  0.43400728776E+02  0.00000000000E+00 0. -1.
         11    1    3    3    0    0 -0.43972283183E+01 -0.15785399347E+01  0.26200429423E+02  0.26613716528E+02  0.51100000000E-03 0.  1.
        -11    1    3    3    0    0 -0.13075971993E+02 -0.71844472596E+01  0.12131387613E+02  0.19229349746E+02  0.51100000000E-03 0. -1.
         12    1    3    3    0    0 -0.17812426058E+01  0.72915702262E+00 -0.27465924627E+00  0.19442049496E+01  0.00000000000E+00 0. -1.
</event>
<event>
 7    1  0.2457459E-009  0.4778727E+02  0.7816164E-02  0.1312668E+00
        -11   -1    0    0    0    0  0.00000000000E+00  0.00000000000E+00  0.45593999997E+02  0.45594000000E+02  0.51100000000E-03 0.  1.
         11   -1    0    0    0    0 -0.00000000000E+00 -0.00000000000E+00 -0.45593999997E+02  0.45594000000E+02  0.51100000000E-03 0. -1.
    9900012    2    1    2    0    0 -0.36186551255E+02  0.10164877817E+02  0.21698664426E+02  0.47787271082E+02  0.20000000171E+02 0.  0.
         12    1    1    2    0    0  0.36186551255E+02 -0.10164877817E+02 -0.21698664426E+02  0.43400728918E+02  0.00000000000E+00 0. -1.
         11    1    3    3    0    0 -0.31981533474E+00  0.23368693040E+01 -0.19052617621E+01  0.30320393526E+01  0.51100000000E-03 0. -1.
        -11    1    3    3    0    0 -0.25693685920E+02  0.97526378072E+00  0.17008019218E+02  0.30828385517E+02  0.51100000000E-03 0.  1.
        -12    1    3    3    0    0 -0.10173049999E+02  0.68527447317E+01  0.65959069706E+01  0.13926846212E+02  0.00000000000E+00 0.  1.
</event>
<event>
 7    1  0.2412036E-009  0.4778727E+02  0.7816164E-02  0.1312668E+00
        -11   -1    0    0    0    0  0.00000000000E+00  0.00000000000E+00  0.45593999997E+02  0.45594000000E+02  0.51100000000E-03 0.  1.
         11   -1    0    0    0    0 -0.00000000000E+00 -0.00000000000E+00 -0.45593999997E+02  0.45594000000E+02  0.51100000000E-03 0. -1.
    9900012    2    1    2    0    0  0.73076753513E+01  0.42688332973E+02  0.28155356180E+01  0.47787272681E+02  0.20000007460E+02 0.  0.
         12    1    1    2    0    0 -0.73076753513E+01 -0.42688332973E+02 -0.28155356180E+01  0.43400727319E+02  0.00000000000E+00 0. -1.
         11    1    3    3    0    0  0.78477794947E+01  0.21838518871E+02  0.75762957775E+01  0.24411243463E+02  0.51100000000E-03 0.  1.
        -11    1    3    3    0    0 -0.47813322512E+01  0.13133013135E+02 -0.18300316506E+01  0.14095608827E+02  0.51100000000E-03 0. -1.
         12    1    3    3    0    0  0.42412281079E+01  0.77168009675E+01 -0.29307285089E+01  0.92804203907E+01  0.00000000000E+00 0. -1.
</event>
<event>
 7    1  0.2412036E-009  0.4778727E+02  0.7816164E-02  0.1312668E+00
        -11   -1    0    0    0    0  0.00000000000E+00  0.00000000000E+00  0.45593999997E+02  0.45594000000E+02  0.51100000000E-03 0.  1.
         11   -1    0    0    0    0 -0.00000000000E+00 -0.00000000000E+00 -0.45593999997E+02  0.45594000000E+02  0.51100000000E-03 0. -1.
    9900012    2    1    2    0    0 -0.17287633968E+02 -0.23054845927E+01  0.39742242597E+02  0.47787269660E+02  0.19999993686E+02 0.  0.
         12    1    1    2    0    0  0.17287633968E+02  0.23054845927E+01 -0.39742242597E+02  0.43400730340E+02  0.00000000000E+00 0. -1.
         11    1    3    3    0    0 -0.66441278574E+01  0.65659318557E+01  0.73709552764E+01  0.11899028451E+02  0.51100000000E-03 0. -1.
        -11    1    3    3    0    0 -0.89579823747E+01 -0.63187567446E+01  0.17089279127E+02  0.20303093271E+02  0.51100000000E-03 0.  1.
         12    1    3    3    0    0 -0.16855237360E+01 -0.25526597037E+01  0.15282008193E+02  0.15585147938E+02  0.00000000000E+00 0. -1.
</event>
<event>
 7    1  0.2412036E-009  0.4778727E+02  0.7816164E-02  0.1312668E+00
        -11   -1    0    0    0    0  0.00000000000E+00  0.00000000000E+00  0.45593999997E+02  0.45594000000E+02  0.51100000000E-03 0.  1.
         11   -1    0    0    0    0 -0.00000000000E+00 -0.00000000000E+00 -0.45593999997E+02  0.45594000000E+02  0.51100000000E-03 0. -1.
    9900012    2    1    2    0    0  0.78700213347E+00 -0.14870778223E+02  0.40765964944E+02  0.47787270569E+02  0.19999997833E+02 0.  0.
         12    1    1    2    0    0 -0.78700213347E+00  0.14870778223E+02 -0.40765964944E+02  0.43400729431E+02  0.00000000000E+00 0. -1.
         11    1    3    3    0    0 -0.55873789432E+01 -0.58570980643E+01  0.20904107071E+02  0.22416647695E+02  0.51100000000E-03 0. -1.
        -11    1    3    3    0    0 -0.59488646548E+00 -0.24488155956E+01  0.13823166197E+02  0.14050996822E+02  0.51100000000E-03 0.  1.
         12    1    3    3    0    0  0.69692675421E+01 -0.65648645627E+01  0.60386916765E+01  0.11319626052E+02  0.00000000000E+00 0. -1.
</event>
<event>
 7    1  0.2412036E-009  0.4778727E+02  0.7816164E-02  0.1312668E+00
        -11   -1    0    0    0    0  0.00000000000E+00  0.00000000000E+00  0.45593999997E+02  0.45594000000E+02  0.51100000000E-03 0. -1.
         11   -1    0    0    0    0 -0.00000000000E+00 -0.00000000000E+00 -0.45593999997E+02  0.45594000000E+02  0.51100000000E-03 0.  1.
    9900012    2    1    2    0    0  0.33700946716E+02 -0.26957917175E+02  0.45978267066E+01  0.47787272835E+02  0.20000008166E+02 0.  0.
         12    1    1    2    0    0 -0.33700946716E+02  0.26957917175E+02 -0.45978267066E+01  0.43400727165E+02  0.00000000000E+00 0. -1.
         11    1    3    3    0    0  0.27082333901E+02 -0.16050974915E+02  0.41609934516E+01  0.31755321948E+02  0.51100000000E-03 0.  1.
        -11    1    3    3    0    0  0.18757529739E+01 -0.50841352235E+01  0.48914388741E+01  0.73002092237E+01  0.51100000000E-03 0. -1.
         12    1    3    3    0    0  0.47428598412E+01 -0.58228070365E+01 -0.44546056192E+01  0.87317416636E+01  0.00000000000E+00 0. -1.
</event>
<event>
 7    1  0.2412036E-009  0.4778727E+02  0.7816164E-02  0.1312668E+00
        -11   -1    0    0    0    0  0.00000000000E+00  0.00000000000E+00  0.45593999997E+02  0.45594000000E+02  0.51100000000E-03 0.  1.
         11   -1    0    0    0    0 -0.00000000000E+00 -0.00000000000E+00 -0.45593999997E+02  0.45594000000E+02  0.51100000000E-03 0. -1.
    9900012    2    1    2    0    0 -0.55836048502E+01 -0.15939535700E+02  0.39979719125E+02  0.47787269790E+02  0.19999994281E+02 0.  0.
         12    1    1    2    0    0  0.55836048502E+01  0.15939535700E+02 -0.39979719125E+02  0.43400730210E+02  0.00000000000E+00 0. -1.
         11    1    3    3    0    0 -0.10915204233E+01  0.26342486179E+01  0.44669918251E+01  0.52994998672E+01  0.51100000000E-03 0. -1.
        -11    1    3    3    0    0  0.24942842802E+01 -0.14824839570E+02  0.26637146891E+02  0.30586515282E+02  0.51100000000E-03 0.  1.
        -12    1    3    3    0    0 -0.69863687072E+01 -0.37489447477E+01  0.88755804089E+01  0.11901254641E+02  0.00000000000E+00 0.  1.
</event>
<event>
 7    1  0.2412036E-009  0.4778727E+02  0.7816164E-02  0.1312668E+00
        -11   -1    0    0    0    0  0.00000000000E+00  0.00000000000E+00  0.45593999997E+02  0.45594000000E+02  0.51100000000E-03 0.  1.
         11   -1    0    0    0    0 -0.00000000000E+00 -0.00000000000E+00 -0.45593999997E+02  0.45594000000E+02  0.51100000000E-03 0. -1.
    9900012    2    1    2    0    0 -0.37810609543E+01 -0.40767809657E+02  0.14398353042E+02  0.47787270783E+02  0.19999998810E+02 0.  0.
         12    1    1    2    0    0  0.37810609543E+01  0.40767809657E+02 -0.14398353042E+02  0.43400729217E+02  0.00000000000E+00 0. -1.
         11    1    3    3    0    0 -0.40588495321E+01 -0.20767129397E+02 -0.10209340615E+01  0.21184669682E+02  0.51100000000E-03 0. -1.
        -11    1    3    3    0    0 -0.23796911512E+01 -0.15552082408E+02  0.14385931246E+02  0.21318658852E+02  0.51100000000E-03 0.  1.
         12    1    3    3    0    0  0.26574797290E+01 -0.44485978529E+01  0.10333558580E+01  0.52839422495E+01  0.00000000000E+00 0. -1.
</event>
<event>
 7    1  0.2412036E-009  0.4778728E+02  0.7816164E-02  0.1312668E+00
        -11   -1    0    0    0    0  0.00000000000E+00  0.00000000000E+00  0.45593999997E+02  0.45594000000E+02  0.51100000000E-03 0.  1.
         11   -1    0    0    0    0 -0.00000000000E+00 -0.00000000000E+00 -0.45593999997E+02  0.45594000000E+02  0.51100000000E-03 0. -1.
    9900012    2    1    2    0    0 -0.31495306379E+02  0.45705129848E+01  0.29508959553E+02  0.47787278730E+02  0.20000035042E+02 0.  0.
         12    1    1    2    0    0  0.31495306379E+02 -0.45705129848E+01 -0.29508959553E+02  0.43400721270E+02  0.00000000000E+00 0. -1.
         11    1    3    3    0    0 -0.42584314340E+01 -0.45777183555E+01  0.34202636384E+01  0.71265663006E+01  0.51100000000E-03 0. -1.
        -11    1    3    3    0    0 -0.27755984603E+02  0.71397829961E+01  0.25808414507E+02  0.38567414253E+02  0.51100000000E-03 0.  1.
         12    1    3    3    0    0  0.51910965843E+00  0.20084483442E+01  0.28028140807E+00  0.20932981767E+01  0.00000000000E+00 0. -1.
</event>
<event>
 7    1  0.2412036E-009  0.4778727E+02  0.7816164E-02  0.1312668E+00
        -11   -1    0    0    0    0  0.00000000000E+00  0.00000000000E+00  0.45593999997E+02  0.45594000000E+02  0.51100000000E-03 0.  1.
         11   -1    0    0    0    0 -0.00000000000E+00 -0.00000000000E+00 -0.45593999997E+02  0.45594000000E+02  0.51100000000E-03 0. -1.
    9900012    2    1    2    0    0 -0.21225522786E+02 -0.30973707468E+02  0.21765330676E+02  0.47787274300E+02  0.20000014844E+02 0.  0.
         12    1    1    2    0    0  0.21225522786E+02  0.30973707468E+02 -0.21765330676E+02  0.43400725700E+02  0.00000000000E+00 0. -1.
         11    1    3    3    0    0 -0.19009924306E+01 -0.34259637021E+00 -0.50992009714E+00  0.19977895937E+01  0.51100000000E-03 0. -1.
        -11    1    3    3    0    0 -0.19844832077E+02 -0.18119636728E+02  0.11350299165E+02  0.29171353872E+02  0.51100000000E-03 0.  1.
        -12    1    3    3    0    0  0.52030172186E+00 -0.12511474370E+02  0.10924951608E+02  0.16618130835E+02  0.00000000000E+00 0.  1.
</event>
<event>
 7    1  0.2412036E-009  0.4778726E+02  0.7816164E-02  0.1312668E+00
        -11   -1    0    0    0    0  0.00000000000E+00  0.00000000000E+00  0.45593999997E+02  0.45594000000E+02  0.51100000000E-03 0.  1.
         11   -1    0    0    0    0 -0.00000000000E+00 -0.00000000000E+00 -0.45593999997E+02  0.45594000000E+02  0.51100000000E-03 0. -1.
    9900012    2    1    2    0    0  0.35593889751E+02 -0.20918843940E+02 -0.13382881307E+02  0.47787256556E+02  0.19999933941E+02 0.  0.
         12    1    1    2    0    0 -0.35593889751E+02  0.20918843940E+02  0.13382881307E+02  0.43400743444E+02  0.00000000000E+00 0. -1.
         11    1    3    3    0    0  0.41627199848E+01  0.37528898087E+01 -0.11694455702E+01  0.57253840737E+01  0.51100000000E-03 0. -1.
        -11    1    3    3    0    0  0.24433738594E+02 -0.17503051072E+02 -0.74301970931E+01  0.30960817296E+02  0.51100000000E-03 0.  1.
         12    1    3    3    0    0  0.69974311722E+01 -0.71686826771E+01 -0.47832386433E+01  0.11101055187E+02  0.00000000000E+00 0. -1.
</event>
<event>
 7    1  0.2412036E-009  0.4778727E+02  0.7816164E-02  0.1312668E+00
        -11   -1    0    0    0    0  0.00000000000E+00  0.00000000000E+00  0.45593999997E+02  0.45594000000E+02  0.51100000000E-03 0.  1.
         11   -1    0    0    0    0 -0.00000000000E+00 -0.00000000000E+00 -0.45593999997E+02  0.45594000000E+02  0.51100000000E-03 0. -1.
    9900012    2    1    2    0    0  0.33156727560E+02 -0.27773749017E+02  0.35879836182E+01  0.47787270243E+02  0.19999996348E+02 0.  0.
         12    1    1    2    0    0 -0.33156727560E+02  0.27773749017E+02 -0.35879836182E+01  0.43400729757E+02  0.00000000000E+00 0. -1.
         11    1    3    3    0    0  0.24647411625E+02 -0.20681234578E+02  0.56738505591E+01  0.32671102582E+02  0.51100000000E-03 0. -1.
        -11    1    3    3    0    0  0.67023597516E+01 -0.24704136288E+01  0.32337762250E+01  0.78410381119E+01  0.51100000000E-03 0.  1.
         12    1    3    3    0    0  0.18069561827E+01 -0.46221008104E+01 -0.53196431659E+01  0.72751295494E+01  0.00000000000E+00 0. -1.
</event>
<event>
 7    1  0.2412036E-009  0.4778727E+02  0.7816164E-02  0.1312668E+00
        -11   -1    0    0    0    0  0.00000000000E+00  0.00000000000E+00  0.45593999997E+02  0.45594000000E+02  0.51100000000E-03 0.  1.
         11   -1    0    0    0    0 -0.00000000000E+00 -0.00000000000E+00 -0.45593999997E+02  0.45594000000E+02  0.51100000000E-03 0. -1.
    9900012    2    1    2    0    0 -0.38060392797E+02 -0.11155730667E+02  0.17623265011E+02  0.47787270787E+02  0.19999998826E+02 0.  0.
         12    1    1    2    0    0  0.38060392797E+02  0.11155730667E+02 -0.17623265011E+02  0.43400729213E+02  0.00000000000E+00 0. -1.
         11    1    3    3    0    0 -0.22653102173E+01 -0.47770865066E+01  0.15336979992E+01  0.55049446578E+01  0.51100000000E-03 0. -1.
        -11    1    3    3    0    0 -0.31788807865E+02 -0.10182909226E+02  0.12260403835E+02  0.35560335322E+02  0.51100000000E-03 0.  1.
        -12    1    3    3    0    0 -0.40062747149E+01  0.38042650649E+01  0.38291631764E+01  0.67219908069E+01  0.00000000000E+00 0.  1.
</event>
<event>
 7    1  0.2412036E-009  0.4778727E+02  0.7816164E-02  0.1312668E+00
        -11   -1    0    0    0    0  0.00000000000E+00  0.00000000000E+00  0.45593999997E+02  0.45594000000E+02  0.51100000000E-03 0.  1.
         11   -1    0    0    0    0 -0.00000000000E+00 -0.00000000000E+00 -0.45593999997E+02  0.45594000000E+02  0.51100000000E-03 0. -1.
    9900012    2    1    2    0    0  0.28045795612E+02 -0.11325900913E+01  0.33102479668E+02  0.47787267609E+02  0.19999984338E+02 0.  0.
         12    1    1    2    0    0 -0.28045795612E+02  0.11325900913E+01 -0.33102479668E+02  0.43400732391E+02  0.00000000000E+00 0. -1.
         11    1    3    3    0    0  0.11833103377E+01  0.25587038064E-01 -0.39378730270E+00  0.12473759468E+01  0.51100000000E-03 0. -1.
        -11    1    3    3    0    0  0.23362317225E+02  0.26127526238E+01  0.16340629755E+02  0.28629364706E+02  0.51100000000E-03 0.  1.
        -12    1    3    3    0    0  0.35001680497E+01 -0.37709297532E+01  0.17155637216E+02  0.17910526957E+02  0.00000000000E+00 0.  1.
</event>
<event>
 7    1  0.2412036E-009  0.4778727E+02  0.7816164E-02  0.1312668E+00
        -11   -1    0    0    0    0  0.00000000000E+00  0.00000000000E+00  0.45593999997E+02  0.45594000000E+02  0.51100000000E-03 0.  1.
         11   -1    0    0    0    0 -0.00000000000E+00 -0.00000000000E+00 -0.45593999997E+02  0.45594000000E+02  0.51100000000E-03 0. -1.
    9900012    2    1    2    0    0  0.19249034882E+02 -0.38787593129E+02 -0.29360619981E+01  0.47787272072E+02  0.20000004687E+02 0.  0.
         12    1    1    2    0    0 -0.19249034882E+02  0.38787593129E+02  0.29360619981E+01  0.43400727928E+02  0.00000000000E+00 0. -1.
         11    1    3    3    0    0  0.13257873080E+02 -0.10195533845E+02 -0.46391003489E+01  0.17356306096E+02  0.51100000000E-03 0. -1.
        -11    1    3    3    0    0 -0.41232693400E+00 -0.12450206084E+02 -0.21547560509E+01  0.12642017993E+02  0.51100000000E-03 0.  1.
         12    1    3    3    0    0  0.64034887360E+01 -0.16141853199E+02  0.38577944017E+01  0.17788947983E+02  0.00000000000E+00 0. -1.
</event>
<event>
 7    1  0.2412036E-009  0.4778727E+02  0.7816164E-02  0.1312668E+00
        -11   -1    0    0    0    0  0.00000000000E+00  0.00000000000E+00  0.45593999997E+02  0.45594000000E+02  0.51100000000E-03 0.  1.
         11   -1    0    0    0    0 -0.00000000000E+00 -0.00000000000E+00 -0.45593999997E+02  0.45594000000E+02  0.51100000000E-03 0. -1.
    9900012    2    1    2    0    0  0.17448833974E+02  0.23142593692E+02  0.32304515373E+02  0.47787272318E+02  0.20000005807E+02 0.  0.
         12    1    1    2    0    0 -0.17448833974E+02 -0.23142593692E+02 -0.32304515373E+02  0.43400727682E+02  0.00000000000E+00 0. -1.
         11    1    3    3    0    0 -0.12777691814E+00 -0.20116531903E+01  0.38166559150E+00  0.20515224551E+01  0.51100000000E-03 0. -1.
        -11    1    3    3    0    0  0.14650825228E+02  0.21118090627E+02  0.19232979957E+02  0.32101837173E+02  0.51100000000E-03 0.  1.
        -12    1    3    3    0    0  0.29257856646E+01  0.40361562549E+01  0.12689869825E+02  0.13633912690E+02  0.00000000000E+00 0.  1.
</event>
<event>
 7    1  0.2412036E-009  0.4778727E+02  0.7816164E-02  0.1312668E+00
        -11   -1    0    0    0    0  0.00000000000E+00  0.00000000000E+00  0.45593999997E+02  0.45594000000E+02  0.51100000000E-03 0.  1.
         11   -1    0    0    0    0 -0.00000000000E+00 -0.00000000000E+00 -0.45593999997E+02  0.45594000000E+02  0.51100000000E-03 0. -1.
    9900012    2    1    2    0    0  0.99834426564E+01 -0.29975413789E+02  0.29756155640E+02  0.47787270080E+02  0.19999995604E+02 0.  0.
         12    1    1    2    0    0 -0.99834426564E+01  0.29975413789E+02 -0.29756155640E+02  0.43400729920E+02  0.00000000000E+00 0. -1.
         11    1    3    3    0    0 -0.35585536275E+01 -0.59398187901E+01  0.75080227074E+01  0.10213479153E+02  0.51100000000E-03 0. -1.
        -11    1    3    3    0    0  0.81342503621E+01 -0.22438855424E+02  0.14283334821E+02  0.27815138244E+02  0.51100000000E-03 0.  1.
        -12    1    3    3    0    0  0.54077459218E+01 -0.15967395752E+01  0.79647981113E+01  0.97586526826E+01  0.00000000000E+00 0.  1.
</event>
<event>
 7    1  0.2412036E-009  0.4778728E+02  0.7816164E-02  0.1312668E+00
        -11   -1    0    0    0    0  0.00000000000E+00  0.00000000000E+00  0.45593999997E+02  0.45594000000E+02  0.51100000000E-03 0.  1.
         11   -1    0    0    0    0 -0.00000000000E+00 -0.00000000000E+00 -0.45593999997E+02  0.45594000000E+02  0.51100000000E-03 0. -1.
    9900012    2    1    2    0    0  0.17240450356E+02  0.32226179677E+02  0.23406475765E+02  0.47787275434E+02  0.20000020016E+02 0.  0.
         12    1    1    2    0    0 -0.17240450356E+02 -0.32226179677E+02 -0.23406475765E+02  0.43400724566E+02  0.00000000000E+00 0. -1.
         11    1    3    3    0    0  0.20413473221E+01  0.49716857012E+00 -0.24869372851E+01  0.32556309369E+01  0.51100000000E-03 0. -1.
        -11    1    3    3    0    0  0.75020978160E+01  0.21447169966E+02  0.12327027410E+02  0.25849916368E+02  0.51100000000E-03 0.  1.
         12    1    3    3    0    0  0.76970052178E+01  0.10281841141E+02  0.13566385640E+02  0.18681728130E+02  0.00000000000E+00 0. -1.
</event>
<event>
 7    1  0.2412036E-009  0.4778732E+02  0.7816164E-02  0.1312668E+00
        -11   -1    0    0    0    0  0.00000000000E+00  0.00000000000E+00  0.45593999997E+02  0.45594000000E+02  0.51100000000E-03 0.  1.
         11   -1    0    0    0    0 -0.00000000000E+00 -0.00000000000E+00 -0.45593999997E+02  0.45594000000E+02  0.51100000000E-03 0. -1.
    9900012    2    1    2    0    0  0.24080256588E+02  0.24763290589E+02  0.26278115563E+02  0.47787324018E+02  0.20000241527E+02 0.  0.
         12    1    1    2    0    0 -0.24080256588E+02 -0.24763290589E+02 -0.26278115563E+02  0.43400675982E+02  0.00000000000E+00 0. -1.
         11    1    3    3    0    0  0.75834459562E+01  0.16945410564E+02  0.12692663552E+02  0.22489092913E+02  0.51100000000E-03 0. -1.
        -11    1    3    3    0    0  0.30242186187E+01  0.60957143148E+01  0.11857374624E+01  0.69072139718E+01  0.51100000000E-03 0.  1.
         12    1    3    3    0    0  0.13472592013E+02  0.17221657097E+01  0.12399714549E+02  0.18391017133E+02  0.00000000000E+00 0. -1.
</event>
<event>
 7    1  0.2412036E-009  0.4778728E+02  0.7816164E-02  0.1312668E+00
        -11   -1    0    0    0    0  0.00000000000E+00  0.00000000000E+00  0.45593999997E+02  0.45594000000E+02  0.51100000000E-03 0.  1.
         11   -1    0    0    0    0 -0.00000000000E+00 -0.00000000000E+00 -0.45593999997E+02  0.45594000000E+02  0.51100000000E-03 0. -1.
    9900012    2    1    2    0    0  0.33647205366E+02 -0.67370108753E+01  0.26572564114E+02  0.47787275259E+02  0.20000019217E+02 0.  0.
         12    1    1    2    0    0 -0.33647205366E+02  0.67370108753E+01 -0.26572564114E+02  0.43400724741E+02  0.00000000000E+00 0. -1.
         11    1    3    3    0    0  0.13433886239E+02  0.19178672890E+01  0.19917774107E+02  0.24101146032E+02  0.51100000000E-03 0. -1.
        -11    1    3    3    0    0  0.73420903098E+01 -0.77834331540E+00  0.38886681039E+01  0.83446898275E+01  0.51100000000E-03 0.  1.
         12    1    3    3    0    0  0.12871228817E+02 -0.78765348489E+01  0.27661219032E+01  0.15341439400E+02  0.00000000000E+00 0. -1.
</event>
<event>
 7    1  0.2412036E-009  0.4778727E+02  0.7816164E-02  0.1312668E+00
        -11   -1    0    0    0    0  0.00000000000E+00  0.00000000000E+00  0.45593999997E+02  0.45594000000E+02  0.51100000000E-03 0.  1.
         11   -1    0    0    0    0 -0.00000000000E+00 -0.00000000000E+00 -0.45593999997E+02  0.45594000000E+02  0.51100000000E-03 0. -1.
    9900012    2    1    2    0    0  0.21654817543E+02  0.33127360922E+01  0.37466223869E+02  0.47787271040E+02  0.19999999980E+02 0.  0.
         12    1    1    2    0    0 -0.21654817543E+02 -0.33127360922E+01 -0.37466223869E+02  0.43400728960E+02  0.00000000000E+00 0. -1.
         11    1    3    3    0    0  0.77916057469E+01  0.53341164697E+00  0.35981569239E+01  0.85988593203E+01  0.51100000000E-03 0. -1.
        -11    1    3    3    0    0  0.51447717397E+00 -0.38769504425E+01  0.30829521993E+01  0.49799624517E+01  0.51100000000E-03 0.  1.
        -12    1    3    3    0    0  0.13348734622E+02  0.66562748877E+01  0.30785114746E+02  0.34208449268E+02  0.00000000000E+00 0.  1.
</event>
<event>
 7    1  0.2412036E-009  0.4778724E+02  0.7816164E-02  0.1312668E+00
        -11   -1    0    0    0    0  0.00000000000E+00  0.00000000000E+00  0.45593999997E+02  0.45594000000E+02  0.51100000000E-03 0.  1.
         11   -1    0    0    0    0 -0.00000000000E+00 -0.00000000000E+00 -0.45593999997E+02  0.45594000000E+02  0.51100000000E-03 0. -1.
    9900012    2    1    2    0    0  0.21462974746E+02 -0.42039806671E+01  0.37487238305E+02  0.47787242240E+02  0.19999868671E+02 0.  0.
         12    1    1    2    0    0 -0.21462974746E+02  0.42039806671E+01 -0.37487238305E+02  0.43400757760E+02  0.00000000000E+00 0. -1.
         11    1    3    3    0    0 -0.16817187979E+01 -0.50457609183E+01  0.35892435989E+01  0.64164282302E+01  0.51100000000E-03 0. -1.
        -11    1    3    3    0    0  0.15729498872E+02 -0.16136993207E+01  0.20919541473E+02  0.26223050470E+02  0.51100000000E-03 0.  1.
        -12    1    3    3    0    0  0.74151946718E+01  0.24554795719E+01  0.12978453233E+02  0.15147763540E+02  0.00000000000E+00 0.  1.
</event>
<event>
 7    1  0.2412036E-009  0.4778729E+02  0.7816164E-02  0.1312668E+00
        -11   -1    0    0    0    0  0.00000000000E+00  0.00000000000E+00  0.45593999997E+02  0.45594000000E+02  0.51100000000E-03 0.  1.
         11   -1    0    0    0    0 -0.00000000000E+00 -0.00000000000E+00 -0.45593999997E+02  0.45594000000E+02  0.51100000000E-03 0. -1.
    9900012    2    1    2    0    0 -0.25823506342E+02 -0.34020253885E+02  0.77065398755E+01  0.47787286745E+02  0.20000071584E+02 0.  0.
         12    1    1    2    0    0  0.25823506342E+02  0.34020253885E+02 -0.77065398755E+01  0.43400713255E+02  0.00000000000E+00 0. -1.
         11    1    3    3    0    0 -0.21380622275E+02 -0.21238917963E+02  0.55771594908E+00  0.30141892649E+02  0.51100000000E-03 0. -1.
        -11    1    3    3    0    0 -0.40788116045E+01 -0.11363027187E+02  0.19314462323E+01  0.12226429395E+02  0.51100000000E-03 0.  1.
         12    1    3    3    0    0 -0.36407246328E+00 -0.14183087349E+01  0.52173776941E+01  0.54189647008E+01  0.00000000000E+00 0. -1.
</event>
<event>
 7    1  0.2412036E-009  0.4778727E+02  0.7816164E-02  0.1312668E+00
        -11   -1    0    0    0    0  0.00000000000E+00  0.00000000000E+00  0.45593999997E+02  0.45594000000E+02  0.51100000000E-03 0. -1.
         11   -1    0    0    0    0 -0.00000000000E+00 -0.00000000000E+00 -0.45593999997E+02  0.45594000000E+02  0.51100000000E-03 0.  1.
    9900012    2    1    2    0    0  0.38139154183E+02  0.20688567964E+02 -0.10056522675E+01  0.47787271174E+02  0.20000000589E+02 0.  0.
         12    1    1    2    0    0 -0.38139154183E+02 -0.20688567964E+02  0.10056522675E+01  0.43400728826E+02  0.00000000000E+00 0. -1.
         11    1    3    3    0    0  0.26974095634E+02  0.71383108902E+01 -0.65774171339E+01  0.28667398453E+02  0.51100000000E-03 0.  1.
        -11    1    3    3    0    0  0.32712175638E+01  0.63125568255E+01  0.43640734724E+01  0.83423243498E+01  0.51100000000E-03 0. -1.
        -12    1    3    3    0    0  0.78938409849E+01  0.72377002487E+01  0.12076913940E+01  0.10777548371E+02  0.00000000000E+00 0.  1.
</event>
<event>
 7    1  0.2412036E-009  0.4778727E+02  0.7816164E-02  0.1312668E+00
        -11   -1    0    0    0    0  0.00000000000E+00  0.00000000000E+00  0.45593999997E+02  0.45594000000E+02  0.51100000000E-03 0.  1.
         11   -1    0    0    0    0 -0.00000000000E+00 -0.00000000000E+00 -0.45593999997E+02  0.45594000000E+02  0.51100000000E-03 0. -1.
    9900012    2    1    2    0    0  0.13718690310E+02  0.39380017143E+02  0.12026429288E+02  0.47787271718E+02  0.20000003073E+02 0.  0.
         12    1    1    2    0    0 -0.13718690310E+02 -0.39380017143E+02 -0.12026429288E+02  0.43400728282E+02  0.00000000000E+00 0. -1.
         11    1    3    3    0    0  0.10722300774E+02  0.11841299755E+02 -0.61006017285E+00  0.15986127970E+02  0.51100000000E-03 0. -1.
        -11    1    3    3    0    0 -0.27719937668E+01  0.16407565277E+02  0.75158758930E+01  0.18258711303E+02  0.51100000000E-03 0.  1.
        -12    1    3    3    0    0  0.57683833022E+01  0.11131152110E+02  0.51206135677E+01  0.13542432445E+02  0.00000000000E+00 0.  1.
</event>
<event>
 7    1  0.2412036E-009  0.4778727E+02  0.7816164E-02  0.1312668E+00
        -11   -1    0    0    0    0  0.00000000000E+00  0.00000000000E+00  0.45593999997E+02  0.45594000000E+02  0.51100000000E-03 0.  1.
         11   -1    0    0    0    0 -0.00000000000E+00 -0.00000000000E+00 -0.45593999997E+02  0.45594000000E+02  0.51100000000E-03 0. -1.
    9900012    2    1    2    0    0  0.21339521444E+02  0.16475634579E+02  0.34011788628E+02  0.47787268717E+02  0.19999989388E+02 0.  0.
         12    1    1    2    0    0 -0.21339521444E+02 -0.16475634579E+02 -0.34011788628E+02  0.43400731283E+02  0.00000000000E+00 0. -1.
         11    1    3    3    0    0  0.14075820330E+02  0.49425448970E+01  0.17167651769E+02  0.22743916451E+02  0.51100000000E-03 0. -1.
        -11    1    3    3    0    0  0.48017590441E+01  0.98451759154E+01  0.36957727516E+01  0.11560411550E+02  0.51100000000E-03 0.  1.
        -12    1    3    3    0    0  0.24619420703E+01  0.16879137663E+01  0.13148364107E+02  0.13482940716E+02  0.00000000000E+00 0.  1.
</event>
<event>
 7    1  0.2412036E-009  0.4778727E+02  0.7816164E-02  0.1312668E+00
        -11   -1    0    0    0    0  0.00000000000E+00  0.00000000000E+00  0.45593999997E+02  0.45594000000E+02  0.51100000000E-03 0.  1.
         11   -1    0    0    0    0 -0.00000000000E+00 -0.00000000000E+00 -0.45593999997E+02  0.45594000000E+02  0.51100000000E-03 0. -1.
    9900012    2    1    2    0    0  0.74536778841E+00 -0.39898674098E+02  0.17063509626E+02  0.47787272717E+02  0.20000007627E+02 0.  0.
         12    1    1    2    0    0 -0.74536778841E+00  0.39898674098E+02 -0.17063509626E+02  0.43400727283E+02  0.00000000000E+00 0. -1.
         11    1    3    3    0    0 -0.55624943022E+01 -0.46524542458E+01 -0.29015411424E+00  0.72574694655E+01  0.51100000000E-03 0. -1.
        -11    1    3    3    0    0  0.75098142784E+01 -0.34053512619E+02  0.17021419452E+02  0.38804223386E+02  0.51100000000E-03 0.  1.
        -12    1    3    3    0    0 -0.12019521877E+01 -0.11927072329E+01  0.33224428881E+00  0.17255798656E+01  0.00000000000E+00 0.  1.
</event>
<event>
 7    1  0.2412036E-009  0.4778727E+02  0.7816164E-02  0.1312668E+00
        -11   -1    0    0    0    0  0.00000000000E+00  0.00000000000E+00  0.45593999997E+02  0.45594000000E+02  0.51100000000E-03 0.  1.
         11   -1    0    0    0    0 -0.00000000000E+00 -0.00000000000E+00 -0.45593999997E+02  0.45594000000E+02  0.51100000000E-03 0. -1.
    9900012    2    1    2    0    0 -0.29639132436E+02 -0.15297045659E+02  0.27769503482E+02  0.47787273035E+02  0.20000009074E+02 0.  0.
         12    1    1    2    0    0  0.29639132436E+02  0.15297045659E+02 -0.27769503482E+02  0.43400726965E+02  0.00000000000E+00 0. -1.
         11    1    3    3    0    0  0.62791358072E+00 -0.55676634011E+01  0.49811914256E+01  0.74970273771E+01  0.51100000000E-03 0. -1.
        -11    1    3    3    0    0 -0.18752950576E+02 -0.10335483443E+02  0.17263054442E+02  0.27504698185E+02  0.51100000000E-03 0.  1.
         12    1    3    3    0    0 -0.11514095441E+02  0.60610118480E+00  0.55252576141E+01  0.12785547472E+02  0.00000000000E+00 0. -1.
</event>
<event>
 7    1  0.2412036E-009  0.4778727E+02  0.7816164E-02  0.1312668E+00
        -11   -1    0    0    0    0  0.00000000000E+00  0.00000000000E+00  0.45593999997E+02  0.45594000000E+02  0.51100000000E-03 0.  1.
         11   -1    0    0    0    0 -0.00000000000E+00 -0.00000000000E+00 -0.45593999997E+02  0.45594000000E+02  0.51100000000E-03 0. -1.
    9900012    2    1    2    0    0 -0.17831867143E+02  0.71936868597E+01  0.38908848860E+02  0.47787272632E+02  0.20000007239E+02 0.  0.
         12    1    1    2    0    0  0.17831867143E+02 -0.71936868597E+01 -0.38908848860E+02  0.43400727368E+02  0.00000000000E+00 0. -1.
         11    1    3    3    0    0 -0.54818792774E+01  0.79120057538E+01  0.16502643354E+02  0.19104661038E+02  0.51100000000E-03 0. -1.
        -11    1    3    3    0    0 -0.10369053211E+02 -0.50702825784E+01  0.95999544044E+01  0.15012799697E+02  0.51100000000E-03 0.  1.
        -12    1    3    3    0    0 -0.19809346551E+01  0.43519636844E+01  0.12806251102E+02  0.13669811897E+02  0.00000000000E+00 0.  1.
</event>
<event>
 7    1  0.2412036E-009  0.4778727E+02  0.7816164E-02  0.1312668E+00
        -11   -1    0    0    0    0  0.00000000000E+00  0.00000000000E+00  0.45593999997E+02  0.45594000000E+02  0.51100000000E-03 0.  1.
         11   -1    0    0    0    0 -0.00000000000E+00 -0.00000000000E+00 -0.45593999997E+02  0.45594000000E+02  0.51100000000E-03 0. -1.
    9900012    2    1    2    0    0 -0.39403124900E+02  0.12614265012E+02 -0.13110968257E+02  0.47787269334E+02  0.19999992201E+02 0.  0.
         12    1    1    2    0    0  0.39403124900E+02 -0.12614265012E+02  0.13110968257E+02  0.43400730666E+02  0.00000000000E+00 0. -1.
         11    1    3    3    0    0 -0.23960673575E+02  0.56679750763E+01 -0.85667134283E+01  0.26069683521E+02  0.51100000000E-03 0. -1.
        -11    1    3    3    0    0 -0.33915498906E+01  0.83945679796E+01 -0.12406357958E+01  0.91384112220E+01  0.51100000000E-03 0.  1.
        -12    1    3    3    0    0 -0.12050901434E+02 -0.14482780439E+01 -0.33036190330E+01  0.12579174591E+02  0.00000000000E+00 0.  1.
</event>
<event>
 7    1  0.2412036E-009  0.4778731E+02  0.7816164E-02  0.1312668E+00
        -11   -1    0    0    0    0  0.00000000000E+00  0.00000000000E+00  0.45593999997E+02  0.45594000000E+02  0.51100000000E-03 0. -1.
         11   -1    0    0    0    0 -0.00000000000E+00 -0.00000000000E+00 -0.45593999997E+02  0.45594000000E+02  0.51100000000E-03 0.  1.
    9900012    2    1    2    0    0  0.21989299599E+02  0.34347611990E+02 -0.14843596549E+02  0.47787307554E+02  0.20000166461E+02 0.  0.
         12    1    1    2    0    0 -0.21989299599E+02 -0.34347611990E+02  0.14843596549E+02  0.43400692446E+02  0.00000000000E+00 0. -1.
         11    1    3    3    0    0  0.39957935777E+01  0.39517634353E+00  0.22698984941E+01  0.46124798203E+01  0.51100000000E-03 0. -1.
        -11    1    3    3    0    0  0.12407933640E+02  0.16705750493E+02 -0.13155332785E+02  0.24619132757E+02  0.51100000000E-03 0.  1.
         12    1    3    3    0    0  0.55855723810E+01  0.17246685154E+02 -0.39581622588E+01  0.18555694977E+02  0.00000000000E+00 0. -1.
</event>
<event>
 7    1  0.2412036E-009  0.4778727E+02  0.7816164E-02  0.1312668E+00
        -11   -1    0    0    0    0  0.00000000000E+00  0.00000000000E+00  0.45593999997E+02  0.45594000000E+02  0.51100000000E-03 0. -1.
         11   -1    0    0    0    0 -0.00000000000E+00 -0.00000000000E+00 -0.45593999997E+02  0.45594000000E+02  0.51100000000E-03 0.  1.
    9900012    2    1    2    0    0 -0.25417945357E+02  0.32587696675E+02 -0.13251170885E+02  0.47787269009E+02  0.19999990720E+02 0.  0.
         12    1    1    2    0    0  0.25417945357E+02 -0.32587696675E+02  0.13251170885E+02  0.43400730991E+02  0.00000000000E+00 0. -1.
         11    1    3    3    0    0  0.23888783279E+00  0.68671015752E+01 -0.17272885440E+01  0.70850319277E+01  0.51100000000E-03 0. -1.
        -11    1    3    3    0    0 -0.24158893541E+02  0.21816644319E+02 -0.49713760485E+01  0.32929207196E+02  0.51100000000E-03 0.  1.
        -12    1    3    3    0    0 -0.14979396480E+01  0.39039507808E+01 -0.65525062925E+01  0.77730298855E+01  0.00000000000E+00 0.  1.
</event>
<event>
 7    1  0.2412036E-009  0.4778727E+02  0.7816164E-02  0.1312668E+00
        -11   -1    0    0    0    0  0.00000000000E+00  0.00000000000E+00  0.45593999997E+02  0.45594000000E+02  0.51100000000E-03 0.  1.
         11   -1    0    0    0    0 -0.00000000000E+00 -0.00000000000E+00 -0.45593999997E+02  0.45594000000E+02  0.51100000000E-03 0. -1.
    9900012    2    1    2    0    0  0.42839730732E+01 -0.30172652470E+02  0.30901171306E+02  0.47787265323E+02  0.19999973916E+02 0.  0.
         12    1    1    2    0    0 -0.42839730732E+01  0.30172652470E+02 -0.30901171306E+02  0.43400734677E+02  0.00000000000E+00 0. -1.
         11    1    3    3    0    0  0.19124404637E+01 -0.10802445996E+01 -0.17916381219E+01  0.28344883742E+01  0.51100000000E-03 0. -1.
        -11    1    3    3    0    0  0.35936152096E+01 -0.26672108064E+02  0.32553360145E+02  0.42237858324E+02  0.51100000000E-03 0.  1.
        -12    1    3    3    0    0 -0.12220826001E+01 -0.24202998073E+01  0.13944928285E+00  0.27149186251E+01  0.00000000000E+00 0.  1.
</event>
<event>
 7    1  0.2412036E-009  0.4778726E+02  0.7816164E-02  0.1312668E+00
        -11   -1    0    0    0    0  0.00000000000E+00  0.00000000000E+00  0.45593999997E+02  0.45594000000E+02  0.51100000000E-03 0.  1.
         11   -1    0    0    0    0 -0.00000000000E+00 -0.00000000000E+00 -0.45593999997E+02  0.45594000000E+02  0.51100000000E-03 0. -1.
    9900012    2    1    2    0    0  0.72350550600E+01  0.42248722708E+02  0.68061226120E+01  0.47787263863E+02  0.19999967258E+02 0.  0.
         12    1    1    2    0    0 -0.72350550600E+01 -0.42248722708E+02 -0.68061226120E+01  0.43400736137E+02  0.00000000000E+00 0. -1.
         11    1    3    3    0    0  0.31276815243E+00  0.46510124322E+00 -0.33375204157E+01  0.33842555858E+01  0.51100000000E-03 0. -1.
        -11    1    3    3    0    0  0.77617437962E+01  0.21280814518E+02  0.64576458510E+01  0.23554594531E+02  0.51100000000E-03 0.  1.
         12    1    3    3    0    0 -0.83945688866E+00  0.20502806947E+02  0.36859971767E+01  0.20848413746E+02  0.00000000000E+00 0. -1.
</event>
<event>
 7    1  0.2412036E-009  0.4778727E+02  0.7816164E-02  0.1312668E+00
        -11   -1    0    0    0    0  0.00000000000E+00  0.00000000000E+00  0.45593999997E+02  0.45594000000E+02  0.51100000000E-03 0. -1.
         11   -1    0    0    0    0 -0.00000000000E+00 -0.00000000000E+00 -0.45593999997E+02  0.45594000000E+02  0.51100000000E-03 0.  1.
    9900012    2    1    2    0    0  0.16046925551E+02  0.38654632045E+02  0.11486483582E+02  0.47787266097E+02  0.19999977444E+02 0.  0.
         12    1    1    2    0    0 -0.16046925551E+02 -0.38654632045E+02 -0.11486483582E+02  0.43400733903E+02  0.00000000000E+00 0. -1.
         11    1    3    3    0    0  0.62428122612E+01  0.16075687511E+02  0.11266132774E+02  0.20599179154E+02  0.51100000000E-03 0. -1.
        -11    1    3    3    0    0  0.20200515203E+01  0.15253302584E+02 -0.36611668123E+01  0.15816067480E+02  0.51100000000E-03 0.  1.
         12    1    3    3    0    0  0.77840617698E+01  0.73256419512E+01  0.38815176208E+01  0.11372019463E+02  0.00000000000E+00 0. -1.
</event>
<event>
 7    1  0.2412036E-009  0.4778727E+02  0.7816164E-02  0.1312668E+00
        -11   -1    0    0    0    0  0.00000000000E+00  0.00000000000E+00  0.45593999997E+02  0.45594000000E+02  0.51100000000E-03 0. -1.
         11   -1    0    0    0    0 -0.00000000000E+00 -0.00000000000E+00 -0.45593999997E+02  0.45594000000E+02  0.51100000000E-03 0.  1.
    9900012    2    1    2    0    0 -0.41197004291E+02  0.50928527977E+01 -0.12668578213E+02  0.47787272056E+02  0.20000004610E+02 0.  0.
         12    1    1    2    0    0  0.41197004291E+02 -0.50928527977E+01  0.12668578213E+02  0.43400727944E+02  0.00000000000E+00 0. -1.
         11    1    3    3    0    0 -0.22539195371E+01 -0.28071910441E+01 -0.18171757560E+01  0.40326917595E+01  0.51100000000E-03 0. -1.
        -11    1    3    3    0    0 -0.16162057750E+01  0.10180428708E+01 -0.49971389738E+01  0.53497598617E+01  0.51100000000E-03 0.  1.
        -12    1    3    3    0    0 -0.37326878979E+02  0.68820009710E+01 -0.58542634830E+01  0.38404820434E+02  0.00000000000E+00 0.  1.
</event>
<event>
 7    1  0.2412036E-009  0.4778727E+02  0.7816164E-02  0.1312668E+00
        -11   -1    0    0    0    0  0.00000000000E+00  0.00000000000E+00  0.45593999997E+02  0.45594000000E+02  0.51100000000E-03 0.  1.
         11   -1    0    0    0    0 -0.00000000000E+00 -0.00000000000E+00 -0.45593999997E+02  0.45594000000E+02  0.51100000000E-03 0. -1.
    9900012    2    1    2    0    0  0.43077173725E+02 -0.95297890461E-01 -0.52888026253E+01  0.47787269465E+02  0.19999992797E+02 0.  0.
         12    1    1    2    0    0 -0.43077173725E+02  0.95297890461E-01  0.52888026253E+01  0.43400730535E+02  0.00000000000E+00 0. -1.
         11    1    3    3    0    0  0.19595597732E+02  0.87970712094E+00 -0.70090019235E+01  0.20829965034E+02  0.51100000000E-03 0. -1.
        -11    1    3    3    0    0  0.17539595617E+02 -0.38213335737E+01  0.61982680769E+01  0.18991011877E+02  0.51100000000E-03 0.  1.
        -12    1    3    3    0    0  0.59419803757E+01  0.28463285623E+01 -0.44780687787E+01  0.79662925541E+01  0.00000000000E+00 0.  1.
</event>
<event>
 7    1  0.2412036E-009  0.4778727E+02  0.7816164E-02  0.1312668E+00
        -11   -1    0    0    0    0  0.00000000000E+00  0.00000000000E+00  0.45593999997E+02  0.45594000000E+02  0.51100000000E-03 0. -1.
         11   -1    0    0    0    0 -0.00000000000E+00 -0.00000000000E+00 -0.45593999997E+02  0.45594000000E+02  0.51100000000E-03 0.  1.
    9900012    2    1    2    0    0 -0.20783625720E+02  0.36976126462E+02  0.91885922639E+01  0.47787271274E+02  0.20000001046E+02 0.  0.
         12    1    1    2    0    0  0.20783625720E+02 -0.36976126462E+02 -0.91885922639E+01  0.43400728726E+02  0.00000000000E+00 0. -1.
         11    1    3    3    0    0 -0.13711805325E+01 -0.19828710659E+01 -0.12951902452E+01  0.27366826175E+01  0.51100000000E-03 0. -1.
        -11    1    3    3    0    0 -0.10550797698E+02  0.24296501287E+02  0.42934700329E+01  0.26834179548E+02  0.51100000000E-03 0.  1.
         12    1    3    3    0    0 -0.88616474897E+01  0.14662496241E+02  0.61903124762E+01  0.18216409108E+02  0.00000000000E+00 0. -1.
</event>
<event>
 7    1  0.2412036E-009  0.4778727E+02  0.7816164E-02  0.1312668E+00
        -11   -1    0    0    0    0  0.00000000000E+00  0.00000000000E+00  0.45593999997E+02  0.45594000000E+02  0.51100000000E-03 0.  1.
         11   -1    0    0    0    0 -0.00000000000E+00 -0.00000000000E+00 -0.45593999997E+02  0.45594000000E+02  0.51100000000E-03 0. -1.
    9900012    2    1    2    0    0  0.39706522773E+02 -0.15589028849E+02  0.79998402238E+01  0.47787271725E+02  0.20000003105E+02 0.  0.
         12    1    1    2    0    0 -0.39706522773E+02  0.15589028849E+02 -0.79998402238E+01  0.43400728275E+02  0.00000000000E+00 0. -1.
         11    1    3    3    0    0 -0.34230570560E+00 -0.45028908566E+00  0.18198368982E-01  0.56591951592E+00  0.51100000000E-03 0. -1.
        -11    1    3    3    0    0  0.22145484811E+02 -0.17538084497E+02  0.25748746675E+01  0.28366122138E+02  0.51100000000E-03 0.  1.
        -12    1    3    3    0    0  0.17903343667E+02  0.23993447339E+01  0.54067671873E+01  0.18855230071E+02  0.00000000000E+00 0.  1.
</event>
<event>
 7    1  0.2412036E-009  0.4778727E+02  0.7816164E-02  0.1312668E+00
        -11   -1    0    0    0    0  0.00000000000E+00  0.00000000000E+00  0.45593999997E+02  0.45594000000E+02  0.51100000000E-03 0.  1.
         11   -1    0    0    0    0 -0.00000000000E+00 -0.00000000000E+00 -0.45593999997E+02  0.45594000000E+02  0.51100000000E-03 0. -1.
    9900012    2    1    2    0    0  0.28823647402E+02 -0.15677699917E+02  0.28408280358E+02  0.47787270546E+02  0.19999997727E+02 0.  0.
         12    1    1    2    0    0 -0.28823647402E+02  0.15677699917E+02 -0.28408280358E+02  0.43400729454E+02  0.00000000000E+00 0. -1.
         11    1    3    3    0    0  0.10472979239E+02 -0.70339817698E+00  0.17329519050E+02  0.20260560059E+02  0.51100000000E-03 0. -1.
        -11    1    3    3    0    0  0.46233001521E+01 -0.11605407899E+01  0.54804358366E+01  0.72633970317E+01  0.51100000000E-03 0.  1.
         12    1    3    3    0    0  0.13727368011E+02 -0.13813760950E+02  0.55983254717E+01  0.20263313455E+02  0.00000000000E+00 0. -1.
</event>
<event>
 7    1  0.2412036E-009  0.4778726E+02  0.7816164E-02  0.1312668E+00
        -11   -1    0    0    0    0  0.00000000000E+00  0.00000000000E+00  0.45593999997E+02  0.45594000000E+02  0.51100000000E-03 0.  1.
         11   -1    0    0    0    0 -0.00000000000E+00 -0.00000000000E+00 -0.45593999997E+02  0.45594000000E+02  0.51100000000E-03 0. -1.
    9900012    2    1    2    0    0  0.17307415893E+02 -0.86585085270E+01  0.38847232020E+02  0.47787264402E+02  0.19999969715E+02 0.  0.
         12    1    1    2    0    0 -0.17307415893E+02  0.86585085270E+01 -0.38847232020E+02  0.43400735598E+02  0.00000000000E+00 0. -1.
         11    1    3    3    0    0  0.11988680463E+01 -0.16427129019E+01  0.19301716423E+02  0.19408556036E+02  0.51100000000E-03 0. -1.
        -11    1    3    3    0    0  0.17295064727E+02 -0.46231413416E+01  0.16879659259E+02  0.24605194507E+02  0.51100000000E-03 0.  1.
        -12    1    3    3    0    0 -0.11865168806E+01 -0.23926542835E+01  0.26658563384E+01  0.37735138592E+01  0.00000000000E+00 0.  1.
</event>
<event>
 7    1  0.2412036E-009  0.4778727E+02  0.7816164E-02  0.1312668E+00
        -11   -1    0    0    0    0  0.00000000000E+00  0.00000000000E+00  0.45593999997E+02  0.45594000000E+02  0.51100000000E-03 0. -1.
         11   -1    0    0    0    0 -0.00000000000E+00 -0.00000000000E+00 -0.45593999997E+02  0.45594000000E+02  0.51100000000E-03 0.  1.
    9900012    2    1    2    0    0  0.33456391650E+02 -0.19292748778E+02 -0.19801085223E+02  0.47787271047E+02  0.20000000012E+02 0.  0.
         12    1    1    2    0    0 -0.33456391650E+02  0.19292748778E+02  0.19801085223E+02  0.43400728953E+02  0.00000000000E+00 0. -1.
         11    1    3    3    0    0  0.25016763494E+02 -0.33518223693E+01 -0.94838035264E+01  0.26963228637E+02  0.51100000000E-03 0. -1.
        -11    1    3    3    0    0  0.60497730891E+01 -0.12571244524E+02 -0.81871195140E+01  0.16176058528E+02  0.51100000000E-03 0.  1.
         12    1    3    3    0    0  0.23898550666E+01 -0.33696818853E+01 -0.21301621824E+01  0.46479838824E+01  0.00000000000E+00 0. -1.
</event>
<event>
 7    1  0.2412036E-009  0.4778727E+02  0.7816164E-02  0.1312668E+00
        -11   -1    0    0    0    0  0.00000000000E+00  0.00000000000E+00  0.45593999997E+02  0.45594000000E+02  0.51100000000E-03 0.  1.
         11   -1    0    0    0    0 -0.00000000000E+00 -0.00000000000E+00 -0.45593999997E+02  0.45594000000E+02  0.51100000000E-03 0. -1.
    9900012    2    1    2    0    0 -0.36410435089E+02 -0.14785537541E+02  0.18419866083E+02  0.47787269935E+02  0.19999994940E+02 0.  0.
         12    1    1    2    0    0  0.36410435089E+02  0.14785537541E+02 -0.18419866083E+02  0.43400730065E+02  0.00000000000E+00 0. -1.
         11    1    3    3    0    0 -0.11040226511E+01 -0.45841419706E+01 -0.23570276678E+01  0.52715086369E+01  0.51100000000E-03 0. -1.
        -11    1    3    3    0    0 -0.24395407556E+02 -0.58454455382E+01  0.16437450435E+02  0.29991580826E+02  0.51100000000E-03 0.  1.
        -12    1    3    3    0    0 -0.10911004881E+02 -0.43559500318E+01  0.43394433155E+01  0.12524180472E+02  0.00000000000E+00 0.  1.
</event>
<event>
 7    1  0.2412036E-009  0.4778727E+02  0.7816164E-02  0.1312668E+00
        -11   -1    0    0    0    0  0.00000000000E+00  0.00000000000E+00  0.45593999997E+02  0.45594000000E+02  0.51100000000E-03 0.  1.
         11   -1    0    0    0    0 -0.00000000000E+00 -0.00000000000E+00 -0.45593999997E+02  0.45594000000E+02  0.51100000000E-03 0. -1.
    9900012    2    1    2    0    0 -0.13009464283E+02 -0.26540915408E+02  0.31779823569E+02  0.47787268005E+02  0.19999986143E+02 0.  0.
         12    1    1    2    0    0  0.13009464283E+02  0.26540915408E+02 -0.31779823569E+02  0.43400731995E+02  0.00000000000E+00 0. -1.
         11    1    3    3    0    0 -0.20265089442E+01 -0.22140197722E+02  0.19013781787E+02  0.29254384147E+02  0.51100000000E-03 0. -1.
        -11    1    3    3    0    0 -0.81316807400E+01 -0.39063112098E+01  0.12774832496E+02  0.15639048708E+02  0.51100000000E-03 0.  1.
         12    1    3    3    0    0 -0.28512745988E+01 -0.49440647567E+00 -0.87907145553E-02  0.28938351504E+01  0.00000000000E+00 0. -1.
</event>
<event>
 7    1  0.2412036E-009  0.4778727E+02  0.7816164E-02  0.1312668E+00
        -11   -1    0    0    0    0  0.00000000000E+00  0.00000000000E+00  0.45593999997E+02  0.45594000000E+02  0.51100000000E-03 0.  1.
         11   -1    0    0    0    0 -0.00000000000E+00 -0.00000000000E+00 -0.45593999997E+02  0.45594000000E+02  0.51100000000E-03 0. -1.
    9900012    2    1    2    0    0  0.42136037400E+02 -0.78451044784E+01 -0.68287446704E+01  0.47787273441E+02  0.20000010928E+02 0.  0.
         12    1    1    2    0    0 -0.42136037400E+02  0.78451044784E+01  0.68287446704E+01  0.43400726559E+02  0.00000000000E+00 0. -1.
         11    1    3    3    0    0  0.10731583168E+02  0.61355534583E+01 -0.43068603070E+01  0.13090490422E+02  0.51100000000E-03 0. -1.
        -11    1    3    3    0    0  0.18837874436E+01  0.12235619061E+00 -0.83206680670E-01  0.18895898452E+01  0.51100000000E-03 0.  1.
         12    1    3    3    0    0  0.29520666789E+02 -0.14103014127E+02 -0.24386776828E+01  0.32807193174E+02  0.00000000000E+00 0. -1.
</event>
<event>
 7    1  0.2412036E-009  0.4778727E+02  0.7816164E-02  0.1312668E+00
        -11   -1    0    0    0    0  0.00000000000E+00  0.00000000000E+00  0.45593999997E+02  0.45594000000E+02  0.51100000000E-03 0.  1.
         11   -1    0    0    0    0 -0.00000000000E+00 -0.00000000000E+00 -0.45593999997E+02  0.45594000000E+02  0.51100000000E-03 0. -1.
    9900012    2    1    2    0    0 -0.47501929070E+01 -0.85739018810E+01  0.42279391416E+02  0.47787273455E+02  0.20000010990E+02 0.  0.
         12    1    1    2    0    0  0.47501929070E+01  0.85739018810E+01 -0.42279391416E+02  0.43400726545E+02  0.00000000000E+00 0. -1.
         11    1    3    3    0    0  0.36734980868E+01  0.13951743643E+01  0.43497772881E+01  0.58618821565E+01  0.51100000000E-03 0. -1.
        -11    1    3    3    0    0 -0.67171043067E+01 -0.11324609096E+02  0.20527840487E+02  0.24387670999E+02  0.51100000000E-03 0.  1.
        -12    1    3    3    0    0 -0.17065866871E+01  0.13555328509E+01  0.17401773641E+02  0.17537720299E+02  0.00000000000E+00 0.  1.
</event>
<event>
 7    1  0.2412036E-009  0.4778729E+02  0.7816164E-02  0.1312668E+00
        -11   -1    0    0    0    0  0.00000000000E+00  0.00000000000E+00  0.45593999997E+02  0.45594000000E+02  0.51100000000E-03 0. -1.
         11   -1    0    0    0    0 -0.00000000000E+00 -0.00000000000E+00 -0.45593999997E+02  0.45594000000E+02  0.51100000000E-03 0.  1.
    9900012    2    1    2    0    0  0.22575495568E+01  0.41353784442E+02  0.12976509257E+02  0.47787287907E+02  0.20000076883E+02 0.  0.
         12    1    1    2    0    0 -0.22575495568E+01 -0.41353784442E+02 -0.12976509257E+02  0.43400712093E+02  0.00000000000E+00 0. -1.
         11    1    3    3    0    0 -0.21537358137E+01  0.22168601999E+01 -0.11118730123E+01  0.32847083520E+01  0.51100000000E-03 0. -1.
        -11    1    3    3    0    0  0.58102191241E+01  0.38956605994E+02  0.10673831811E+02  0.40808166862E+02  0.51100000000E-03 0.  1.
        -12    1    3    3    0    0 -0.13989337536E+01  0.18031824835E+00  0.34145504582E+01  0.36944126934E+01  0.00000000000E+00 0.  1.
</event>
<event>
 7    1  0.2412036E-009  0.4778726E+02  0.7816164E-02  0.1312668E+00
        -11   -1    0    0    0    0  0.00000000000E+00  0.00000000000E+00  0.45593999997E+02  0.45594000000E+02  0.51100000000E-03 0.  1.
         11   -1    0    0    0    0 -0.00000000000E+00 -0.00000000000E+00 -0.45593999997E+02  0.45594000000E+02  0.51100000000E-03 0. -1.
    9900012    2    1    2    0    0  0.18375659851E+02 -0.35446544952E+02  0.17014751424E+02  0.47787260490E+02  0.19999951878E+02 0.  0.
         12    1    1    2    0    0 -0.18375659851E+02  0.35446544952E+02 -0.17014751424E+02  0.43400739510E+02  0.00000000000E+00 0. -1.
         11    1    3    3    0    0 -0.24410461479E+01 -0.73539069568E+01  0.16440628050E+01  0.79209593228E+01  0.51100000000E-03 0. -1.
        -11    1    3    3    0    0  0.15901780395E+02 -0.27423375168E+02  0.14373902581E+02  0.34806855661E+02  0.51100000000E-03 0.  1.
        -12    1    3    3    0    0  0.49149256044E+01 -0.66926282717E+00  0.99678603848E+00  0.50594455067E+01  0.00000000000E+00 0.  1.
</event>
<event>
 7    1  0.2412036E-009  0.4778727E+02  0.7816164E-02  0.1312668E+00
        -11   -1    0    0    0    0  0.00000000000E+00  0.00000000000E+00  0.45593999997E+02  0.45594000000E+02  0.51100000000E-03 0.  1.
         11   -1    0    0    0    0 -0.00000000000E+00 -0.00000000000E+00 -0.45593999997E+02  0.45594000000E+02  0.51100000000E-03 0. -1.
    9900012    2    1    2    0    0 -0.33737439756E+02  0.42795207051E+01  0.26964683867E+02  0.47787270573E+02  0.19999997851E+02 0.  0.
         12    1    1    2    0    0  0.33737439756E+02 -0.42795207051E+01 -0.26964683867E+02  0.43400729427E+02  0.00000000000E+00 0. -1.
         11    1    3    3    0    0 -0.17858314957E+02  0.20383445987E+01  0.33354604956E+01  0.18281125752E+02  0.51100000000E-03 0. -1.
        -11    1    3    3    0    0 -0.90784121810E+01 -0.23465492885E+01  0.14086910304E+02  0.16922319683E+02  0.51100000000E-03 0.  1.
        -12    1    3    3    0    0 -0.68007126183E+01  0.45877253949E+01  0.95423130673E+01  0.12583825137E+02  0.00000000000E+00 0.  1.
</event>
<event>
 7    1  0.2412036E-009  0.4778727E+02  0.7816164E-02  0.1312668E+00
        -11   -1    0    0    0    0  0.00000000000E+00  0.00000000000E+00  0.45593999997E+02  0.45594000000E+02  0.51100000000E-03 0. -1.
         11   -1    0    0    0    0 -0.00000000000E+00 -0.00000000000E+00 -0.45593999997E+02  0.45594000000E+02  0.51100000000E-03 0.  1.
    9900012    2    1    2    0    0 -0.39422690022E+02  0.15861283190E+02  0.88257888095E+01  0.47787270270E+02  0.19999996470E+02 0.  0.
         12    1    1    2    0    0  0.39422690022E+02 -0.15861283190E+02 -0.88257888095E+01  0.43400729730E+02  0.00000000000E+00 0. -1.
         11    1    3    3    0    0 -0.43688420590E+00  0.38427301497E+01  0.45968513531E+01  0.60073692609E+01  0.51100000000E-03 0. -1.
        -11    1    3    3    0    0 -0.17761624198E+02  0.48894858151E+01 -0.20251997530E+01  0.18533315947E+02  0.51100000000E-03 0.  1.
         12    1    3    3    0    0 -0.21224181618E+02  0.71290672250E+01  0.62541372094E+01  0.23246585063E+02  0.00000000000E+00 0. -1.
</event>
<event>
 7    1  0.2412036E-009  0.4778727E+02  0.7816164E-02  0.1312668E+00
        -11   -1    0    0    0    0  0.00000000000E+00  0.00000000000E+00  0.45593999997E+02  0.45594000000E+02  0.51100000000E-03 0.  1.
         11   -1    0    0    0    0 -0.00000000000E+00 -0.00000000000E+00 -0.45593999997E+02  0.45594000000E+02  0.51100000000E-03 0. -1.
    9900012    2    1    2    0    0  0.20255194607E+02  0.13106895788E+02  0.36077138468E+02  0.47787267912E+02  0.19999985718E+02 0.  0.
         12    1    1    2    0    0 -0.20255194607E+02 -0.13106895788E+02 -0.36077138468E+02  0.43400732088E+02  0.00000000000E+00 0. -1.
         11    1    3    3    0    0  0.13124661902E+02  0.14815757927E+02  0.17027643072E+02  0.26109463070E+02  0.51100000000E-03 0. -1.
        -11    1    3    3    0    0  0.71213880687E+01 -0.13358650864E+01  0.19665381229E+02  0.20957717497E+02  0.51100000000E-03 0.  1.
         12    1    3    3    0    0  0.91446364855E-02 -0.37299705185E+00 -0.61588583281E+00  0.72008734478E+00  0.00000000000E+00 0. -1.
</event>
<event>
 7    1  0.2412036E-009  0.4778727E+02  0.7816164E-02  0.1312668E+00
        -11   -1    0    0    0    0  0.00000000000E+00  0.00000000000E+00  0.45593999997E+02  0.45594000000E+02  0.51100000000E-03 0. -1.
         11   -1    0    0    0    0 -0.00000000000E+00 -0.00000000000E+00 -0.45593999997E+02  0.45594000000E+02  0.51100000000E-03 0.  1.
    9900012    2    1    2    0    0  0.32087110560E+02  0.25951772383E+02 -0.13436749209E+02  0.47787269785E+02  0.19999994256E+02 0.  0.
         12    1    1    2    0    0 -0.32087110560E+02 -0.25951772383E+02  0.13436749209E+02  0.43400730215E+02  0.00000000000E+00 0. -1.
         11    1    3    3    0    0  0.15288302261E+02  0.22733700334E+02 -0.11098469076E+02  0.29558912920E+02  0.51100000000E-03 0. -1.
        -11    1    3    3    0    0  0.36385918805E+01  0.98549762293E+00 -0.30677240600E+01  0.48601941944E+01  0.51100000000E-03 0.  1.
         12    1    3    3    0    0  0.13160216418E+02  0.22325744268E+01  0.72944392719E+00  0.13368162671E+02  0.00000000000E+00 0. -1.
</event>
<event>
 7    1  0.2412036E-009  0.4778727E+02  0.7816164E-02  0.1312668E+00
        -11   -1    0    0    0    0  0.00000000000E+00  0.00000000000E+00  0.45593999997E+02  0.45594000000E+02  0.51100000000E-03 0. -1.
         11   -1    0    0    0    0 -0.00000000000E+00 -0.00000000000E+00 -0.45593999997E+02  0.45594000000E+02  0.51100000000E-03 0.  1.
    9900012    2    1    2    0    0  0.43217530683E+02  0.32020092795E+01  0.23697354283E+01  0.47787268810E+02  0.19999989814E+02 0.  0.
         12    1    1    2    0    0 -0.43217530683E+02 -0.32020092795E+01 -0.23697354283E+01  0.43400731190E+02  0.00000000000E+00 0. -1.
         11    1    3    3    0    0  0.47375397780E+01 -0.92578303121E+00 -0.20121702379E+01  0.52297405955E+01  0.51100000000E-03 0. -1.
        -11    1    3    3    0    0  0.92960781325E+01  0.68743605474E+01 -0.37202399185E+01  0.12145537736E+02  0.51100000000E-03 0.  1.
        -12    1    3    3    0    0  0.29183912773E+02 -0.27465682367E+01  0.81021455847E+01  0.30411990479E+02  0.00000000000E+00 0.  1.
</event>
<event>
 7    1  0.2412036E-009  0.4778727E+02  0.7816164E-02  0.1312668E+00
        -11   -1    0    0    0    0  0.00000000000E+00  0.00000000000E+00  0.45593999997E+02  0.45594000000E+02  0.51100000000E-03 0.  1.
         11   -1    0    0    0    0 -0.00000000000E+00 -0.00000000000E+00 -0.45593999997E+02  0.45594000000E+02  0.51100000000E-03 0. -1.
    9900012    2    1    2    0    0 -0.16939910856E+02  0.34492145536E+02 -0.20173113698E+02  0.47787271898E+02  0.20000003892E+02 0.  0.
         12    1    1    2    0    0  0.16939910856E+02 -0.34492145536E+02  0.20173113698E+02  0.43400728102E+02  0.00000000000E+00 0. -1.
         11    1    3    3    0    0 -0.77122223428E+01  0.16224714135E+02 -0.18659053260E+02  0.25901351144E+02  0.51100000000E-03 0. -1.
        -11    1    3    3    0    0 -0.63261739028E+01  0.47136535551E+01  0.36861790522E+00  0.78977772510E+01  0.51100000000E-03 0.  1.
         12    1    3    3    0    0 -0.29015146107E+01  0.13553777846E+02 -0.18826783431E+01  0.13988143504E+02  0.00000000000E+00 0. -1.
</event>
<event>
 7    1  0.2412036E-009  0.4778727E+02  0.7816164E-02  0.1312668E+00
        -11   -1    0    0    0    0  0.00000000000E+00  0.00000000000E+00  0.45593999997E+02  0.45594000000E+02  0.51100000000E-03 0.  1.
         11   -1    0    0    0    0 -0.00000000000E+00 -0.00000000000E+00 -0.45593999997E+02  0.45594000000E+02  0.51100000000E-03 0. -1.
    9900012    2    1    2    0    0 -0.17566220322E+02 -0.87618366820E+01  0.38707639239E+02  0.47787271735E+02  0.20000003149E+02 0.  0.
         12    1    1    2    0    0  0.17566220322E+02  0.87618366820E+01 -0.38707639239E+02  0.43400728265E+02  0.00000000000E+00 0. -1.
         11    1    3    3    0    0 -0.56635842969E+01 -0.18418801976E+01  0.29009001726E+01  0.66244948353E+01  0.51100000000E-03 0. -1.
        -11    1    3    3    0    0 -0.11873090422E+02  0.12313985588E+01  0.18265467878E+02  0.21820035189E+02  0.51100000000E-03 0.  1.
        -12    1    3    3    0    0 -0.29545602956E-01 -0.81513550432E+01  0.17541271188E+02  0.19342741711E+02  0.00000000000E+00 0.  1.
</event>
<event>
 7    1  0.2412036E-009  0.4778727E+02  0.7816164E-02  0.1312668E+00
        -11   -1    0    0    0    0  0.00000000000E+00  0.00000000000E+00  0.45593999997E+02  0.45594000000E+02  0.51100000000E-03 0. -1.
         11   -1    0    0    0    0 -0.00000000000E+00 -0.00000000000E+00 -0.45593999997E+02  0.45594000000E+02  0.51100000000E-03 0.  1.
    9900012    2    1    2    0    0 -0.28320501547E+02 -0.23329997456E+02 -0.23179376772E+02  0.47787273085E+02  0.20000009306E+02 0.  0.
         12    1    1    2    0    0  0.28320501547E+02  0.23329997456E+02  0.23179376772E+02  0.43400726915E+02  0.00000000000E+00 0. -1.
         11    1    3    3    0    0 -0.10225678958E+01  0.24567995297E+01  0.66649795585E+00  0.27433061836E+01  0.51100000000E-03 0. -1.
        -11    1    3    3    0    0 -0.24196965783E+02 -0.24265499860E+02 -0.19282408504E+02  0.39320718642E+02  0.51100000000E-03 0.  1.
         12    1    3    3    0    0 -0.31009678677E+01 -0.15212971259E+01 -0.45634662245E+01  0.57232482598E+01  0.00000000000E+00 0. -1.
</event>
<event>
 7    1  0.2412036E-009  0.4778727E+02  0.7816164E-02  0.1312668E+00
        -11   -1    0    0    0    0  0.00000000000E+00  0.00000000000E+00  0.45593999997E+02  0.45594000000E+02  0.51100000000E-03 0.  1.
         11   -1    0    0    0    0 -0.00000000000E+00 -0.00000000000E+00 -0.45593999997E+02  0.45594000000E+02  0.51100000000E-03 0. -1.
    9900012    2    1    2    0    0  0.38915153495E+02  0.36411074903E+01  0.18867334616E+02  0.47787272462E+02  0.20000006465E+02 0.  0.
         12    1    1    2    0    0 -0.38915153495E+02 -0.36411074903E+01 -0.18867334616E+02  0.43400727538E+02  0.00000000000E+00 0. -1.
         11    1    3    3    0    0  0.18913887227E+01 -0.60778126290E+00  0.62192968600E+01  0.65288898794E+01  0.51100000000E-03 0. -1.
        -11    1    3    3    0    0  0.23810474965E+02  0.83065210725E+01  0.60063763171E+01  0.25923224474E+02  0.51100000000E-03 0.  1.
        -12    1    3    3    0    0  0.13213289807E+02 -0.40576323193E+01  0.66416614393E+01  0.15335158109E+02  0.00000000000E+00 0.  1.
</event>
<event>
 7    1  0.2412036E-009  0.4778727E+02  0.7816164E-02  0.1312668E+00
        -11   -1    0    0    0    0  0.00000000000E+00  0.00000000000E+00  0.45593999997E+02  0.45594000000E+02  0.51100000000E-03 0. -1.
         11   -1    0    0    0    0 -0.00000000000E+00 -0.00000000000E+00 -0.45593999997E+02  0.45594000000E+02  0.51100000000E-03 0.  1.
    9900012    2    1    2    0    0  0.13656252057E+02 -0.29241606413E+02 -0.29018249141E+02  0.47787267874E+02  0.19999985542E+02 0.  0.
         12    1    1    2    0    0 -0.13656252057E+02  0.29241606413E+02  0.29018249141E+02  0.43400732126E+02  0.00000000000E+00 0. -1.
         11    1    3    3    0    0  0.69024360827E+01 -0.16689238135E+02 -0.42272706294E+01  0.18548426096E+02  0.51100000000E-03 0. -1.
        -11    1    3    3    0    0  0.55273168876E+01 -0.40816923556E+01 -0.12452072148E+02  0.14222009194E+02  0.51100000000E-03 0.  1.
         12    1    3    3    0    0  0.12264990872E+01 -0.84706759229E+01 -0.12338906364E+02  0.15016832584E+02  0.00000000000E+00 0. -1.
</event>
<event>
 7    1  0.2412036E-009  0.4778728E+02  0.7816164E-02  0.1312668E+00
        -11   -1    0    0    0    0  0.00000000000E+00  0.00000000000E+00  0.45593999997E+02  0.45594000000E+02  0.51100000000E-03 0. -1.
         11   -1    0    0    0    0 -0.00000000000E+00 -0.00000000000E+00 -0.45593999997E+02  0.45594000000E+02  0.51100000000E-03 0.  1.
    9900012    2    1    2    0    0  0.23758365792E+02  0.36285488744E+02 -0.15894247683E+01  0.47787275241E+02  0.20000019134E+02 0.  0.
         12    1    1    2    0    0 -0.23758365792E+02 -0.36285488744E+02  0.15894247683E+01  0.43400724759E+02  0.00000000000E+00 0. -1.
         11    1    3    3    0    0  0.91039401730E+01  0.21730602934E+02  0.59579444233E+01  0.24302220733E+02  0.51100000000E-03 0. -1.
        -11    1    3    3    0    0  0.94887619399E+01  0.13092788773E+02 -0.81055866337E+01  0.18087516578E+02  0.51100000000E-03 0.  1.
        -12    1    3    3    0    0  0.51656636792E+01  0.14620970363E+01  0.55821744211E+00  0.53975379297E+01  0.00000000000E+00 0.  1.
</event>
<event>
 7    1  0.2412036E-009  0.4778727E+02  0.7816164E-02  0.1312668E+00
        -11   -1    0    0    0    0  0.00000000000E+00  0.00000000000E+00  0.45593999997E+02  0.45594000000E+02  0.51100000000E-03 0. -1.
         11   -1    0    0    0    0 -0.00000000000E+00 -0.00000000000E+00 -0.45593999997E+02  0.45594000000E+02  0.51100000000E-03 0.  1.
    9900012    2    1    2    0    0 -0.57301775499E+01  0.35519605979E+02 -0.24272322079E+02  0.47787274628E+02  0.20000016339E+02 0.  0.
         12    1    1    2    0    0  0.57301775499E+01 -0.35519605979E+02  0.24272322079E+02  0.43400725372E+02  0.00000000000E+00 0. -1.
         11    1    3    3    0    0 -0.67097057117E+01  0.40617549426E+01  0.19560557167E+00  0.78457801238E+01  0.51100000000E-03 0. -1.
        -11    1    3    3    0    0  0.17603925356E+00  0.28268938606E+02 -0.22241991219E+02  0.35970405244E+02  0.51100000000E-03 0.  1.
         12    1    3    3    0    0  0.80348890818E+00  0.31889124305E+01 -0.22259364318E+01  0.39710892603E+01  0.00000000000E+00 0. -1.
</event>
<event>
 7    1  0.2412036E-009  0.4778727E+02  0.7816164E-02  0.1312668E+00
        -11   -1    0    0    0    0  0.00000000000E+00  0.00000000000E+00  0.45593999997E+02  0.45594000000E+02  0.51100000000E-03 0.  1.
         11   -1    0    0    0    0 -0.00000000000E+00 -0.00000000000E+00 -0.45593999997E+02  0.45594000000E+02  0.51100000000E-03 0. -1.
    9900012    2    1    2    0    0 -0.29052372854E+02  0.20461634041E+02  0.24917947421E+02  0.47787274894E+02  0.20000017550E+02 0.  0.
         12    1    1    2    0    0  0.29052372854E+02 -0.20461634041E+02 -0.24917947421E+02  0.43400725106E+02  0.00000000000E+00 0. -1.
         11    1    3    3    0    0 -0.27996470989E+02  0.17941335041E+02  0.13416764608E+02  0.35856707374E+02  0.51100000000E-03 0. -1.
        -11    1    3    3    0    0 -0.39498667088E+00  0.21175857967E+01  0.59950247725E+01  0.63702830675E+01  0.51100000000E-03 0.  1.
         12    1    3    3    0    0 -0.66091519418E+00  0.40271320353E+00  0.55061580411E+01  0.55602844525E+01  0.00000000000E+00 0. -1.
</event>
<event>
 7    1  0.2412036E-009  0.4778727E+02  0.7816164E-02  0.1312668E+00
        -11   -1    0    0    0    0  0.00000000000E+00  0.00000000000E+00  0.45593999997E+02  0.45594000000E+02  0.51100000000E-03 0. -1.
         11   -1    0    0    0    0 -0.00000000000E+00 -0.00000000000E+00 -0.45593999997E+02  0.45594000000E+02  0.51100000000E-03 0.  1.
    9900012    2    1    2    0    0  0.93512654257E+01 -0.22321077756E+02 -0.36027027459E+02  0.47787269767E+02  0.19999994175E+02 0.  0.
         12    1    1    2    0    0 -0.93512654257E+01  0.22321077756E+02  0.36027027459E+02  0.43400730233E+02  0.00000000000E+00 0. -1.
         11    1    3    3    0    0  0.85674444648E+01 -0.21851259814E+01 -0.48079826704E+01  0.10064421386E+02  0.51100000000E-03 0. -1.
        -11    1    3    3    0    0  0.75182622943E+00 -0.17075184849E+02 -0.29789711679E+02  0.34344637172E+02  0.51100000000E-03 0.  1.
         12    1    3    3    0    0  0.31994731471E-01 -0.30607669253E+01 -0.14293331098E+01  0.33782112090E+01  0.00000000000E+00 0. -1.
</event>
<event>
 7    1  0.2412036E-009  0.4778726E+02  0.7816164E-02  0.1312668E+00
        -11   -1    0    0    0    0  0.00000000000E+00  0.00000000000E+00  0.45593999997E+02  0.45594000000E+02  0.51100000000E-03 0.  1.
         11   -1    0    0    0    0 -0.00000000000E+00 -0.00000000000E+00 -0.45593999997E+02  0.45594000000E+02  0.51100000000E-03 0. -1.
    9900012    2    1    2    0    0 -0.25226025904E+01 -0.37945038103E+02 -0.20914933629E+02  0.47787263956E+02  0.19999967681E+02 0.  0.
         12    1    1    2    0    0  0.25226025904E+01  0.37945038103E+02  0.20914933629E+02  0.43400736044E+02  0.00000000000E+00 0. -1.
         11    1    3    3    0    0  0.58480379786E+00 -0.27824272488E+02 -0.20130767221E+02  0.34347924597E+02  0.51100000000E-03 0. -1.
        -11    1    3    3    0    0 -0.15985771171E+01 -0.78661309553E+01  0.31815598092E+01  0.86344535488E+01  0.51100000000E-03 0.  1.
         12    1    3    3    0    0 -0.15088292711E+01 -0.22546346596E+01 -0.39657262172E+01  0.48048858100E+01  0.00000000000E+00 0. -1.
</event>
<event>
 7    1  0.2412036E-009  0.4778726E+02  0.7816164E-02  0.1312668E+00
        -11   -1    0    0    0    0  0.00000000000E+00  0.00000000000E+00  0.45593999997E+02  0.45594000000E+02  0.51100000000E-03 0. -1.
         11   -1    0    0    0    0 -0.00000000000E+00 -0.00000000000E+00 -0.45593999997E+02  0.45594000000E+02  0.51100000000E-03 0.  1.
    9900012    2    1    2    0    0  0.36022152817E+02 -0.38819428887E+01  0.23894751490E+02  0.47787261263E+02  0.19999955403E+02 0.  0.
         12    1    1    2    0    0 -0.36022152817E+02  0.38819428887E+01 -0.23894751490E+02  0.43400738737E+02  0.00000000000E+00 0. -1.
         11    1    3    3    0    0  0.21830774823E+01  0.33045486432E+01  0.58388011143E+01  0.70553148578E+01  0.51100000000E-03 0. -1.
        -11    1    3    3    0    0  0.51249845441E+01  0.30892160889E+01  0.23610879691E+01  0.64329976901E+01  0.51100000000E-03 0.  1.
         12    1    3    3    0    0  0.28714090790E+02 -0.10275707621E+02  0.15694862407E+02  0.34298948715E+02  0.00000000000E+00 0. -1.
</event>
<event>
 7    1  0.2412036E-009  0.4778728E+02  0.7816164E-02  0.1312668E+00
        -11   -1    0    0    0    0  0.00000000000E+00  0.00000000000E+00  0.45593999997E+02  0.45594000000E+02  0.51100000000E-03 0.  1.
         11   -1    0    0    0    0 -0.00000000000E+00 -0.00000000000E+00 -0.45593999997E+02  0.45594000000E+02  0.51100000000E-03 0. -1.
    9900012    2    1    2    0    0 -0.41880012448E+02  0.71685513838E+01  0.88486894921E+01  0.47787275613E+02  0.20000020830E+02 0.  0.
         12    1    1    2    0    0  0.41880012448E+02 -0.71685513838E+01 -0.88486894921E+01  0.43400724387E+02  0.00000000000E+00 0. -1.
         11    1    3    3    0    0 -0.62965651731E+01  0.74000135034E+01 -0.80981076331E+00  0.97500116186E+01  0.51100000000E-03 0. -1.
        -11    1    3    3    0    0 -0.17910309167E+02  0.38000326140E+01  0.22192778103E+01  0.18443009965E+02  0.51100000000E-03 0.  1.
         12    1    3    3    0    0 -0.17673138108E+02 -0.40314947337E+01  0.74392224451E+01  0.19594254029E+02  0.00000000000E+00 0. -1.
</event>
<event>
 7    1  0.2412036E-009  0.4778727E+02  0.7816164E-02  0.1312668E+00
        -11   -1    0    0    0    0  0.00000000000E+00  0.00000000000E+00  0.45593999997E+02  0.45594000000E+02  0.51100000000E-03 0. -1.
         11   -1    0    0    0    0 -0.00000000000E+00 -0.00000000000E+00 -0.45593999997E+02  0.45594000000E+02  0.51100000000E-03 0.  1.
    9900012    2    1    2    0    0 -0.40248699129E+02  0.11417841883E+02 -0.11545503740E+02  0.47787267846E+02  0.19999985419E+02 0.  0.
         12    1    1    2    0    0  0.40248699129E+02 -0.11417841883E+02  0.11545503740E+02  0.43400732154E+02  0.00000000000E+00 0. -1.
         11    1    3    3    0    0 -0.27620118348E+02  0.70932300989E+01 -0.19958366206E+01  0.28586154251E+02  0.51100000000E-03 0.  1.
        -11    1    3    3    0    0 -0.16148244947E+00 -0.22612436688E+01 -0.27004096567E+01  0.35258349488E+01  0.51100000000E-03 0. -1.
         12    1    3    3    0    0 -0.12467098332E+02  0.65858554525E+01 -0.68492574624E+01  0.15675278646E+02  0.00000000000E+00 0. -1.
</event>
<event>
 7    1  0.2412036E-009  0.4778727E+02  0.7816164E-02  0.1312668E+00
        -11   -1    0    0    0    0  0.00000000000E+00  0.00000000000E+00  0.45593999997E+02  0.45594000000E+02  0.51100000000E-03 0.  1.
         11   -1    0    0    0    0 -0.00000000000E+00 -0.00000000000E+00 -0.45593999997E+02  0.45594000000E+02  0.51100000000E-03 0. -1.
    9900012    2    1    2    0    0 -0.99798496213E+01 -0.44055456961E+01  0.42007347023E+02  0.47787269186E+02  0.19999991525E+02 0.  0.
         12    1    1    2    0    0  0.99798496213E+01  0.44055456961E+01 -0.42007347023E+02  0.43400730814E+02  0.00000000000E+00 0. -1.
         11    1    3    3    0    0 -0.65208044614E+01 -0.81169682839E+01  0.25885843377E+02  0.27901307362E+02  0.51100000000E-03 0. -1.
        -11    1    3    3    0    0 -0.32862713579E+01  0.15661369401E+01  0.17127588122E+02  0.17510186735E+02  0.51100000000E-03 0.  1.
         12    1    3    3    0    0 -0.17277380199E+00  0.21452856477E+01 -0.10060844762E+01  0.23757750883E+01  0.00000000000E+00 0. -1.
</event>
<event>
 7    1  0.2412036E-009  0.4778728E+02  0.7816164E-02  0.1312668E+00
        -11   -1    0    0    0    0  0.00000000000E+00  0.00000000000E+00  0.45593999997E+02  0.45594000000E+02  0.51100000000E-03 0.  1.
         11   -1    0    0    0    0 -0.00000000000E+00 -0.00000000000E+00 -0.45593999997E+02  0.45594000000E+02  0.51100000000E-03 0. -1.
    9900012    2    1    2    0    0 -0.34943710598E+02  0.75857268546E+01  0.24597087342E+02  0.47787275720E+02  0.20000021320E+02 0.  0.
         12    1    1    2    0    0  0.34943710598E+02 -0.75857268546E+01 -0.24597087342E+02  0.43400724280E+02  0.00000000000E+00 0. -1.
         11    1    3    3    0    0 -0.11572561102E+02 -0.15948508503E+01  0.19816498599E+00  0.11683620557E+02  0.51100000000E-03 0. -1.
        -11    1    3    3    0    0 -0.12596151842E+02  0.34743939646E+00  0.12966354814E+02  0.18080655762E+02  0.51100000000E-03 0.  1.
         12    1    3    3    0    0 -0.10774997654E+02  0.88331383084E+01  0.11432567542E+02  0.18022999401E+02  0.00000000000E+00 0. -1.
</event>
<event>
 7    1  0.2412036E-009  0.4778727E+02  0.7816164E-02  0.1312668E+00
        -11   -1    0    0    0    0  0.00000000000E+00  0.00000000000E+00  0.45593999997E+02  0.45594000000E+02  0.51100000000E-03 0.  1.
         11   -1    0    0    0    0 -0.00000000000E+00 -0.00000000000E+00 -0.45593999997E+02  0.45594000000E+02  0.51100000000E-03 0. -1.
    9900012    2    1    2    0    0  0.34734314872E+01  0.21010422974E+02  0.37816934365E+02  0.47787272764E+02  0.20000007839E+02 0.  0.
         12    1    1    2    0    0 -0.34734314872E+01 -0.21010422974E+02 -0.37816934365E+02  0.43400727236E+02  0.00000000000E+00 0. -1.
         11    1    3    3    0    0  0.13773049943E+01  0.12115711897E+02  0.91124306813E+01  0.15222478018E+02  0.51100000000E-03 0. -1.
        -11    1    3    3    0    0 -0.29485401001E+01  0.53987453078E+01  0.24152038863E+02  0.24923108175E+02  0.51100000000E-03 0.  1.
        -12    1    3    3    0    0  0.50446665930E+01  0.34959657687E+01  0.45524648214E+01  0.76416865704E+01  0.00000000000E+00 0.  1.
</event>
<event>
 7    1  0.2412036E-009  0.4778725E+02  0.7816164E-02  0.1312668E+00
        -11   -1    0    0    0    0  0.00000000000E+00  0.00000000000E+00  0.45593999997E+02  0.45594000000E+02  0.51100000000E-03 0.  1.
         11   -1    0    0    0    0 -0.00000000000E+00 -0.00000000000E+00 -0.45593999997E+02  0.45594000000E+02  0.51100000000E-03 0. -1.
    9900012    2    1    2    0    0 -0.11972298145E+02  0.41608665465E+02 -0.30012942851E+01  0.47787254246E+02  0.19999923409E+02 0.  0.
         12    1    1    2    0    0  0.11972298145E+02 -0.41608665465E+02  0.30012942851E+01  0.43400745754E+02  0.00000000000E+00 0. -1.
         11    1    3    3    0    0 -0.13265869167E+02  0.15170475130E+02 -0.54155086553E+01  0.20867542612E+02  0.51100000000E-03 0. -1.
        -11    1    3    3    0    0  0.65407310650E+00  0.14615076750E+02 -0.79759646660E+00  0.14651431344E+02  0.51100000000E-03 0.  1.
         12    1    3    3    0    0  0.63949791549E+00  0.11823113584E+02  0.32118108367E+01  0.12268280290E+02  0.00000000000E+00 0. -1.
</event>
<event>
 7    1  0.2412036E-009  0.4778728E+02  0.7816164E-02  0.1312668E+00
        -11   -1    0    0    0    0  0.00000000000E+00  0.00000000000E+00  0.45593999997E+02  0.45594000000E+02  0.51100000000E-03 0. -1.
         11   -1    0    0    0    0 -0.00000000000E+00 -0.00000000000E+00 -0.45593999997E+02  0.45594000000E+02  0.51100000000E-03 0.  1.
    9900012    2    1    2    0    0 -0.41505949916E+02  0.17052183897E+01  0.12568661393E+02  0.47787275382E+02  0.20000019774E+02 0.  0.
         12    1    1    2    0    0  0.41505949916E+02 -0.17052183897E+01 -0.12568661393E+02  0.43400724618E+02  0.00000000000E+00 0. -1.
         11    1    3    3    0    0 -0.10473082638E+01 -0.33050717530E+01  0.37175293014E+01  0.50833432168E+01  0.51100000000E-03 0. -1.
        -11    1    3    3    0    0 -0.16841003817E+02  0.18375481952E+01 -0.88002446968E+00  0.16963797814E+02  0.51100000000E-03 0.  1.
         12    1    3    3    0    0 -0.23617637835E+02  0.31727419475E+01  0.97311565617E+01  0.25740134351E+02  0.00000000000E+00 0. -1.
</event>
<event>
 7    1  0.2412036E-009  0.4778729E+02  0.7816164E-02  0.1312668E+00
        -11   -1    0    0    0    0  0.00000000000E+00  0.00000000000E+00  0.45593999997E+02  0.45594000000E+02  0.51100000000E-03 0. -1.
         11   -1    0    0    0    0 -0.00000000000E+00 -0.00000000000E+00 -0.45593999997E+02  0.45594000000E+02  0.51100000000E-03 0.  1.
    9900012    2    1    2    0    0 -0.26988150372E+02 -0.28369972709E+02 -0.18719145808E+02  0.47787285355E+02  0.20000065246E+02 0.  0.
         12    1    1    2    0    0  0.26988150372E+02  0.28369972709E+02  0.18719145808E+02  0.43400714645E+02  0.00000000000E+00 0. -1.
         11    1    3    3    0    0 -0.71106541434E+01  0.53806341678E+00 -0.56183396776E+01  0.90783619437E+01  0.51100000000E-03 0. -1.
        -11    1    3    3    0    0 -0.15285987419E+02 -0.22679694124E+02 -0.14325528488E+02  0.30874758358E+02  0.51100000000E-03 0.  1.
        -12    1    3    3    0    0 -0.45915088094E+01 -0.62283420010E+01  0.12247223574E+01  0.78341650532E+01  0.00000000000E+00 0.  1.
</event>
<event>
 7    1  0.2412036E-009  0.4778727E+02  0.7816164E-02  0.1312668E+00
        -11   -1    0    0    0    0  0.00000000000E+00  0.00000000000E+00  0.45593999997E+02  0.45594000000E+02  0.51100000000E-03 0. -1.
         11   -1    0    0    0    0 -0.00000000000E+00 -0.00000000000E+00 -0.45593999997E+02  0.45594000000E+02  0.51100000000E-03 0.  1.
    9900012    2    1    2    0    0 -0.38267760706E+02  0.33019632722E+01  0.20206404363E+02  0.47787271340E+02  0.20000001350E+02 0.  0.
         12    1    1    2    0    0  0.38267760706E+02 -0.33019632722E+01 -0.20206404363E+02  0.43400728660E+02  0.00000000000E+00 0. -1.
         11    1    3    3    0    0 -0.20466615203E+02  0.69985560003E+01  0.11436267162E+02  0.24467331911E+02  0.51100000000E-03 0. -1.
        -11    1    3    3    0    0 -0.10078016899E+02 -0.50860978329E+01 -0.34292658811E+00  0.11293910514E+02  0.51100000000E-03 0.  1.
         12    1    3    3    0    0 -0.77231286033E+01  0.13895051049E+01  0.91130637894E+01  0.12026028916E+02  0.00000000000E+00 0. -1.
</event>
<event>
 7    1  0.2412036E-009  0.4778727E+02  0.7816164E-02  0.1312668E+00
        -11   -1    0    0    0    0  0.00000000000E+00  0.00000000000E+00  0.45593999997E+02  0.45594000000E+02  0.51100000000E-03 0. -1.
         11   -1    0    0    0    0 -0.00000000000E+00 -0.00000000000E+00 -0.45593999997E+02  0.45594000000E+02  0.51100000000E-03 0.  1.
    9900012    2    1    2    0    0 -0.27256651438E+02 -0.26647212496E+02  0.20751483150E+02  0.47787273804E+02  0.20000012582E+02 0.  0.
         12    1    1    2    0    0  0.27256651438E+02  0.26647212496E+02 -0.20751483150E+02  0.43400726196E+02  0.00000000000E+00 0. -1.
         11    1    3    3    0    0 -0.30384407608E+01 -0.63145724208E+01 -0.35738331928E+01  0.78662717386E+01  0.51100000000E-03 0. -1.
        -11    1    3    3    0    0 -0.18676773150E+02 -0.15668999875E+02  0.19495302182E+02  0.31215480451E+02  0.51100000000E-03 0.  1.
         12    1    3    3    0    0 -0.55414375273E+01 -0.46636402001E+01  0.48300141608E+01  0.87055216144E+01  0.00000000000E+00 0. -1.
</event>
<event>
 7    1  0.2412036E-009  0.4778727E+02  0.7816164E-02  0.1312668E+00
        -11   -1    0    0    0    0  0.00000000000E+00  0.00000000000E+00  0.45593999997E+02  0.45594000000E+02  0.51100000000E-03 0.  1.
         11   -1    0    0    0    0 -0.00000000000E+00 -0.00000000000E+00 -0.45593999997E+02  0.45594000000E+02  0.51100000000E-03 0. -1.
    9900012    2    1    2    0    0 -0.21092608417E+02 -0.37459659879E+02  0.59581454169E+01  0.47787265618E+02  0.19999975260E+02 0.  0.
         12    1    1    2    0    0  0.21092608417E+02  0.37459659879E+02 -0.59581454169E+01  0.43400734382E+02  0.00000000000E+00 0. -1.
         11    1    3    3    0    0 -0.19826192633E+02 -0.26690174679E+02  0.29473485778E+01  0.33378588985E+02  0.51100000000E-03 0. -1.
        -11    1    3    3    0    0 -0.21416384493E+01 -0.63467232979E+01  0.60053985137E+01  0.89962394052E+01  0.51100000000E-03 0.  1.
         12    1    3    3    0    0  0.87522266596E+00 -0.44227619017E+01 -0.29946016746E+01  0.54124372276E+01  0.00000000000E+00 0. -1.
</event>
<event>
 7    1  0.2412036E-009  0.4778727E+02  0.7816164E-02  0.1312668E+00
        -11   -1    0    0    0    0  0.00000000000E+00  0.00000000000E+00  0.45593999997E+02  0.45594000000E+02  0.51100000000E-03 0.  1.
         11   -1    0    0    0    0 -0.00000000000E+00 -0.00000000000E+00 -0.45593999997E+02  0.45594000000E+02  0.51100000000E-03 0. -1.
    9900012    2    1    2    0    0  0.19613207093E+02  0.14576362714E+02  0.35867461197E+02  0.47787274025E+02  0.20000013589E+02 0.  0.
         12    1    1    2    0    0 -0.19613207093E+02 -0.14576362714E+02 -0.35867461197E+02  0.43400725975E+02  0.00000000000E+00 0. -1.
         11    1    3    3    0    0  0.98639168900E+01  0.10096613302E+02  0.62823626995E+01  0.15450130677E+02  0.51100000000E-03 0. -1.
        -11    1    3    3    0    0  0.68587056586E+01 -0.91922070659E+00  0.15058600619E+02  0.16572515285E+02  0.51100000000E-03 0.  1.
        -12    1    3    3    0    0  0.28905845446E+01  0.53989701194E+01  0.14526497878E+02  0.15764628063E+02  0.00000000000E+00 0.  1.
</event>
<event>
 7    1  0.2412036E-009  0.4778728E+02  0.7816164E-02  0.1312668E+00
        -11   -1    0    0    0    0  0.00000000000E+00  0.00000000000E+00  0.45593999997E+02  0.45594000000E+02  0.51100000000E-03 0. -1.
         11   -1    0    0    0    0 -0.00000000000E+00 -0.00000000000E+00 -0.45593999997E+02  0.45594000000E+02  0.51100000000E-03 0.  1.
    9900012    2    1    2    0    0 -0.14013337828E+02  0.37760166824E+02  0.16168447620E+02  0.47787279566E+02  0.20000038855E+02 0.  0.
         12    1    1    2    0    0  0.14013337828E+02 -0.37760166824E+02 -0.16168447620E+02  0.43400720434E+02  0.00000000000E+00 0. -1.
         11    1    3    3    0    0 -0.36525125926E+01  0.49070351157E+01  0.10353918112E+02  0.12025949542E+02  0.51100000000E-03 0. -1.
        -11    1    3    3    0    0  0.11298006959E+00  0.94788175551E+01  0.32431928171E+01  0.10018934407E+02  0.51100000000E-03 0.  1.
         12    1    3    3    0    0 -0.10473805305E+02  0.23374314154E+02  0.25713366914E+01  0.25742395617E+02  0.00000000000E+00 0. -1.
</event>
<event>
 7    1  0.2412036E-009  0.4778727E+02  0.7816164E-02  0.1312668E+00
        -11   -1    0    0    0    0  0.00000000000E+00  0.00000000000E+00  0.45593999997E+02  0.45594000000E+02  0.51100000000E-03 0.  1.
         11   -1    0    0    0    0 -0.00000000000E+00 -0.00000000000E+00 -0.45593999997E+02  0.45594000000E+02  0.51100000000E-03 0. -1.
    9900012    2    1    2    0    0 -0.34201278044E+02  0.60379962690E+01  0.26027645915E+02  0.47787272234E+02  0.20000005422E+02 0.  0.
         12    1    1    2    0    0  0.34201278044E+02 -0.60379962690E+01 -0.26027645915E+02  0.43400727766E+02  0.00000000000E+00 0. -1.
         11    1    3    3    0    0 -0.94365142594E+01 -0.55184186600E+01  0.52152287940E+01  0.12111951020E+02  0.51100000000E-03 0. -1.
        -11    1    3    3    0    0 -0.10708473311E+02  0.27376109599E+01  0.13748880485E+02  0.17640794463E+02  0.51100000000E-03 0.  1.
         12    1    3    3    0    0 -0.14056290474E+02  0.88188039691E+01  0.70635366352E+01  0.18034526751E+02  0.00000000000E+00 0. -1.
</event>
<event>
 7    1  0.2412036E-009  0.4778727E+02  0.7816164E-02  0.1312668E+00
        -11   -1    0    0    0    0  0.00000000000E+00  0.00000000000E+00  0.45593999997E+02  0.45594000000E+02  0.51100000000E-03 0. -1.
         11   -1    0    0    0    0 -0.00000000000E+00 -0.00000000000E+00 -0.45593999997E+02  0.45594000000E+02  0.51100000000E-03 0.  1.
    9900012    2    1    2    0    0 -0.33296577677E+01 -0.30481556707E+02 -0.30715002447E+02  0.47787270796E+02  0.19999998866E+02 0.  0.
         12    1    1    2    0    0  0.33296577677E+01  0.30481556707E+02  0.30715002447E+02  0.43400729204E+02  0.00000000000E+00 0. -1.
         11    1    3    3    0    0  0.52867297265E+01 -0.47171876691E+01 -0.12440975047E+02  0.14317095763E+02  0.51100000000E-03 0. -1.
        -11    1    3    3    0    0 -0.46493035622E+01 -0.18508501658E+02 -0.91743511469E+01  0.21174262123E+02  0.51100000000E-03 0.  1.
        -12    1    3    3    0    0 -0.39670839320E+01 -0.72558673798E+01 -0.90996762531E+01  0.12295912909E+02  0.00000000000E+00 0.  1.
</event>
<event>
 7    1  0.2412036E-009  0.4778731E+02  0.7816164E-02  0.1312668E+00
        -11   -1    0    0    0    0  0.00000000000E+00  0.00000000000E+00  0.45593999997E+02  0.45594000000E+02  0.51100000000E-03 0. -1.
         11   -1    0    0    0    0 -0.00000000000E+00 -0.00000000000E+00 -0.45593999997E+02  0.45594000000E+02  0.51100000000E-03 0.  1.
    9900012    2    1    2    0    0  0.36483743111E+02 -0.15026582202E+02 -0.18076460903E+02  0.47787307346E+02  0.20000165514E+02 0.  0.
         12    1    1    2    0    0 -0.36483743111E+02  0.15026582202E+02  0.18076460903E+02  0.43400692654E+02  0.00000000000E+00 0. -1.
         11    1    3    3    0    0  0.89201979590E+01  0.86861113843E+00  0.17101789200E+01  0.91240960723E+01  0.51100000000E-03 0. -1.
        -11    1    3    3    0    0  0.19417249390E+02 -0.65872140065E+01 -0.14977561208E+02  0.25391894420E+02  0.51100000000E-03 0.  1.
         12    1    3    3    0    0  0.81462957614E+01 -0.93079793335E+01 -0.48090786150E+01  0.13271316854E+02  0.00000000000E+00 0. -1.
</event>
<event>
 7    1  0.2412036E-009  0.4778727E+02  0.7816164E-02  0.1312668E+00
        -11   -1    0    0    0    0  0.00000000000E+00  0.00000000000E+00  0.45593999997E+02  0.45594000000E+02  0.51100000000E-03 0.  1.
         11   -1    0    0    0    0 -0.00000000000E+00 -0.00000000000E+00 -0.45593999997E+02  0.45594000000E+02  0.51100000000E-03 0. -1.
    9900012    2    1    2    0    0  0.16124280934E+02 -0.10773190986E+02  0.38827428904E+02  0.47787270572E+02  0.19999997845E+02 0.  0.
         12    1    1    2    0    0 -0.16124280934E+02  0.10773190986E+02 -0.38827428904E+02  0.43400729428E+02  0.00000000000E+00 0. -1.
         11    1    3    3    0    0  0.24697444438E+01 -0.46219833988E+01 -0.17675816505E+00  0.52434351208E+01  0.51100000000E-03 0. -1.
        -11    1    3    3    0    0  0.42112630412E+01  0.15327277069E+01  0.14585741522E+02  0.15258697410E+02  0.51100000000E-03 0.  1.
         12    1    3    3    0    0  0.94432734490E+01 -0.76839352938E+01  0.24418445546E+02  0.27285138041E+02  0.00000000000E+00 0. -1.
</event>
<event>
 7    1  0.2412036E-009  0.4778727E+02  0.7816164E-02  0.1312668E+00
        -11   -1    0    0    0    0  0.00000000000E+00  0.00000000000E+00  0.45593999997E+02  0.45594000000E+02  0.51100000000E-03 0.  1.
         11   -1    0    0    0    0 -0.00000000000E+00 -0.00000000000E+00 -0.45593999997E+02  0.45594000000E+02  0.51100000000E-03 0. -1.
    9900012    2    1    2    0    0 -0.36374131856E+02  0.29777578371E+01  0.23487836741E+02  0.47787274374E+02  0.20000015183E+02 0.  0.
         12    1    1    2    0    0  0.36374131856E+02 -0.29777578371E+01 -0.23487836741E+02  0.43400725626E+02  0.00000000000E+00 0. -1.
         11    1    3    3    0    0 -0.13139003870E+02 -0.10208646749E+01  0.24388001500E+01  0.13402362993E+02  0.51100000000E-03 0. -1.
        -11    1    3    3    0    0 -0.60049113666E+01  0.74872729326E+01  0.69547035873E+01  0.11852684031E+02  0.51100000000E-03 0.  1.
        -12    1    3    3    0    0 -0.17230216620E+02 -0.34886504206E+01  0.14094333004E+02  0.22532227350E+02  0.00000000000E+00 0.  1.
</event>
<event>
 7    1  0.2412036E-009  0.4778727E+02  0.7816164E-02  0.1312668E+00
        -11   -1    0    0    0    0  0.00000000000E+00  0.00000000000E+00  0.45593999997E+02  0.45594000000E+02  0.51100000000E-03 0.  1.
         11   -1    0    0    0    0 -0.00000000000E+00 -0.00000000000E+00 -0.45593999997E+02  0.45594000000E+02  0.51100000000E-03 0. -1.
    9900012    2    1    2    0    0 -0.72183363306E-02  0.21689357070E+02  0.37592484719E+02  0.47787272246E+02  0.20000005477E+02 0.  0.
         12    1    1    2    0    0  0.72183363306E-02 -0.21689357070E+02 -0.37592484719E+02  0.43400727754E+02  0.00000000000E+00 0. -1.
         11    1    3    3    0    0  0.39448481090E+01  0.63125067318E+01  0.22100207660E+02  0.23320136079E+02  0.51100000000E-03 0. -1.
        -11    1    3    3    0    0 -0.99545653024E+00  0.67176517236E+01  0.13486570123E+02  0.15099846102E+02  0.51100000000E-03 0.  1.
         12    1    3    3    0    0 -0.29566099151E+01  0.86591986147E+01  0.20057069367E+01  0.93672900647E+01  0.00000000000E+00 0. -1.
</event>
<event>
 7    1  0.2412036E-009  0.4778727E+02  0.7816164E-02  0.1312668E+00
        -11   -1    0    0    0    0  0.00000000000E+00  0.00000000000E+00  0.45593999997E+02  0.45594000000E+02  0.51100000000E-03 0. -1.
         11   -1    0    0    0    0 -0.00000000000E+00 -0.00000000000E+00 -0.45593999997E+02  0.45594000000E+02  0.51100000000E-03 0.  1.
    9900012    2    1    2    0    0  0.26821961178E+02 -0.33956916682E+02  0.33366817193E+01  0.47787271471E+02  0.20000001943E+02 0.  0.
         12    1    1    2    0    0 -0.26821961178E+02  0.33956916682E+02 -0.33366817193E+01  0.43400728529E+02  0.00000000000E+00 0. -1.
         11    1    3    3    0    0  0.65322782528E+01 -0.20428840912E+02  0.52924703799E+01  0.22091139472E+02  0.51100000000E-03 0. -1.
        -11    1    3    3    0    0  0.10194148160E+02 -0.57810633057E+01 -0.47875410503E+01  0.12659458883E+02  0.51100000000E-03 0.  1.
         12    1    3    3    0    0  0.10095534765E+02 -0.77470124642E+01  0.28317523897E+01  0.13036673115E+02  0.00000000000E+00 0. -1.
</event>
<event>
 7    1  0.2412036E-009  0.4778727E+02  0.7816164E-02  0.1312668E+00
        -11   -1    0    0    0    0  0.00000000000E+00  0.00000000000E+00  0.45593999997E+02  0.45594000000E+02  0.51100000000E-03 0. -1.
         11   -1    0    0    0    0 -0.00000000000E+00 -0.00000000000E+00 -0.45593999997E+02  0.45594000000E+02  0.51100000000E-03 0.  1.
    9900012    2    1    2    0    0 -0.39776096751E+02  0.12398382840E+02 -0.12155889037E+02  0.47787269499E+02  0.19999992952E+02 0.  0.
         12    1    1    2    0    0  0.39776096751E+02 -0.12398382840E+02  0.12155889037E+02  0.43400730501E+02  0.00000000000E+00 0. -1.
         11    1    3    3    0    0 -0.31922694563E+02  0.54791803067E+01 -0.13311467828E+02  0.35018209848E+02  0.51100000000E-03 0.  1.
        -11    1    3    3    0    0 -0.78567694695E+01  0.40717360536E+01 -0.13801916992E+01  0.89561593540E+01  0.51100000000E-03 0. -1.
         12    1    3    3    0    0  0.33672816693E-02  0.28474664799E+01  0.25357704897E+01  0.38129002962E+01  0.00000000000E+00 0. -1.
</event>
<event>
 7    1  0.2412036E-009  0.4778727E+02  0.7816164E-02  0.1312668E+00
        -11   -1    0    0    0    0  0.00000000000E+00  0.00000000000E+00  0.45593999997E+02  0.45594000000E+02  0.51100000000E-03 0.  1.
         11   -1    0    0    0    0 -0.00000000000E+00 -0.00000000000E+00 -0.45593999997E+02  0.45594000000E+02  0.51100000000E-03 0. -1.
    9900012    2    1    2    0    0  0.17515919162E+02 -0.27403169655E+02  0.28738164093E+02  0.47787271819E+02  0.20000003531E+02 0.  0.
         12    1    1    2    0    0 -0.17515919162E+02  0.27403169655E+02 -0.28738164093E+02  0.43400728181E+02  0.00000000000E+00 0. -1.
         11    1    3    3    0    0  0.17041875233E+02 -0.24462062881E+02  0.21478799792E+02  0.36744480846E+02  0.51100000000E-03 0. -1.
        -11    1    3    3    0    0  0.12763254674E+01 -0.51873778393E+01  0.29123707671E+01  0.60843898045E+01  0.51100000000E-03 0.  1.
         12    1    3    3    0    0 -0.80228153842E+00  0.22462710655E+01  0.43469935339E+01  0.49584011687E+01  0.00000000000E+00 0. -1.
</event>
<event>
 7    1  0.2412036E-009  0.4778728E+02  0.7816164E-02  0.1312668E+00
        -11   -1    0    0    0    0  0.00000000000E+00  0.00000000000E+00  0.45593999997E+02  0.45594000000E+02  0.51100000000E-03 0.  1.
         11   -1    0    0    0    0 -0.00000000000E+00 -0.00000000000E+00 -0.45593999997E+02  0.45594000000E+02  0.51100000000E-03 0. -1.
    9900012    2    1    2    0    0 -0.59533238417E+01  0.38991974416E+02  0.18105434616E+02  0.47787275395E+02  0.20000019835E+02 0.  0.
         12    1    1    2    0    0  0.59533238417E+01 -0.38991974416E+02 -0.18105434616E+02  0.43400724605E+02  0.00000000000E+00 0. -1.
         11    1    3    3    0    0 -0.53091396707E+01  0.68192091106E+01 -0.27475323026E+01  0.90684900040E+01  0.51100000000E-03 0. -1.
        -11    1    3    3    0    0 -0.18508139504E+01  0.28775576061E+02  0.17144957069E+02  0.33547113782E+02  0.51100000000E-03 0.  1.
         12    1    3    3    0    0  0.12066297793E+01  0.33971892439E+01  0.37080098498E+01  0.51716716088E+01  0.00000000000E+00 0. -1.
</event>
<event>
 7    1  0.2412036E-009  0.4778727E+02  0.7816164E-02  0.1312668E+00
        -11   -1    0    0    0    0  0.00000000000E+00  0.00000000000E+00  0.45593999997E+02  0.45594000000E+02  0.51100000000E-03 0. -1.
         11   -1    0    0    0    0 -0.00000000000E+00 -0.00000000000E+00 -0.45593999997E+02  0.45594000000E+02  0.51100000000E-03 0.  1.
    9900012    2    1    2    0    0  0.11808833594E+02  0.26677478138E+02 -0.32132336398E+02  0.47787269211E+02  0.19999991639E+02 0.  0.
         12    1    1    2    0    0 -0.11808833594E+02 -0.26677478138E+02  0.32132336398E+02  0.43400730789E+02  0.00000000000E+00 0. -1.
         11    1    3    3    0    0 -0.33405053770E+01  0.96751808626E+01 -0.74083643251E+01  0.12635345786E+02  0.51100000000E-03 0. -1.
        -11    1    3    3    0    0  0.15562630693E+02  0.17838849466E+02 -0.22172392447E+02  0.32435089201E+02  0.51100000000E-03 0.  1.
        -12    1    3    3    0    0 -0.41329172207E+00 -0.83655219036E+00 -0.25515796256E+01  0.27168342239E+01  0.00000000000E+00 0.  1.
</event>
<event>
 7    1  0.2412036E-009  0.4778727E+02  0.7816164E-02  0.1312668E+00
        -11   -1    0    0    0    0  0.00000000000E+00  0.00000000000E+00  0.45593999997E+02  0.45594000000E+02  0.51100000000E-03 0. -1.
         11   -1    0    0    0    0 -0.00000000000E+00 -0.00000000000E+00 -0.45593999997E+02  0.45594000000E+02  0.51100000000E-03 0.  1.
    9900012    2    1    2    0    0 -0.40375549670E+02 -0.86514009643E+01 -0.13363811858E+02  0.47787271697E+02  0.20000002978E+02 0.  0.
         12    1    1    2    0    0  0.40375549670E+02  0.86514009643E+01  0.13363811858E+02  0.43400728303E+02  0.00000000000E+00 0. -1.
         11    1    3    3    0    0 -0.63911169183E+00 -0.44923539751E+01 -0.20411202428E+01  0.49755281226E+01  0.51100000000E-03 0. -1.
        -11    1    3    3    0    0 -0.33470154192E+02 -0.71183231127E+01 -0.10706092386E+02  0.35854458021E+02  0.51100000000E-03 0.  1.
         12    1    3    3    0    0 -0.62662837863E+01  0.29592761234E+01 -0.61659922997E+00  0.69572855537E+01  0.00000000000E+00 0. -1.
</event>
<event>
 7    1  0.2412036E-009  0.4778727E+02  0.7816164E-02  0.1312668E+00
        -11   -1    0    0    0    0  0.00000000000E+00  0.00000000000E+00  0.45593999997E+02  0.45594000000E+02  0.51100000000E-03 0.  1.
         11   -1    0    0    0    0 -0.00000000000E+00 -0.00000000000E+00 -0.45593999997E+02  0.45594000000E+02  0.51100000000E-03 0. -1.
    9900012    2    1    2    0    0 -0.20157367299E+02  0.11228800092E+02  0.36758914517E+02  0.47787271845E+02  0.20000003651E+02 0.  0.
         12    1    1    2    0    0  0.20157367299E+02 -0.11228800092E+02 -0.36758914517E+02  0.43400728155E+02  0.00000000000E+00 0. -1.
         11    1    3    3    0    0  0.17027815803E+01  0.56252484541E+00  0.10027152567E+02  0.10186249956E+02  0.51100000000E-03 0. -1.
        -11    1    3    3    0    0 -0.98854716030E+01  0.62411025105E+01  0.57200321100E+01  0.13015094197E+02  0.51100000000E-03 0.  1.
        -12    1    3    3    0    0 -0.11974677276E+02  0.44251727359E+01  0.21011729840E+02  0.24585927692E+02  0.00000000000E+00 0.  1.
</event>
<event>
 7    1  0.2412036E-009  0.4778728E+02  0.7816164E-02  0.1312668E+00
        -11   -1    0    0    0    0  0.00000000000E+00  0.00000000000E+00  0.45593999997E+02  0.45594000000E+02  0.51100000000E-03 0.  1.
         11   -1    0    0    0    0 -0.00000000000E+00 -0.00000000000E+00 -0.45593999997E+02  0.45594000000E+02  0.51100000000E-03 0. -1.
    9900012    2    1    2    0    0  0.41175873516E+02 -0.10940015647E+02  0.82756347440E+01  0.47787278432E+02  0.20000033685E+02 0.  0.
         12    1    1    2    0    0 -0.41175873516E+02  0.10940015647E+02 -0.82756347440E+01  0.43400721568E+02  0.00000000000E+00 0. -1.
         11    1    3    3    0    0  0.14106067844E+02 -0.81231043463E+01  0.61891530497E+01  0.17414694656E+02  0.51100000000E-03 0.  1.
        -11    1    3    3    0    0  0.33915299750E+01  0.38876140453E+01 -0.17883159537E+01  0.54602282689E+01  0.51100000000E-03 0. -1.
        -12    1    3    3    0    0  0.23678275697E+02 -0.67045253463E+01  0.38747976481E+01  0.24912355507E+02  0.00000000000E+00 0.  1.
</event>
<event>
 7    1  0.2412036E-009  0.4778727E+02  0.7816164E-02  0.1312668E+00
        -11   -1    0    0    0    0  0.00000000000E+00  0.00000000000E+00  0.45593999997E+02  0.45594000000E+02  0.51100000000E-03 0. -1.
         11   -1    0    0    0    0 -0.00000000000E+00 -0.00000000000E+00 -0.45593999997E+02  0.45594000000E+02  0.51100000000E-03 0.  1.
    9900012    2    1    2    0    0 -0.34116240549E+02 -0.21006204640E+02 -0.16686663860E+02  0.47787271281E+02  0.20000001080E+02 0.  0.
         12    1    1    2    0    0  0.34116240549E+02  0.21006204640E+02  0.16686663860E+02  0.43400728719E+02  0.00000000000E+00 0. -1.
         11    1    3    3    0    0 -0.23666312601E+01 -0.83479825006E+01  0.78868349483E+00  0.87127364971E+01  0.51100000000E-03 0. -1.
        -11    1    3    3    0    0 -0.19734503973E+02 -0.10575285500E+02 -0.13954510493E+02  0.26382108972E+02  0.51100000000E-03 0.  1.
         12    1    3    3    0    0 -0.12015105316E+02 -0.20829366395E+01 -0.35208368610E+01  0.12692425812E+02  0.00000000000E+00 0. -1.
</event>
<event>
 7    1  0.2412036E-009  0.4778727E+02  0.7816164E-02  0.1312668E+00
        -11   -1    0    0    0    0  0.00000000000E+00  0.00000000000E+00  0.45593999997E+02  0.45594000000E+02  0.51100000000E-03 0.  1.
         11   -1    0    0    0    0 -0.00000000000E+00 -0.00000000000E+00 -0.45593999997E+02  0.45594000000E+02  0.51100000000E-03 0. -1.
    9900012    2    1    2    0    0 -0.23964890784E+02 -0.29764581198E+02  0.20576125847E+02  0.47787271445E+02  0.20000001828E+02 0.  0.
         12    1    1    2    0    0  0.23964890784E+02  0.29764581198E+02 -0.20576125847E+02  0.43400728555E+02  0.00000000000E+00 0. -1.
         11    1    3    3    0    0 -0.13769058040E+01 -0.40852000793E+01  0.89813433121E+01  0.99623921440E+01  0.51100000000E-03 0. -1.
        -11    1    3    3    0    0 -0.11027761061E+02 -0.19867700825E+02  0.48551897645E+01  0.23235961740E+02  0.51100000000E-03 0.  1.
         12    1    3    3    0    0 -0.11560223919E+02 -0.58116802945E+01  0.67395927703E+01  0.14588917561E+02  0.00000000000E+00 0. -1.
</event>
<event>
 7    1  0.2412036E-009  0.4778727E+02  0.7816164E-02  0.1312668E+00
        -11   -1    0    0    0    0  0.00000000000E+00  0.00000000000E+00  0.45593999997E+02  0.45594000000E+02  0.51100000000E-03 0.  1.
         11   -1    0    0    0    0 -0.00000000000E+00 -0.00000000000E+00 -0.45593999997E+02  0.45594000000E+02  0.51100000000E-03 0. -1.
    9900012    2    1    2    0    0  0.83202343612E+00 -0.32509491363E+02  0.28741335514E+02  0.47787266610E+02  0.19999979781E+02 0.  0.
         12    1    1    2    0    0 -0.83202343612E+00  0.32509491363E+02 -0.28741335514E+02  0.43400733390E+02  0.00000000000E+00 0. -1.
         11    1    3    3    0    0 -0.71225819592E+01 -0.97531565249E+01  0.35447369421E+01  0.12586516445E+02  0.51100000000E-03 0. -1.
        -11    1    3    3    0    0  0.68964673339E+01 -0.13008486825E+02  0.16238502881E+02  0.21919647973E+02  0.51100000000E-03 0.  1.
         12    1    3    3    0    0  0.10581380614E+01 -0.97478480129E+01  0.89580956909E+01  0.13281102193E+02  0.00000000000E+00 0. -1.
</event>
<event>
 7    1  0.2412036E-009  0.4778728E+02  0.7816164E-02  0.1312668E+00
        -11   -1    0    0    0    0  0.00000000000E+00  0.00000000000E+00  0.45593999997E+02  0.45594000000E+02  0.51100000000E-03 0.  1.
         11   -1    0    0    0    0 -0.00000000000E+00 -0.00000000000E+00 -0.45593999997E+02  0.45594000000E+02  0.51100000000E-03 0. -1.
    9900012    2    1    2    0    0 -0.12534244858E+02  0.39521156933E+02  0.12829400197E+02  0.47787278244E+02  0.20000032826E+02 0.  0.
         12    1    1    2    0    0  0.12534244858E+02 -0.39521156933E+02 -0.12829400197E+02  0.43400721756E+02  0.00000000000E+00 0. -1.
         11    1    3    3    0    0 -0.10801537943E+01  0.12089128832E+02  0.10533888776E+01  0.12182914123E+02  0.51100000000E-03 0. -1.
        -11    1    3    3    0    0 -0.13200669751E+02  0.22759643222E+02  0.43641403867E+01  0.26670297394E+02  0.51100000000E-03 0.  1.
        -12    1    3    3    0    0  0.17465786874E+01  0.46723848787E+01  0.74118709325E+01  0.89340667272E+01  0.00000000000E+00 0.  1.
</event>
<event>
 7    1  0.2412036E-009  0.4778726E+02  0.7816164E-02  0.1312668E+00
        -11   -1    0    0    0    0  0.00000000000E+00  0.00000000000E+00  0.45593999997E+02  0.45594000000E+02  0.51100000000E-03 0. -1.
         11   -1    0    0    0    0 -0.00000000000E+00 -0.00000000000E+00 -0.45593999997E+02  0.45594000000E+02  0.51100000000E-03 0.  1.
    9900012    2    1    2    0    0  0.25103169359E+02  0.75392762025E+01 -0.34592116580E+02  0.47787258912E+02  0.19999944681E+02 0.  0.
         12    1    1    2    0    0 -0.25103169359E+02 -0.75392762025E+01  0.34592116580E+02  0.43400741088E+02  0.00000000000E+00 0. -1.
         11    1    3    3    0    0  0.24804876696E+01  0.18483106225E+01 -0.15059808268E+01  0.34405013804E+01  0.51100000000E-03 0. -1.
        -11    1    3    3    0    0  0.20112817625E+02  0.34335328578E+01 -0.13485558927E+02  0.24457613958E+02  0.51100000000E-03 0.  1.
        -12    1    3    3    0    0  0.25098640641E+01  0.22574327222E+01 -0.19600576827E+02  0.19889143573E+02  0.00000000000E+00 0.  1.
</event>
<event>
 7    1  0.2412036E-009  0.4778727E+02  0.7816164E-02  0.1312668E+00
        -11   -1    0    0    0    0  0.00000000000E+00  0.00000000000E+00  0.45593999997E+02  0.45594000000E+02  0.51100000000E-03 0.  1.
         11   -1    0    0    0    0 -0.00000000000E+00 -0.00000000000E+00 -0.45593999997E+02  0.45594000000E+02  0.51100000000E-03 0. -1.
    9900012    2    1    2    0    0 -0.40914959732E+02 -0.12497317431E+02  0.73079522299E+01  0.47787273754E+02  0.20000012355E+02 0.  0.
         12    1    1    2    0    0  0.40914959732E+02  0.12497317431E+02 -0.73079522299E+01  0.43400726246E+02  0.00000000000E+00 0. -1.
         11    1    3    3    0    0 -0.90418274804E+01 -0.91473376826E+01 -0.31349580329E+00  0.12865718431E+02  0.51100000000E-03 0. -1.
        -11    1    3    3    0    0 -0.10611686739E+02  0.42440699592E+01  0.14810177905E+01  0.11524471321E+02  0.51100000000E-03 0.  1.
        -12    1    3    3    0    0 -0.21261445513E+02 -0.75940497072E+01  0.61404302427E+01  0.23397084002E+02  0.00000000000E+00 0.  1.
</event>
<event>
 7    1  0.2412036E-009  0.4778727E+02  0.7816164E-02  0.1312668E+00
        -11   -1    0    0    0    0  0.00000000000E+00  0.00000000000E+00  0.45593999997E+02  0.45594000000E+02  0.51100000000E-03 0.  1.
         11   -1    0    0    0    0 -0.00000000000E+00 -0.00000000000E+00 -0.45593999997E+02  0.45594000000E+02  0.51100000000E-03 0. -1.
    9900012    2    1    2    0    0  0.11313892666E+02  0.23631667550E+02  0.34600051765E+02  0.47787268893E+02  0.19999990192E+02 0.  0.
         12    1    1    2    0    0 -0.11313892666E+02 -0.23631667550E+02 -0.34600051765E+02  0.43400731107E+02  0.00000000000E+00 0. -1.
         11    1    3    3    0    0 -0.35604755717E+01  0.78705922342E+01  0.46904815157E+01  0.98297418849E+01  0.51100000000E-03 0. -1.
        -11    1    3    3    0    0  0.13869266806E+02  0.16468011382E+02  0.29742492760E+02  0.36717405089E+02  0.51100000000E-03 0.  1.
         12    1    3    3    0    0  0.10051014308E+01 -0.70693606609E+00  0.16707748960E+00  0.12401219195E+01  0.00000000000E+00 0. -1.
</event>
<event>
 7    1  0.2412036E-009  0.4778727E+02  0.7816164E-02  0.1312668E+00
        -11   -1    0    0    0    0  0.00000000000E+00  0.00000000000E+00  0.45593999997E+02  0.45594000000E+02  0.51100000000E-03 0. -1.
         11   -1    0    0    0    0 -0.00000000000E+00 -0.00000000000E+00 -0.45593999997E+02  0.45594000000E+02  0.51100000000E-03 0.  1.
    9900012    2    1    2    0    0 -0.37993162838E+02  0.12810257922E+02 -0.16614457615E+02  0.47787270371E+02  0.19999996931E+02 0.  0.
         12    1    1    2    0    0  0.37993162838E+02 -0.12810257922E+02  0.16614457615E+02  0.43400729629E+02  0.00000000000E+00 0. -1.
         11    1    3    3    0    0 -0.20478879049E+01  0.70115335397E+01  0.64545475798E+00  0.73329434441E+01  0.51100000000E-03 0. -1.
        -11    1    3    3    0    0 -0.22948925590E+02  0.47388875694E+01 -0.95377197528E+01  0.25299769554E+02  0.51100000000E-03 0.  1.
         12    1    3    3    0    0 -0.12996349343E+02  0.10598368127E+01 -0.77221926198E+01  0.15154557373E+02  0.00000000000E+00 0. -1.
</event>
<event>
 7    1  0.2412036E-009  0.4778727E+02  0.7816164E-02  0.1312668E+00
        -11   -1    0    0    0    0  0.00000000000E+00  0.00000000000E+00  0.45593999997E+02  0.45594000000E+02  0.51100000000E-03 0. -1.
         11   -1    0    0    0    0 -0.00000000000E+00 -0.00000000000E+00 -0.45593999997E+02  0.45594000000E+02  0.51100000000E-03 0.  1.
    9900012    2    1    2    0    0 -0.63318003668E+01 -0.42119027959E+02 -0.83378206539E+01  0.47787268839E+02  0.19999989943E+02 0.  0.
         12    1    1    2    0    0  0.63318003668E+01  0.42119027959E+02  0.83378206539E+01  0.43400731161E+02  0.00000000000E+00 0. -1.
         11    1    3    3    0    0  0.99986519298E+00 -0.55032095614E+00 -0.26305872416E+01  0.28675029303E+01  0.51100000000E-03 0. -1.
        -11    1    3    3    0    0 -0.17949535037E+00 -0.31993120986E+02 -0.81088423843E+00  0.32003898864E+02  0.51100000000E-03 0.  1.
        -12    1    3    3    0    0 -0.71521702094E+01 -0.95755860170E+01 -0.48963491739E+01  0.12915867044E+02  0.00000000000E+00 0.  1.
</event>
<event>
 7    1  0.2412036E-009  0.4778727E+02  0.7816164E-02  0.1312668E+00
        -11   -1    0    0    0    0  0.00000000000E+00  0.00000000000E+00  0.45593999997E+02  0.45594000000E+02  0.51100000000E-03 0. -1.
         11   -1    0    0    0    0 -0.00000000000E+00 -0.00000000000E+00 -0.45593999997E+02  0.45594000000E+02  0.51100000000E-03 0.  1.
    9900012    2    1    2    0    0 -0.24331441176E+02 -0.17973800264E+02 -0.31121482942E+02  0.47787271594E+02  0.20000002506E+02 0.  0.
         12    1    1    2    0    0  0.24331441176E+02  0.17973800264E+02  0.31121482942E+02  0.43400728406E+02  0.00000000000E+00 0. -1.
         11    1    3    3    0    0 -0.45960096339E+01 -0.22586838970E+01  0.19404669589E+00  0.51247060290E+01  0.51100000000E-03 0. -1.
        -11    1    3    3    0    0 -0.19625857434E+02 -0.10618634930E+02 -0.30016240976E+02  0.37401930570E+02  0.51100000000E-03 0.  1.
        -12    1    3    3    0    0 -0.10957410810E+00 -0.50964814371E+01 -0.12992886625E+01  0.52606349952E+01  0.00000000000E+00 0.  1.
</event>
<event>
 7    1  0.2412036E-009  0.4778727E+02  0.7816164E-02  0.1312668E+00
        -11   -1    0    0    0    0  0.00000000000E+00  0.00000000000E+00  0.45593999997E+02  0.45594000000E+02  0.51100000000E-03 0. -1.
         11   -1    0    0    0    0 -0.00000000000E+00 -0.00000000000E+00 -0.45593999997E+02  0.45594000000E+02  0.51100000000E-03 0.  1.
    9900012    2    1    2    0    0 -0.39321706578E+02 -0.28796058838E+01  0.18142078137E+02  0.47787265705E+02  0.19999975654E+02 0.  0.
         12    1    1    2    0    0  0.39321706578E+02  0.28796058838E+01 -0.18142078137E+02  0.43400734295E+02  0.00000000000E+00 0. -1.
         11    1    3    3    0    0 -0.84377323199E+01 -0.55246114708E+01  0.60168902998E+01  0.11743918756E+02  0.51100000000E-03 0. -1.
        -11    1    3    3    0    0 -0.20552554676E+01  0.45000230174E+01  0.78561229761E+00  0.50091385624E+01  0.51100000000E-03 0.  1.
        -12    1    3    3    0    0 -0.28828718790E+02 -0.18550174304E+01  0.11339575540E+02  0.31034208386E+02  0.00000000000E+00 0.  1.
</event>
<event>
 7    1  0.2412036E-009  0.4778727E+02  0.7816164E-02  0.1312668E+00
        -11   -1    0    0    0    0  0.00000000000E+00  0.00000000000E+00  0.45593999997E+02  0.45594000000E+02  0.51100000000E-03 0.  1.
         11   -1    0    0    0    0 -0.00000000000E+00 -0.00000000000E+00 -0.45593999997E+02  0.45594000000E+02  0.51100000000E-03 0. -1.
    9900012    2    1    2    0    0 -0.26712697349E+02 -0.12503246189E+02  0.31839033649E+02  0.47787269261E+02  0.19999991870E+02 0.  0.
         12    1    1    2    0    0  0.26712697349E+02  0.12503246189E+02 -0.31839033649E+02  0.43400730739E+02  0.00000000000E+00 0. -1.
         11    1    3    3    0    0 -0.32462094720E+01 -0.42928147258E+01 -0.14286424964E+01  0.55684067604E+01  0.51100000000E-03 0. -1.
        -11    1    3    3    0    0 -0.14510625599E+02 -0.17061425037E+01  0.22118526506E+02  0.26508458887E+02  0.51100000000E-03 0.  1.
        -12    1    3    3    0    0 -0.89558622788E+01 -0.65042889592E+01  0.11149149640E+02  0.15710403614E+02  0.00000000000E+00 0.  1.
</event>
<event>
 7    1  0.2412036E-009  0.4778727E+02  0.7816164E-02  0.1312668E+00
        -11   -1    0    0    0    0  0.00000000000E+00  0.00000000000E+00  0.45593999997E+02  0.45594000000E+02  0.51100000000E-03 0. -1.
         11   -1    0    0    0    0 -0.00000000000E+00 -0.00000000000E+00 -0.45593999997E+02  0.45594000000E+02  0.51100000000E-03 0.  1.
    9900012    2    1    2    0    0 -0.18764784553E+02 -0.37548443754E+02 -0.11028186853E+02  0.47787266447E+02  0.19999979038E+02 0.  0.
         12    1    1    2    0    0  0.18764784553E+02  0.37548443754E+02  0.11028186853E+02  0.43400733553E+02  0.00000000000E+00 0. -1.
         11    1    3    3    0    0 -0.17062408129E+02 -0.20891071676E+02  0.69027789023E+00  0.26982200258E+02  0.51100000000E-03 0. -1.
        -11    1    3    3    0    0  0.11013710258E+01 -0.81457454377E+01 -0.59530724998E+01  0.10149150670E+02  0.51100000000E-03 0.  1.
         12    1    3    3    0    0 -0.28037474495E+01 -0.85116266404E+01 -0.57653922432E+01  0.10655915519E+02  0.00000000000E+00 0. -1.
</event>
<event>
 7    1  0.2412036E-009  0.4778727E+02  0.7816164E-02  0.1312668E+00
        -11   -1    0    0    0    0  0.00000000000E+00  0.00000000000E+00  0.45593999997E+02  0.45594000000E+02  0.51100000000E-03 0.  1.
         11   -1    0    0    0    0 -0.00000000000E+00 -0.00000000000E+00 -0.45593999997E+02  0.45594000000E+02  0.51100000000E-03 0. -1.
    9900012    2    1    2    0    0 -0.95031197179E+01 -0.81092325446E+01  0.41563858847E+02  0.47787270754E+02  0.19999998677E+02 0.  0.
         12    1    1    2    0    0  0.95031197179E+01  0.81092325446E+01 -0.41563858847E+02  0.43400729246E+02  0.00000000000E+00 0. -1.
         11    1    3    3    0    0 -0.13273216663E+01 -0.87076414078E+01  0.24766998455E+02  0.26286669900E+02  0.51100000000E-03 0. -1.
        -11    1    3    3    0    0  0.12419463346E+01 -0.14703595715E+01  0.86977936321E+01  0.89081985999E+01  0.51100000000E-03 0.  1.
         12    1    3    3    0    0 -0.94177443862E+01  0.20687684347E+01  0.80990667597E+01  0.12592402254E+02  0.00000000000E+00 0. -1.
</event>
<event>
 7    1  0.2412036E-009  0.4778728E+02  0.7816164E-02  0.1312668E+00
        -11   -1    0    0    0    0  0.00000000000E+00  0.00000000000E+00  0.45593999997E+02  0.45594000000E+02  0.51100000000E-03 0. -1.
         11   -1    0    0    0    0 -0.00000000000E+00 -0.00000000000E+00 -0.45593999997E+02  0.45594000000E+02  0.51100000000E-03 0.  1.
    9900012    2    1    2    0    0  0.22546815418E+02 -0.35496014149E+02  0.10737644860E+02  0.47787275086E+02  0.20000018426E+02 0.  0.
         12    1    1    2    0    0 -0.22546815418E+02  0.35496014149E+02 -0.10737644860E+02  0.43400724914E+02  0.00000000000E+00 0. -1.
         11    1    3    3    0    0  0.19963033552E+01  0.19418327119E+01 -0.43151987865E+00  0.28181822215E+01  0.51100000000E-03 0. -1.
        -11    1    3    3    0    0  0.17138096385E+02 -0.23488378891E+02  0.58760514913E+01  0.29663888349E+02  0.51100000000E-03 0.  1.
        -12    1    3    3    0    0  0.34124156780E+01 -0.13949467970E+02  0.52931132470E+01  0.15305204515E+02  0.00000000000E+00 0.  1.
</event>
<event>
 7    1  0.2412036E-009  0.4778726E+02  0.7816164E-02  0.1312668E+00
        -11   -1    0    0    0    0  0.00000000000E+00  0.00000000000E+00  0.45593999997E+02  0.45594000000E+02  0.51100000000E-03 0. -1.
         11   -1    0    0    0    0 -0.00000000000E+00 -0.00000000000E+00 -0.45593999997E+02  0.45594000000E+02  0.51100000000E-03 0.  1.
    9900012    2    1    2    0    0  0.17485209635E+02  0.39400208739E+02 -0.50512427681E+01  0.47787262009E+02  0.19999958802E+02 0.  0.
         12    1    1    2    0    0 -0.17485209635E+02 -0.39400208739E+02  0.50512427681E+01  0.43400737991E+02  0.00000000000E+00 0. -1.
         11    1    3    3    0    0  0.57482950542E-01 -0.45979023342E+00 -0.94418816726E-01  0.47289166035E+00  0.51100000000E-03 0. -1.
        -11    1    3    3    0    0  0.46768660822E+01  0.36967289643E+01 -0.66509192243E+01  0.89316072560E+01  0.51100000000E-03 0.  1.
        -12    1    3    3    0    0  0.12750860602E+02  0.36163270008E+02  0.16940952729E+01  0.38382763092E+02  0.00000000000E+00 0.  1.
</event>
<event>
 7    1  0.2412036E-009  0.4778727E+02  0.7816164E-02  0.1312668E+00
        -11   -1    0    0    0    0  0.00000000000E+00  0.00000000000E+00  0.45593999997E+02  0.45594000000E+02  0.51100000000E-03 0.  1.
         11   -1    0    0    0    0 -0.00000000000E+00 -0.00000000000E+00 -0.45593999997E+02  0.45594000000E+02  0.51100000000E-03 0. -1.
    9900012    2    1    2    0    0  0.21267091157E+02 -0.10029469110E+02  0.36479363105E+02  0.47787270174E+02  0.19999996032E+02 0.  0.
         12    1    1    2    0    0 -0.21267091157E+02  0.10029469110E+02 -0.36479363105E+02  0.43400729826E+02  0.00000000000E+00 0. -1.
         11    1    3    3    0    0  0.61072591941E+01 -0.94178059122E+01  0.20566593221E+02  0.23430288945E+02  0.51100000000E-03 0. -1.
        -11    1    3    3    0    0  0.15247328427E+02 -0.34226216574E+01  0.13587883635E+02  0.20708113027E+02  0.51100000000E-03 0.  1.
         12    1    3    3    0    0 -0.87496464925E-01  0.28109584593E+01  0.23248862478E+01  0.36488682021E+01  0.00000000000E+00 0. -1.
</event>
<event>
 7    1  0.2412036E-009  0.4778726E+02  0.7816164E-02  0.1312668E+00
        -11   -1    0    0    0    0  0.00000000000E+00  0.00000000000E+00  0.45593999997E+02  0.45594000000E+02  0.51100000000E-03 0. -1.
         11   -1    0    0    0    0 -0.00000000000E+00 -0.00000000000E+00 -0.45593999997E+02  0.45594000000E+02  0.51100000000E-03 0.  1.
    9900012    2    1    2    0    0 -0.27910105608E+02  0.11376095766E+02 -0.31228740828E+02  0.47787264942E+02  0.19999972176E+02 0.  0.
         12    1    1    2    0    0  0.27910105608E+02 -0.11376095766E+02  0.31228740828E+02  0.43400735058E+02  0.00000000000E+00 0. -1.
         11    1    3    3    0    0 -0.70443109273E+01 -0.17989190368E+01  0.20780227436E-01  0.72704097698E+01  0.51100000000E-03 0. -1.
        -11    1    3    3    0    0 -0.16665287283E+02  0.97533867199E+01 -0.28542102135E+02  0.34460295230E+02  0.51100000000E-03 0.  1.
         12    1    3    3    0    0 -0.42005073969E+01  0.34216280828E+01 -0.27074189197E+01  0.60565599424E+01  0.00000000000E+00 0. -1.
</event>
<event>
 7    1  0.2412036E-009  0.4778727E+02  0.7816164E-02  0.1312668E+00
        -11   -1    0    0    0    0  0.00000000000E+00  0.00000000000E+00  0.45593999997E+02  0.45594000000E+02  0.51100000000E-03 0.  1.
         11   -1    0    0    0    0 -0.00000000000E+00 -0.00000000000E+00 -0.45593999997E+02  0.45594000000E+02  0.51100000000E-03 0. -1.
    9900012    2    1    2    0    0 -0.23218698320E+02 -0.20342151737E+02  0.30507574141E+02  0.47787272253E+02  0.20000005511E+02 0.  0.
         12    1    1    2    0    0  0.23218698320E+02  0.20342151737E+02 -0.30507574141E+02  0.43400727747E+02  0.00000000000E+00 0. -1.
         11    1    3    3    0    0 -0.34872166704E+01 -0.10700078245E+02  0.32995550232E+01  0.11727720075E+02  0.51100000000E-03 0. -1.
        -11    1    3    3    0    0 -0.16091993206E+02 -0.50378935587E+01  0.15234080894E+02  0.22724652644E+02  0.51100000000E-03 0.  1.
         12    1    3    3    0    0 -0.36394884441E+01 -0.46041799334E+01  0.11973938223E+02  0.13334899534E+02  0.00000000000E+00 0. -1.
</event>
<event>
 7    1  0.2412036E-009  0.4778727E+02  0.7816164E-02  0.1312668E+00
        -11   -1    0    0    0    0  0.00000000000E+00  0.00000000000E+00  0.45593999997E+02  0.45594000000E+02  0.51100000000E-03 0.  1.
         11   -1    0    0    0    0 -0.00000000000E+00 -0.00000000000E+00 -0.45593999997E+02  0.45594000000E+02  0.51100000000E-03 0. -1.
    9900012    2    1    2    0    0 -0.18422041797E+02 -0.29054197136E+02  0.26459504061E+02  0.47787270163E+02  0.19999995983E+02 0.  0.
         12    1    1    2    0    0  0.18422041797E+02  0.29054197136E+02 -0.26459504061E+02  0.43400729837E+02  0.00000000000E+00 0. -1.
         11    1    3    3    0    0 -0.17050743164E+02 -0.16016601540E+02  0.20752612794E+02  0.31271877228E+02  0.51100000000E-03 0.  1.
        -11    1    3    3    0    0 -0.10914601673E+01 -0.14082052403E+02  0.43471628964E+01  0.14778136239E+02  0.51100000000E-03 0. -1.
        -12    1    3    3    0    0 -0.27983846547E+00  0.10444568067E+01  0.13597283708E+01  0.17372566966E+01  0.00000000000E+00 0.  1.
</event>
<event>
 7    1  0.2412036E-009  0.4778728E+02  0.7816164E-02  0.1312668E+00
        -11   -1    0    0    0    0  0.00000000000E+00  0.00000000000E+00  0.45593999997E+02  0.45594000000E+02  0.51100000000E-03 0.  1.
         11   -1    0    0    0    0 -0.00000000000E+00 -0.00000000000E+00 -0.45593999997E+02  0.45594000000E+02  0.51100000000E-03 0. -1.
    9900012    2    1    2    0    0  0.24704722923E+02  0.11197644598E+02  0.33880849915E+02  0.47787279151E+02  0.20000036960E+02 0.  0.
         12    1    1    2    0    0 -0.24704722923E+02 -0.11197644598E+02 -0.33880849915E+02  0.43400720849E+02  0.00000000000E+00 0. -1.
         11    1    3    3    0    0 -0.26667004529E+01  0.98464021570E+00  0.17514022453E+01  0.33388946892E+01  0.51100000000E-03 0. -1.
        -11    1    3    3    0    0  0.22963668288E+02  0.61995795416E+01  0.20588174680E+02  0.31458508938E+02  0.51100000000E-03 0.  1.
        -12    1    3    3    0    0  0.44077550886E+01  0.40134248403E+01  0.11541272991E+02  0.12989875523E+02  0.00000000000E+00 0.  1.
</event>
<event>
 7    1  0.2412036E-009  0.4778730E+02  0.7816164E-02  0.1312668E+00
        -11   -1    0    0    0    0  0.00000000000E+00  0.00000000000E+00  0.45593999997E+02  0.45594000000E+02  0.51100000000E-03 0. -1.
         11   -1    0    0    0    0 -0.00000000000E+00 -0.00000000000E+00 -0.45593999997E+02  0.45594000000E+02  0.51100000000E-03 0.  1.
    9900012    2    1    2    0    0 -0.76871186668E+01  0.34740913422E+02  0.24851520988E+02  0.47787297768E+02  0.20000121844E+02 0.  0.
         12    1    1    2    0    0  0.76871186668E+01 -0.34740913422E+02 -0.24851520988E+02  0.43400702232E+02  0.00000000000E+00 0. -1.
         11    1    3    3    0    0  0.15423428169E+01 -0.38773590435E+00  0.12725292485E+01  0.20367845850E+01  0.51100000000E-03 0. -1.
        -11    1    3    3    0    0 -0.72178470108E+01  0.92761024157E+01  0.18067022408E+01  0.11891491275E+02  0.51100000000E-03 0.  1.
        -12    1    3    3    0    0 -0.20116144729E+01  0.25852546911E+02  0.21772289498E+02  0.33859021908E+02  0.00000000000E+00 0.  1.
</event>
<event>
 7    1  0.2412036E-009  0.4778728E+02  0.7816164E-02  0.1312668E+00
        -11   -1    0    0    0    0  0.00000000000E+00  0.00000000000E+00  0.45593999997E+02  0.45594000000E+02  0.51100000000E-03 0.  1.
         11   -1    0    0    0    0 -0.00000000000E+00 -0.00000000000E+00 -0.45593999997E+02  0.45594000000E+02  0.51100000000E-03 0. -1.
    9900012    2    1    2    0    0  0.73531728030E+01 -0.42482731932E+02 -0.49769962625E+01  0.47787283940E+02  0.20000058798E+02 0.  0.
         12    1    1    2    0    0 -0.73531728030E+01  0.42482731932E+02  0.49769962625E+01  0.43400716060E+02  0.00000000000E+00 0. -1.
         11    1    3    3    0    0 -0.13201285294E+01 -0.61946902097E+01  0.37788123625E+01  0.73753880753E+01  0.51100000000E-03 0. -1.
        -11    1    3    3    0    0  0.46973936061E+01 -0.16938633957E+02 -0.10674590913E+02  0.20565255127E+02  0.51100000000E-03 0.  1.
        -12    1    3    3    0    0  0.39759077263E+01 -0.19349407765E+02  0.19187822880E+01  0.19846640738E+02  0.00000000000E+00 0.  1.
</event>
<event>
 7    1  0.2412036E-009  0.4778726E+02  0.7816164E-02  0.1312668E+00
        -11   -1    0    0    0    0  0.00000000000E+00  0.00000000000E+00  0.45593999997E+02  0.45594000000E+02  0.51100000000E-03 0. -1.
         11   -1    0    0    0    0 -0.00000000000E+00 -0.00000000000E+00 -0.45593999997E+02  0.45594000000E+02  0.51100000000E-03 0.  1.
    9900012    2    1    2    0    0  0.94183967490E+01 -0.38834993525E+02 -0.16934017544E+02  0.47787264182E+02  0.19999968709E+02 0.  0.
         12    1    1    2    0    0 -0.94183967490E+01  0.38834993525E+02  0.16934017544E+02  0.43400735818E+02  0.00000000000E+00 0. -1.
         11    1    3    3    0    0  0.87514848068E+01 -0.87933167701E+01  0.14324312376E+01  0.12488505341E+02  0.51100000000E-03 0. -1.
        -11    1    3    3    0    0  0.68616754348E+00 -0.27035314400E+02 -0.17322863286E+02  0.32116360991E+02  0.51100000000E-03 0.  1.
        -12    1    3    3    0    0 -0.19255601372E-01 -0.30063623545E+01 -0.10435854960E+01  0.31823978495E+01  0.00000000000E+00 0.  1.
</event>
<event>
 7    1  0.2412036E-009  0.4778729E+02  0.7816164E-02  0.1312668E+00
        -11   -1    0    0    0    0  0.00000000000E+00  0.00000000000E+00  0.45593999997E+02  0.45594000000E+02  0.51100000000E-03 0.  1.
         11   -1    0    0    0    0 -0.00000000000E+00 -0.00000000000E+00 -0.45593999997E+02  0.45594000000E+02  0.51100000000E-03 0. -1.
    9900012    2    1    2    0    0  0.27953209096E+02  0.13133269211E+02  0.30491919848E+02  0.47787287621E+02  0.20000075580E+02 0.  0.
         12    1    1    2    0    0 -0.27953209096E+02 -0.13133269211E+02 -0.30491919848E+02  0.43400712379E+02  0.00000000000E+00 0. -1.
         11    1    3    3    0    0  0.72196914164E+01  0.72494553722E+01  0.12015315200E+02  0.15781202329E+02  0.51100000000E-03 0.  1.
        -11    1    3    3    0    0  0.72708148515E+00 -0.29672814642E+01  0.62198785927E+01  0.69296678667E+01  0.51100000000E-03 0. -1.
        -12    1    3    3    0    0  0.20006436195E+02  0.88510953035E+01  0.12256726056E+02  0.25076417425E+02  0.00000000000E+00 0.  1.
</event>
<event>
 7    1  0.2412036E-009  0.4778727E+02  0.7816164E-02  0.1312668E+00
        -11   -1    0    0    0    0  0.00000000000E+00  0.00000000000E+00  0.45593999997E+02  0.45594000000E+02  0.51100000000E-03 0.  1.
         11   -1    0    0    0    0 -0.00000000000E+00 -0.00000000000E+00 -0.45593999997E+02  0.45594000000E+02  0.51100000000E-03 0. -1.
    9900012    2    1    2    0    0  0.64817655797E+01 -0.34188397515E+01  0.42777580726E+02  0.47787272321E+02  0.20000005822E+02 0.  0.
         12    1    1    2    0    0 -0.64817655797E+01  0.34188397515E+01 -0.42777580726E+02  0.43400727679E+02  0.00000000000E+00 0. -1.
         11    1    3    3    0    0  0.89385927117E+01  0.33148783541E+01  0.26491632358E+02  0.28154812083E+02  0.51100000000E-03 0. -1.
        -11    1    3    3    0    0 -0.18903446413E+01 -0.55452142653E+01  0.17105950244E+02  0.18081380980E+02  0.51100000000E-03 0.  1.
         12    1    3    3    0    0 -0.56648249070E+00 -0.11885038402E+01 -0.82000187638E+00  0.15510792590E+01  0.00000000000E+00 0. -1.
</event>
<event>
 7    1  0.2412036E-009  0.4778727E+02  0.7816164E-02  0.1312668E+00
        -11   -1    0    0    0    0  0.00000000000E+00  0.00000000000E+00  0.45593999997E+02  0.45594000000E+02  0.51100000000E-03 0. -1.
         11   -1    0    0    0    0 -0.00000000000E+00 -0.00000000000E+00 -0.45593999997E+02  0.45594000000E+02  0.51100000000E-03 0.  1.
    9900012    2    1    2    0    0 -0.28457142182E+01  0.13798638044E+02 -0.41050248156E+02  0.47787269880E+02  0.19999994691E+02 0.  0.
         12    1    1    2    0    0  0.28457142182E+01 -0.13798638044E+02  0.41050248156E+02  0.43400730120E+02  0.00000000000E+00 0. -1.
         11    1    3    3    0    0  0.31686113194E+01  0.37301318913E+01 -0.33355544160E+02  0.33712702474E+02  0.51100000000E-03 0. -1.
        -11    1    3    3    0    0 -0.31150114488E+01  0.44245061659E+01 -0.30534213104E+01  0.62131258717E+01  0.51100000000E-03 0.  1.
         12    1    3    3    0    0 -0.28993140888E+01  0.56439999866E+01 -0.46412826857E+01  0.78614415347E+01  0.00000000000E+00 0. -1.
</event>
<event>
 7    1  0.2412036E-009  0.4778727E+02  0.7816164E-02  0.1312668E+00
        -11   -1    0    0    0    0  0.00000000000E+00  0.00000000000E+00  0.45593999997E+02  0.45594000000E+02  0.51100000000E-03 0.  1.
         11   -1    0    0    0    0 -0.00000000000E+00 -0.00000000000E+00 -0.45593999997E+02  0.45594000000E+02  0.51100000000E-03 0. -1.
    9900012    2    1    2    0    0 -0.60762314964E+01 -0.25381386982E+02  0.34676906567E+02  0.47787271396E+02  0.20000001602E+02 0.  0.
         12    1    1    2    0    0  0.60762314964E+01  0.25381386982E+02 -0.34676906567E+02  0.43400728604E+02  0.00000000000E+00 0. -1.
         11    1    3    3    0    0  0.13464127582E+01 -0.29382660023E+01  0.17065212093E+02  0.17368583663E+02  0.51100000000E-03 0. -1.
        -11    1    3    3    0    0 -0.55351197735E+01 -0.21319264666E+02  0.13719753999E+02  0.25949571227E+02  0.51100000000E-03 0.  1.
        -12    1    3    3    0    0 -0.18875244811E+01 -0.11238563133E+01  0.38919404751E+01  0.44691165057E+01  0.00000000000E+00 0.  1.
</event>
<event>
 7    1  0.2412036E-009  0.4778727E+02  0.7816164E-02  0.1312668E+00
        -11   -1    0    0    0    0  0.00000000000E+00  0.00000000000E+00  0.45593999997E+02  0.45594000000E+02  0.51100000000E-03 0.  1.
         11   -1    0    0    0    0 -0.00000000000E+00 -0.00000000000E+00 -0.45593999997E+02  0.45594000000E+02  0.51100000000E-03 0. -1.
    9900012    2    1    2    0    0  0.22394182151E+02  0.14013518536E+02  0.34434645917E+02  0.47787274944E+02  0.20000017781E+02 0.  0.
         12    1    1    2    0    0 -0.22394182151E+02 -0.14013518536E+02 -0.34434645917E+02  0.43400725056E+02  0.00000000000E+00 0. -1.
         11    1    3    3    0    0  0.15380828028E+02  0.10614993967E+02  0.91240137132E+01  0.20796528418E+02  0.51100000000E-03 0. -1.
        -11    1    3    3    0    0  0.66509595979E+01  0.21500444027E+01  0.24455236693E+02  0.25434554380E+02  0.51100000000E-03 0.  1.
        -12    1    3    3    0    0  0.36239452468E+00  0.12484801661E+01  0.85539551007E+00  0.15561921460E+01  0.00000000000E+00 0.  1.
</event>
<event>
 7    1  0.2412036E-009  0.4778729E+02  0.7816164E-02  0.1312668E+00
        -11   -1    0    0    0    0  0.00000000000E+00  0.00000000000E+00  0.45593999997E+02  0.45594000000E+02  0.51100000000E-03 0. -1.
         11   -1    0    0    0    0 -0.00000000000E+00 -0.00000000000E+00 -0.45593999997E+02  0.45594000000E+02  0.51100000000E-03 0.  1.
    9900012    2    1    2    0    0 -0.39616536796E+02 -0.14135025865E+02 -0.10693589894E+02  0.47787287924E+02  0.20000076959E+02 0.  0.
         12    1    1    2    0    0  0.39616536796E+02  0.14135025865E+02  0.10693589894E+02  0.43400712076E+02  0.00000000000E+00 0. -1.
         11    1    3    3    0    0 -0.10065016286E+02  0.15751422053E+01  0.12179591299E+01  0.10260070687E+02  0.51100000000E-03 0. -1.
        -11    1    3    3    0    0 -0.93606256187E+01 -0.11710321057E+02 -0.54929930482E+01  0.15966399222E+02  0.51100000000E-03 0.  1.
        -12    1    3    3    0    0 -0.20190894891E+02 -0.39998470135E+01 -0.64185559760E+01  0.21560818014E+02  0.00000000000E+00 0.  1.
</event>
<event>
 7    1  0.2412036E-009  0.4778728E+02  0.7816164E-02  0.1312668E+00
        -11   -1    0    0    0    0  0.00000000000E+00  0.00000000000E+00  0.45593999997E+02  0.45594000000E+02  0.51100000000E-03 0.  1.
         11   -1    0    0    0    0 -0.00000000000E+00 -0.00000000000E+00 -0.45593999997E+02  0.45594000000E+02  0.51100000000E-03 0. -1.
    9900012    2    1    2    0    0  0.39350388526E+02 -0.16900132424E+02 -0.70395523785E+01  0.47787275918E+02  0.20000022222E+02 0.  0.
         12    1    1    2    0    0 -0.39350388526E+02  0.16900132424E+02  0.70395523785E+01  0.43400724082E+02  0.00000000000E+00 0. -1.
         11    1    3    3    0    0  0.19525666260E+02 -0.86523650235E+01  0.38894799432E+01  0.21708134832E+02  0.51100000000E-03 0. -1.
        -11    1    3    3    0    0  0.43579357860E+01 -0.25456233046E+01  0.16865250110E+01  0.53212939402E+01  0.51100000000E-03 0.  1.
         12    1    3    3    0    0  0.15466786481E+02 -0.57021440958E+01 -0.12615557333E+02  0.20757847146E+02  0.00000000000E+00 0. -1.
</event>
<event>
 7    1  0.2412036E-009  0.4778728E+02  0.7816164E-02  0.1312668E+00
        -11   -1    0    0    0    0  0.00000000000E+00  0.00000000000E+00  0.45593999997E+02  0.45594000000E+02  0.51100000000E-03 0.  1.
         11   -1    0    0    0    0 -0.00000000000E+00 -0.00000000000E+00 -0.45593999997E+02  0.45594000000E+02  0.51100000000E-03 0. -1.
    9900012    2    1    2    0    0 -0.23187973900E+02 -0.27473506480E+02  0.24313510527E+02  0.47787280121E+02  0.20000041382E+02 0.  0.
         12    1    1    2    0    0  0.23187973900E+02  0.27473506480E+02 -0.24313510527E+02  0.43400719879E+02  0.00000000000E+00 0. -1.
         11    1    3    3    0    0 -0.67475856777E+01 -0.13420997291E+02  0.59565088387E+01  0.16159612575E+02  0.51100000000E-03 0. -1.
        -11    1    3    3    0    0 -0.10603899111E+02 -0.58813563871E+00  0.10697794834E+02  0.15074196312E+02  0.51100000000E-03 0.  1.
        -12    1    3    3    0    0 -0.58364891113E+01 -0.13464373551E+02  0.76592068544E+01  0.16553471234E+02  0.00000000000E+00 0.  1.
</event>
<event>
 7    1  0.2412036E-009  0.4778727E+02  0.7816164E-02  0.1312668E+00
        -11   -1    0    0    0    0  0.00000000000E+00  0.00000000000E+00  0.45593999997E+02  0.45594000000E+02  0.51100000000E-03 0.  1.
         11   -1    0    0    0    0 -0.00000000000E+00 -0.00000000000E+00 -0.45593999997E+02  0.45594000000E+02  0.51100000000E-03 0. -1.
    9900012    2    1    2    0    0  0.31072840009E+02  0.58065881322E+01  0.29738620776E+02  0.47787269388E+02  0.19999992448E+02 0.  0.
         12    1    1    2    0    0 -0.31072840009E+02 -0.58065881322E+01 -0.29738620776E+02  0.43400730612E+02  0.00000000000E+00 0. -1.
         11    1    3    3    0    0  0.96940329151E+01 -0.39381119342E+01  0.17749807106E+02  0.20604335766E+02  0.51100000000E-03 0. -1.
        -11    1    3    3    0    0  0.20454245387E+02  0.82166685541E+01  0.12480041082E+02  0.25330638013E+02  0.51100000000E-03 0.  1.
         12    1    3    3    0    0  0.92456170728E+00  0.15280315123E+01 -0.49122741265E+00  0.18522956093E+01  0.00000000000E+00 0. -1.
</event>
<event>
 7    1  0.2412036E-009  0.4778727E+02  0.7816164E-02  0.1312668E+00
        -11   -1    0    0    0    0  0.00000000000E+00  0.00000000000E+00  0.45593999997E+02  0.45594000000E+02  0.51100000000E-03 0.  1.
         11   -1    0    0    0    0 -0.00000000000E+00 -0.00000000000E+00 -0.45593999997E+02  0.45594000000E+02  0.51100000000E-03 0. -1.
    9900012    2    1    2    0    0 -0.12359267502E+02 -0.23946022309E+01  0.41534774517E+02  0.47787272964E+02  0.20000008754E+02 0.  0.
         12    1    1    2    0    0  0.12359267502E+02  0.23946022309E+01 -0.41534774517E+02  0.43400727036E+02  0.00000000000E+00 0. -1.
         11    1    3    3    0    0  0.49784622493E+01  0.16876850219E+00  0.16150078163E+02  0.16900845958E+02  0.51100000000E-03 0. -1.
        -11    1    3    3    0    0 -0.76781043216E+01 -0.17687196248E+01  0.12182944164E+02  0.14508817452E+02  0.51100000000E-03 0.  1.
         12    1    3    3    0    0 -0.96596254293E+01 -0.79465110836E+00  0.13201752190E+02  0.16377609554E+02  0.00000000000E+00 0. -1.
</event>
<event>
 7    1  0.2412036E-009  0.4778727E+02  0.7816164E-02  0.1312668E+00
        -11   -1    0    0    0    0  0.00000000000E+00  0.00000000000E+00  0.45593999997E+02  0.45594000000E+02  0.51100000000E-03 0.  1.
         11   -1    0    0    0    0 -0.00000000000E+00 -0.00000000000E+00 -0.45593999997E+02  0.45594000000E+02  0.51100000000E-03 0. -1.
    9900012    2    1    2    0    0 -0.39444932684E+02  0.61313377395E+01  0.17033132768E+02  0.47787266956E+02  0.19999981357E+02 0.  0.
         12    1    1    2    0    0  0.39444932684E+02 -0.61313377395E+01 -0.17033132768E+02  0.43400733044E+02  0.00000000000E+00 0. -1.
         11    1    3    3    0    0 -0.21689387876E+02  0.37041940878E+01  0.74698439143E+01  0.23236806335E+02  0.51100000000E-03 0. -1.
        -11    1    3    3    0    0 -0.36330979509E+01  0.68760256475E+01  0.27185618900E+01  0.82383073769E+01  0.51100000000E-03 0.  1.
        -12    1    3    3    0    0 -0.14122446857E+02 -0.44488819959E+01  0.68447269640E+01  0.16312153244E+02  0.00000000000E+00 0.  1.
</event>
<event>
 7    1  0.2412036E-009  0.4778727E+02  0.7816164E-02  0.1312668E+00
        -11   -1    0    0    0    0  0.00000000000E+00  0.00000000000E+00  0.45593999997E+02  0.45594000000E+02  0.51100000000E-03 0.  1.
         11   -1    0    0    0    0 -0.00000000000E+00 -0.00000000000E+00 -0.45593999997E+02  0.45594000000E+02  0.51100000000E-03 0. -1.
    9900012    2    1    2    0    0 -0.43096446732E+02 -0.47541426224E+01  0.19280943739E+01  0.47787272576E+02  0.20000006982E+02 0.  0.
         12    1    1    2    0    0  0.43096446732E+02  0.47541426224E+01 -0.19280943739E+01  0.43400727424E+02  0.00000000000E+00 0. -1.
         11    1    3    3    0    0 -0.75587275517E+01  0.12209128873E+01 -0.66729542482E+01  0.10156441756E+02  0.51100000000E-03 0. -1.
        -11    1    3    3    0    0 -0.75317067156E+01  0.82635634383E+00  0.79455351926E-01  0.75773203885E+01  0.51100000000E-03 0.  1.
         12    1    3    3    0    0 -0.28006012465E+02 -0.68014118536E+01  0.85215932702E+01  0.30053510432E+02  0.00000000000E+00 0. -1.
</event>
<event>
 7    1  0.2412036E-009  0.4778727E+02  0.7816164E-02  0.1312668E+00
        -11   -1    0    0    0    0  0.00000000000E+00  0.00000000000E+00  0.45593999997E+02  0.45594000000E+02  0.51100000000E-03 0. -1.
         11   -1    0    0    0    0 -0.00000000000E+00 -0.00000000000E+00 -0.45593999997E+02  0.45594000000E+02  0.51100000000E-03 0.  1.
    9900012    2    1    2    0    0 -0.13549629386E+02  0.76706973730E+01 -0.40511615408E+02  0.47787273766E+02  0.20000012409E+02 0.  0.
         12    1    1    2    0    0  0.13549629386E+02 -0.76706973730E+01  0.40511615408E+02  0.43400726234E+02  0.00000000000E+00 0. -1.
         11    1    3    3    0    0 -0.13295691495E+02 -0.19078638443E+01 -0.26952625881E+02  0.30114106311E+02  0.51100000000E-03 0. -1.
        -11    1    3    3    0    0 -0.14631631379E+01  0.94032635820E+01 -0.13408129963E+02  0.16442024259E+02  0.51100000000E-03 0.  1.
         12    1    3    3    0    0  0.12092252475E+01  0.17529763530E+00 -0.15085956330E+00  0.12311431956E+01  0.00000000000E+00 0. -1.
</event>
<event>
 7    1  0.2412036E-009  0.4778727E+02  0.7816164E-02  0.1312668E+00
        -11   -1    0    0    0    0  0.00000000000E+00  0.00000000000E+00  0.45593999997E+02  0.45594000000E+02  0.51100000000E-03 0.  1.
         11   -1    0    0    0    0 -0.00000000000E+00 -0.00000000000E+00 -0.45593999997E+02  0.45594000000E+02  0.51100000000E-03 0. -1.
    9900012    2    1    2    0    0 -0.11365140924E+02  0.37730765813E+02  0.18189168262E+02  0.47787274671E+02  0.20000016535E+02 0.  0.
         12    1    1    2    0    0  0.11365140924E+02 -0.37730765813E+02 -0.18189168262E+02  0.43400725329E+02  0.00000000000E+00 0. -1.
         11    1    3    3    0    0 -0.81598570784E+01  0.20903162832E+02  0.73214079317E+00  0.22451314312E+02  0.51100000000E-03 0. -1.
        -11    1    3    3    0    0  0.39900847202E+00  0.97091555831E+01  0.12889909009E+02  0.16142387197E+02  0.51100000000E-03 0.  1.
         12    1    3    3    0    0 -0.36042923173E+01  0.71184473974E+01  0.45671184589E+01  0.91935731615E+01  0.00000000000E+00 0. -1.
</event>
<event>
 7    1  0.2412036E-009  0.4778727E+02  0.7816164E-02  0.1312668E+00
        -11   -1    0    0    0    0  0.00000000000E+00  0.00000000000E+00  0.45593999997E+02  0.45594000000E+02  0.51100000000E-03 0.  1.
         11   -1    0    0    0    0 -0.00000000000E+00 -0.00000000000E+00 -0.45593999997E+02  0.45594000000E+02  0.51100000000E-03 0. -1.
    9900012    2    1    2    0    0  0.16584713067E+02  0.39962316985E+02  0.34035131761E+01  0.47787269727E+02  0.19999993992E+02 0.  0.
         12    1    1    2    0    0 -0.16584713067E+02 -0.39962316985E+02 -0.34035131761E+01  0.43400730273E+02  0.00000000000E+00 0. -1.
         11    1    3    3    0    0  0.25301544580E+01  0.16578491852E+02  0.32042488535E+01  0.17073818690E+02  0.51100000000E-03 0. -1.
        -11    1    3    3    0    0  0.35078419653E+01  0.18949306748E+02  0.20782889210E+00  0.19272373351E+02  0.51100000000E-03 0.  1.
         12    1    3    3    0    0  0.10546716643E+02  0.44345183849E+01 -0.85645695417E-02  0.11441077686E+02  0.00000000000E+00 0. -1.
</event>
<event>
 7    1  0.2412036E-009  0.4778727E+02  0.7816164E-02  0.1312668E+00
        -11   -1    0    0    0    0  0.00000000000E+00  0.00000000000E+00  0.45593999997E+02  0.45594000000E+02  0.51100000000E-03 0.  1.
         11   -1    0    0    0    0 -0.00000000000E+00 -0.00000000000E+00 -0.45593999997E+02  0.45594000000E+02  0.51100000000E-03 0. -1.
    9900012    2    1    2    0    0 -0.30661771203E+02  0.30041604261E+02  0.64016273058E+01  0.47787273830E+02  0.20000012702E+02 0.  0.
         12    1    1    2    0    0  0.30661771203E+02 -0.30041604261E+02 -0.64016273058E+01  0.43400726170E+02  0.00000000000E+00 0. -1.
         11    1    3    3    0    0 -0.55766511564E+01  0.20117960658E+01  0.23892562126E+01  0.63917843394E+01  0.51100000000E-03 0.  1.
        -11    1    3    3    0    0 -0.26433715985E+01 -0.21419888331E+01 -0.77426736093E+00  0.34892720983E+01  0.51100000000E-03 0. -1.
        -12    1    3    3    0    0 -0.22441748448E+02  0.30171797028E+02  0.47866384542E+01  0.37906217393E+02  0.00000000000E+00 0.  1.
</event>
<event>
 7    1  0.2412036E-009  0.4778727E+02  0.7816164E-02  0.1312668E+00
        -11   -1    0    0    0    0  0.00000000000E+00  0.00000000000E+00  0.45593999997E+02  0.45594000000E+02  0.51100000000E-03 0. -1.
         11   -1    0    0    0    0 -0.00000000000E+00 -0.00000000000E+00 -0.45593999997E+02  0.45594000000E+02  0.51100000000E-03 0.  1.
    9900012    2    1    2    0    0  0.93683447785E+01 -0.58161728134E+01 -0.41976535897E+02  0.47787270559E+02  0.19999997788E+02 0.  0.
         12    1    1    2    0    0 -0.93683447785E+01  0.58161728134E+01  0.41976535897E+02  0.43400729441E+02  0.00000000000E+00 0. -1.
         11    1    3    3    0    0 -0.14179822889E+01  0.48515988190E+01 -0.74977495928E+01  0.90423964794E+01  0.51100000000E-03 0. -1.
        -11    1    3    3    0    0  0.78607663763E+01 -0.76160172341E+01 -0.32054357092E+02  0.33871480266E+02  0.51100000000E-03 0.  1.
        -12    1    3    3    0    0  0.29255606911E+01 -0.30517543984E+01 -0.24244292117E+01  0.48733938142E+01  0.00000000000E+00 0.  1.
</event>
<event>
 7    1  0.2412036E-009  0.4778726E+02  0.7816164E-02  0.1312668E+00
        -11   -1    0    0    0    0  0.00000000000E+00  0.00000000000E+00  0.45593999997E+02  0.45594000000E+02  0.51100000000E-03 0.  1.
         11   -1    0    0    0    0 -0.00000000000E+00 -0.00000000000E+00 -0.45593999997E+02  0.45594000000E+02  0.51100000000E-03 0. -1.
    9900012    2    1    2    0    0 -0.43016151580E+02 -0.53202380168E+01 -0.22203152267E+01  0.47787262345E+02  0.19999960336E+02 0.  0.
         12    1    1    2    0    0  0.43016151580E+02  0.53202380168E+01  0.22203152267E+01  0.43400737655E+02  0.00000000000E+00 0. -1.
         11    1    3    3    0    0 -0.78718856371E+01 -0.58623352810E+00 -0.86712468617E+01  0.11726072472E+02  0.51100000000E-03 0. -1.
        -11    1    3    3    0    0 -0.22927071302E+02 -0.25485263957E+01  0.41559527598E+01  0.23439657183E+02  0.51100000000E-03 0.  1.
         12    1    3    3    0    0 -0.12217194641E+02 -0.21854780931E+01  0.22949788752E+01  0.12621532689E+02  0.00000000000E+00 0. -1.
</event>
<event>
 7    1  0.2412036E-009  0.4778728E+02  0.7816164E-02  0.1312668E+00
        -11   -1    0    0    0    0  0.00000000000E+00  0.00000000000E+00  0.45593999997E+02  0.45594000000E+02  0.51100000000E-03 0. -1.
         11   -1    0    0    0    0 -0.00000000000E+00 -0.00000000000E+00 -0.45593999997E+02  0.45594000000E+02  0.51100000000E-03 0.  1.
    9900012    2    1    2    0    0  0.14706335678E+02 -0.40802439101E+02 -0.15835185834E+01  0.47787275619E+02  0.20000020859E+02 0.  0.
         12    1    1    2    0    0 -0.14706335678E+02  0.40802439101E+02  0.15835185834E+01  0.43400724381E+02  0.00000000000E+00 0. -1.
         11    1    3    3    0    0  0.53019561228E+01 -0.11445722811E+00 -0.16802009327E+01  0.55629951124E+01  0.51100000000E-03 0. -1.
        -11    1    3    3    0    0  0.90327180102E+01 -0.29948854418E+02 -0.17092314274E+01  0.31328028152E+02  0.51100000000E-03 0.  1.
         12    1    3    3    0    0  0.37166154479E+00 -0.10739127455E+02  0.18059137766E+01  0.10896252355E+02  0.00000000000E+00 0. -1.
</event>
<event>
 7    1  0.2412036E-009  0.4778733E+02  0.7816164E-02  0.1312667E+00
        -11   -1    0    0    0    0  0.00000000000E+00  0.00000000000E+00  0.45593999997E+02  0.45594000000E+02  0.51100000000E-03 0.  1.
         11   -1    0    0    0    0 -0.00000000000E+00 -0.00000000000E+00 -0.45593999997E+02  0.45594000000E+02  0.51100000000E-03 0. -1.
    9900012    2    1    2    0    0  0.25569824504E+02 -0.62845506435E+01  0.34500815737E+02  0.47787334239E+02  0.20000288127E+02 0.  0.
         12    1    1    2    0    0 -0.25569824504E+02  0.62845506435E+01 -0.34500815737E+02  0.43400665761E+02  0.00000000000E+00 0. -1.
         11    1    3    3    0    0 -0.91963708531E+00 -0.33130908131E+00  0.13293209498E+02  0.13329100386E+02  0.51100000000E-03 0. -1.
        -11    1    3    3    0    0  0.17647206882E+02 -0.38321229125E+01  0.13725471035E+02  0.22682540249E+02  0.51100000000E-03 0.  1.
         12    1    3    3    0    0  0.88422547079E+01 -0.21211186497E+01  0.74821352042E+01  0.11775693604E+02  0.00000000000E+00 0. -1.
</event>
<event>
 7    1  0.2412036E-009  0.4778727E+02  0.7816164E-02  0.1312668E+00
        -11   -1    0    0    0    0  0.00000000000E+00  0.00000000000E+00  0.45593999997E+02  0.45594000000E+02  0.51100000000E-03 0.  1.
         11   -1    0    0    0    0 -0.00000000000E+00 -0.00000000000E+00 -0.45593999997E+02  0.45594000000E+02  0.51100000000E-03 0. -1.
    9900012    2    1    2    0    0  0.22764190521E+02  0.95489419708E+00  0.36939179367E+02  0.47787272295E+02  0.20000005701E+02 0.  0.
         12    1    1    2    0    0 -0.22764190521E+02 -0.95489419708E+00 -0.36939179367E+02  0.43400727705E+02  0.00000000000E+00 0. -1.
         11    1    3    3    0    0  0.46448308915E+01  0.49303993160E+01  0.23198188810E+01  0.71599477182E+01  0.51100000000E-03 0. -1.
        -11    1    3    3    0    0  0.15682541929E+02 -0.31212059206E+01  0.34519537660E+02  0.38043166643E+02  0.51100000000E-03 0.  1.
        -12    1    3    3    0    0  0.24368177008E+01 -0.85429919833E+00  0.99822826731E-01  0.25841579333E+01  0.00000000000E+00 0.  1.
</event>
<event>
 7    1  0.2412036E-009  0.4778726E+02  0.7816164E-02  0.1312668E+00
        -11   -1    0    0    0    0  0.00000000000E+00  0.00000000000E+00  0.45593999997E+02  0.45594000000E+02  0.51100000000E-03 0.  1.
         11   -1    0    0    0    0 -0.00000000000E+00 -0.00000000000E+00 -0.45593999997E+02  0.45594000000E+02  0.51100000000E-03 0. -1.
    9900012    2    1    2    0    0 -0.89577714712E+01  0.16838733902E+02  0.38985122612E+02  0.47787257906E+02  0.19999940099E+02 0.  0.
         12    1    1    2    0    0  0.89577714712E+01 -0.16838733902E+02 -0.38985122612E+02  0.43400742094E+02  0.00000000000E+00 0. -1.
         11    1    3    3    0    0 -0.32278950557E+01 -0.22322955595E+01  0.12478080074E+02  0.13080708412E+02  0.51100000000E-03 0. -1.
        -11    1    3    3    0    0 -0.30338047107E+01  0.15091862523E+02  0.25514502992E+02  0.29798626623E+02  0.51100000000E-03 0.  1.
        -12    1    3    3    0    0 -0.26960717048E+01  0.39791669382E+01  0.99253954640E+00  0.49079228714E+01  0.00000000000E+00 0.  1.
</event>
<event>
 7    1  0.2412036E-009  0.4778727E+02  0.7816164E-02  0.1312668E+00
        -11   -1    0    0    0    0  0.00000000000E+00  0.00000000000E+00  0.45593999997E+02  0.45594000000E+02  0.51100000000E-03 0.  1.
         11   -1    0    0    0    0 -0.00000000000E+00 -0.00000000000E+00 -0.45593999997E+02  0.45594000000E+02  0.51100000000E-03 0. -1.
    9900012    2    1    2    0    0 -0.15892835990E+02  0.40331904545E+02 -0.20924368250E+01  0.47787273602E+02  0.20000011661E+02 0.  0.
         12    1    1    2    0    0  0.15892835990E+02 -0.40331904545E+02  0.20924368250E+01  0.43400726398E+02  0.00000000000E+00 0. -1.
         11    1    3    3    0    0 -0.12070712378E+02  0.22768152229E+02 -0.89788550193E+01  0.27289387881E+02  0.51100000000E-03 0. -1.
        -11    1    3    3    0    0 -0.57781453528E+01  0.11062886081E+02  0.50605586297E+01  0.13467875336E+02  0.51100000000E-03 0.  1.
         12    1    3    3    0    0  0.19560217414E+01  0.65008662349E+01  0.18258595646E+01  0.70300103846E+01  0.00000000000E+00 0. -1.
</event>
<event>
 7    1  0.2412036E-009  0.4778722E+02  0.7816164E-02  0.1312668E+00
        -11   -1    0    0    0    0  0.00000000000E+00  0.00000000000E+00  0.45593999997E+02  0.45594000000E+02  0.51100000000E-03 0. -1.
         11   -1    0    0    0    0 -0.00000000000E+00 -0.00000000000E+00 -0.45593999997E+02  0.45594000000E+02  0.51100000000E-03 0.  1.
    9900012    2    1    2    0    0 -0.37813782053E+02 -0.14697429540E+01  0.21250547745E+02  0.47787216171E+02  0.19999749810E+02 0.  0.
         12    1    1    2    0    0  0.37813782053E+02  0.14697429540E+01 -0.21250547745E+02  0.43400783829E+02  0.00000000000E+00 0. -1.
         11    1    3    3    0    0 -0.75658989079E+01 -0.77248436008E+01  0.71043716587E+01  0.12937856541E+02  0.51100000000E-03 0. -1.
        -11    1    3    3    0    0 -0.25204114783E+02  0.23201967608E+01  0.12573830421E+02  0.28261845777E+02  0.51100000000E-03 0.  1.
         12    1    3    3    0    0 -0.50437683617E+01  0.39349038860E+01  0.15723456653E+01  0.65875138535E+01  0.00000000000E+00 0. -1.
</event>
<event>
 7    1  0.2412036E-009  0.4778727E+02  0.7816164E-02  0.1312668E+00
        -11   -1    0    0    0    0  0.00000000000E+00  0.00000000000E+00  0.45593999997E+02  0.45594000000E+02  0.51100000000E-03 0. -1.
         11   -1    0    0    0    0 -0.00000000000E+00 -0.00000000000E+00 -0.45593999997E+02  0.45594000000E+02  0.51100000000E-03 0.  1.
    9900012    2    1    2    0    0 -0.37956777664E+02  0.56345518050E+01 -0.20277035395E+02  0.47787270639E+02  0.19999998151E+02 0.  0.
         12    1    1    2    0    0  0.37956777664E+02 -0.56345518050E+01  0.20277035395E+02  0.43400729361E+02  0.00000000000E+00 0. -1.
         11    1    3    3    0    0 -0.32188160960E+02  0.92981563209E+00 -0.77633798516E+01  0.33124195538E+02  0.51100000000E-03 0.  1.
        -11    1    3    3    0    0 -0.23053983729E+01  0.28858525140E+01 -0.53543276522E+01  0.65047545118E+01  0.51100000000E-03 0. -1.
        -12    1    3    3    0    0 -0.34632183313E+01  0.18188836589E+01 -0.71593278913E+01  0.81583205888E+01  0.00000000000E+00 0.  1.
</event>
<event>
 7    1  0.2412036E-009  0.4778727E+02  0.7816164E-02  0.1312668E+00
        -11   -1    0    0    0    0  0.00000000000E+00  0.00000000000E+00  0.45593999997E+02  0.45594000000E+02  0.51100000000E-03 0.  1.
         11   -1    0    0    0    0 -0.00000000000E+00 -0.00000000000E+00 -0.45593999997E+02  0.45594000000E+02  0.51100000000E-03 0. -1.
    9900012    2    1    2    0    0 -0.86577002436E+01  0.28967594994E+02  0.31137529616E+02  0.47787273234E+02  0.20000009981E+02 0.  0.
         12    1    1    2    0    0  0.86577002436E+01 -0.28967594994E+02 -0.31137529616E+02  0.43400726766E+02  0.00000000000E+00 0. -1.
         11    1    3    3    0    0 -0.17079099904E+01  0.16602110495E+02  0.42613206334E+01  0.17225152633E+02  0.51100000000E-03 0. -1.
        -11    1    3    3    0    0 -0.35650404574E+01  0.93240368998E+01  0.19144108235E+02  0.21590369565E+02  0.51100000000E-03 0.  1.
         12    1    3    3    0    0 -0.33847497959E+01  0.30414475995E+01  0.77321007477E+01  0.89717510361E+01  0.00000000000E+00 0. -1.
</event>
<event>
 7    1  0.2412036E-009  0.4778727E+02  0.7816164E-02  0.1312668E+00
        -11   -1    0    0    0    0  0.00000000000E+00  0.00000000000E+00  0.45593999997E+02  0.45594000000E+02  0.51100000000E-03 0. -1.
         11   -1    0    0    0    0 -0.00000000000E+00 -0.00000000000E+00 -0.45593999997E+02  0.45594000000E+02  0.51100000000E-03 0.  1.
    9900012    2    1    2    0    0 -0.18192649357E+02 -0.23594850696E+02 -0.31558416299E+02  0.47787272941E+02  0.20000008646E+02 0.  0.
         12    1    1    2    0    0  0.18192649357E+02  0.23594850696E+02  0.31558416299E+02  0.43400727059E+02  0.00000000000E+00 0. -1.
         11    1    3    3    0    0 -0.73682285688E+01 -0.46883275623E+01 -0.71809424422E-01  0.87336340906E+01  0.51100000000E-03 0. -1.
        -11    1    3    3    0    0 -0.81859027731E+01 -0.14705434377E+02 -0.17805776732E+02  0.24501112010E+02  0.51100000000E-03 0.  1.
         12    1    3    3    0    0 -0.26385180150E+01 -0.42010887563E+01 -0.13680830142E+02  0.14552526840E+02  0.00000000000E+00 0. -1.
</event>
<event>
 7    1  0.2412036E-009  0.4778727E+02  0.7816164E-02  0.1312668E+00
        -11   -1    0    0    0    0  0.00000000000E+00  0.00000000000E+00  0.45593999997E+02  0.45594000000E+02  0.51100000000E-03 0.  1.
         11   -1    0    0    0    0 -0.00000000000E+00 -0.00000000000E+00 -0.45593999997E+02  0.45594000000E+02  0.51100000000E-03 0. -1.
    9900012    2    1    2    0    0  0.36748035014E+02  0.38657800386E+01  0.22765343180E+02  0.47787272094E+02  0.20000004784E+02 0.  0.
         12    1    1    2    0    0 -0.36748035014E+02 -0.38657800386E+01 -0.22765343180E+02  0.43400727906E+02  0.00000000000E+00 0. -1.
         11    1    3    3    0    0  0.30608146578E+02  0.35637919246E+01  0.10434948342E+02  0.32533788543E+02  0.51100000000E-03 0. -1.
        -11    1    3    3    0    0 -0.10365708072E+01  0.20113856361E-01  0.45433147946E+01  0.46601065642E+01  0.51100000000E-03 0.  1.
         12    1    3    3    0    0  0.71764592435E+01  0.28187425763E+00  0.77870800433E+01  0.10593376986E+02  0.00000000000E+00 0. -1.
</event>
<event>
 7    1  0.2412036E-009  0.4778727E+02  0.7816164E-02  0.1312668E+00
        -11   -1    0    0    0    0  0.00000000000E+00  0.00000000000E+00  0.45593999997E+02  0.45594000000E+02  0.51100000000E-03 0.  1.
         11   -1    0    0    0    0 -0.00000000000E+00 -0.00000000000E+00 -0.45593999997E+02  0.45594000000E+02  0.51100000000E-03 0. -1.
    9900012    2    1    2    0    0 -0.28682840457E+02  0.21147483580E+02  0.24773009315E+02  0.47787269719E+02  0.19999993956E+02 0.  0.
         12    1    1    2    0    0  0.28682840457E+02 -0.21147483580E+02 -0.24773009315E+02  0.43400730281E+02  0.00000000000E+00 0. -1.
         11    1    3    3    0    0 -0.90509684264E+01  0.12648602826E+02  0.72448159638E+01  0.17157929407E+02  0.51100000000E-03 0. -1.
        -11    1    3    3    0    0 -0.19125028833E+02  0.46546341844E+01  0.18062843155E+02  0.26715138973E+02  0.51100000000E-03 0.  1.
        -12    1    3    3    0    0 -0.50684319746E+00  0.38442465690E+01 -0.53464980383E+00  0.39142013391E+01  0.00000000000E+00 0.  1.
</event>
<event>
 7    1  0.2412036E-009  0.4778727E+02  0.7816164E-02  0.1312668E+00
        -11   -1    0    0    0    0  0.00000000000E+00  0.00000000000E+00  0.45593999997E+02  0.45594000000E+02  0.51100000000E-03 0.  1.
         11   -1    0    0    0    0 -0.00000000000E+00 -0.00000000000E+00 -0.45593999997E+02  0.45594000000E+02  0.51100000000E-03 0. -1.
    9900012    2    1    2    0    0 -0.24633709139E+02  0.25965261496E+02  0.24548092838E+02  0.47787270830E+02  0.19999999022E+02 0.  0.
         12    1    1    2    0    0  0.24633709139E+02 -0.25965261496E+02 -0.24548092838E+02  0.43400729170E+02  0.00000000000E+00 0. -1.
         11    1    3    3    0    0 -0.63698292497E+01  0.27243989555E+01  0.14110250276E+02  0.15719295069E+02  0.51100000000E-03 0. -1.
        -11    1    3    3    0    0 -0.13352023182E+02  0.13580989064E+02  0.39925393927E+01  0.19459192122E+02  0.51100000000E-03 0.  1.
        -12    1    3    3    0    0 -0.49118567070E+01  0.96598734773E+01  0.64453031691E+01  0.12608783639E+02  0.00000000000E+00 0.  1.
</event>
<event>
 7    1  0.2412036E-009  0.4778727E+02  0.7816164E-02  0.1312668E+00
        -11   -1    0    0    0    0  0.00000000000E+00  0.00000000000E+00  0.45593999997E+02  0.45594000000E+02  0.51100000000E-03 0.  1.
         11   -1    0    0    0    0 -0.00000000000E+00 -0.00000000000E+00 -0.45593999997E+02  0.45594000000E+02  0.51100000000E-03 0. -1.
    9900012    2    1    2    0    0  0.38475590334E+02 -0.16953300714E+02  0.10762812752E+02  0.47787267345E+02  0.19999983133E+02 0.  0.
         12    1    1    2    0    0 -0.38475590334E+02  0.16953300714E+02 -0.10762812752E+02  0.43400732655E+02  0.00000000000E+00 0. -1.
         11    1    3    3    0    0 -0.63679490621E+00 -0.14451557445E+01  0.33469797125E+00  0.16143128171E+01  0.51100000000E-03 0. -1.
        -11    1    3    3    0    0  0.13829782756E+02 -0.71639969566E+01  0.11759197975E+02  0.19515749556E+02  0.51100000000E-03 0.  1.
        -12    1    3    3    0    0  0.25282602484E+02 -0.83441480130E+01 -0.13310831936E+01  0.26657204972E+02  0.00000000000E+00 0.  1.
</event>
<event>
 7    1  0.2412036E-009  0.4778727E+02  0.7816164E-02  0.1312668E+00
        -11   -1    0    0    0    0  0.00000000000E+00  0.00000000000E+00  0.45593999997E+02  0.45594000000E+02  0.51100000000E-03 0.  1.
         11   -1    0    0    0    0 -0.00000000000E+00 -0.00000000000E+00 -0.45593999997E+02  0.45594000000E+02  0.51100000000E-03 0. -1.
    9900012    2    1    2    0    0  0.33315732902E+02  0.27797730660E+02 -0.98568219489E+00  0.47787268923E+02  0.19999990329E+02 0.  0.
         12    1    1    2    0    0 -0.33315732902E+02 -0.27797730660E+02  0.98568219489E+00  0.43400731077E+02  0.00000000000E+00 0. -1.
         11    1    3    3    0    0 -0.13302221631E+01  0.43906269286E+01  0.33054351942E+01  0.56544670759E+01  0.51100000000E-03 0. -1.
        -11    1    3    3    0    0  0.21323712976E+02  0.16048112254E+02 -0.23835677639E+01  0.26794104529E+02  0.51100000000E-03 0.  1.
         12    1    3    3    0    0  0.13322242089E+02  0.73589914776E+01 -0.19075496252E+01  0.15338697318E+02  0.00000000000E+00 0. -1.
</event>
<event>
 7    1  0.2412036E-009  0.4778728E+02  0.7816164E-02  0.1312668E+00
        -11   -1    0    0    0    0  0.00000000000E+00  0.00000000000E+00  0.45593999997E+02  0.45594000000E+02  0.51100000000E-03 0.  1.
         11   -1    0    0    0    0 -0.00000000000E+00 -0.00000000000E+00 -0.45593999997E+02  0.45594000000E+02  0.51100000000E-03 0. -1.
    9900012    2    1    2    0    0  0.32633146185E+02 -0.11372538793E+02  0.26255770863E+02  0.47787281433E+02  0.20000047365E+02 0.  0.
         12    1    1    2    0    0 -0.32633146185E+02  0.11372538793E+02 -0.26255770863E+02  0.43400718567E+02  0.00000000000E+00 0. -1.
         11    1    3    3    0    0  0.14819380180E+02  0.18936789824E+01  0.17439040353E+02  0.22963453087E+02  0.51100000000E-03 0. -1.
        -11    1    3    3    0    0  0.14974185379E+02 -0.78998672286E+01  0.50027783745E+01  0.17653949182E+02  0.51100000000E-03 0.  1.
         12    1    3    3    0    0  0.28395806258E+01 -0.53663505467E+01  0.38139521362E+01  0.71698791634E+01  0.00000000000E+00 0. -1.
</event>
<event>
 7    1  0.2412036E-009  0.4778727E+02  0.7816164E-02  0.1312668E+00
        -11   -1    0    0    0    0  0.00000000000E+00  0.00000000000E+00  0.45593999997E+02  0.45594000000E+02  0.51100000000E-03 0.  1.
         11   -1    0    0    0    0 -0.00000000000E+00 -0.00000000000E+00 -0.45593999997E+02  0.45594000000E+02  0.51100000000E-03 0. -1.
    9900012    2    1    2    0    0 -0.37396523237E+02 -0.18089098304E+02  0.12566146066E+02  0.47787268962E+02  0.19999990507E+02 0.  0.
         12    1    1    2    0    0  0.37396523237E+02  0.18089098304E+02 -0.12566146066E+02  0.43400731038E+02  0.00000000000E+00 0. -1.
         11    1    3    3    0    0 -0.13963150973E+02 -0.79076570858E+01  0.13178804630E+02  0.20764910725E+02  0.51100000000E-03 0. -1.
        -11    1    3    3    0    0 -0.21714408435E+02 -0.11730716290E+02 -0.26213505562E+00  0.24681854740E+02  0.51100000000E-03 0.  1.
        -12    1    3    3    0    0 -0.17189638289E+01  0.15492750717E+01 -0.35052350841E+00  0.23405034977E+01  0.00000000000E+00 0.  1.
</event>
<event>
 7    1  0.2412036E-009  0.4778726E+02  0.7816164E-02  0.1312668E+00
        -11   -1    0    0    0    0  0.00000000000E+00  0.00000000000E+00  0.45593999997E+02  0.45594000000E+02  0.51100000000E-03 0.  1.
         11   -1    0    0    0    0 -0.00000000000E+00 -0.00000000000E+00 -0.45593999997E+02  0.45594000000E+02  0.51100000000E-03 0. -1.
    9900012    2    1    2    0    0  0.12339145363E+02 -0.31178244578E+02  0.27555158897E+02  0.47787260086E+02  0.19999950036E+02 0.  0.
         12    1    1    2    0    0 -0.12339145363E+02  0.31178244578E+02 -0.27555158897E+02  0.43400739914E+02  0.00000000000E+00 0. -1.
         11    1    3    3    0    0 -0.57128832684E+00 -0.26542101126E+01  0.64000110873E+00  0.27894091408E+01  0.51100000000E-03 0. -1.
        -11    1    3    3    0    0  0.10297270624E+02 -0.24120119596E+02  0.11286600818E+02  0.28551730419E+02  0.51100000000E-03 0.  1.
        -12    1    3    3    0    0  0.26131630651E+01 -0.44039148690E+01  0.15628556970E+02  0.16446120526E+02  0.00000000000E+00 0.  1.
</event>
<event>
 7    1  0.2412036E-009  0.4778728E+02  0.7816164E-02  0.1312668E+00
        -11   -1    0    0    0    0  0.00000000000E+00  0.00000000000E+00  0.45593999997E+02  0.45594000000E+02  0.51100000000E-03 0.  1.
         11   -1    0    0    0    0 -0.00000000000E+00 -0.00000000000E+00 -0.45593999997E+02  0.45594000000E+02  0.51100000000E-03 0. -1.
    9900012    2    1    2    0    0  0.24783629169E+02  0.34645544357E+02 -0.83114911303E+01  0.47787275313E+02  0.20000019461E+02 0.  0.
         12    1    1    2    0    0 -0.24783629169E+02 -0.34645544357E+02  0.83114911303E+01  0.43400724687E+02  0.00000000000E+00 0. -1.
         11    1    3    3    0    0 -0.14040514028E+01  0.13729975922E+01 -0.28109279901E+01  0.34289647354E+01  0.51100000000E-03 0. -1.
        -11    1    3    3    0    0  0.26267547336E+02  0.27456205869E+02 -0.33062374224E+01  0.38141296385E+02  0.51100000000E-03 0.  1.
        -12    1    3    3    0    0 -0.79866763734E-01  0.58163408959E+01 -0.21943257178E+01  0.62170141928E+01  0.00000000000E+00 0.  1.
</event>
<event>
 7    1  0.2412036E-009  0.4778727E+02  0.7816164E-02  0.1312668E+00
        -11   -1    0    0    0    0  0.00000000000E+00  0.00000000000E+00  0.45593999997E+02  0.45594000000E+02  0.51100000000E-03 0.  1.
         11   -1    0    0    0    0 -0.00000000000E+00 -0.00000000000E+00 -0.45593999997E+02  0.45594000000E+02  0.51100000000E-03 0. -1.
    9900012    2    1    2    0    0 -0.40686523365E+02 -0.96361825776E+01  0.11635022139E+02  0.47787274910E+02  0.20000017625E+02 0.  0.
         12    1    1    2    0    0  0.40686523365E+02  0.96361825776E+01 -0.11635022139E+02  0.43400725090E+02  0.00000000000E+00 0. -1.
         11    1    3    3    0    0 -0.20878507797E+01 -0.45806975980E+01  0.65253100048E+01  0.82414551071E+01  0.51100000000E-03 0. -1.
        -11    1    3    3    0    0 -0.20577756157E+02 -0.47989200508E+01  0.16521449628E+01  0.21194415900E+02  0.51100000000E-03 0.  1.
         12    1    3    3    0    0 -0.18020916428E+02 -0.25656492884E+00  0.34575671712E+01  0.18351403903E+02  0.00000000000E+00 0. -1.
</event>
<event>
 7    1  0.2412036E-009  0.4778727E+02  0.7816164E-02  0.1312668E+00
        -11   -1    0    0    0    0  0.00000000000E+00  0.00000000000E+00  0.45593999997E+02  0.45594000000E+02  0.51100000000E-03 0.  1.
         11   -1    0    0    0    0 -0.00000000000E+00 -0.00000000000E+00 -0.45593999997E+02  0.45594000000E+02  0.51100000000E-03 0. -1.
    9900012    2    1    2    0    0 -0.35612122153E+02  0.17852172033E+02 -0.17224986007E+02  0.47787269206E+02  0.19999991617E+02 0.  0.
         12    1    1    2    0    0  0.35612122153E+02 -0.17852172033E+02  0.17224986007E+02  0.43400730794E+02  0.00000000000E+00 0. -1.
         11    1    3    3    0    0 -0.13314299460E+02  0.87555143561E+01 -0.15842245792E+02  0.22470121356E+02  0.51100000000E-03 0. -1.
        -11    1    3    3    0    0 -0.18385431541E+02  0.39471287475E+01 -0.75392377914E+00  0.18819466507E+02  0.51100000000E-03 0.  1.
         12    1    3    3    0    0 -0.39123911515E+01  0.51495289298E+01 -0.62881643628E+00  0.64976813427E+01  0.00000000000E+00 0. -1.
</event>
<event>
 7    1  0.2412036E-009  0.4778726E+02  0.7816164E-02  0.1312668E+00
        -11   -1    0    0    0    0  0.00000000000E+00  0.00000000000E+00  0.45593999997E+02  0.45594000000E+02  0.51100000000E-03 0.  1.
         11   -1    0    0    0    0 -0.00000000000E+00 -0.00000000000E+00 -0.45593999997E+02  0.45594000000E+02  0.51100000000E-03 0. -1.
    9900012    2    1    2    0    0  0.10602836670E+02 -0.31530925153E+02  0.27874807580E+02  0.47787259406E+02  0.19999946938E+02 0.  0.
         12    1    1    2    0    0 -0.10602836670E+02  0.31530925153E+02 -0.27874807580E+02  0.43400740594E+02  0.00000000000E+00 0. -1.
         11    1    3    3    0    0 -0.15718218279E+01 -0.12511278912E+01  0.50214127649E+01  0.54083760294E+01  0.51100000000E-03 0. -1.
        -11    1    3    3    0    0  0.85275342324E+01 -0.30819948082E+02  0.20952208713E+02  0.38230656417E+02  0.51100000000E-03 0.  1.
        -12    1    3    3    0    0  0.36471242651E+01  0.54015082061E+00  0.19011861019E+01  0.41482269596E+01  0.00000000000E+00 0.  1.
</event>
<event>
 7    1  0.2412036E-009  0.4778727E+02  0.7816164E-02  0.1312668E+00
        -11   -1    0    0    0    0  0.00000000000E+00  0.00000000000E+00  0.45593999997E+02  0.45594000000E+02  0.51100000000E-03 0.  1.
         11   -1    0    0    0    0 -0.00000000000E+00 -0.00000000000E+00 -0.45593999997E+02  0.45594000000E+02  0.51100000000E-03 0. -1.
    9900012    2    1    2    0    0 -0.40072666601E+02  0.14295866856E+02  0.85692964067E+01  0.47787271221E+02  0.20000000805E+02 0.  0.
         12    1    1    2    0    0  0.40072666601E+02 -0.14295866856E+02 -0.85692964067E+01  0.43400728779E+02  0.00000000000E+00 0. -1.
         11    1    3    3    0    0 -0.70056521205E+01  0.10587533553E+02  0.60396035236E+01  0.14058870486E+02  0.51100000000E-03 0. -1.
        -11    1    3    3    0    0 -0.24521347842E+02  0.40141031966E+01  0.13427791651E+00  0.24848089570E+02  0.51100000000E-03 0.  1.
        -12    1    3    3    0    0 -0.85456666383E+01 -0.30576989349E+00  0.23954149666E+01  0.88803111647E+01  0.00000000000E+00 0.  1.
</event>
<event>
 7    1  0.2412036E-009  0.4778728E+02  0.7816164E-02  0.1312668E+00
        -11   -1    0    0    0    0  0.00000000000E+00  0.00000000000E+00  0.45593999997E+02  0.45594000000E+02  0.51100000000E-03 0.  1.
         11   -1    0    0    0    0 -0.00000000000E+00 -0.00000000000E+00 -0.45593999997E+02  0.45594000000E+02  0.51100000000E-03 0. -1.
    9900012    2    1    2    0    0  0.77271178136E+01 -0.37522424961E+02  0.20395641030E+02  0.47787275378E+02  0.20000019759E+02 0.  0.
         12    1    1    2    0    0 -0.77271178136E+01  0.37522424961E+02 -0.20395641030E+02  0.43400724622E+02  0.00000000000E+00 0. -1.
         11    1    3    3    0    0  0.54237532686E+01 -0.35582689671E+01 -0.15712227676E+01  0.66743628016E+01  0.51100000000E-03 0. -1.
        -11    1    3    3    0    0  0.29659131854E+01 -0.52576821575E+01  0.39717964866E+01  0.72259968367E+01  0.51100000000E-03 0.  1.
         12    1    3    3    0    0 -0.66254864037E+00 -0.28706473837E+02  0.17995067311E+02  0.33886915740E+02  0.00000000000E+00 0. -1.
</event>
<event>
 7    1  0.2412036E-009  0.4778727E+02  0.7816164E-02  0.1312668E+00
        -11   -1    0    0    0    0  0.00000000000E+00  0.00000000000E+00  0.45593999997E+02  0.45594000000E+02  0.51100000000E-03 0.  1.
         11   -1    0    0    0    0 -0.00000000000E+00 -0.00000000000E+00 -0.45593999997E+02  0.45594000000E+02  0.51100000000E-03 0. -1.
    9900012    2    1    2    0    0 -0.73208971578E+01 -0.36875597410E+02  0.21684513136E+02  0.47787270404E+02  0.19999997079E+02 0.  0.
         12    1    1    2    0    0  0.73208971578E+01  0.36875597410E+02 -0.21684513136E+02  0.43400729596E+02  0.00000000000E+00 0. -1.
         11    1    3    3    0    0 -0.46468769886E+01 -0.45116454569E+01  0.77405268193E+00  0.65228497063E+01  0.51100000000E-03 0.  1.
        -11    1    3    3    0    0 -0.23387252688E+01 -0.34603028150E+01 -0.17569143062E+01  0.45310130870E+01  0.51100000000E-03 0. -1.
        -12    1    3    3    0    0 -0.33529490052E+00 -0.28903649138E+02  0.22667374760E+02  0.36733407611E+02  0.00000000000E+00 0.  1.
</event>
<event>
 7    1  0.2412036E-009  0.4778727E+02  0.7816164E-02  0.1312668E+00
        -11   -1    0    0    0    0  0.00000000000E+00  0.00000000000E+00  0.45593999997E+02  0.45594000000E+02  0.51100000000E-03 0. -1.
         11   -1    0    0    0    0 -0.00000000000E+00 -0.00000000000E+00 -0.45593999997E+02  0.45594000000E+02  0.51100000000E-03 0.  1.
    9900012    2    1    2    0    0 -0.28944825200E+02 -0.28383364967E+02 -0.15498550905E+02  0.47787269674E+02  0.19999993750E+02 0.  0.
         12    1    1    2    0    0  0.28944825200E+02  0.28383364967E+02  0.15498550905E+02  0.43400730326E+02  0.00000000000E+00 0. -1.
         11    1    3    3    0    0 -0.35669138848E+01  0.14047485012E+01  0.10285968992E+01  0.39691566932E+01  0.51100000000E-03 0. -1.
        -11    1    3    3    0    0 -0.24801221959E+02 -0.30169398896E+02 -0.14472523813E+02  0.41650296351E+02  0.51100000000E-03 0.  1.
        -12    1    3    3    0    0 -0.57668935579E+00  0.38128542707E+00 -0.20546239917E+01  0.21678166291E+01  0.00000000000E+00 0.  1.
</event>
<event>
 7    1  0.2412036E-009  0.4778728E+02  0.7816164E-02  0.1312668E+00
        -11   -1    0    0    0    0  0.00000000000E+00  0.00000000000E+00  0.45593999997E+02  0.45594000000E+02  0.51100000000E-03 0.  1.
         11   -1    0    0    0    0 -0.00000000000E+00 -0.00000000000E+00 -0.45593999997E+02  0.45594000000E+02  0.51100000000E-03 0. -1.
    9900012    2    1    2    0    0  0.23271621437E+02  0.10704889096E+02  0.35035121480E+02  0.47787277057E+02  0.20000027414E+02 0.  0.
         12    1    1    2    0    0 -0.23271621437E+02 -0.10704889096E+02 -0.35035121480E+02  0.43400722943E+02  0.00000000000E+00 0. -1.
         11    1    3    3    0    0  0.36851162022E+01 -0.53385122390E+01  0.94254976301E+01  0.11442019061E+02  0.51100000000E-03 0. -1.
        -11    1    3    3    0    0  0.66974071196E+01  0.86190189529E+01  0.10755642607E+02  0.15324052923E+02  0.51100000000E-03 0.  1.
         12    1    3    3    0    0  0.12889098115E+02  0.74243823820E+01  0.14853981243E+02  0.21021205073E+02  0.00000000000E+00 0. -1.
</event>
<event>
 7    1  0.2412036E-009  0.4778727E+02  0.7816164E-02  0.1312668E+00
        -11   -1    0    0    0    0  0.00000000000E+00  0.00000000000E+00  0.45593999997E+02  0.45594000000E+02  0.51100000000E-03 0.  1.
         11   -1    0    0    0    0 -0.00000000000E+00 -0.00000000000E+00 -0.45593999997E+02  0.45594000000E+02  0.51100000000E-03 0. -1.
    9900012    2    1    2    0    0 -0.38803511321E+02 -0.13315053305E+02  0.14164034157E+02  0.47787274212E+02  0.20000014442E+02 0.  0.
         12    1    1    2    0    0  0.38803511321E+02  0.13315053305E+02 -0.14164034157E+02  0.43400725788E+02  0.00000000000E+00 0. -1.
         11    1    3    3    0    0 -0.36596428248E+02 -0.10175323485E+02  0.80821268695E+01  0.38834991226E+02  0.51100000000E-03 0. -1.
        -11    1    3    3    0    0 -0.24958895521E+01 -0.42640595886E+01  0.60225792832E+01  0.77899377607E+01  0.51100000000E-03 0.  1.
        -12    1    3    3    0    0  0.28880647894E+00  0.11243297688E+01  0.59328004446E-01  0.11623452256E+01  0.00000000000E+00 0.  1.
</event>
<event>
 7    1  0.2412036E-009  0.4778727E+02  0.7816164E-02  0.1312668E+00
        -11   -1    0    0    0    0  0.00000000000E+00  0.00000000000E+00  0.45593999997E+02  0.45594000000E+02  0.51100000000E-03 0.  1.
         11   -1    0    0    0    0 -0.00000000000E+00 -0.00000000000E+00 -0.45593999997E+02  0.45594000000E+02  0.51100000000E-03 0. -1.
    9900012    2    1    2    0    0  0.10509185902E+02  0.23737381054E+01  0.42042186908E+02  0.47787273037E+02  0.20000009084E+02 0.  0.
         12    1    1    2    0    0 -0.10509185902E+02 -0.23737381054E+01 -0.42042186908E+02  0.43400726963E+02  0.00000000000E+00 0. -1.
         11    1    3    3    0    0  0.37916080233E+01  0.16028241341E+01  0.13361367316E+01  0.43278861161E+01  0.51100000000E-03 0. -1.
        -11    1    3    3    0    0  0.90256591935E+01  0.69259091932E+00  0.40047639121E+02  0.41057954229E+02  0.51100000000E-03 0.  1.
        -12    1    3    3    0    0 -0.23080813147E+01  0.78323052049E-01  0.65841105581E+00  0.24014326920E+01  0.00000000000E+00 0.  1.
</event>
<event>
 7    1  0.2412036E-009  0.4778727E+02  0.7816164E-02  0.1312668E+00
        -11   -1    0    0    0    0  0.00000000000E+00  0.00000000000E+00  0.45593999997E+02  0.45594000000E+02  0.51100000000E-03 0. -1.
         11   -1    0    0    0    0 -0.00000000000E+00 -0.00000000000E+00 -0.45593999997E+02  0.45594000000E+02  0.51100000000E-03 0.  1.
    9900012    2    1    2    0    0 -0.38005339261E+01  0.34183338848E+02 -0.26470327697E+02  0.47787274645E+02  0.20000016418E+02 0.  0.
         12    1    1    2    0    0  0.38005339261E+01 -0.34183338848E+02  0.26470327697E+02  0.43400725355E+02  0.00000000000E+00 0. -1.
         11    1    3    3    0    0  0.12646454659E+01  0.24247104480E+02 -0.10399848654E+02  0.26413599832E+02  0.51100000000E-03 0.  1.
        -11    1    3    3    0    0 -0.67279841622E+01  0.67513746641E+01 -0.14718035969E+02  0.17534748751E+02  0.51100000000E-03 0. -1.
         12    1    3    3    0    0  0.16628047702E+01  0.31848597044E+01 -0.13524430745E+01  0.38389260621E+01  0.00000000000E+00 0. -1.
</event>
<event>
 7    1  0.2412036E-009  0.4778727E+02  0.7816164E-02  0.1312668E+00
        -11   -1    0    0    0    0  0.00000000000E+00  0.00000000000E+00  0.45593999997E+02  0.45594000000E+02  0.51100000000E-03 0.  1.
         11   -1    0    0    0    0 -0.00000000000E+00 -0.00000000000E+00 -0.45593999997E+02  0.45594000000E+02  0.51100000000E-03 0. -1.
    9900012    2    1    2    0    0  0.17080007023E+02  0.10512900851E+02  0.38488642248E+02  0.47787270671E+02  0.19999998297E+02 0.  0.
         12    1    1    2    0    0 -0.17080007023E+02 -0.10512900851E+02 -0.38488642248E+02  0.43400729329E+02  0.00000000000E+00 0. -1.
         11    1    3    3    0    0  0.45100270208E+01  0.10286355866E+02  0.18110615363E+02  0.21310651088E+02  0.51100000000E-03 0. -1.
        -11    1    3    3    0    0  0.59840544112E-01 -0.10246443088E+01  0.10333466131E+02  0.10384315066E+02  0.51100000000E-03 0.  1.
         12    1    3    3    0    0  0.12510139458E+02  0.12511892934E+01  0.10044560755E+02  0.16092304517E+02  0.00000000000E+00 0. -1.
</event>
<event>
 7    1  0.2412036E-009  0.4778727E+02  0.7816164E-02  0.1312668E+00
        -11   -1    0    0    0    0  0.00000000000E+00  0.00000000000E+00  0.45593999997E+02  0.45594000000E+02  0.51100000000E-03 0.  1.
         11   -1    0    0    0    0 -0.00000000000E+00 -0.00000000000E+00 -0.45593999997E+02  0.45594000000E+02  0.51100000000E-03 0. -1.
    9900012    2    1    2    0    0 -0.29811556829E+02 -0.21983397874E+02  0.22619120959E+02  0.47787270333E+02  0.19999996757E+02 0.  0.
         12    1    1    2    0    0  0.29811556829E+02  0.21983397874E+02 -0.22619120959E+02  0.43400729667E+02  0.00000000000E+00 0. -1.
         11    1    3    3    0    0 -0.20518752368E+01 -0.91163904054E+01  0.63994202457E+01  0.11325694052E+02  0.51100000000E-03 0. -1.
        -11    1    3    3    0    0 -0.19719822308E+02 -0.34133511888E+01  0.12094797606E+02  0.23383893764E+02  0.51100000000E-03 0.  1.
        -12    1    3    3    0    0 -0.80398592843E+01 -0.94536562801E+01  0.41249031072E+01  0.13077682517E+02  0.00000000000E+00 0.  1.
</event>
<event>
 7    1  0.2412036E-009  0.4778730E+02  0.7816164E-02  0.1312668E+00
        -11   -1    0    0    0    0  0.00000000000E+00  0.00000000000E+00  0.45593999997E+02  0.45594000000E+02  0.51100000000E-03 0. -1.
         11   -1    0    0    0    0 -0.00000000000E+00 -0.00000000000E+00 -0.45593999997E+02  0.45594000000E+02  0.51100000000E-03 0.  1.
    9900012    2    1    2    0    0 -0.11304250770E+02  0.38114125645E+02 -0.17411148780E+02  0.47787299994E+02  0.20000131994E+02 0.  0.
         12    1    1    2    0    0  0.11304250770E+02 -0.38114125645E+02  0.17411148780E+02  0.43400700006E+02  0.00000000000E+00 0. -1.
         11    1    3    3    0    0  0.32216321879E+01  0.82576251762E+01  0.92983062547E+00  0.89124560452E+01  0.51100000000E-03 0. -1.
        -11    1    3    3    0    0 -0.21530684270E+01  0.12841685290E+02 -0.49136296045E+01  0.13917195870E+02  0.51100000000E-03 0.  1.
         12    1    3    3    0    0 -0.12372814530E+02  0.17014815179E+02 -0.13427349801E+02  0.24957648079E+02  0.00000000000E+00 0. -1.
</event>
<event>
 7    1  0.2412036E-009  0.4778727E+02  0.7816164E-02  0.1312668E+00
        -11   -1    0    0    0    0  0.00000000000E+00  0.00000000000E+00  0.45593999997E+02  0.45594000000E+02  0.51100000000E-03 0.  1.
         11   -1    0    0    0    0 -0.00000000000E+00 -0.00000000000E+00 -0.45593999997E+02  0.45594000000E+02  0.51100000000E-03 0. -1.
    9900012    2    1    2    0    0  0.17482049094E+02 -0.21338837930E+02  0.33506047558E+02  0.47787271116E+02  0.20000000325E+02 0.  0.
         12    1    1    2    0    0 -0.17482049094E+02  0.21338837930E+02 -0.33506047558E+02  0.43400728884E+02  0.00000000000E+00 0. -1.
         11    1    3    3    0    0  0.77204109398E+00 -0.30729122040E+01 -0.21115576207E+01  0.38075599418E+01  0.51100000000E-03 0. -1.
        -11    1    3    3    0    0  0.15531010905E+01  0.28476318590E+00  0.40857279888E+01  0.43802267668E+01  0.51100000000E-03 0.  1.
         12    1    3    3    0    0  0.15156906910E+02 -0.18550688911E+02  0.31531877190E+02  0.39599484407E+02  0.00000000000E+00 0. -1.
</event>
<event>
 7    1  0.2412036E-009  0.4778727E+02  0.7816164E-02  0.1312668E+00
        -11   -1    0    0    0    0  0.00000000000E+00  0.00000000000E+00  0.45593999997E+02  0.45594000000E+02  0.51100000000E-03 0.  1.
         11   -1    0    0    0    0 -0.00000000000E+00 -0.00000000000E+00 -0.45593999997E+02  0.45594000000E+02  0.51100000000E-03 0. -1.
    9900012    2    1    2    0    0  0.10642636753E+02 -0.31698182200E+02  0.27669167813E+02  0.47787270521E+02  0.19999997614E+02 0.  0.
         12    1    1    2    0    0 -0.10642636753E+02  0.31698182200E+02 -0.27669167813E+02  0.43400729479E+02  0.00000000000E+00 0. -1.
         11    1    3    3    0    0  0.10314488624E+02 -0.81250775850E+01  0.46292313508E+01  0.13922476234E+02  0.51100000000E-03 0. -1.
        -11    1    3    3    0    0 -0.14848418438E+01 -0.18396300122E+02  0.21133032593E+02  0.28057684871E+02  0.51100000000E-03 0.  1.
         12    1    3    3    0    0  0.18129899727E+01 -0.51768044936E+01  0.19069038693E+01  0.58071094162E+01  0.00000000000E+00 0. -1.
</event>
<event>
 7    1  0.2412036E-009  0.4778727E+02  0.7816164E-02  0.1312668E+00
        -11   -1    0    0    0    0  0.00000000000E+00  0.00000000000E+00  0.45593999997E+02  0.45594000000E+02  0.51100000000E-03 0.  1.
         11   -1    0    0    0    0 -0.00000000000E+00 -0.00000000000E+00 -0.45593999997E+02  0.45594000000E+02  0.51100000000E-03 0. -1.
    9900012    2    1    2    0    0  0.13013104519E+02  0.31079929174E+02  0.27355442025E+02  0.47787273105E+02  0.20000009393E+02 0.  0.
         12    1    1    2    0    0 -0.13013104519E+02 -0.31079929174E+02 -0.27355442025E+02  0.43400726895E+02  0.00000000000E+00 0. -1.
         11    1    3    3    0    0 -0.28968212465E+01 -0.11499924667E+01  0.23851979754E+01  0.39246943385E+01  0.51100000000E-03 0. -1.
        -11    1    3    3    0    0  0.69058001088E+01  0.10872436273E+02  0.91952977511E+01  0.15825721047E+02  0.51100000000E-03 0.  1.
         12    1    3    3    0    0  0.90041256564E+01  0.21357485367E+02  0.15774946299E+02  0.28036857719E+02  0.00000000000E+00 0. -1.
</event>
<event>
 7    1  0.2412036E-009  0.4778727E+02  0.7816164E-02  0.1312668E+00
        -11   -1    0    0    0    0  0.00000000000E+00  0.00000000000E+00  0.45593999997E+02  0.45594000000E+02  0.51100000000E-03 0. -1.
         11   -1    0    0    0    0 -0.00000000000E+00 -0.00000000000E+00 -0.45593999997E+02  0.45594000000E+02  0.51100000000E-03 0.  1.
    9900012    2    1    2    0    0  0.63311569691E+01  0.25952838451E+02 -0.34205114498E+02  0.47787271549E+02  0.20000002302E+02 0.  0.
         12    1    1    2    0    0 -0.63311569691E+01 -0.25952838451E+02  0.34205114498E+02  0.43400728451E+02  0.00000000000E+00 0. -1.
         11    1    3    3    0    0  0.62994526302E+01  0.14194199012E+02 -0.85206806456E+01  0.17713282812E+02  0.51100000000E-03 0. -1.
        -11    1    3    3    0    0 -0.42009481702E+01  0.88810993167E+01 -0.20779506978E+02  0.22984990779E+02  0.51100000000E-03 0.  1.
         12    1    3    3    0    0  0.42326525090E+01  0.28775401216E+01 -0.49049268746E+01  0.70889979587E+01  0.00000000000E+00 0. -1.
</event>
<event>
 7    1  0.2412036E-009  0.4778727E+02  0.7816164E-02  0.1312668E+00
        -11   -1    0    0    0    0  0.00000000000E+00  0.00000000000E+00  0.45593999997E+02  0.45594000000E+02  0.51100000000E-03 0.  1.
         11   -1    0    0    0    0 -0.00000000000E+00 -0.00000000000E+00 -0.45593999997E+02  0.45594000000E+02  0.51100000000E-03 0. -1.
    9900012    2    1    2    0    0 -0.22370241831E+02  0.31379854938E+02  0.19962470438E+02  0.47787271418E+02  0.20000001703E+02 0.  0.
         12    1    1    2    0    0  0.22370241831E+02 -0.31379854938E+02 -0.19962470438E+02  0.43400728582E+02  0.00000000000E+00 0. -1.
         11    1    3    3    0    0 -0.75931529868E+01  0.47102296351E+01 -0.18030305520E+01  0.91155446863E+01  0.51100000000E-03 0. -1.
        -11    1    3    3    0    0 -0.13712910484E+02  0.21191501571E+02  0.13296143678E+02  0.28529127042E+02  0.51100000000E-03 0.  1.
         12    1    3    3    0    0 -0.10641783596E+01  0.54781237316E+01  0.84693573116E+01  0.10142599690E+02  0.00000000000E+00 0. -1.
</event>
<event>
 7    1  0.2412036E-009  0.4778727E+02  0.7816164E-02  0.1312668E+00
        -11   -1    0    0    0    0  0.00000000000E+00  0.00000000000E+00  0.45593999997E+02  0.45594000000E+02  0.51100000000E-03 0.  1.
         11   -1    0    0    0    0 -0.00000000000E+00 -0.00000000000E+00 -0.45593999997E+02  0.45594000000E+02  0.51100000000E-03 0. -1.
    9900012    2    1    2    0    0 -0.20266549003E+02  0.36017899352E+02  0.13251477694E+02  0.47787265636E+02  0.19999975341E+02 0.  0.
         12    1    1    2    0    0  0.20266549003E+02 -0.36017899352E+02 -0.13251477694E+02  0.43400734364E+02  0.00000000000E+00 0. -1.
         11    1    3    3    0    0 -0.55682497974E+01  0.11926197587E+02  0.12781299283E+02  0.18346694697E+02  0.51100000000E-03 0.  1.
        -11    1    3    3    0    0 -0.91901987697E+01  0.21433352985E+02  0.32675287976E+00  0.23322845910E+02  0.51100000000E-03 0. -1.
        -12    1    3    3    0    0 -0.55081004363E+01  0.26583487800E+01  0.14342553102E+00  0.61177250294E+01  0.00000000000E+00 0.  1.
</event>
<event>
 7    1  0.2412036E-009  0.4778727E+02  0.7816164E-02  0.1312668E+00
        -11   -1    0    0    0    0  0.00000000000E+00  0.00000000000E+00  0.45593999997E+02  0.45594000000E+02  0.51100000000E-03 0.  1.
         11   -1    0    0    0    0 -0.00000000000E+00 -0.00000000000E+00 -0.45593999997E+02  0.45594000000E+02  0.51100000000E-03 0. -1.
    9900012    2    1    2    0    0 -0.31887944506E+02  0.22999213231E+02  0.18379841322E+02  0.47787269810E+02  0.19999994371E+02 0.  0.
         12    1    1    2    0    0  0.31887944506E+02 -0.22999213231E+02 -0.18379841322E+02  0.43400730190E+02  0.00000000000E+00 0. -1.
         11    1    3    3    0    0 -0.25270057151E+02  0.23999090685E+02  0.11189114923E+02  0.36602300954E+02  0.51100000000E-03 0. -1.
        -11    1    3    3    0    0 -0.69205324438E+01 -0.10171854338E+01  0.78166848227E+01  0.10489470787E+02  0.51100000000E-03 0.  1.
        -12    1    3    3    0    0  0.30264508900E+00  0.17307979346E-01 -0.62595842320E+00  0.69549806873E+00  0.00000000000E+00 0.  1.
</event>
<event>
 7    1  0.2412036E-009  0.4778727E+02  0.7816164E-02  0.1312668E+00
        -11   -1    0    0    0    0  0.00000000000E+00  0.00000000000E+00  0.45593999997E+02  0.45594000000E+02  0.51100000000E-03 0.  1.
         11   -1    0    0    0    0 -0.00000000000E+00 -0.00000000000E+00 -0.45593999997E+02  0.45594000000E+02  0.51100000000E-03 0. -1.
    9900012    2    1    2    0    0 -0.27254316927E+02  0.24514476524E+02  0.23235009732E+02  0.47787273881E+02  0.20000012934E+02 0.  0.
         12    1    1    2    0    0  0.27254316927E+02 -0.24514476524E+02 -0.23235009732E+02  0.43400726119E+02  0.00000000000E+00 0. -1.
         11    1    3    3    0    0 -0.11893347922E+02  0.59728683144E+01  0.15738282398E+02  0.20611172063E+02  0.51100000000E-03 0.  1.
        -11    1    3    3    0    0 -0.44148380627E+01  0.24497323078E+01 -0.21102063234E+01  0.54721983232E+01  0.51100000000E-03 0. -1.
        -12    1    3    3    0    0 -0.10946130941E+02  0.16091875902E+02  0.96069336572E+01  0.21703903495E+02  0.00000000000E+00 0.  1.
</event>
<event>
 7    1  0.2412036E-009  0.4778727E+02  0.7816164E-02  0.1312668E+00
        -11   -1    0    0    0    0  0.00000000000E+00  0.00000000000E+00  0.45593999997E+02  0.45594000000E+02  0.51100000000E-03 0.  1.
         11   -1    0    0    0    0 -0.00000000000E+00 -0.00000000000E+00 -0.45593999997E+02  0.45594000000E+02  0.51100000000E-03 0. -1.
    9900012    2    1    2    0    0 -0.28716345332E+02 -0.76429542085E+01  0.31631943571E+02  0.47787273136E+02  0.20000009536E+02 0.  0.
         12    1    1    2    0    0  0.28716345332E+02  0.76429542085E+01 -0.31631943571E+02  0.43400726864E+02  0.00000000000E+00 0. -1.
         11    1    3    3    0    0 -0.12062032005E+02 -0.48792002711E+01  0.30076620568E+01  0.13354596313E+02  0.51100000000E-03 0. -1.
        -11    1    3    3    0    0 -0.16463068104E+02 -0.11967707845E+01  0.21337775591E+02  0.26977129928E+02  0.51100000000E-03 0.  1.
         12    1    3    3    0    0 -0.19124522280E+00 -0.15669831530E+01  0.72865059225E+01  0.74555468945E+01  0.00000000000E+00 0. -1.
</event>
<event>
 7    1  0.2412036E-009  0.4778728E+02  0.7816164E-02  0.1312668E+00
        -11   -1    0    0    0    0  0.00000000000E+00  0.00000000000E+00  0.45593999997E+02  0.45594000000E+02  0.51100000000E-03 0.  1.
         11   -1    0    0    0    0 -0.00000000000E+00 -0.00000000000E+00 -0.45593999997E+02  0.45594000000E+02  0.51100000000E-03 0. -1.
    9900012    2    1    2    0    0  0.31779859489E+02  0.29524981521E+02  0.13924300076E+01  0.47787275763E+02  0.20000021516E+02 0.  0.
         12    1    1    2    0    0 -0.31779859489E+02 -0.29524981521E+02 -0.13924300076E+01  0.43400724237E+02  0.00000000000E+00 0. -1.
         11    1    3    3    0    0 -0.41788261694E+00  0.55861125437E+01 -0.50897391391E+00  0.56247963464E+01  0.51100000000E-03 0. -1.
        -11    1    3    3    0    0  0.23394805348E+02  0.18898674834E+02  0.68971712377E+01  0.30855271820E+02  0.51100000000E-03 0.  1.
        -12    1    3    3    0    0  0.88029367576E+01  0.50401941434E+01 -0.49957673163E+01  0.11307207597E+02  0.00000000000E+00 0.  1.
</event>
<event>
 7    1  0.2412036E-009  0.4778727E+02  0.7816164E-02  0.1312668E+00
        -11   -1    0    0    0    0  0.00000000000E+00  0.00000000000E+00  0.45593999997E+02  0.45594000000E+02  0.51100000000E-03 0.  1.
         11   -1    0    0    0    0 -0.00000000000E+00 -0.00000000000E+00 -0.45593999997E+02  0.45594000000E+02  0.51100000000E-03 0. -1.
    9900012    2    1    2    0    0 -0.14049780710E+02 -0.16275347445E+02  0.37700660743E+02  0.47787273130E+02  0.20000009507E+02 0.  0.
         12    1    1    2    0    0  0.14049780710E+02  0.16275347445E+02 -0.37700660743E+02  0.43400726870E+02  0.00000000000E+00 0. -1.
         11    1    3    3    0    0 -0.87462105143E+01 -0.11430727281E-01  0.17500613183E+02  0.19564452230E+02  0.51100000000E-03 0. -1.
        -11    1    3    3    0    0 -0.16973506061E+01 -0.29966726864E+01  0.11376503150E+02  0.11886373310E+02  0.51100000000E-03 0.  1.
         12    1    3    3    0    0 -0.36062195895E+01 -0.13267244031E+02  0.88235444098E+01  0.16336447590E+02  0.00000000000E+00 0. -1.
</event>
<event>
 7    1  0.2412036E-009  0.4778727E+02  0.7816164E-02  0.1312668E+00
        -11   -1    0    0    0    0  0.00000000000E+00  0.00000000000E+00  0.45593999997E+02  0.45594000000E+02  0.51100000000E-03 0.  1.
         11   -1    0    0    0    0 -0.00000000000E+00 -0.00000000000E+00 -0.45593999997E+02  0.45594000000E+02  0.51100000000E-03 0. -1.
    9900012    2    1    2    0    0 -0.19288638830E+02  0.23906562660E+02  0.30660197424E+02  0.47787273828E+02  0.20000012692E+02 0.  0.
         12    1    1    2    0    0  0.19288638830E+02 -0.23906562660E+02 -0.30660197424E+02  0.43400726172E+02  0.00000000000E+00 0. -1.
         11    1    3    3    0    0 -0.19453154991E+01  0.12647257624E+02  0.16973338888E+02  0.21256331082E+02  0.51100000000E-03 0. -1.
        -11    1    3    3    0    0 -0.52564745893E+01  0.13077349942E+01 -0.45147790219E+00  0.54354878788E+01  0.51100000000E-03 0.  1.
         12    1    3    3    0    0 -0.12086848742E+02  0.99515700419E+01  0.14138336439E+02  0.21095454867E+02  0.00000000000E+00 0. -1.
</event>
<event>
 7    1  0.2412036E-009  0.4778729E+02  0.7816164E-02  0.1312668E+00
        -11   -1    0    0    0    0  0.00000000000E+00  0.00000000000E+00  0.45593999997E+02  0.45594000000E+02  0.51100000000E-03 0.  1.
         11   -1    0    0    0    0 -0.00000000000E+00 -0.00000000000E+00 -0.45593999997E+02  0.45594000000E+02  0.51100000000E-03 0. -1.
    9900012    2    1    2    0    0  0.56949185383E+01  0.39159112404E+02 -0.17825647540E+02  0.47787286968E+02  0.20000072603E+02 0.  0.
         12    1    1    2    0    0 -0.56949185383E+01 -0.39159112404E+02  0.17825647540E+02  0.43400713032E+02  0.00000000000E+00 0. -1.
         11    1    3    3    0    0  0.99141422368E+00  0.71966629466E+01  0.13564221166E+01  0.73901786818E+01  0.51100000000E-03 0. -1.
        -11    1    3    3    0    0  0.80926360681E+01  0.98316276887E+01 -0.40046057543E+01  0.13348727619E+02  0.51100000000E-03 0.  1.
        -12    1    3    3    0    0 -0.33891317535E+01  0.22130821769E+02 -0.15177463902E+02  0.27048380667E+02  0.00000000000E+00 0.  1.
</event>
<event>
 7    1  0.2412036E-009  0.4778727E+02  0.7816164E-02  0.1312668E+00
        -11   -1    0    0    0    0  0.00000000000E+00  0.00000000000E+00  0.45593999997E+02  0.45594000000E+02  0.51100000000E-03 0.  1.
         11   -1    0    0    0    0 -0.00000000000E+00 -0.00000000000E+00 -0.45593999997E+02  0.45594000000E+02  0.51100000000E-03 0. -1.
    9900012    2    1    2    0    0 -0.75012508215E+01 -0.41570179344E+02  0.99636639448E+01  0.47787272197E+02  0.20000005257E+02 0.  0.
         12    1    1    2    0    0  0.75012508215E+01  0.41570179344E+02 -0.99636639448E+01  0.43400727803E+02  0.00000000000E+00 0. -1.
         11    1    3    3    0    0  0.21597722837E+01 -0.14664953303E+02 -0.10042520168E+00  0.14823479928E+02  0.51100000000E-03 0. -1.
        -11    1    3    3    0    0 -0.31322795772E+01  0.10672528878E+00  0.28895048204E+01  0.42628398991E+01  0.51100000000E-03 0.  1.
        -12    1    3    3    0    0 -0.65287435280E+01 -0.27011951330E+02  0.71745843260E+01  0.28700952370E+02  0.00000000000E+00 0.  1.
</event>
<event>
 7    1  0.2412036E-009  0.4778727E+02  0.7816164E-02  0.1312668E+00
        -11   -1    0    0    0    0  0.00000000000E+00  0.00000000000E+00  0.45593999997E+02  0.45594000000E+02  0.51100000000E-03 0.  1.
         11   -1    0    0    0    0 -0.00000000000E+00 -0.00000000000E+00 -0.45593999997E+02  0.45594000000E+02  0.51100000000E-03 0. -1.
    9900012    2    1    2    0    0  0.94736795077E+01 -0.22265029841E+02  0.36029732559E+02  0.47787265150E+02  0.19999973125E+02 0.  0.
         12    1    1    2    0    0 -0.94736795077E+01  0.22265029841E+02 -0.36029732559E+02  0.43400734850E+02  0.00000000000E+00 0. -1.
         11    1    3    3    0    0  0.63399117871E+01 -0.47822925945E+01  0.23606935998E+02  0.24906871169E+02  0.51100000000E-03 0. -1.
        -11    1    3    3    0    0  0.16230529504E+01 -0.17599751634E+02  0.11115693538E+02  0.20879276844E+02  0.51100000000E-03 0.  1.
         12    1    3    3    0    0  0.15107147702E+01  0.11701438717E+00  0.13071030225E+01  0.20011171368E+01  0.00000000000E+00 0. -1.
</event>
<event>
 7    1  0.2412036E-009  0.4778728E+02  0.7816164E-02  0.1312668E+00
        -11   -1    0    0    0    0  0.00000000000E+00  0.00000000000E+00  0.45593999997E+02  0.45594000000E+02  0.51100000000E-03 0.  1.
         11   -1    0    0    0    0 -0.00000000000E+00 -0.00000000000E+00 -0.45593999997E+02  0.45594000000E+02  0.51100000000E-03 0. -1.
    9900012    2    1    2    0    0 -0.22981161724E+02  0.28577067649E+02  0.23212921153E+02  0.47787282286E+02  0.20000051257E+02 0.  0.
         12    1    1    2    0    0  0.22981161724E+02 -0.28577067649E+02 -0.23212921153E+02  0.43400717714E+02  0.00000000000E+00 0. -1.
         11    1    3    3    0    0 -0.89310860734E+01  0.73813693530E+01  0.15864950129E+02  0.19645497063E+02  0.51100000000E-03 0.  1.
        -11    1    3    3    0    0 -0.42448869504E+01  0.73542452867E+01 -0.20700243668E+01  0.87400795247E+01  0.51100000000E-03 0. -1.
         12    1    3    3    0    0 -0.98051887002E+01  0.13841453009E+02  0.94179953909E+01  0.19401705699E+02  0.00000000000E+00 0. -1.
</event>
<event>
 7    1  0.2412036E-009  0.4778727E+02  0.7816164E-02  0.1312668E+00
        -11   -1    0    0    0    0  0.00000000000E+00  0.00000000000E+00  0.45593999997E+02  0.45594000000E+02  0.51100000000E-03 0.  1.
         11   -1    0    0    0    0 -0.00000000000E+00 -0.00000000000E+00 -0.45593999997E+02  0.45594000000E+02  0.51100000000E-03 0. -1.
    9900012    2    1    2    0    0  0.18914211674E+02  0.31917066322E+02  0.22520578819E+02  0.47787274244E+02  0.20000014587E+02 0.  0.
         12    1    1    2    0    0 -0.18914211674E+02 -0.31917066322E+02 -0.22520578819E+02  0.43400725756E+02  0.00000000000E+00 0. -1.
         11    1    3    3    0    0  0.62835266737E+01  0.34070531725E+01 -0.21889437192E+01  0.74754393615E+01  0.51100000000E-03 0. -1.
        -11    1    3    3    0    0  0.12573660530E+02  0.21995958257E+02  0.19561622007E+02  0.32009001462E+02  0.51100000000E-03 0.  1.
         12    1    3    3    0    0  0.57024470099E-01  0.65140548924E+01  0.51479005311E+01  0.83028334206E+01  0.00000000000E+00 0. -1.
</event>
<event>
 7    1  0.2412036E-009  0.4778727E+02  0.7816164E-02  0.1312668E+00
        -11   -1    0    0    0    0  0.00000000000E+00  0.00000000000E+00  0.45593999997E+02  0.45594000000E+02  0.51100000000E-03 0. -1.
         11   -1    0    0    0    0 -0.00000000000E+00 -0.00000000000E+00 -0.45593999997E+02  0.45594000000E+02  0.51100000000E-03 0.  1.
    9900012    2    1    2    0    0 -0.41968436550E+02  0.63571456173E+01 -0.90476756137E+01  0.47787269582E+02  0.19999993331E+02 0.  0.
         12    1    1    2    0    0  0.41968436550E+02 -0.63571456173E+01  0.90476756137E+01  0.43400730418E+02  0.00000000000E+00 0. -1.
         11    1    3    3    0    0 -0.17361663714E+02  0.84908762145E+01  0.28878873041E+01  0.19541295739E+02  0.51100000000E-03 0. -1.
        -11    1    3    3    0    0 -0.14263776116E+02 -0.38410631305E+01 -0.92337738291E+01  0.17420437837E+02  0.51100000000E-03 0.  1.
         12    1    3    3    0    0 -0.10342996720E+02  0.17073325332E+01 -0.27017890887E+01  0.10825536006E+02  0.00000000000E+00 0. -1.
</event>
<event>
 7    1  0.2412036E-009  0.4778727E+02  0.7816164E-02  0.1312668E+00
        -11   -1    0    0    0    0  0.00000000000E+00  0.00000000000E+00  0.45593999997E+02  0.45594000000E+02  0.51100000000E-03 0. -1.
         11   -1    0    0    0    0 -0.00000000000E+00 -0.00000000000E+00 -0.45593999997E+02  0.45594000000E+02  0.51100000000E-03 0.  1.
    9900012    2    1    2    0    0 -0.36562990762E+02 -0.22548826345E+02 -0.61904098737E+01  0.47787273768E+02  0.20000012419E+02 0.  0.
         12    1    1    2    0    0  0.36562990762E+02  0.22548826345E+02  0.61904098737E+01  0.43400726232E+02  0.00000000000E+00 0. -1.
         11    1    3    3    0    0 -0.16900800822E+01 -0.66190066514E+01 -0.59493782263E+01  0.90588476793E+01  0.51100000000E-03 0. -1.
        -11    1    3    3    0    0 -0.24537722808E+02 -0.92438473718E+01  0.16580351234E+01  0.26273515859E+02  0.51100000000E-03 0.  1.
         12    1    3    3    0    0 -0.10335187872E+02 -0.66859723221E+01 -0.18990667708E+01  0.12454910230E+02  0.00000000000E+00 0. -1.
</event>
<event>
 7    1  0.2412036E-009  0.4778727E+02  0.7816164E-02  0.1312668E+00
        -11   -1    0    0    0    0  0.00000000000E+00  0.00000000000E+00  0.45593999997E+02  0.45594000000E+02  0.51100000000E-03 0. -1.
         11   -1    0    0    0    0 -0.00000000000E+00 -0.00000000000E+00 -0.45593999997E+02  0.45594000000E+02  0.51100000000E-03 0.  1.
    9900012    2    1    2    0    0  0.12788125286E+01 -0.14717671858E+02 -0.40809049089E+02  0.47787265974E+02  0.19999976882E+02 0.  0.
         12    1    1    2    0    0 -0.12788125286E+01  0.14717671858E+02  0.40809049089E+02  0.43400734026E+02  0.00000000000E+00 0. -1.
         11    1    3    3    0    0 -0.32472977967E+01  0.27278170088E+01 -0.78832609122E+01  0.89516328949E+01  0.51100000000E-03 0.  1.
        -11    1    3    3    0    0  0.16935778419E+01 -0.11909301654E+02 -0.29213434677E+02  0.31593107440E+02  0.51100000000E-03 0. -1.
         12    1    3    3    0    0  0.28325324834E+01 -0.55361872131E+01 -0.37123534998E+01  0.72425256393E+01  0.00000000000E+00 0. -1.
</event>
<event>
 7    1  0.2412036E-009  0.4778727E+02  0.7816164E-02  0.1312668E+00
        -11   -1    0    0    0    0  0.00000000000E+00  0.00000000000E+00  0.45593999997E+02  0.45594000000E+02  0.51100000000E-03 0.  1.
         11   -1    0    0    0    0 -0.00000000000E+00 -0.00000000000E+00 -0.45593999997E+02  0.45594000000E+02  0.51100000000E-03 0. -1.
    9900012    2    1    2    0    0  0.91119705479E+01  0.42429420073E+02 -0.58303067989E+00  0.47787267059E+02  0.19999981831E+02 0.  0.
         12    1    1    2    0    0 -0.91119705479E+01 -0.42429420073E+02  0.58303067989E+00  0.43400732941E+02  0.00000000000E+00 0. -1.
         11    1    3    3    0    0 -0.18206445024E+01  0.50859537462E+01  0.20773889288E+01  0.57876780262E+01  0.51100000000E-03 0. -1.
        -11    1    3    3    0    0  0.72542828867E+01  0.97031496972E+01  0.49630077019E+01  0.13092256488E+02  0.51100000000E-03 0.  1.
        -12    1    3    3    0    0  0.36783321636E+01  0.27640316630E+02 -0.76234273106E+01  0.28907332545E+02  0.00000000000E+00 0.  1.
</event>
<event>
 7    1  0.2412036E-009  0.4778728E+02  0.7816164E-02  0.1312668E+00
        -11   -1    0    0    0    0  0.00000000000E+00  0.00000000000E+00  0.45593999997E+02  0.45594000000E+02  0.51100000000E-03 0.  1.
         11   -1    0    0    0    0 -0.00000000000E+00 -0.00000000000E+00 -0.45593999997E+02  0.45594000000E+02  0.51100000000E-03 0. -1.
    9900012    2    1    2    0    0  0.15319279551E+02 -0.40529940997E+02  0.25032700600E+01  0.47787276456E+02  0.20000024672E+02 0.  0.
         12    1    1    2    0    0 -0.15319279551E+02  0.40529940997E+02 -0.25032700600E+01  0.43400723544E+02  0.00000000000E+00 0. -1.
         11    1    3    3    0    0  0.31424690672E+01 -0.24923949946E+02 -0.60494526412E+01  0.25839393767E+02  0.51100000000E-03 0. -1.
        -11    1    3    3    0    0 -0.60973224949E-01 -0.13261045386E+01  0.10797852170E+01  0.17112005602E+01  0.51100000000E-03 0.  1.
         12    1    3    3    0    0  0.12237783709E+02 -0.14279886513E+02  0.74729374842E+01  0.20236682128E+02  0.00000000000E+00 0. -1.
</event>
<event>
 7    1  0.2412036E-009  0.4778727E+02  0.7816164E-02  0.1312668E+00
        -11   -1    0    0    0    0  0.00000000000E+00  0.00000000000E+00  0.45593999997E+02  0.45594000000E+02  0.51100000000E-03 0. -1.
         11   -1    0    0    0    0 -0.00000000000E+00 -0.00000000000E+00 -0.45593999997E+02  0.45594000000E+02  0.51100000000E-03 0.  1.
    9900012    2    1    2    0    0 -0.12936598303E+02 -0.34481593341E+02 -0.22962741687E+02  0.47787270043E+02  0.19999995436E+02 0.  0.
         12    1    1    2    0    0  0.12936598303E+02  0.34481593341E+02  0.22962741687E+02  0.43400729957E+02  0.00000000000E+00 0. -1.
         11    1    3    3    0    0 -0.93246597284E+01 -0.31488681686E+02 -0.23087499309E+02  0.40143729000E+02  0.51100000000E-03 0. -1.
        -11    1    3    3    0    0 -0.48021777568E+01 -0.91664336371E+00 -0.10144216773E+01  0.49930149073E+01  0.51100000000E-03 0.  1.
         12    1    3    3    0    0  0.11902391821E+01 -0.20762682906E+01  0.11391792988E+01  0.26505261365E+01  0.00000000000E+00 0. -1.
</event>
<event>
 7    1  0.2412036E-009  0.4778728E+02  0.7816164E-02  0.1312668E+00
        -11   -1    0    0    0    0  0.00000000000E+00  0.00000000000E+00  0.45593999997E+02  0.45594000000E+02  0.51100000000E-03 0. -1.
         11   -1    0    0    0    0 -0.00000000000E+00 -0.00000000000E+00 -0.45593999997E+02  0.45594000000E+02  0.51100000000E-03 0.  1.
    9900012    2    1    2    0    0  0.18620022831E+02  0.13752791828E+02 -0.36712095923E+02  0.47787279725E+02  0.20000039579E+02 0.  0.
         12    1    1    2    0    0 -0.18620022831E+02 -0.13752791828E+02  0.36712095923E+02  0.43400720275E+02  0.00000000000E+00 0. -1.
         11    1    3    3    0    0  0.18443235605E+02  0.11103102103E+02 -0.21767176022E+02  0.30614404586E+02  0.51100000000E-03 0. -1.
        -11    1    3    3    0    0  0.15387026744E+01  0.51829652287E+01 -0.79964335553E+01  0.96526516745E+01  0.51100000000E-03 0.  1.
         12    1    3    3    0    0 -0.13619154486E+01 -0.25332755039E+01 -0.69484863457E+01  0.75202234650E+01  0.00000000000E+00 0. -1.
</event>
<event>
 7    1  0.2412036E-009  0.4778727E+02  0.7816164E-02  0.1312668E+00
        -11   -1    0    0    0    0  0.00000000000E+00  0.00000000000E+00  0.45593999997E+02  0.45594000000E+02  0.51100000000E-03 0. -1.
         11   -1    0    0    0    0 -0.00000000000E+00 -0.00000000000E+00 -0.45593999997E+02  0.45594000000E+02  0.51100000000E-03 0.  1.
    9900012    2    1    2    0    0  0.24616027012E+02  0.33240605565E+02 -0.13142925549E+02  0.47787272631E+02  0.20000007232E+02 0.  0.
         12    1    1    2    0    0 -0.24616027012E+02 -0.33240605565E+02  0.13142925549E+02  0.43400727369E+02  0.00000000000E+00 0. -1.
         11    1    3    3    0    0 -0.63990686516E+00  0.42926329310E+01 -0.11237209754E+01  0.44831827275E+01  0.51100000000E-03 0. -1.
        -11    1    3    3    0    0  0.64876901017E+01  0.12536607824E+02 -0.11757759238E+02  0.18371215560E+02  0.51100000000E-03 0.  1.
        -12    1    3    3    0    0  0.18768243775E+02  0.16411364810E+02 -0.26144533570E+00  0.24932874343E+02  0.00000000000E+00 0.  1.
</event>
<event>
 7    1  0.2412036E-009  0.4778728E+02  0.7816164E-02  0.1312668E+00
        -11   -1    0    0    0    0  0.00000000000E+00  0.00000000000E+00  0.45593999997E+02  0.45594000000E+02  0.51100000000E-03 0. -1.
         11   -1    0    0    0    0 -0.00000000000E+00 -0.00000000000E+00 -0.45593999997E+02  0.45594000000E+02  0.51100000000E-03 0.  1.
    9900012    2    1    2    0    0 -0.21398852428E+02  0.35446913255E+00 -0.37756930518E+02  0.47787281852E+02  0.20000049278E+02 0.  0.
         12    1    1    2    0    0  0.21398852428E+02 -0.35446913255E+00  0.37756930518E+02  0.43400718148E+02  0.00000000000E+00 0. -1.
         11    1    3    3    0    0 -0.49328646056E+01  0.78376616993E+01 -0.11796632231E+02  0.14997420658E+02  0.51100000000E-03 0. -1.
        -11    1    3    3    0    0 -0.11973175895E+02 -0.60235412420E+01 -0.24357148705E+02  0.27801271256E+02  0.51100000000E-03 0.  1.
         12    1    3    3    0    0 -0.44928119269E+01 -0.14596513247E+01 -0.16031495814E+01  0.49885899391E+01  0.00000000000E+00 0. -1.
</event>
<event>
 7    1  0.2412036E-009  0.4778726E+02  0.7816164E-02  0.1312668E+00
        -11   -1    0    0    0    0  0.00000000000E+00  0.00000000000E+00  0.45593999997E+02  0.45594000000E+02  0.51100000000E-03 0.  1.
         11   -1    0    0    0    0 -0.00000000000E+00 -0.00000000000E+00 -0.45593999997E+02  0.45594000000E+02  0.51100000000E-03 0. -1.
    9900012    2    1    2    0    0 -0.19938529274E+02  0.26004370308E+01  0.38461886873E+02  0.47787263091E+02  0.19999963738E+02 0.  0.
         12    1    1    2    0    0  0.19938529274E+02 -0.26004370308E+01 -0.38461886873E+02  0.43400736909E+02  0.00000000000E+00 0. -1.
         11    1    3    3    0    0  0.18833117908E+01  0.15882617629E+01  0.10108943468E+01  0.26629581991E+01  0.51100000000E-03 0. -1.
        -11    1    3    3    0    0 -0.22105060511E+02  0.37266564823E+01  0.33991700476E+02  0.40718022671E+02  0.51100000000E-03 0.  1.
        -12    1    3    3    0    0  0.28321944656E+00 -0.27144812143E+01  0.34592920506E+01  0.44062822208E+01  0.00000000000E+00 0.  1.
</event>
<event>
 7    1  0.2412036E-009  0.4778727E+02  0.7816164E-02  0.1312668E+00
        -11   -1    0    0    0    0  0.00000000000E+00  0.00000000000E+00  0.45593999997E+02  0.45594000000E+02  0.51100000000E-03 0.  1.
         11   -1    0    0    0    0 -0.00000000000E+00 -0.00000000000E+00 -0.45593999997E+02  0.45594000000E+02  0.51100000000E-03 0. -1.
    9900012    2    1    2    0    0 -0.28160437458E+02  0.20988449608E+02  0.25497021966E+02  0.47787269776E+02  0.19999994218E+02 0.  0.
         12    1    1    2    0    0  0.28160437458E+02 -0.20988449608E+02 -0.25497021966E+02  0.43400730224E+02  0.00000000000E+00 0. -1.
         11    1    3    3    0    0 -0.27720439408E+01  0.64223960239E+01 -0.37055305998E+00  0.70049060043E+01  0.51100000000E-03 0. -1.
        -11    1    3    3    0    0 -0.14598994567E+02  0.12812115994E+02  0.21597036943E+02  0.29046737572E+02  0.51100000000E-03 0.  1.
        -12    1    3    3    0    0 -0.10789398950E+02  0.17539375906E+01  0.42705380832E+01  0.11735626200E+02  0.00000000000E+00 0.  1.
</event>
<event>
 7    1  0.2412036E-009  0.4778727E+02  0.7816164E-02  0.1312668E+00
        -11   -1    0    0    0    0  0.00000000000E+00  0.00000000000E+00  0.45593999997E+02  0.45594000000E+02  0.51100000000E-03 0. -1.
         11   -1    0    0    0    0 -0.00000000000E+00 -0.00000000000E+00 -0.45593999997E+02  0.45594000000E+02  0.51100000000E-03 0.  1.
    9900012    2    1    2    0    0 -0.91913234120E+01  0.41839089872E+02 -0.69737473829E+01  0.47787273970E+02  0.20000013340E+02 0.  0.
         12    1    1    2    0    0  0.91913234120E+01 -0.41839089872E+02  0.69737473829E+01  0.43400726030E+02  0.00000000000E+00 0. -1.
         11    1    3    3    0    0  0.35702999324E+01  0.67193386308E+01 -0.59134368011E+01  0.96366637539E+01  0.51100000000E-03 0. -1.
        -11    1    3    3    0    0 -0.10401754686E+02  0.27991963208E+02  0.22462418378E+01  0.29946487397E+02  0.51100000000E-03 0.  1.
         12    1    3    3    0    0 -0.23598686579E+01  0.71277880333E+01 -0.33065524195E+01  0.82041228193E+01  0.00000000000E+00 0. -1.
</event>
<event>
 7    1  0.2412036E-009  0.4778727E+02  0.7816164E-02  0.1312668E+00
        -11   -1    0    0    0    0  0.00000000000E+00  0.00000000000E+00  0.45593999997E+02  0.45594000000E+02  0.51100000000E-03 0.  1.
         11   -1    0    0    0    0 -0.00000000000E+00 -0.00000000000E+00 -0.45593999997E+02  0.45594000000E+02  0.51100000000E-03 0. -1.
    9900012    2    1    2    0    0  0.24614830425E+02  0.27443055019E+02  0.22904412424E+02  0.47787271273E+02  0.20000001040E+02 0.  0.
         12    1    1    2    0    0 -0.24614830425E+02 -0.27443055019E+02 -0.22904412424E+02  0.43400728727E+02  0.00000000000E+00 0. -1.
         11    1    3    3    0    0  0.11920870003E+02  0.35622492098E+01  0.91223614289E+01  0.15427710114E+02  0.51100000000E-03 0. -1.
        -11    1    3    3    0    0  0.78853309921E+01  0.21463599440E+02  0.14273034489E+02  0.26955223233E+02  0.51100000000E-03 0.  1.
        -12    1    3    3    0    0  0.48086294294E+01  0.24172063685E+01 -0.49098349349E+00  0.54043379251E+01  0.00000000000E+00 0.  1.
</event>
<event>
 7    1  0.2412036E-009  0.4778727E+02  0.7816164E-02  0.1312668E+00
        -11   -1    0    0    0    0  0.00000000000E+00  0.00000000000E+00  0.45593999997E+02  0.45594000000E+02  0.51100000000E-03 0. -1.
         11   -1    0    0    0    0 -0.00000000000E+00 -0.00000000000E+00 -0.45593999997E+02  0.45594000000E+02  0.51100000000E-03 0.  1.
    9900012    2    1    2    0    0 -0.14705425515E+02 -0.40742287937E+02  0.27276146914E+01  0.47787269040E+02  0.19999990863E+02 0.  0.
         12    1    1    2    0    0  0.14705425515E+02  0.40742287937E+02 -0.27276146914E+01  0.43400730960E+02  0.00000000000E+00 0. -1.
         11    1    3    3    0    0 -0.35534433368E+01 -0.92223559315E+00  0.38062560429E+01  0.52882003898E+01  0.51100000000E-03 0. -1.
        -11    1    3    3    0    0 -0.11316244073E+02 -0.29323099871E+02  0.21808426225E+01  0.31506469823E+02  0.51100000000E-03 0.  1.
         12    1    3    3    0    0  0.16426189417E+00 -0.10496952473E+02 -0.32594839740E+01  0.10992598827E+02  0.00000000000E+00 0. -1.
</event>
<event>
 7    1  0.2412036E-009  0.4778730E+02  0.7816164E-02  0.1312668E+00
        -11   -1    0    0    0    0  0.00000000000E+00  0.00000000000E+00  0.45593999997E+02  0.45594000000E+02  0.51100000000E-03 0.  1.
         11   -1    0    0    0    0 -0.00000000000E+00 -0.00000000000E+00 -0.45593999997E+02  0.45594000000E+02  0.51100000000E-03 0. -1.
    9900012    2    1    2    0    0  0.15770197618E+02 -0.15088857738E+02  0.37513309303E+02  0.47787295678E+02  0.20000112315E+02 0.  0.
         12    1    1    2    0    0 -0.15770197618E+02  0.15088857738E+02 -0.37513309303E+02  0.43400704322E+02  0.00000000000E+00 0. -1.
         11    1    3    3    0    0  0.63357198397E+00  0.45627958327E+01  0.73406475699E+01  0.86663502281E+01  0.51100000000E-03 0. -1.
        -11    1    3    3    0    0  0.11251810665E+02 -0.14255854860E+02  0.23516354347E+02  0.29712818162E+02  0.51100000000E-03 0.  1.
         12    1    3    3    0    0  0.38848149693E+01 -0.53957987104E+01  0.66563073855E+01  0.94081272886E+01  0.00000000000E+00 0. -1.
</event>
<event>
 7    1  0.2412036E-009  0.4778727E+02  0.7816164E-02  0.1312668E+00
        -11   -1    0    0    0    0  0.00000000000E+00  0.00000000000E+00  0.45593999997E+02  0.45594000000E+02  0.51100000000E-03 0.  1.
         11   -1    0    0    0    0 -0.00000000000E+00 -0.00000000000E+00 -0.45593999997E+02  0.45594000000E+02  0.51100000000E-03 0. -1.
    9900012    2    1    2    0    0 -0.39846920768E+02 -0.18958563715E+01  0.17095384236E+02  0.47787268114E+02  0.19999986638E+02 0.  0.
         12    1    1    2    0    0  0.39846920768E+02  0.18958563715E+01 -0.17095384236E+02  0.43400731886E+02  0.00000000000E+00 0. -1.
         11    1    3    3    0    0 -0.21403374555E+02 -0.71980088334E+01  0.95421942487E+00  0.22601466954E+02  0.51100000000E-03 0. -1.
        -11    1    3    3    0    0 -0.12297670625E+02  0.40562454107E+01  0.12119810706E+02  0.17736280372E+02  0.51100000000E-03 0.  1.
         12    1    3    3    0    0 -0.61458755884E+01  0.12459070512E+01  0.40213541056E+01  0.74495207880E+01  0.00000000000E+00 0. -1.
</event>
<event>
 7    1  0.2412036E-009  0.4778727E+02  0.7816164E-02  0.1312668E+00
        -11   -1    0    0    0    0  0.00000000000E+00  0.00000000000E+00  0.45593999997E+02  0.45594000000E+02  0.51100000000E-03 0. -1.
         11   -1    0    0    0    0 -0.00000000000E+00 -0.00000000000E+00 -0.45593999997E+02  0.45594000000E+02  0.51100000000E-03 0.  1.
    9900012    2    1    2    0    0 -0.45797708160E+01  0.28082787862E+02 -0.32772033051E+02  0.47787269302E+02  0.19999992056E+02 0.  0.
         12    1    1    2    0    0  0.45797708160E+01 -0.28082787862E+02  0.32772033051E+02  0.43400730698E+02  0.00000000000E+00 0. -1.
         11    1    3    3    0    0  0.93417930105E+00  0.13321775335E+02 -0.43542294783E+01  0.14046412483E+02  0.51100000000E-03 0. -1.
        -11    1    3    3    0    0 -0.74664208451E+01  0.73777918224E+01 -0.15126086933E+02  0.18411348636E+02  0.51100000000E-03 0.  1.
         12    1    3    3    0    0  0.19524707280E+01  0.73832207050E+01 -0.13291716639E+02  0.15329508183E+02  0.00000000000E+00 0. -1.
</event>
<event>
 7    1  0.2412036E-009  0.4778728E+02  0.7816164E-02  0.1312668E+00
        -11   -1    0    0    0    0  0.00000000000E+00  0.00000000000E+00  0.45593999997E+02  0.45594000000E+02  0.51100000000E-03 0.  1.
         11   -1    0    0    0    0 -0.00000000000E+00 -0.00000000000E+00 -0.45593999997E+02  0.45594000000E+02  0.51100000000E-03 0. -1.
    9900012    2    1    2    0    0  0.43095207043E+01 -0.76377381334E+01  0.42505478698E+02  0.47787277289E+02  0.20000028472E+02 0.  0.
         12    1    1    2    0    0 -0.43095207043E+01  0.76377381334E+01 -0.42505478698E+02  0.43400722711E+02  0.00000000000E+00 0. -1.
         11    1    3    3    0    0  0.58828561739E+01  0.34541410589E+01  0.15673003665E+02  0.17093335876E+02  0.51100000000E-03 0. -1.
        -11    1    3    3    0    0 -0.19761091710E+01 -0.11875283249E+01  0.15360940957E+02  0.15532988712E+02  0.51100000000E-03 0.  1.
         12    1    3    3    0    0  0.40277370144E+00 -0.99043508674E+01  0.11471534075E+02  0.15160952701E+02  0.00000000000E+00 0. -1.
</event>
<event>
 7    1  0.2412036E-009  0.4778726E+02  0.7816164E-02  0.1312668E+00
        -11   -1    0    0    0    0  0.00000000000E+00  0.00000000000E+00  0.45593999997E+02  0.45594000000E+02  0.51100000000E-03 0. -1.
         11   -1    0    0    0    0 -0.00000000000E+00 -0.00000000000E+00 -0.45593999997E+02  0.45594000000E+02  0.51100000000E-03 0.  1.
    9900012    2    1    2    0    0 -0.17738261813E+02 -0.37872836122E+02 -0.11602852625E+02  0.47787264556E+02  0.19999970416E+02 0.  0.
         12    1    1    2    0    0  0.17738261813E+02  0.37872836122E+02  0.11602852625E+02  0.43400735444E+02  0.00000000000E+00 0. -1.
         11    1    3    3    0    0 -0.32069051721E+01 -0.13513813882E+01 -0.73854433403E+01  0.81642664112E+01  0.51100000000E-03 0. -1.
        -11    1    3    3    0    0 -0.86278516866E+01 -0.21170894279E+02 -0.11319983298E+01  0.22889473777E+02  0.51100000000E-03 0.  1.
         12    1    3    3    0    0 -0.59035049540E+01 -0.15350560454E+02 -0.30854109551E+01  0.16733524368E+02  0.00000000000E+00 0. -1.
</event>
<event>
 7    1  0.2412036E-009  0.4778728E+02  0.7816164E-02  0.1312668E+00
        -11   -1    0    0    0    0  0.00000000000E+00  0.00000000000E+00  0.45593999997E+02  0.45594000000E+02  0.51100000000E-03 0.  1.
         11   -1    0    0    0    0 -0.00000000000E+00 -0.00000000000E+00 -0.45593999997E+02  0.45594000000E+02  0.51100000000E-03 0. -1.
    9900012    2    1    2    0    0  0.80853158666E+00 -0.13516604909E+02  0.41234335429E+02  0.47787277081E+02  0.20000027523E+02 0.  0.
         12    1    1    2    0    0 -0.80853158666E+00  0.13516604909E+02 -0.41234335429E+02  0.43400722919E+02  0.00000000000E+00 0. -1.
         11    1    3    3    0    0  0.54022272699E+01 -0.78966454602E+00  0.45124909680E+01  0.70830928674E+01  0.51100000000E-03 0. -1.
        -11    1    3    3    0    0 -0.77925842572E+01 -0.80140476515E+01  0.18519978524E+02  0.21631896218E+02  0.51100000000E-03 0.  1.
        -12    1    3    3    0    0  0.31988885740E+01 -0.47128927112E+01  0.18201865937E+02  0.19072287996E+02  0.00000000000E+00 0.  1.
</event>
<event>
 7    1  0.2412036E-009  0.4778726E+02  0.7816164E-02  0.1312668E+00
        -11   -1    0    0    0    0  0.00000000000E+00  0.00000000000E+00  0.45593999997E+02  0.45594000000E+02  0.51100000000E-03 0.  1.
         11   -1    0    0    0    0 -0.00000000000E+00 -0.00000000000E+00 -0.45593999997E+02  0.45594000000E+02  0.51100000000E-03 0. -1.
    9900012    2    1    2    0    0 -0.16868478189E+02  0.47338981475E+01  0.39707286289E+02  0.47787263457E+02  0.19999965404E+02 0.  0.
         12    1    1    2    0    0  0.16868478189E+02 -0.47338981475E+01 -0.39707286289E+02  0.43400736543E+02  0.00000000000E+00 0. -1.
         11    1    3    3    0    0  0.10091964986E+01 -0.18125087480E+00  0.23638838098E+01  0.25766793320E+01  0.51100000000E-03 0. -1.
        -11    1    3    3    0    0 -0.65610549431E-01 -0.43888866794E+01  0.12552618994E+02  0.13297927466E+02  0.51100000000E-03 0.  1.
        -12    1    3    3    0    0 -0.17812064138E+02  0.93040357017E+01  0.24790783485E+02  0.31912656658E+02  0.00000000000E+00 0.  1.
</event>
<event>
 7    1  0.2412036E-009  0.4778728E+02  0.7816164E-02  0.1312668E+00
        -11   -1    0    0    0    0  0.00000000000E+00  0.00000000000E+00  0.45593999997E+02  0.45594000000E+02  0.51100000000E-03 0.  1.
         11   -1    0    0    0    0 -0.00000000000E+00 -0.00000000000E+00 -0.45593999997E+02  0.45594000000E+02  0.51100000000E-03 0. -1.
    9900012    2    1    2    0    0 -0.30543814810E+02 -0.60651623997E+01 -0.30230978637E+02  0.47787275497E+02  0.20000020300E+02 0.  0.
         12    1    1    2    0    0  0.30543814810E+02  0.60651623997E+01  0.30230978637E+02  0.43400724503E+02  0.00000000000E+00 0. -1.
         11    1    3    3    0    0 -0.78895928248E+01  0.21433984645E+01 -0.12676142994E+02  0.15083913066E+02  0.51100000000E-03 0. -1.
        -11    1    3    3    0    0 -0.21036007072E+02 -0.71490814427E+01 -0.90646475694E+01  0.23995641163E+02  0.51100000000E-03 0.  1.
        -12    1    3    3    0    0 -0.16182149125E+01 -0.10594794214E+01 -0.84901880732E+01  0.87077212671E+01  0.00000000000E+00 0.  1.
</event>
<event>
 7    1  0.2412036E-009  0.4778724E+02  0.7816164E-02  0.1312668E+00
        -11   -1    0    0    0    0  0.00000000000E+00  0.00000000000E+00  0.45593999997E+02  0.45594000000E+02  0.51100000000E-03 0.  1.
         11   -1    0    0    0    0 -0.00000000000E+00 -0.00000000000E+00 -0.45593999997E+02  0.45594000000E+02  0.51100000000E-03 0. -1.
    9900012    2    1    2    0    0 -0.42281665056E+02  0.66189587017E+00 -0.97697645739E+01  0.47787244179E+02  0.19999877507E+02 0.  0.
         12    1    1    2    0    0  0.42281665056E+02 -0.66189587017E+00  0.97697645739E+01  0.43400755821E+02  0.00000000000E+00 0. -1.
         11    1    3    3    0    0 -0.20978115279E+02  0.67766849103E+01 -0.30623636915E+01  0.22257197727E+02  0.51100000000E-03 0. -1.
        -11    1    3    3    0    0 -0.19696067325E+02 -0.62578655995E+01 -0.22487176122E+01  0.20788282303E+02  0.51100000000E-03 0.  1.
         12    1    3    3    0    0 -0.16074824516E+01  0.14307655940E+00 -0.44586832703E+01  0.47417641484E+01  0.00000000000E+00 0. -1.
</event>
<event>
 7    1  0.2412036E-009  0.4778727E+02  0.7816164E-02  0.1312668E+00
        -11   -1    0    0    0    0  0.00000000000E+00  0.00000000000E+00  0.45593999997E+02  0.45594000000E+02  0.51100000000E-03 0. -1.
         11   -1    0    0    0    0 -0.00000000000E+00 -0.00000000000E+00 -0.45593999997E+02  0.45594000000E+02  0.51100000000E-03 0.  1.
    9900012    2    1    2    0    0 -0.75050522385E+00 -0.27764334297E+01 -0.43305326190E+02  0.47787272850E+02  0.20000008233E+02 0.  0.
         12    1    1    2    0    0  0.75050522385E+00  0.27764334297E+01  0.43305326190E+02  0.43400727150E+02  0.00000000000E+00 0. -1.
         11    1    3    3    0    0  0.53840374520E-01  0.30169763336E+01 -0.43161169641E+01  0.52662995445E+01  0.51100000000E-03 0. -1.
        -11    1    3    3    0    0  0.34696473473E+01 -0.63640159378E+01 -0.37120458163E+02  0.37821522525E+02  0.51100000000E-03 0.  1.
        -12    1    3    3    0    0 -0.42739929457E+01  0.57060617448E+00 -0.18687510631E+01  0.46994507809E+01  0.00000000000E+00 0.  1.
</event>
<event>
 7    1  0.2412036E-009  0.4778727E+02  0.7816164E-02  0.1312668E+00
        -11   -1    0    0    0    0  0.00000000000E+00  0.00000000000E+00  0.45593999997E+02  0.45594000000E+02  0.51100000000E-03 0.  1.
         11   -1    0    0    0    0 -0.00000000000E+00 -0.00000000000E+00 -0.45593999997E+02  0.45594000000E+02  0.51100000000E-03 0. -1.
    9900012    2    1    2    0    0  0.29713760584E+02  0.27517401076E+02  0.15604769161E+02  0.47787265552E+02  0.19999974958E+02 0.  0.
         12    1    1    2    0    0 -0.29713760584E+02 -0.27517401076E+02 -0.15604769161E+02  0.43400734448E+02  0.00000000000E+00 0. -1.
         11    1    3    3    0    0  0.73421482346E+01  0.23956679535E+01 -0.10322886750E+01  0.77917896411E+01  0.51100000000E-03 0. -1.
        -11    1    3    3    0    0  0.14828044686E+02  0.24615638560E+02  0.14186405599E+02  0.32047693755E+02  0.51100000000E-03 0.  1.
        -12    1    3    3    0    0  0.75435676639E+01  0.50609456221E+00  0.24506522368E+01  0.79477821555E+01  0.00000000000E+00 0.  1.
</event>
<event>
 7    1  0.2412036E-009  0.4778727E+02  0.7816164E-02  0.1312668E+00
        -11   -1    0    0    0    0  0.00000000000E+00  0.00000000000E+00  0.45593999997E+02  0.45594000000E+02  0.51100000000E-03 0.  1.
         11   -1    0    0    0    0 -0.00000000000E+00 -0.00000000000E+00 -0.45593999997E+02  0.45594000000E+02  0.51100000000E-03 0. -1.
    9900012    2    1    2    0    0 -0.31042305617E+01 -0.29375617621E+02  0.31797168865E+02  0.47787272981E+02  0.20000008828E+02 0.  0.
         12    1    1    2    0    0  0.31042305617E+01  0.29375617621E+02 -0.31797168865E+02  0.43400727019E+02  0.00000000000E+00 0. -1.
         11    1    3    3    0    0  0.12907738796E+00 -0.72125923972E+00  0.91244079244E+01  0.91537804264E+01  0.51100000000E-03 0. -1.
        -11    1    3    3    0    0 -0.41409862959E+01 -0.19879455581E+02  0.86612950102E+01  0.22076198794E+02  0.51100000000E-03 0.  1.
        -12    1    3    3    0    0  0.90767834624E+00 -0.87749028000E+01  0.14011465931E+02  0.16557293760E+02  0.00000000000E+00 0.  1.
</event>
<event>
 7    1  0.2412036E-009  0.4778728E+02  0.7816164E-02  0.1312668E+00
        -11   -1    0    0    0    0  0.00000000000E+00  0.00000000000E+00  0.45593999997E+02  0.45594000000E+02  0.51100000000E-03 0.  1.
         11   -1    0    0    0    0 -0.00000000000E+00 -0.00000000000E+00 -0.45593999997E+02  0.45594000000E+02  0.51100000000E-03 0. -1.
    9900012    2    1    2    0    0 -0.25649880348E+02 -0.43136380045E+01  0.34743321527E+02  0.47787283123E+02  0.20000055072E+02 0.  0.
         12    1    1    2    0    0  0.25649880348E+02  0.43136380045E+01 -0.34743321527E+02  0.43400716877E+02  0.00000000000E+00 0. -1.
         11    1    3    3    0    0 -0.11151324809E+02  0.68391016244E+01  0.13938350603E+02  0.19115516572E+02  0.51100000000E-03 0. -1.
        -11    1    3    3    0    0 -0.13501572478E+02 -0.69348409211E+01  0.14289654582E+02  0.20846551425E+02  0.51100000000E-03 0.  1.
         12    1    3    3    0    0 -0.99698306054E+00 -0.42178987078E+01  0.65153163419E+01  0.78252151259E+01  0.00000000000E+00 0. -1.
</event>
<event>
 7    1  0.2412036E-009  0.4778727E+02  0.7816164E-02  0.1312668E+00
        -11   -1    0    0    0    0  0.00000000000E+00  0.00000000000E+00  0.45593999997E+02  0.45594000000E+02  0.51100000000E-03 0. -1.
         11   -1    0    0    0    0 -0.00000000000E+00 -0.00000000000E+00 -0.45593999997E+02  0.45594000000E+02  0.51100000000E-03 0.  1.
    9900012    2    1    2    0    0 -0.40859960807E+02  0.90472869693E+01  0.11499286713E+02  0.47787269665E+02  0.19999993713E+02 0.  0.
         12    1    1    2    0    0  0.40859960807E+02 -0.90472869693E+01 -0.11499286713E+02  0.43400730335E+02  0.00000000000E+00 0. -1.
         11    1    3    3    0    0 -0.87472548735E+01 -0.16461444605E+01  0.46184153603E+01  0.10027662744E+02  0.51100000000E-03 0.  1.
        -11    1    3    3    0    0 -0.11541700093E+02 -0.16523244968E+01  0.73154653643E+01  0.13764339833E+02  0.51100000000E-03 0. -1.
         12    1    3    3    0    0 -0.20571005840E+02  0.12345755927E+02 -0.43459401134E+00  0.23995267088E+02  0.00000000000E+00 0. -1.
</event>
<event>
 7    1  0.2412036E-009  0.4778727E+02  0.7816164E-02  0.1312668E+00
        -11   -1    0    0    0    0  0.00000000000E+00  0.00000000000E+00  0.45593999997E+02  0.45594000000E+02  0.51100000000E-03 0. -1.
         11   -1    0    0    0    0 -0.00000000000E+00 -0.00000000000E+00 -0.45593999997E+02  0.45594000000E+02  0.51100000000E-03 0.  1.
    9900012    2    1    2    0    0 -0.39735406182E+02 -0.42550176032E+01 -0.16929725922E+02  0.47787270754E+02  0.19999998677E+02 0.  0.
         12    1    1    2    0    0  0.39735406182E+02  0.42550176032E+01  0.16929725922E+02  0.43400729246E+02  0.00000000000E+00 0. -1.
         11    1    3    3    0    0 -0.63164413512E-01 -0.80607845463E+00 -0.19635146597E+01  0.21234741105E+01  0.51100000000E-03 0. -1.
        -11    1    3    3    0    0 -0.41566519818E+01 -0.62349912641E+01 -0.31756651267E+01  0.81386559713E+01  0.51100000000E-03 0.  1.
        -12    1    3    3    0    0 -0.35515589787E+02  0.27860521155E+01 -0.11790546136E+02  0.37525140672E+02  0.00000000000E+00 0.  1.
</event>
<event>
 7    1  0.2412036E-009  0.4778727E+02  0.7816164E-02  0.1312668E+00
        -11   -1    0    0    0    0  0.00000000000E+00  0.00000000000E+00  0.45593999997E+02  0.45594000000E+02  0.51100000000E-03 0.  1.
         11   -1    0    0    0    0 -0.00000000000E+00 -0.00000000000E+00 -0.45593999997E+02  0.45594000000E+02  0.51100000000E-03 0. -1.
    9900012    2    1    2    0    0  0.88461312746E+01  0.13229560291E+02  0.40377563972E+02  0.47787274473E+02  0.20000015631E+02 0.  0.
         12    1    1    2    0    0 -0.88461312746E+01 -0.13229560291E+02 -0.40377563972E+02  0.43400725527E+02  0.00000000000E+00 0. -1.
         11    1    3    3    0    0  0.45724063296E+01 -0.99691541079E+00  0.19890662465E+01  0.50849901449E+01  0.51100000000E-03 0. -1.
        -11    1    3    3    0    0  0.81261520533E+01  0.10665514304E+02  0.28932741542E+02  0.31888729607E+02  0.51100000000E-03 0.  1.
         12    1    3    3    0    0 -0.38524271083E+01  0.35609613978E+01  0.94557561831E+01  0.10813554721E+02  0.00000000000E+00 0. -1.
</event>
<event>
 7    1  0.2412036E-009  0.4778727E+02  0.7816164E-02  0.1312668E+00
        -11   -1    0    0    0    0  0.00000000000E+00  0.00000000000E+00  0.45593999997E+02  0.45594000000E+02  0.51100000000E-03 0.  1.
         11   -1    0    0    0    0 -0.00000000000E+00 -0.00000000000E+00 -0.45593999997E+02  0.45594000000E+02  0.51100000000E-03 0. -1.
    9900012    2    1    2    0    0  0.45837239596E+01  0.10681838772E+02  0.41815200255E+02  0.47787272158E+02  0.20000005075E+02 0.  0.
         12    1    1    2    0    0 -0.45837239596E+01 -0.10681838772E+02 -0.41815200255E+02  0.43400727842E+02  0.00000000000E+00 0. -1.
         11    1    3    3    0    0  0.16459678231E+00 -0.31327909988E+01  0.59240247626E+01  0.67033977348E+01  0.51100000000E-03 0. -1.
        -11    1    3    3    0    0  0.42758490420E+01  0.81616726159E+01  0.33834600561E+02  0.35066736094E+02  0.51100000000E-03 0.  1.
        -12    1    3    3    0    0  0.14327813527E+00  0.56529571549E+01  0.20565749318E+01  0.60171383289E+01  0.00000000000E+00 0.  1.
</event>
<event>
 7    1  0.2412036E-009  0.4778727E+02  0.7816164E-02  0.1312668E+00
        -11   -1    0    0    0    0  0.00000000000E+00  0.00000000000E+00  0.45593999997E+02  0.45594000000E+02  0.51100000000E-03 0.  1.
         11   -1    0    0    0    0 -0.00000000000E+00 -0.00000000000E+00 -0.45593999997E+02  0.45594000000E+02  0.51100000000E-03 0. -1.
    9900012    2    1    2    0    0  0.41078138059E+02 -0.13570429000E+02 -0.34717608401E+01  0.47787273129E+02  0.20000009504E+02 0.  0.
         12    1    1    2    0    0 -0.41078138059E+02  0.13570429000E+02  0.34717608401E+01  0.43400726871E+02  0.00000000000E+00 0. -1.
         11    1    3    3    0    0  0.60660533583E+01 -0.16898902831E+01 -0.23492497838E+01  0.67209900552E+01  0.51100000000E-03 0. -1.
        -11    1    3    3    0    0  0.23975331284E+02 -0.28875541885E+01 -0.77511336589E+01  0.25362069171E+02  0.51100000000E-03 0.  1.
        -12    1    3    3    0    0  0.11036753416E+02 -0.89929845281E+01  0.66286226026E+01  0.15704213903E+02  0.00000000000E+00 0.  1.
</event>
<event>
 7    1  0.2412036E-009  0.4778727E+02  0.7816164E-02  0.1312668E+00
        -11   -1    0    0    0    0  0.00000000000E+00  0.00000000000E+00  0.45593999997E+02  0.45594000000E+02  0.51100000000E-03 0.  1.
         11   -1    0    0    0    0 -0.00000000000E+00 -0.00000000000E+00 -0.45593999997E+02  0.45594000000E+02  0.51100000000E-03 0. -1.
    9900012    2    1    2    0    0  0.12960519559E+02  0.72317052486E+01  0.40784193205E+02  0.47787273699E+02  0.20000012105E+02 0.  0.
         12    1    1    2    0    0 -0.12960519559E+02 -0.72317052486E+01 -0.40784193205E+02  0.43400726301E+02  0.00000000000E+00 0. -1.
         11    1    3    3    0    0  0.12329546039E+02  0.15056413567E+01  0.13279788055E+02  0.18183438411E+02  0.51100000000E-03 0. -1.
        -11    1    3    3    0    0  0.89749782186E+00  0.83068146286E+01  0.21005546112E+02  0.22606230100E+02  0.51100000000E-03 0.  1.
        -12    1    3    3    0    0 -0.26652430155E+00 -0.25807507367E+01  0.64988590379E+01  0.69976051877E+01  0.00000000000E+00 0.  1.
</event>
<event>
 7    1  0.2412036E-009  0.4778727E+02  0.7816164E-02  0.1312668E+00
        -11   -1    0    0    0    0  0.00000000000E+00  0.00000000000E+00  0.45593999997E+02  0.45594000000E+02  0.51100000000E-03 0.  1.
         11   -1    0    0    0    0 -0.00000000000E+00 -0.00000000000E+00 -0.45593999997E+02  0.45594000000E+02  0.51100000000E-03 0. -1.
    9900012    2    1    2    0    0  0.79061540486E+01  0.14287150476E+01  0.42650617525E+02  0.47787266437E+02  0.19999978993E+02 0.  0.
         12    1    1    2    0    0 -0.79061540486E+01 -0.14287150476E+01 -0.42650617525E+02  0.43400733563E+02  0.00000000000E+00 0. -1.
         11    1    3    3    0    0 -0.57404572603E+01  0.17565618854E+01  0.63562091951E+01  0.87429831755E+01  0.51100000000E-03 0. -1.
        -11    1    3    3    0    0  0.48993249939E+01 -0.22963452615E+01  0.14579257518E+02  0.15550927207E+02  0.51100000000E-03 0.  1.
         12    1    3    3    0    0  0.87472863151E+01  0.19684984236E+01  0.21715150812E+02  0.23493356055E+02  0.00000000000E+00 0. -1.
</event>
<event>
 7    1  0.2412036E-009  0.4778727E+02  0.7816164E-02  0.1312668E+00
        -11   -1    0    0    0    0  0.00000000000E+00  0.00000000000E+00  0.45593999997E+02  0.45594000000E+02  0.51100000000E-03 0.  1.
         11   -1    0    0    0    0 -0.00000000000E+00 -0.00000000000E+00 -0.45593999997E+02  0.45594000000E+02  0.51100000000E-03 0. -1.
    9900012    2    1    2    0    0  0.81845602960E+00 -0.14838910016E+02  0.40776952854E+02  0.47787274144E+02  0.20000014133E+02 0.  0.
         12    1    1    2    0    0 -0.81845602960E+00  0.14838910016E+02 -0.40776952854E+02  0.43400725856E+02  0.00000000000E+00 0. -1.
         11    1    3    3    0    0  0.58594121901E+01 -0.41155157168E+01  0.30015425272E+01  0.77639834255E+01  0.51100000000E-03 0. -1.
        -11    1    3    3    0    0 -0.10384894840E+00 -0.69935114798E+01  0.21633679833E+02  0.22736228596E+02  0.51100000000E-03 0.  1.
         12    1    3    3    0    0 -0.49371072121E+01 -0.37298828198E+01  0.16141730494E+02  0.17287062122E+02  0.00000000000E+00 0. -1.
</event>
<event>
 7    1  0.2412036E-009  0.4778727E+02  0.7816164E-02  0.1312668E+00
        -11   -1    0    0    0    0  0.00000000000E+00  0.00000000000E+00  0.45593999997E+02  0.45594000000E+02  0.51100000000E-03 0.  1.
         11   -1    0    0    0    0 -0.00000000000E+00 -0.00000000000E+00 -0.45593999997E+02  0.45594000000E+02  0.51100000000E-03 0. -1.
    9900012    2    1    2    0    0  0.41485738512E+02 -0.11901752194E+02  0.45722312229E+01  0.47787268398E+02  0.19999987935E+02 0.  0.
         12    1    1    2    0    0 -0.41485738512E+02  0.11901752194E+02 -0.45722312229E+01  0.43400731602E+02  0.00000000000E+00 0. -1.
         11    1    3    3    0    0  0.84854135520E+01 -0.45175711423E+00  0.11138514426E+01  0.85701221074E+01  0.51100000000E-03 0. -1.
        -11    1    3    3    0    0  0.43980653978E+01  0.34709960741E+01 -0.29418266339E+01  0.63281227228E+01  0.51100000000E-03 0.  1.
        -12    1    3    3    0    0  0.28602259563E+02 -0.14920991154E+02  0.64002064141E+01  0.32889023568E+02  0.00000000000E+00 0.  1.
</event>
<event>
 7    1  0.2412036E-009  0.4778727E+02  0.7816164E-02  0.1312668E+00
        -11   -1    0    0    0    0  0.00000000000E+00  0.00000000000E+00  0.45593999997E+02  0.45594000000E+02  0.51100000000E-03 0.  1.
         11   -1    0    0    0    0 -0.00000000000E+00 -0.00000000000E+00 -0.45593999997E+02  0.45594000000E+02  0.51100000000E-03 0. -1.
    9900012    2    1    2    0    0  0.18831878616E+01 -0.39733598654E+02  0.17358519701E+02  0.47787268846E+02  0.19999989975E+02 0.  0.
         12    1    1    2    0    0 -0.18831878616E+01  0.39733598654E+02 -0.17358519701E+02  0.43400731154E+02  0.00000000000E+00 0. -1.
         11    1    3    3    0    0  0.30692535355E+01 -0.55539551196E+01  0.10417950289E+02  0.12198377893E+02  0.51100000000E-03 0. -1.
        -11    1    3    3    0    0 -0.66039399688E+00 -0.33923824530E+02  0.75331781514E+01  0.34756449247E+02  0.51100000000E-03 0.  1.
         12    1    3    3    0    0 -0.52567167704E+00 -0.25581900461E+00 -0.59260873914E+00  0.83244170539E+00  0.00000000000E+00 0. -1.
</event>
<event>
 7    1  0.2412036E-009  0.4778727E+02  0.7816164E-02  0.1312668E+00
        -11   -1    0    0    0    0  0.00000000000E+00  0.00000000000E+00  0.45593999997E+02  0.45594000000E+02  0.51100000000E-03 0.  1.
         11   -1    0    0    0    0 -0.00000000000E+00 -0.00000000000E+00 -0.45593999997E+02  0.45594000000E+02  0.51100000000E-03 0. -1.
    9900012    2    1    2    0    0  0.19229664077E+02  0.15722911504E+02  0.35589793527E+02  0.47787270398E+02  0.19999997054E+02 0.  0.
         12    1    1    2    0    0 -0.19229664077E+02 -0.15722911504E+02 -0.35589793527E+02  0.43400729602E+02  0.00000000000E+00 0. -1.
         11    1    3    3    0    0 -0.12534907748E+01  0.32095574030E+01  0.14275507083E+02  0.14685455409E+02  0.51100000000E-03 0. -1.
        -11    1    3    3    0    0  0.40444746489E+00  0.12538566803E+01  0.42419093238E+01  0.44417934778E+01  0.51100000000E-03 0.  1.
         12    1    3    3    0    0  0.20078707387E+02  0.11259497420E+02  0.17072377121E+02  0.28660021511E+02  0.00000000000E+00 0. -1.
</event>
<event>
 7    1  0.2412036E-009  0.4778728E+02  0.7816164E-02  0.1312668E+00
        -11   -1    0    0    0    0  0.00000000000E+00  0.00000000000E+00  0.45593999997E+02  0.45594000000E+02  0.51100000000E-03 0.  1.
         11   -1    0    0    0    0 -0.00000000000E+00 -0.00000000000E+00 -0.45593999997E+02  0.45594000000E+02  0.51100000000E-03 0. -1.
    9900012    2    1    2    0    0  0.20608268348E+02  0.11962746533E+02  0.36274153727E+02  0.47787282753E+02  0.20000053384E+02 0.  0.
         12    1    1    2    0    0 -0.20608268348E+02 -0.11962746533E+02 -0.36274153727E+02  0.43400717247E+02  0.00000000000E+00 0. -1.
         11    1    3    3    0    0  0.11047899553E+02  0.91718887995E+01  0.31117792570E+02  0.34270930004E+02  0.51100000000E-03 0. -1.
        -11    1    3    3    0    0  0.60099368254E+01 -0.16110343701E+01  0.59444136247E+00  0.62504506383E+01  0.51100000000E-03 0.  1.
         12    1    3    3    0    0  0.35504319702E+01  0.44018921032E+01  0.45619197954E+01  0.72659021107E+01  0.00000000000E+00 0. -1.
</event>
<event>
 7    1  0.2412036E-009  0.4778729E+02  0.7816164E-02  0.1312668E+00
        -11   -1    0    0    0    0  0.00000000000E+00  0.00000000000E+00  0.45593999997E+02  0.45594000000E+02  0.51100000000E-03 0.  1.
         11   -1    0    0    0    0 -0.00000000000E+00 -0.00000000000E+00 -0.45593999997E+02  0.45594000000E+02  0.51100000000E-03 0. -1.
    9900012    2    1    2    0    0  0.89256478749E+01  0.28689378712E+02  0.31318911224E+02  0.47787287551E+02  0.20000075258E+02 0.  0.
         12    1    1    2    0    0 -0.89256478749E+01 -0.28689378712E+02 -0.31318911224E+02  0.43400712449E+02  0.00000000000E+00 0. -1.
         11    1    3    3    0    0  0.20394239868E+01 -0.23951039258E+01  0.49459160591E+01  0.58615577228E+01  0.51100000000E-03 0. -1.
        -11    1    3    3    0    0 -0.72163532287E+00  0.15644752847E+01  0.31968393914E+01  0.36315455127E+01  0.51100000000E-03 0.  1.
         12    1    3    3    0    0  0.76078592109E+01  0.29520007354E+02  0.23176155773E+02  0.38294184315E+02  0.00000000000E+00 0. -1.
</event>
<event>
 7    1  0.2412036E-009  0.4778727E+02  0.7816164E-02  0.1312668E+00
        -11   -1    0    0    0    0  0.00000000000E+00  0.00000000000E+00  0.45593999997E+02  0.45594000000E+02  0.51100000000E-03 0.  1.
         11   -1    0    0    0    0 -0.00000000000E+00 -0.00000000000E+00 -0.45593999997E+02  0.45594000000E+02  0.51100000000E-03 0. -1.
    9900012    2    1    2    0    0  0.36757979253E+02  0.18115755206E+02  0.14293141711E+02  0.47787268147E+02  0.19999986787E+02 0.  0.
         12    1    1    2    0    0 -0.36757979253E+02 -0.18115755206E+02 -0.14293141711E+02  0.43400731853E+02  0.00000000000E+00 0. -1.
         11    1    3    3    0    0  0.13082846904E+02  0.21980128857E+01 -0.19325643393E+00  0.13267610639E+02  0.51100000000E-03 0. -1.
        -11    1    3    3    0    0  0.23424692295E+02  0.17538968074E+02  0.14885234014E+02  0.32831414866E+02  0.51100000000E-03 0.  1.
        -12    1    3    3    0    0  0.25044005465E+00 -0.16212257541E+01 -0.39883586889E+00  0.16882426417E+01  0.00000000000E+00 0.  1.
</event>
<event>
 7    1  0.2412036E-009  0.4778727E+02  0.7816164E-02  0.1312668E+00
        -11   -1    0    0    0    0  0.00000000000E+00  0.00000000000E+00  0.45593999997E+02  0.45594000000E+02  0.51100000000E-03 0.  1.
         11   -1    0    0    0    0 -0.00000000000E+00 -0.00000000000E+00 -0.45593999997E+02  0.45594000000E+02  0.51100000000E-03 0. -1.
    9900012    2    1    2    0    0  0.17445337824E+02  0.43883490202E+01  0.39497166611E+02  0.47787267412E+02  0.19999983437E+02 0.  0.
         12    1    1    2    0    0 -0.17445337824E+02 -0.43883490202E+01 -0.39497166611E+02  0.43400732588E+02  0.00000000000E+00 0. -1.
         11    1    3    3    0    0  0.11592613614E+02 -0.41896813675E+01  0.12863275470E+02  0.17815891121E+02  0.51100000000E-03 0. -1.
        -11    1    3    3    0    0  0.46569864726E+01  0.89112762768E+01  0.13783449315E+02  0.17061120806E+02  0.51100000000E-03 0.  1.
         12    1    3    3    0    0  0.11957377380E+01 -0.33324588907E+00  0.12850441825E+02  0.12910255484E+02  0.00000000000E+00 0. -1.
</event>
<event>
 7    1  0.2412036E-009  0.4778727E+02  0.7816164E-02  0.1312668E+00
        -11   -1    0    0    0    0  0.00000000000E+00  0.00000000000E+00  0.45593999997E+02  0.45594000000E+02  0.51100000000E-03 0.  1.
         11   -1    0    0    0    0 -0.00000000000E+00 -0.00000000000E+00 -0.45593999997E+02  0.45594000000E+02  0.51100000000E-03 0. -1.
    9900012    2    1    2    0    0  0.63041012477E+01  0.14532703049E+02  0.40406461776E+02  0.47787270701E+02  0.19999998434E+02 0.  0.
         12    1    1    2    0    0 -0.63041012477E+01 -0.14532703049E+02 -0.40406461776E+02  0.43400729299E+02  0.00000000000E+00 0. -1.
         11    1    3    3    0    0 -0.11384924708E+01  0.44815142781E+01  0.13240279500E+01  0.48096970388E+01  0.51100000000E-03 0. -1.
        -11    1    3    3    0    0  0.40174870264E+01  0.12143921367E+02  0.34947802767E+02  0.37215103744E+02  0.51100000000E-03 0.  1.
        -12    1    3    3    0    0  0.34251066921E+01 -0.20927325956E+01  0.41346310590E+01  0.57624699186E+01  0.00000000000E+00 0.  1.
</event>
<event>
 7    1  0.2412036E-009  0.4778727E+02  0.7816164E-02  0.1312668E+00
        -11   -1    0    0    0    0  0.00000000000E+00  0.00000000000E+00  0.45593999997E+02  0.45594000000E+02  0.51100000000E-03 0. -1.
         11   -1    0    0    0    0 -0.00000000000E+00 -0.00000000000E+00 -0.45593999997E+02  0.45594000000E+02  0.51100000000E-03 0.  1.
    9900012    2    1    2    0    0 -0.26697768045E+01 -0.94157753642E+01 -0.42282841351E+02  0.47787271820E+02  0.20000003534E+02 0.  0.
         12    1    1    2    0    0  0.26697768045E+01  0.94157753642E+01  0.42282841351E+02  0.43400728180E+02  0.00000000000E+00 0. -1.
         11    1    3    3    0    0 -0.52923295344E+01  0.17836768901E+01 -0.68941394802E+01  0.88723962143E+01  0.51100000000E-03 0. -1.
        -11    1    3    3    0    0  0.62588639373E+01 -0.68105613109E+01 -0.13998989470E+02  0.16778820864E+02  0.51100000000E-03 0.  1.
        -12    1    3    3    0    0 -0.36363112074E+01 -0.43888909434E+01 -0.21389712401E+02  0.22136054741E+02  0.00000000000E+00 0.  1.
</event>
<event>
 7    1  0.2412036E-009  0.4778730E+02  0.7816164E-02  0.1312668E+00
        -11   -1    0    0    0    0  0.00000000000E+00  0.00000000000E+00  0.45593999997E+02  0.45594000000E+02  0.51100000000E-03 0.  1.
         11   -1    0    0    0    0 -0.00000000000E+00 -0.00000000000E+00 -0.45593999997E+02  0.45594000000E+02  0.51100000000E-03 0. -1.
    9900012    2    1    2    0    0 -0.18916517440E+02  0.15519043077E+02  0.35846139692E+02  0.47787296540E+02  0.20000116242E+02 0.  0.
         12    1    1    2    0    0  0.18916517440E+02 -0.15519043077E+02 -0.35846139692E+02  0.43400703460E+02  0.00000000000E+00 0. -1.
         11    1    3    3    0    0 -0.23602997222E+01 -0.38199367684E+01  0.33208276155E+01  0.55848749320E+01  0.51100000000E-03 0. -1.
        -11    1    3    3    0    0 -0.63088948427E+01  0.11697532442E+02  0.11395492848E+02  0.17506903692E+02  0.51100000000E-03 0.  1.
         12    1    3    3    0    0 -0.10247322875E+02  0.76414474038E+01  0.21129819228E+02  0.24695517916E+02  0.00000000000E+00 0. -1.
</event>
<event>
 7    1  0.2412036E-009  0.4778729E+02  0.7816164E-02  0.1312668E+00
        -11   -1    0    0    0    0  0.00000000000E+00  0.00000000000E+00  0.45593999997E+02  0.45594000000E+02  0.51100000000E-03 0.  1.
         11   -1    0    0    0    0 -0.00000000000E+00 -0.00000000000E+00 -0.45593999997E+02  0.45594000000E+02  0.51100000000E-03 0. -1.
    9900012    2    1    2    0    0  0.68696411184E+01 -0.11906755324E+02  0.41166229964E+02  0.47787294005E+02  0.20000104687E+02 0.  0.
         12    1    1    2    0    0 -0.68696411184E+01  0.11906755324E+02 -0.41166229964E+02  0.43400705995E+02  0.00000000000E+00 0. -1.
         11    1    3    3    0    0 -0.50647138296E+01 -0.28604604310E+01  0.16488281263E+02  0.17484192269E+02  0.51100000000E-03 0. -1.
        -11    1    3    3    0    0  0.63343640716E+01 -0.91965710563E+01  0.20392743122E+02  0.23250055047E+02  0.51100000000E-03 0.  1.
         12    1    3    3    0    0  0.55999908764E+01  0.15027616330E+00  0.42852055782E+01  0.70530466883E+01  0.00000000000E+00 0. -1.
</event>
<event>
 7    1  0.2412036E-009  0.4778728E+02  0.7816164E-02  0.1312668E+00
        -11   -1    0    0    0    0  0.00000000000E+00  0.00000000000E+00  0.45593999997E+02  0.45594000000E+02  0.51100000000E-03 0.  1.
         11   -1    0    0    0    0 -0.00000000000E+00 -0.00000000000E+00 -0.45593999997E+02  0.45594000000E+02  0.51100000000E-03 0. -1.
    9900012    2    1    2    0    0 -0.31182154989E+01 -0.26069233698E+02 -0.34558567675E+02  0.47787276351E+02  0.20000024196E+02 0.  0.
         12    1    1    2    0    0  0.31182154989E+01  0.26069233698E+02  0.34558567675E+02  0.43400723649E+02  0.00000000000E+00 0. -1.
         11    1    3    3    0    0 -0.48949744658E+01 -0.72007841267E+01 -0.48825912358E+01  0.99825730399E+01  0.51100000000E-03 0. -1.
        -11    1    3    3    0    0  0.50178497969E+01 -0.93783321969E+00 -0.79696731279E+01  0.94643561725E+01  0.51100000000E-03 0.  1.
        -12    1    3    3    0    0 -0.32410908300E+01 -0.17930616352E+02 -0.21706303311E+02  0.28340347139E+02  0.00000000000E+00 0.  1.
</event>
<event>
 7    1  0.2412036E-009  0.4778727E+02  0.7816164E-02  0.1312668E+00
        -11   -1    0    0    0    0  0.00000000000E+00  0.00000000000E+00  0.45593999997E+02  0.45594000000E+02  0.51100000000E-03 0.  1.
         11   -1    0    0    0    0 -0.00000000000E+00 -0.00000000000E+00 -0.45593999997E+02  0.45594000000E+02  0.51100000000E-03 0. -1.
    9900012    2    1    2    0    0  0.10680347861E+02  0.15253817378E+02  0.39202991299E+02  0.47787270723E+02  0.19999998532E+02 0.  0.
         12    1    1    2    0    0 -0.10680347861E+02 -0.15253817378E+02 -0.39202991299E+02  0.43400729277E+02  0.00000000000E+00 0. -1.
         11    1    3    3    0    0  0.11828810552E+02  0.68537849385E+01  0.16499290500E+02  0.21427125667E+02  0.51100000000E-03 0. -1.
        -11    1    3    3    0    0 -0.47578856440E+01  0.85461397997E+01  0.16500164776E+02  0.19181486365E+02  0.51100000000E-03 0.  1.
        -12    1    3    3    0    0  0.36094229528E+01 -0.14610736058E+00  0.62035360230E+01  0.71786586910E+01  0.00000000000E+00 0.  1.
</event>
<event>
 7    1  0.2412036E-009  0.4778727E+02  0.7816164E-02  0.1312668E+00
        -11   -1    0    0    0    0  0.00000000000E+00  0.00000000000E+00  0.45593999997E+02  0.45594000000E+02  0.51100000000E-03 0.  1.
         11   -1    0    0    0    0 -0.00000000000E+00 -0.00000000000E+00 -0.45593999997E+02  0.45594000000E+02  0.51100000000E-03 0. -1.
    9900012    2    1    2    0    0  0.36748750547E+02  0.42742298305E+01  0.22691053475E+02  0.47787267112E+02  0.19999982069E+02 0.  0.
         12    1    1    2    0    0 -0.36748750547E+02 -0.42742298305E+01 -0.22691053475E+02  0.43400732888E+02  0.00000000000E+00 0. -1.
         11    1    3    3    0    0  0.91875916240E+01 -0.37621894725E+01  0.12623665033E+02  0.16059975984E+02  0.51100000000E-03 0. -1.
        -11    1    3    3    0    0  0.22184115479E+02  0.33501706875E+01  0.50226430910E+01  0.22990988823E+02  0.51100000000E-03 0.  1.
         12    1    3    3    0    0  0.53770434447E+01  0.46862486155E+01  0.50447453516E+01  0.87363023045E+01  0.00000000000E+00 0. -1.
</event>
<event>
 7    1  0.2412036E-009  0.4778726E+02  0.7816164E-02  0.1312668E+00
        -11   -1    0    0    0    0  0.00000000000E+00  0.00000000000E+00  0.45593999997E+02  0.45594000000E+02  0.51100000000E-03 0.  1.
         11   -1    0    0    0    0 -0.00000000000E+00 -0.00000000000E+00 -0.45593999997E+02  0.45594000000E+02  0.51100000000E-03 0. -1.
    9900012    2    1    2    0    0  0.23877912053E+02 -0.41875336715E+01  0.35999084585E+02  0.47787260223E+02  0.19999950659E+02 0.  0.
         12    1    1    2    0    0 -0.23877912053E+02  0.41875336715E+01 -0.35999084585E+02  0.43400739777E+02  0.00000000000E+00 0. -1.
         11    1    3    3    0    0 -0.14193044429E+01  0.27335957197E+01  0.94043151083E+00  0.32204630642E+01  0.51100000000E-03 0. -1.
        -11    1    3    3    0    0  0.17010977676E+02 -0.72412046959E+01  0.28602457030E+02  0.34057436124E+02  0.51100000000E-03 0.  1.
        -12    1    3    3    0    0  0.82862388203E+01  0.32007530480E+00  0.64561960440E+01  0.10509361034E+02  0.00000000000E+00 0.  1.
</event>
<event>
 7    1  0.2412036E-009  0.4778727E+02  0.7816164E-02  0.1312668E+00
        -11   -1    0    0    0    0  0.00000000000E+00  0.00000000000E+00  0.45593999997E+02  0.45594000000E+02  0.51100000000E-03 0. -1.
         11   -1    0    0    0    0 -0.00000000000E+00 -0.00000000000E+00 -0.45593999997E+02  0.45594000000E+02  0.51100000000E-03 0.  1.
    9900012    2    1    2    0    0 -0.49956696569E+01 -0.75107779684E+01 -0.42452970979E+02  0.47787271366E+02  0.20000001464E+02 0.  0.
         12    1    1    2    0    0  0.49956696569E+01  0.75107779684E+01  0.42452970979E+02  0.43400728634E+02  0.00000000000E+00 0. -1.
         11    1    3    3    0    0 -0.38925458676E+01 -0.86116849209E+00 -0.47669420864E+01  0.62142788494E+01  0.51100000000E-03 0. -1.
        -11    1    3    3    0    0 -0.24404489165E+01  0.50752193851E+01 -0.99954921989E+01  0.11472728851E+02  0.51100000000E-03 0.  1.
        -12    1    3    3    0    0  0.13373251271E+01 -0.11724828861E+02 -0.27690536694E+02  0.30100263666E+02  0.00000000000E+00 0.  1.
</event>
<event>
 7    1  0.2412036E-009  0.4778727E+02  0.7816164E-02  0.1312668E+00
        -11   -1    0    0    0    0  0.00000000000E+00  0.00000000000E+00  0.45593999997E+02  0.45594000000E+02  0.51100000000E-03 0.  1.
         11   -1    0    0    0    0 -0.00000000000E+00 -0.00000000000E+00 -0.45593999997E+02  0.45594000000E+02  0.51100000000E-03 0. -1.
    9900012    2    1    2    0    0  0.25955906379E+02  0.31871885494E+02  0.13931870701E+02  0.47787272101E+02  0.20000004818E+02 0.  0.
         12    1    1    2    0    0 -0.25955906379E+02 -0.31871885494E+02 -0.13931870701E+02  0.43400727899E+02  0.00000000000E+00 0. -1.
         11    1    3    3    0    0  0.36101166510E+01  0.74149351403E+01  0.63509430397E+01  0.10409067351E+02  0.51100000000E-03 0. -1.
        -11    1    3    3    0    0  0.88121187183E+01  0.18131754119E+01  0.62693959925E+01  0.10965690482E+02  0.51100000000E-03 0.  1.
        -12    1    3    3    0    0  0.13533671010E+02  0.22643774942E+02  0.13115316692E+01  0.26412514268E+02  0.00000000000E+00 0.  1.
</event>
<event>
 7    1  0.2412036E-009  0.4778727E+02  0.7816164E-02  0.1312668E+00
        -11   -1    0    0    0    0  0.00000000000E+00  0.00000000000E+00  0.45593999997E+02  0.45594000000E+02  0.51100000000E-03 0. -1.
         11   -1    0    0    0    0 -0.00000000000E+00 -0.00000000000E+00 -0.45593999997E+02  0.45594000000E+02  0.51100000000E-03 0.  1.
    9900012    2    1    2    0    0 -0.11823238954E+02 -0.30508826859E+02 -0.28513962761E+02  0.47787267656E+02  0.19999984550E+02 0.  0.
         12    1    1    2    0    0  0.11823238954E+02  0.30508826859E+02  0.28513962761E+02  0.43400732344E+02  0.00000000000E+00 0. -1.
         11    1    3    3    0    0  0.63585330559E+00 -0.66129995670E+01 -0.67602798970E+01  0.94782623537E+01  0.51100000000E-03 0. -1.
        -11    1    3    3    0    0 -0.91431800334E+01 -0.12876340747E+02 -0.21653993943E+02  0.26800995244E+02  0.51100000000E-03 0.  1.
        -12    1    3    3    0    0 -0.33159122267E+01 -0.11019486545E+02 -0.99688921360E-01  0.11508010058E+02  0.00000000000E+00 0.  1.
</event>
<event>
 7    1  0.2412036E-009  0.4778726E+02  0.7816164E-02  0.1312668E+00
        -11   -1    0    0    0    0  0.00000000000E+00  0.00000000000E+00  0.45593999997E+02  0.45594000000E+02  0.51100000000E-03 0. -1.
         11   -1    0    0    0    0 -0.00000000000E+00 -0.00000000000E+00 -0.45593999997E+02  0.45594000000E+02  0.51100000000E-03 0.  1.
    9900012    2    1    2    0    0  0.37150044314E+02  0.10467048685E+02 -0.19847913460E+02  0.47787256119E+02  0.19999931950E+02 0.  0.
         12    1    1    2    0    0 -0.37150044314E+02 -0.10467048685E+02  0.19847913460E+02  0.43400743881E+02  0.00000000000E+00 0. -1.
         11    1    3    3    0    0  0.19419334167E+02 -0.19207011241E+01 -0.87962110877E+01  0.21404975171E+02  0.51100000000E-03 0. -1.
        -11    1    3    3    0    0  0.91555189424E+01  0.67393008660E+01 -0.98928666643E-01  0.11368882549E+02  0.51100000000E-03 0.  1.
         12    1    3    3    0    0  0.85751912042E+01  0.56484489432E+01 -0.10952773706E+02  0.15013398400E+02  0.00000000000E+00 0. -1.
</event>
<event>
 7    1  0.2412036E-009  0.4778727E+02  0.7816164E-02  0.1312668E+00
        -11   -1    0    0    0    0  0.00000000000E+00  0.00000000000E+00  0.45593999997E+02  0.45594000000E+02  0.51100000000E-03 0.  1.
         11   -1    0    0    0    0 -0.00000000000E+00 -0.00000000000E+00 -0.45593999997E+02  0.45594000000E+02  0.51100000000E-03 0. -1.
    9900012    2    1    2    0    0 -0.93829884365E+01  0.41022085787E+02  0.10619397016E+02  0.47787267434E+02  0.19999983537E+02 0.  0.
         12    1    1    2    0    0  0.93829884365E+01 -0.41022085787E+02 -0.10619397016E+02  0.43400732566E+02  0.00000000000E+00 0. -1.
         11    1    3    3    0    0 -0.83636638488E+01  0.10538218825E+02  0.14609334837E+01  0.13532895325E+02  0.51100000000E-03 0. -1.
        -11    1    3    3    0    0  0.36568124043E+01  0.21490474121E+02  0.20954031234E+01  0.21899850899E+02  0.51100000000E-03 0.  1.
        -12    1    3    3    0    0 -0.46761369921E+01  0.89933928407E+01  0.70630604091E+01  0.12354521209E+02  0.00000000000E+00 0.  1.
</event>
<event>
 7    1  0.2412036E-009  0.4778727E+02  0.7816164E-02  0.1312668E+00
        -11   -1    0    0    0    0  0.00000000000E+00  0.00000000000E+00  0.45593999997E+02  0.45594000000E+02  0.51100000000E-03 0. -1.
         11   -1    0    0    0    0 -0.00000000000E+00 -0.00000000000E+00 -0.45593999997E+02  0.45594000000E+02  0.51100000000E-03 0.  1.
    9900012    2    1    2    0    0  0.35673901683E+02  0.29364634699E+01 -0.24543291166E+02  0.47787271662E+02  0.20000002816E+02 0.  0.
         12    1    1    2    0    0 -0.35673901683E+02 -0.29364634699E+01  0.24543291166E+02  0.43400728338E+02  0.00000000000E+00 0. -1.
         11    1    3    3    0    0  0.15658570724E+01  0.39644843905E+01 -0.11551380415E+01  0.44162641463E+01  0.51100000000E-03 0. -1.
        -11    1    3    3    0    0  0.11821266541E+02  0.50968109421E+01 -0.49036139885E+01  0.13775531018E+02  0.51100000000E-03 0.  1.
        -12    1    3    3    0    0  0.22286778070E+02 -0.61248318627E+01 -0.18484539136E+02  0.29595476498E+02  0.00000000000E+00 0.  1.
</event>
<event>
 7    1  0.2412036E-009  0.4778727E+02  0.7816164E-02  0.1312668E+00
        -11   -1    0    0    0    0  0.00000000000E+00  0.00000000000E+00  0.45593999997E+02  0.45594000000E+02  0.51100000000E-03 0.  1.
         11   -1    0    0    0    0 -0.00000000000E+00 -0.00000000000E+00 -0.45593999997E+02  0.45594000000E+02  0.51100000000E-03 0. -1.
    9900012    2    1    2    0    0  0.35553253850E+02  0.24136437404E+02  0.60845561504E+01  0.47787270819E+02  0.19999998973E+02 0.  0.
         12    1    1    2    0    0 -0.35553253850E+02 -0.24136437404E+02 -0.60845561504E+01  0.43400729181E+02  0.00000000000E+00 0. -1.
         11    1    3    3    0    0  0.11265875469E+02  0.10888815678E+01  0.30933150995E+01  0.11733465461E+02  0.51100000000E-03 0. -1.
        -11    1    3    3    0    0  0.20634428348E+02  0.20211175238E+02 -0.23611585420E+01  0.28980101926E+02  0.51100000000E-03 0.  1.
        -12    1    3    3    0    0  0.36529500323E+01  0.28363805987E+01  0.53523995930E+01  0.70737034319E+01  0.00000000000E+00 0.  1.
</event>
<event>
 7    1  0.2412036E-009  0.4778727E+02  0.7816164E-02  0.1312668E+00
        -11   -1    0    0    0    0  0.00000000000E+00  0.00000000000E+00  0.45593999997E+02  0.45594000000E+02  0.51100000000E-03 0.  1.
         11   -1    0    0    0    0 -0.00000000000E+00 -0.00000000000E+00 -0.45593999997E+02  0.45594000000E+02  0.51100000000E-03 0. -1.
    9900012    2    1    2    0    0  0.13990112849E+02  0.38279451673E+02  0.14919224395E+02  0.47787274954E+02  0.20000017827E+02 0.  0.
         12    1    1    2    0    0 -0.13990112849E+02 -0.38279451673E+02 -0.14919224395E+02  0.43400725046E+02  0.00000000000E+00 0. -1.
         11    1    3    3    0    0 -0.14937370889E+01  0.16783055241E+02  0.19287691711E+01  0.16959432316E+02  0.51100000000E-03 0. -1.
        -11    1    3    3    0    0  0.11152665317E+02  0.12677825248E+02  0.36573935010E+01  0.17276739396E+02  0.51100000000E-03 0.  1.
        -12    1    3    3    0    0  0.43311846209E+01  0.88185711848E+01  0.93330617226E+01  0.13551103242E+02  0.00000000000E+00 0.  1.
</event>
<event>
 7    1  0.2412036E-009  0.4778727E+02  0.7816164E-02  0.1312668E+00
        -11   -1    0    0    0    0  0.00000000000E+00  0.00000000000E+00  0.45593999997E+02  0.45594000000E+02  0.51100000000E-03 0.  1.
         11   -1    0    0    0    0 -0.00000000000E+00 -0.00000000000E+00 -0.45593999997E+02  0.45594000000E+02  0.51100000000E-03 0. -1.
    9900012    2    1    2    0    0 -0.42645371314E+02 -0.39059427987E+01 -0.70525968227E+01  0.47787271831E+02  0.20000003586E+02 0.  0.
         12    1    1    2    0    0  0.42645371314E+02  0.39059427987E+01  0.70525968227E+01  0.43400728169E+02  0.00000000000E+00 0. -1.
         11    1    3    3    0    0 -0.22492139550E+02  0.19804850381E+01 -0.12696950525E+02  0.25904270216E+02  0.51100000000E-03 0. -1.
        -11    1    3    3    0    0 -0.12155301469E+02 -0.42851631632E+01  0.24286231789E+01  0.13115341701E+02  0.51100000000E-03 0.  1.
         12    1    3    3    0    0 -0.79979302954E+01 -0.16012646737E+01  0.32157305234E+01  0.87676599138E+01  0.00000000000E+00 0. -1.
</event>
<event>
 7    1  0.2412036E-009  0.4778727E+02  0.7816164E-02  0.1312668E+00
        -11   -1    0    0    0    0  0.00000000000E+00  0.00000000000E+00  0.45593999997E+02  0.45594000000E+02  0.51100000000E-03 0. -1.
         11   -1    0    0    0    0 -0.00000000000E+00 -0.00000000000E+00 -0.45593999997E+02  0.45594000000E+02  0.51100000000E-03 0.  1.
    9900012    2    1    2    0    0  0.28684492726E+02  0.17748565858E+02 -0.27309552423E+02  0.47787269977E+02  0.19999995134E+02 0.  0.
         12    1    1    2    0    0 -0.28684492726E+02 -0.17748565858E+02  0.27309552423E+02  0.43400730023E+02  0.00000000000E+00 0. -1.
         11    1    3    3    0    0  0.16357137003E+02 -0.49391013515E+00 -0.10176038586E+02  0.19270486234E+02  0.51100000000E-03 0. -1.
        -11    1    3    3    0    0  0.54317270470E+01  0.85854682587E+01 -0.11611631407E+02  0.15428671626E+02  0.51100000000E-03 0.  1.
        -12    1    3    3    0    0  0.68956286760E+01  0.96570077342E+01 -0.55218824302E+01  0.13088112117E+02  0.00000000000E+00 0.  1.
</event>
<event>
 7    1  0.2412036E-009  0.4778727E+02  0.7816164E-02  0.1312668E+00
        -11   -1    0    0    0    0  0.00000000000E+00  0.00000000000E+00  0.45593999997E+02  0.45594000000E+02  0.51100000000E-03 0.  1.
         11   -1    0    0    0    0 -0.00000000000E+00 -0.00000000000E+00 -0.45593999997E+02  0.45594000000E+02  0.51100000000E-03 0. -1.
    9900012    2    1    2    0    0 -0.45210891764E+01  0.26499573245E+02  0.34072804183E+02  0.47787267121E+02  0.19999982113E+02 0.  0.
         12    1    1    2    0    0  0.45210891764E+01 -0.26499573245E+02 -0.34072804183E+02  0.43400732879E+02  0.00000000000E+00 0. -1.
         11    1    3    3    0    0 -0.48342643945E+01  0.10526539279E+01  0.14312957290E+02  0.15143940676E+02  0.51100000000E-03 0. -1.
        -11    1    3    3    0    0 -0.23062762275E+00  0.17469683002E+02  0.10396368542E+02  0.20330457260E+02  0.51100000000E-03 0.  1.
        -12    1    3    3    0    0  0.54380284080E+00  0.79772363153E+01  0.93634783504E+01  0.12312869186E+02  0.00000000000E+00 0.  1.
</event>
<event>
 7    1  0.2412036E-009  0.4778727E+02  0.7816164E-02  0.1312668E+00
        -11   -1    0    0    0    0  0.00000000000E+00  0.00000000000E+00  0.45593999997E+02  0.45594000000E+02  0.51100000000E-03 0. -1.
         11   -1    0    0    0    0 -0.00000000000E+00 -0.00000000000E+00 -0.45593999997E+02  0.45594000000E+02  0.51100000000E-03 0.  1.
    9900012    2    1    2    0    0  0.27396109844E+02  0.29271906464E+02  0.16620223786E+02  0.47787272111E+02  0.20000004861E+02 0.  0.
         12    1    1    2    0    0 -0.27396109844E+02 -0.29271906464E+02 -0.16620223786E+02  0.43400727889E+02  0.00000000000E+00 0. -1.
         11    1    3    3    0    0  0.75350070842E+01  0.81291161299E+01 -0.17258208119E+01  0.11217723412E+02  0.51100000000E-03 0. -1.
        -11    1    3    3    0    0  0.11349390904E+02  0.14857848462E+02  0.18045432985E+02  0.25984649058E+02  0.51100000000E-03 0.  1.
        -12    1    3    3    0    0  0.85117118557E+01  0.62849418721E+01  0.30061161318E+00  0.10584899640E+02  0.00000000000E+00 0.  1.
</event>
<event>
 7    1  0.2412036E-009  0.4778726E+02  0.7816164E-02  0.1312668E+00
        -11   -1    0    0    0    0  0.00000000000E+00  0.00000000000E+00  0.45593999997E+02  0.45594000000E+02  0.51100000000E-03 0.  1.
         11   -1    0    0    0    0 -0.00000000000E+00 -0.00000000000E+00 -0.45593999997E+02  0.45594000000E+02  0.51100000000E-03 0. -1.
    9900012    2    1    2    0    0 -0.25965157325E+02  0.83010830842E+01  0.33771684675E+02  0.47787261976E+02  0.19999958651E+02 0.  0.
         12    1    1    2    0    0  0.25965157325E+02 -0.83010830842E+01 -0.33771684675E+02  0.43400738024E+02  0.00000000000E+00 0. -1.
         11    1    3    3    0    0 -0.77747619792E+01  0.87007400140E+01  0.22538738113E+02  0.25380002297E+02  0.51100000000E-03 0. -1.
        -11    1    3    3    0    0 -0.12470987790E+02  0.26684754773E+01  0.61245050433E+01  0.14147645038E+02  0.51100000000E-03 0.  1.
         12    1    3    3    0    0 -0.57194075558E+01 -0.30681324071E+01  0.51084415186E+01  0.82596146403E+01  0.00000000000E+00 0. -1.
</event>
<event>
 7    1  0.2412036E-009  0.4778727E+02  0.7816164E-02  0.1312668E+00
        -11   -1    0    0    0    0  0.00000000000E+00  0.00000000000E+00  0.45593999997E+02  0.45594000000E+02  0.51100000000E-03 0.  1.
         11   -1    0    0    0    0 -0.00000000000E+00 -0.00000000000E+00 -0.45593999997E+02  0.45594000000E+02  0.51100000000E-03 0. -1.
    9900012    2    1    2    0    0  0.73852157157E+01 -0.26537990093E+02  0.33538286241E+02  0.47787274507E+02  0.20000015788E+02 0.  0.
         12    1    1    2    0    0 -0.73852157157E+01  0.26537990093E+02 -0.33538286241E+02  0.43400725493E+02  0.00000000000E+00 0. -1.
         11    1    3    3    0    0  0.91724149921E+00 -0.22616566185E+02  0.17266964936E+02  0.28469254931E+02  0.51100000000E-03 0. -1.
        -11    1    3    3    0    0 -0.76864802279E+00 -0.29393344183E+01  0.58598494935E+01  0.66006320116E+01  0.51100000000E-03 0.  1.
         12    1    3    3    0    0  0.72366222393E+01 -0.98208948993E+00  0.10411471811E+02  0.12717387565E+02  0.00000000000E+00 0. -1.
</event>
<event>
 7    1  0.2412036E-009  0.4778727E+02  0.7816164E-02  0.1312668E+00
        -11   -1    0    0    0    0  0.00000000000E+00  0.00000000000E+00  0.45593999997E+02  0.45594000000E+02  0.51100000000E-03 0.  1.
         11   -1    0    0    0    0 -0.00000000000E+00 -0.00000000000E+00 -0.45593999997E+02  0.45594000000E+02  0.51100000000E-03 0. -1.
    9900012    2    1    2    0    0 -0.37119998860E+02  0.17980058455E+02  0.13507284534E+02  0.47787267829E+02  0.19999985341E+02 0.  0.
         12    1    1    2    0    0  0.37119998860E+02 -0.17980058455E+02 -0.13507284534E+02  0.43400732171E+02  0.00000000000E+00 0. -1.
         11    1    3    3    0    0  0.14034750915E+01  0.51308378831E+00  0.67880077311E+00  0.16412702571E+01  0.51100000000E-03 0. -1.
        -11    1    3    3    0    0 -0.12842377657E+02 -0.61133077917E+00  0.26085718154E+01  0.13118880912E+02  0.51100000000E-03 0.  1.
        -12    1    3    3    0    0 -0.25681096295E+02  0.18078305446E+02  0.10219911946E+02  0.33027116660E+02  0.00000000000E+00 0.  1.
</event>
<event>
 7    1  0.2412036E-009  0.4778727E+02  0.7816164E-02  0.1312668E+00
        -11   -1    0    0    0    0  0.00000000000E+00  0.00000000000E+00  0.45593999997E+02  0.45594000000E+02  0.51100000000E-03 0. -1.
         11   -1    0    0    0    0 -0.00000000000E+00 -0.00000000000E+00 -0.45593999997E+02  0.45594000000E+02  0.51100000000E-03 0.  1.
    9900012    2    1    2    0    0  0.12541135442E+02 -0.39926967413E+02 -0.11496970083E+02  0.47787272747E+02  0.20000007764E+02 0.  0.
         12    1    1    2    0    0 -0.12541135442E+02  0.39926967413E+02  0.11496970083E+02  0.43400727253E+02  0.00000000000E+00 0. -1.
         11    1    3    3    0    0 -0.22934314904E+01 -0.16238192858E+02 -0.52654459543E+01  0.17223926865E+02  0.51100000000E-03 0. -1.
        -11    1    3    3    0    0  0.63607939897E+01 -0.18435324211E+02 -0.65945051700E+01  0.20586606754E+02  0.51100000000E-03 0.  1.
         12    1    3    3    0    0  0.84737729424E+01 -0.52534503445E+01  0.36298104158E+00  0.99767391285E+01  0.00000000000E+00 0. -1.
</event>
<event>
 7    1  0.2412036E-009  0.4778727E+02  0.7816164E-02  0.1312668E+00
        -11   -1    0    0    0    0  0.00000000000E+00  0.00000000000E+00  0.45593999997E+02  0.45594000000E+02  0.51100000000E-03 0.  1.
         11   -1    0    0    0    0 -0.00000000000E+00 -0.00000000000E+00 -0.45593999997E+02  0.45594000000E+02  0.51100000000E-03 0. -1.
    9900012    2    1    2    0    0  0.42567183398E+02  0.41821311153E+01  0.73598683199E+01  0.47787274375E+02  0.20000015184E+02 0.  0.
         12    1    1    2    0    0 -0.42567183398E+02 -0.41821311153E+01 -0.73598683199E+01  0.43400725625E+02  0.00000000000E+00 0. -1.
         11    1    3    3    0    0  0.16387560623E+02 -0.44833562185E+01  0.57457820421E+01  0.17935067262E+02  0.51100000000E-03 0. -1.
        -11    1    3    3    0    0  0.41536523986E+01 -0.26149876047E+01 -0.85721650977E+00  0.49825504339E+01  0.51100000000E-03 0.  1.
         12    1    3    3    0    0  0.22025970377E+02  0.11280474938E+02  0.24713027876E+01  0.24869656679E+02  0.00000000000E+00 0. -1.
</event>
<event>
 7    1  0.2412036E-009  0.4778728E+02  0.7816164E-02  0.1312668E+00
        -11   -1    0    0    0    0  0.00000000000E+00  0.00000000000E+00  0.45593999997E+02  0.45594000000E+02  0.51100000000E-03 0.  1.
         11   -1    0    0    0    0 -0.00000000000E+00 -0.00000000000E+00 -0.45593999997E+02  0.45594000000E+02  0.51100000000E-03 0. -1.
    9900012    2    1    2    0    0 -0.19125949685E+02 -0.11364981775E+02  0.37264693400E+02  0.47787284150E+02  0.20000059753E+02 0.  0.
         12    1    1    2    0    0  0.19125949685E+02  0.11364981775E+02 -0.37264693400E+02  0.43400715850E+02  0.00000000000E+00 0. -1.
         11    1    3    3    0    0 -0.30986412747E+00  0.22953324523E+01  0.69529724802E+01  0.73286010545E+01  0.51100000000E-03 0. -1.
        -11    1    3    3    0    0 -0.80985629803E+01 -0.13680266778E+02  0.15754830268E+02  0.22381936880E+02  0.51100000000E-03 0.  1.
        -12    1    3    3    0    0 -0.10717522577E+02  0.19952550870E-01  0.14556890652E+02  0.18076746215E+02  0.00000000000E+00 0.  1.
</event>
<event>
 7    1  0.3255701E-009  0.4778727E+02  0.7816164E-02  0.1312668E+00
        -11   -1    0    0    0    0  0.00000000000E+00  0.00000000000E+00  0.45593999997E+02  0.45594000000E+02  0.51100000000E-03 0.  1.
         11   -1    0    0    0    0 -0.00000000000E+00 -0.00000000000E+00 -0.45593999997E+02  0.45594000000E+02  0.51100000000E-03 0. -1.
    9900012    2    1    2    0    0  0.14591828984E+02  0.28122763222E+02  0.29661620955E+02  0.47787273716E+02  0.20000012181E+02 0.  0.
         12    1    1    2    0    0 -0.14591828984E+02 -0.28122763222E+02 -0.29661620955E+02  0.43400726284E+02  0.00000000000E+00 0. -1.
         11    1    3    3    0    0  0.27462762219E+01  0.31193918373E+01 -0.75855614311E+00  0.42246948061E+01  0.51100000000E-03 0. -1.
        -11    1    3    3    0    0  0.13089337299E+02  0.16741562594E+02  0.27407398198E+02  0.34681063209E+02  0.51100000000E-03 0.  1.
        -12    1    3    3    0    0 -0.12437845371E+01  0.82618087897E+01  0.30127788993E+01  0.88815157011E+01  0.00000000000E+00 0.  1.
</event>
<event>
 7    1  0.2412036E-009  0.4778727E+02  0.7816164E-02  0.1312668E+00
        -11   -1    0    0    0    0  0.00000000000E+00  0.00000000000E+00  0.45593999997E+02  0.45594000000E+02  0.51100000000E-03 0.  1.
         11   -1    0    0    0    0 -0.00000000000E+00 -0.00000000000E+00 -0.45593999997E+02  0.45594000000E+02  0.51100000000E-03 0. -1.
    9900012    2    1    2    0    0 -0.55297195624E+01  0.90416179172E+01  0.42086755930E+02  0.47787266392E+02  0.19999978787E+02 0.  0.
         12    1    1    2    0    0  0.55297195624E+01 -0.90416179172E+01 -0.42086755930E+02  0.43400733608E+02  0.00000000000E+00 0. -1.
         11    1    3    3    0    0 -0.94956778360E+01  0.90901470762E+01  0.23051160223E+02  0.26535912634E+02  0.51100000000E-03 0. -1.
        -11    1    3    3    0    0  0.21805804764E+01  0.18709516534E+01  0.18306222016E+02  0.18530330706E+02  0.51100000000E-03 0.  1.
         12    1    3    3    0    0  0.17853777971E+01 -0.19194808124E+01  0.72937369121E+00  0.27210230519E+01  0.00000000000E+00 0. -1.
</event>
<event>
 7    1  0.2412036E-009  0.4778727E+02  0.7816164E-02  0.1312668E+00
        -11   -1    0    0    0    0  0.00000000000E+00  0.00000000000E+00  0.45593999997E+02  0.45594000000E+02  0.51100000000E-03 0.  1.
         11   -1    0    0    0    0 -0.00000000000E+00 -0.00000000000E+00 -0.45593999997E+02  0.45594000000E+02  0.51100000000E-03 0. -1.
    9900012    2    1    2    0    0 -0.16220202786E+02 -0.32273761843E+01  0.40126202329E+02  0.47787273638E+02  0.20000011824E+02 0.  0.
         12    1    1    2    0    0  0.16220202786E+02  0.32273761843E+01 -0.40126202329E+02  0.43400726362E+02  0.00000000000E+00 0. -1.
         11    1    3    3    0    0 -0.13551697838E+02 -0.13091358250E+01  0.13469090432E+02  0.19151468566E+02  0.51100000000E-03 0. -1.
        -11    1    3    3    0    0  0.14440147110E+01  0.12476007319E+01  0.20476184598E+02  0.20564917262E+02  0.51100000000E-03 0.  1.
        -12    1    3    3    0    0 -0.41125196591E+01 -0.31658410912E+01  0.61809272987E+01  0.80708878095E+01  0.00000000000E+00 0.  1.
</event>
<event>
 7    1  0.2412036E-009  0.4778727E+02  0.7816164E-02  0.1312668E+00
        -11   -1    0    0    0    0  0.00000000000E+00  0.00000000000E+00  0.45593999997E+02  0.45594000000E+02  0.51100000000E-03 0. -1.
         11   -1    0    0    0    0 -0.00000000000E+00 -0.00000000000E+00 -0.45593999997E+02  0.45594000000E+02  0.51100000000E-03 0.  1.
    9900012    2    1    2    0    0 -0.21166137582E+02 -0.69840620741E+01 -0.37240309175E+02  0.47787272695E+02  0.20000007524E+02 0.  0.
         12    1    1    2    0    0  0.21166137582E+02  0.69840620741E+01  0.37240309175E+02  0.43400727305E+02  0.00000000000E+00 0. -1.
         11    1    3    3    0    0  0.25372466808E+01  0.18541244779E+01 -0.47475548907E+01  0.56933887976E+01  0.51100000000E-03 0. -1.
        -11    1    3    3    0    0 -0.79879224168E+01  0.10874616809E+01 -0.11645343159E+02  0.14163456323E+02  0.51100000000E-03 0.  1.
         12    1    3    3    0    0 -0.15715461846E+02 -0.99256482329E+01 -0.20847411125E+02  0.27930427575E+02  0.00000000000E+00 0. -1.
</event>
<event>
 7    1  0.2412036E-009  0.4778727E+02  0.7816164E-02  0.1312668E+00
        -11   -1    0    0    0    0  0.00000000000E+00  0.00000000000E+00  0.45593999997E+02  0.45594000000E+02  0.51100000000E-03 0.  1.
         11   -1    0    0    0    0 -0.00000000000E+00 -0.00000000000E+00 -0.45593999997E+02  0.45594000000E+02  0.51100000000E-03 0. -1.
    9900012    2    1    2    0    0 -0.31320781080E+02 -0.23301865256E+02  0.18964576300E+02  0.47787269521E+02  0.19999993055E+02 0.  0.
         12    1    1    2    0    0  0.31320781080E+02  0.23301865256E+02 -0.18964576300E+02  0.43400730479E+02  0.00000000000E+00 0. -1.
         11    1    3    3    0    0 -0.99188337514E+00  0.13580679394E+01  0.16478253435E+01  0.23544659228E+01  0.51100000000E-03 0. -1.
        -11    1    3    3    0    0 -0.13388314217E+02 -0.14911320693E+02  0.16350307466E+02  0.25863623043E+02  0.51100000000E-03 0.  1.
        -12    1    3    3    0    0 -0.16940583487E+02 -0.97486125025E+01  0.96644349014E+00  0.19569180556E+02  0.00000000000E+00 0.  1.
</event>
<event>
 7    1  0.2412036E-009  0.4778727E+02  0.7816164E-02  0.1312668E+00
        -11   -1    0    0    0    0  0.00000000000E+00  0.00000000000E+00  0.45593999997E+02  0.45594000000E+02  0.51100000000E-03 0. -1.
         11   -1    0    0    0    0 -0.00000000000E+00 -0.00000000000E+00 -0.45593999997E+02  0.45594000000E+02  0.51100000000E-03 0.  1.
    9900012    2    1    2    0    0  0.20532795792E+02  0.25086942788E+02 -0.28856072139E+02  0.47787270734E+02  0.19999998584E+02 0.  0.
         12    1    1    2    0    0 -0.20532795792E+02 -0.25086942788E+02  0.28856072139E+02  0.43400729266E+02  0.00000000000E+00 0. -1.
         11    1    3    3    0    0  0.55166166268E+01 -0.85909458663E+00 -0.32224977983E+01  0.64463629154E+01  0.51100000000E-03 0. -1.
        -11    1    3    3    0    0  0.77989586728E+01  0.13685641828E+02 -0.21254782607E+02  0.26455364911E+02  0.51100000000E-03 0.  1.
        -12    1    3    3    0    0  0.72172204929E+01  0.12260395547E+02 -0.43787917341E+01  0.14885542908E+02  0.00000000000E+00 0.  1.
</event>
<event>
 7    1  0.2825625E-009  0.4778727E+02  0.7816164E-02  0.1312668E+00
        -11   -1    0    0    0    0  0.00000000000E+00  0.00000000000E+00  0.45593999997E+02  0.45594000000E+02  0.51100000000E-03 0. -1.
         11   -1    0    0    0    0 -0.00000000000E+00 -0.00000000000E+00 -0.45593999997E+02  0.45594000000E+02  0.51100000000E-03 0.  1.
    9900012    2    1    2    0    0 -0.30969085379E+02  0.22890113537E+02 -0.20014539290E+02  0.47787270399E+02  0.19999997058E+02 0.  0.
         12    1    1    2    0    0  0.30969085379E+02 -0.22890113537E+02  0.20014539290E+02  0.43400729601E+02  0.00000000000E+00 0. -1.
         11    1    3    3    0    0 -0.24873794244E+01 -0.70339413549E+00  0.18430811961E+01  0.31747075877E+01  0.51100000000E-03 0. -1.
        -11    1    3    3    0    0 -0.22508874542E+02  0.22594042693E+02 -0.14364615318E+02  0.34978312879E+02  0.51100000000E-03 0.  1.
        -12    1    3    3    0    0 -0.59728314124E+01  0.99946497922E+00 -0.74930051672E+01  0.96342499325E+01  0.00000000000E+00 0.  1.
</event>
<event>
 7    1  0.2412036E-009  0.4778727E+02  0.7816164E-02  0.1312668E+00
        -11   -1    0    0    0    0  0.00000000000E+00  0.00000000000E+00  0.45593999997E+02  0.45594000000E+02  0.51100000000E-03 0.  1.
         11   -1    0    0    0    0 -0.00000000000E+00 -0.00000000000E+00 -0.45593999997E+02  0.45594000000E+02  0.51100000000E-03 0. -1.
    9900012    2    1    2    0    0 -0.37801786547E+02  0.20187352648E+02  0.68643172878E+01  0.47787272760E+02  0.20000007824E+02 0.  0.
         12    1    1    2    0    0  0.37801786547E+02 -0.20187352648E+02 -0.68643172878E+01  0.43400727240E+02  0.00000000000E+00 0. -1.
         11    1    3    3    0    0  0.50451331949E+00  0.20228145016E+01 -0.18589028041E+01  0.27931759869E+01  0.51100000000E-03 0. -1.
        -11    1    3    3    0    0 -0.19106556235E+02  0.71265069469E+01  0.10194844129E+02  0.22798737673E+02  0.51100000000E-03 0.  1.
        -12    1    3    3    0    0 -0.19199743632E+02  0.11038031199E+02 -0.14716240367E+01  0.22195359101E+02  0.00000000000E+00 0.  1.
</event>
<event>
 7    1  0.2412036E-009  0.4778727E+02  0.7816164E-02  0.1312668E+00
        -11   -1    0    0    0    0  0.00000000000E+00  0.00000000000E+00  0.45593999997E+02  0.45594000000E+02  0.51100000000E-03 0.  1.
         11   -1    0    0    0    0 -0.00000000000E+00 -0.00000000000E+00 -0.45593999997E+02  0.45594000000E+02  0.51100000000E-03 0. -1.
    9900012    2    1    2    0    0  0.33185332984E+01  0.25876632063E+02  0.34684442656E+02  0.47787270599E+02  0.19999997970E+02 0.  0.
         12    1    1    2    0    0 -0.33185332984E+01 -0.25876632063E+02 -0.34684442656E+02  0.43400729401E+02  0.00000000000E+00 0. -1.
         11    1    3    3    0    0  0.61521488103E+00 -0.12299036069E+01 -0.95876175315E+00  0.16764177858E+01  0.51100000000E-03 0. -1.
        -11    1    3    3    0    0  0.50978617775E+00  0.26790061836E+02  0.34277394323E+02  0.43507551723E+02  0.51100000000E-03 0.  1.
        -12    1    3    3    0    0  0.21935322397E+01  0.31647383336E+00  0.13658100866E+01  0.26033010902E+01  0.00000000000E+00 0.  1.
</event>
<event>
 7    1  0.2412036E-009  0.4778727E+02  0.7816164E-02  0.1312668E+00
        -11   -1    0    0    0    0  0.00000000000E+00  0.00000000000E+00  0.45593999997E+02  0.45594000000E+02  0.51100000000E-03 0.  1.
         11   -1    0    0    0    0 -0.00000000000E+00 -0.00000000000E+00 -0.45593999997E+02  0.45594000000E+02  0.51100000000E-03 0. -1.
    9900012    2    1    2    0    0  0.16962183229E+02 -0.12163768595E+02  0.38051940813E+02  0.47787272749E+02  0.20000007770E+02 0.  0.
         12    1    1    2    0    0 -0.16962183229E+02  0.12163768595E+02 -0.38051940813E+02  0.43400727251E+02  0.00000000000E+00 0. -1.
         11    1    3    3    0    0  0.10103036908E+02 -0.10304646696E+02  0.80305509133E+01  0.16515049092E+02  0.51100000000E-03 0. -1.
        -11    1    3    3    0    0  0.19595562691E+01 -0.27709614955E+01  0.79310481065E+01  0.86266802833E+01  0.51100000000E-03 0.  1.
         12    1    3    3    0    0  0.48995900521E+01  0.91183959659E+00  0.22090341793E+02  0.22645543373E+02  0.00000000000E+00 0. -1.
</event>
<event>
 7    1  0.2412036E-009  0.4778727E+02  0.7816164E-02  0.1312668E+00
        -11   -1    0    0    0    0  0.00000000000E+00  0.00000000000E+00  0.45593999997E+02  0.45594000000E+02  0.51100000000E-03 0.  1.
         11   -1    0    0    0    0 -0.00000000000E+00 -0.00000000000E+00 -0.45593999997E+02  0.45594000000E+02  0.51100000000E-03 0. -1.
    9900012    2    1    2    0    0  0.21868932336E+02  0.15457165351E+02  0.34153313658E+02  0.47787274246E+02  0.20000014596E+02 0.  0.
         12    1    1    2    0    0 -0.21868932336E+02 -0.15457165351E+02 -0.34153313658E+02  0.43400725754E+02  0.00000000000E+00 0. -1.
         11    1    3    3    0    0  0.85818314605E+01  0.32449406344E+00  0.86898581916E+01  0.12217477778E+02  0.51100000000E-03 0. -1.
        -11    1    3    3    0    0  0.44561919821E+01  0.14898203321E+02  0.19362232253E+02  0.24833649496E+02  0.51100000000E-03 0.  1.
        -12    1    3    3    0    0  0.88309088934E+01  0.23446796620E+00  0.61012232127E+01  0.10736146972E+02  0.00000000000E+00 0.  1.
</event>
<event>
 7    1  0.2412036E-009  0.4778727E+02  0.7816164E-02  0.1312668E+00
        -11   -1    0    0    0    0  0.00000000000E+00  0.00000000000E+00  0.45593999997E+02  0.45594000000E+02  0.51100000000E-03 0. -1.
         11   -1    0    0    0    0 -0.00000000000E+00 -0.00000000000E+00 -0.45593999997E+02  0.45594000000E+02  0.51100000000E-03 0.  1.
    9900012    2    1    2    0    0 -0.15747680380E+02 -0.25537422938E+02 -0.31360390186E+02  0.47787268667E+02  0.19999989158E+02 0.  0.
         12    1    1    2    0    0  0.15747680380E+02  0.25537422938E+02  0.31360390186E+02  0.43400731333E+02  0.00000000000E+00 0. -1.
         11    1    3    3    0    0  0.33181916374E+01 -0.15936042655E+00 -0.15065092824E+01  0.36476515688E+01  0.51100000000E-03 0. -1.
        -11    1    3    3    0    0 -0.96164017016E+01 -0.18389106242E+02 -0.18605377870E+02  0.27871033278E+02  0.51100000000E-03 0.  1.
         12    1    3    3    0    0 -0.94494703161E+01 -0.69889562694E+01 -0.11248503034E+02  0.16268583819E+02  0.00000000000E+00 0. -1.
</event>
<event>
 7    1  0.2412036E-009  0.4778727E+02  0.7816164E-02  0.1312668E+00
        -11   -1    0    0    0    0  0.00000000000E+00  0.00000000000E+00  0.45593999997E+02  0.45594000000E+02  0.51100000000E-03 0.  1.
         11   -1    0    0    0    0 -0.00000000000E+00 -0.00000000000E+00 -0.45593999997E+02  0.45594000000E+02  0.51100000000E-03 0. -1.
    9900012    2    1    2    0    0 -0.25304319549E+02 -0.35232053805E+02 -0.14201234774E+01  0.47787274731E+02  0.20000016808E+02 0.  0.
         12    1    1    2    0    0  0.25304319549E+02  0.35232053805E+02  0.14201234774E+01  0.43400725269E+02  0.00000000000E+00 0. -1.
         11    1    3    3    0    0 -0.98729951883E+01 -0.85569728280E+01 -0.79985125594E+01  0.15319073777E+02  0.51100000000E-03 0. -1.
        -11    1    3    3    0    0 -0.16005366535E+02 -0.26576068660E+02  0.59097263100E+01  0.31581387693E+02  0.51100000000E-03 0.  1.
         12    1    3    3    0    0  0.57404217370E+00 -0.99012317564E-01  0.66866277204E+00  0.88681326046E+00  0.00000000000E+00 0. -1.
</event>
<event>
 7    1  0.2412036E-009  0.4778727E+02  0.7816164E-02  0.1312668E+00
        -11   -1    0    0    0    0  0.00000000000E+00  0.00000000000E+00  0.45593999997E+02  0.45594000000E+02  0.51100000000E-03 0.  1.
         11   -1    0    0    0    0 -0.00000000000E+00 -0.00000000000E+00 -0.45593999997E+02  0.45594000000E+02  0.51100000000E-03 0. -1.
    9900012    2    1    2    0    0  0.61540973805E+01 -0.25704648107E+02  0.34424139965E+02  0.47787271190E+02  0.20000000665E+02 0.  0.
         12    1    1    2    0    0 -0.61540973805E+01  0.25704648107E+02 -0.34424139965E+02  0.43400728810E+02  0.00000000000E+00 0. -1.
         11    1    3    3    0    0  0.80570046608E+01 -0.16352505795E+02  0.25015068577E+02  0.30952761203E+02  0.51100000000E-03 0. -1.
        -11    1    3    3    0    0 -0.46627345882E+01 -0.46729573599E+01  0.92952878560E+01  0.11400877199E+02  0.51100000000E-03 0.  1.
         12    1    3    3    0    0  0.27598273080E+01 -0.46791849522E+01  0.11378353177E+00  0.54336327884E+01  0.00000000000E+00 0. -1.
</event>
<event>
 7    1  0.2412036E-009  0.4778728E+02  0.7816164E-02  0.1312668E+00
        -11   -1    0    0    0    0  0.00000000000E+00  0.00000000000E+00  0.45593999997E+02  0.45594000000E+02  0.51100000000E-03 0.  1.
         11   -1    0    0    0    0 -0.00000000000E+00 -0.00000000000E+00 -0.45593999997E+02  0.45594000000E+02  0.51100000000E-03 0. -1.
    9900012    2    1    2    0    0 -0.22446096930E+02  0.57956707819E+01  0.36690676892E+02  0.47787276066E+02  0.20000022895E+02 0.  0.
         12    1    1    2    0    0  0.22446096930E+02 -0.57956707819E+01 -0.36690676892E+02  0.43400723934E+02  0.00000000000E+00 0. -1.
         11    1    3    3    0    0 -0.51564103311E+01  0.30752210572E+01 -0.84809905928E-01  0.60043938108E+01  0.51100000000E-03 0. -1.
        -11    1    3    3    0    0 -0.71543918143E+01  0.11264398382E+01  0.25631809066E+02  0.26635386710E+02  0.51100000000E-03 0.  1.
        -12    1    3    3    0    0 -0.10135294784E+02  0.15940098865E+01  0.11143677732E+02  0.15147495545E+02  0.00000000000E+00 0.  1.
</event>
<event>
 7    1  0.2412036E-009  0.4778726E+02  0.7816164E-02  0.1312668E+00
        -11   -1    0    0    0    0  0.00000000000E+00  0.00000000000E+00  0.45593999997E+02  0.45594000000E+02  0.51100000000E-03 0. -1.
         11   -1    0    0    0    0 -0.00000000000E+00 -0.00000000000E+00 -0.45593999997E+02  0.45594000000E+02  0.51100000000E-03 0.  1.
    9900012    2    1    2    0    0  0.35541843978E+02 -0.20932217816E+02 -0.13499755004E+02  0.47787264970E+02  0.19999972303E+02 0.  0.
         12    1    1    2    0    0 -0.35541843978E+02  0.20932217816E+02  0.13499755004E+02  0.43400735030E+02  0.00000000000E+00 0. -1.
         11    1    3    3    0    0  0.66454119481E+00 -0.17589715001E+01 -0.40229580398E+00  0.19228723080E+01  0.51100000000E-03 0. -1.
        -11    1    3    3    0    0  0.22541405892E+01  0.73981277920E+00 -0.67059418467E+01  0.71132361873E+01  0.51100000000E-03 0.  1.
        -12    1    3    3    0    0  0.32623162194E+02 -0.19913059095E+02 -0.63915173528E+01  0.38751156474E+02  0.00000000000E+00 0.  1.
</event>
<event>
 7    1  0.2412036E-009  0.4778727E+02  0.7816164E-02  0.1312668E+00
        -11   -1    0    0    0    0  0.00000000000E+00  0.00000000000E+00  0.45593999997E+02  0.45594000000E+02  0.51100000000E-03 0. -1.
         11   -1    0    0    0    0 -0.00000000000E+00 -0.00000000000E+00 -0.45593999997E+02  0.45594000000E+02  0.51100000000E-03 0.  1.
    9900012    2    1    2    0    0 -0.13560980547E+02 -0.23916084313E+02 -0.33581899040E+02  0.47787271603E+02  0.20000002547E+02 0.  0.
         12    1    1    2    0    0  0.13560980547E+02  0.23916084313E+02  0.33581899040E+02  0.43400728397E+02  0.00000000000E+00 0. -1.
         11    1    3    3    0    0  0.18284532780E+00 -0.33253267593E+01 -0.77987742888E+01  0.84801008920E+01  0.51100000000E-03 0. -1.
        -11    1    3    3    0    0 -0.11917413950E+02 -0.10100160745E+02 -0.23810383512E+02  0.28477576540E+02  0.51100000000E-03 0.  1.
        -12    1    3    3    0    0 -0.18264119245E+01 -0.10490596809E+02 -0.19727412395E+01  0.10829594171E+02  0.00000000000E+00 0.  1.
</event>
<event>
 7    1  0.2412036E-009  0.4778727E+02  0.7816164E-02  0.1312668E+00
        -11   -1    0    0    0    0  0.00000000000E+00  0.00000000000E+00  0.45593999997E+02  0.45594000000E+02  0.51100000000E-03 0. -1.
         11   -1    0    0    0    0 -0.00000000000E+00 -0.00000000000E+00 -0.45593999997E+02  0.45594000000E+02  0.51100000000E-03 0.  1.
    9900012    2    1    2    0    0  0.32997816191E+02 -0.20251522357E+02 -0.19612322279E+02  0.47787271707E+02  0.20000003022E+02 0.  0.
         12    1    1    2    0    0 -0.32997816191E+02  0.20251522357E+02  0.19612322279E+02  0.43400728293E+02  0.00000000000E+00 0. -1.
         11    1    3    3    0    0  0.29994787717E+02 -0.16811327506E+02 -0.17101791511E+02  0.38402855309E+02  0.51100000000E-03 0. -1.
        -11    1    3    3    0    0  0.53431711184E+01 -0.29477793119E+01 -0.27143760346E+00  0.61084006995E+01  0.51100000000E-03 0.  1.
         12    1    3    3    0    0 -0.23401426444E+01 -0.49241553893E+00 -0.22390931649E+01  0.32760156990E+01  0.00000000000E+00 0. -1.
</event>
<event>
 7    1  0.2412036E-009  0.4778727E+02  0.7816164E-02  0.1312668E+00
        -11   -1    0    0    0    0  0.00000000000E+00  0.00000000000E+00  0.45593999997E+02  0.45594000000E+02  0.51100000000E-03 0. -1.
         11   -1    0    0    0    0 -0.00000000000E+00 -0.00000000000E+00 -0.45593999997E+02  0.45594000000E+02  0.51100000000E-03 0.  1.
    9900012    2    1    2    0    0  0.24525662262E+02  0.28755974722E+02 -0.21335639598E+02  0.47787266035E+02  0.19999977162E+02 0.  0.
         12    1    1    2    0    0 -0.24525662262E+02 -0.28755974722E+02  0.21335639598E+02  0.43400733965E+02  0.00000000000E+00 0. -1.
         11    1    3    3    0    0  0.88808448971E+01  0.75784019057E+00 -0.37152552783E+00  0.89208609068E+01  0.51100000000E-03 0.  1.
        -11    1    3    3    0    0  0.10934215165E+02  0.13710447036E+02 -0.13110533484E+02  0.21895650429E+02  0.51100000000E-03 0. -1.
         12    1    3    3    0    0  0.47106021996E+01  0.14287687496E+02 -0.78535805856E+01  0.16970754700E+02  0.00000000000E+00 0. -1.
</event>
<event>
 7    1  0.2412036E-009  0.4778727E+02  0.7816164E-02  0.1312668E+00
        -11   -1    0    0    0    0  0.00000000000E+00  0.00000000000E+00  0.45593999997E+02  0.45594000000E+02  0.51100000000E-03 0. -1.
         11   -1    0    0    0    0 -0.00000000000E+00 -0.00000000000E+00 -0.45593999997E+02  0.45594000000E+02  0.51100000000E-03 0.  1.
    9900012    2    1    2    0    0  0.15383070439E+02  0.17590489265E+02 -0.36572655731E+02  0.47787270560E+02  0.19999997793E+02 0.  0.
         12    1    1    2    0    0 -0.15383070439E+02 -0.17590489265E+02  0.36572655731E+02  0.43400729440E+02  0.00000000000E+00 0. -1.
         11    1    3    3    0    0  0.66839192179E+00  0.14422227520E+02 -0.18948357696E+02  0.23821999371E+02  0.51100000000E-03 0. -1.
        -11    1    3    3    0    0  0.13634591741E+02  0.21344460893E+01 -0.17728172810E+02  0.22466554330E+02  0.51100000000E-03 0.  1.
        -12    1    3    3    0    0  0.10800867766E+01  0.10338156555E+01  0.10387477531E+00  0.14987168590E+01  0.00000000000E+00 0.  1.
</event>
<event>
 7    1  0.2412036E-009  0.4778728E+02  0.7816164E-02  0.1312668E+00
        -11   -1    0    0    0    0  0.00000000000E+00  0.00000000000E+00  0.45593999997E+02  0.45594000000E+02  0.51100000000E-03 0.  1.
         11   -1    0    0    0    0 -0.00000000000E+00 -0.00000000000E+00 -0.45593999997E+02  0.45594000000E+02  0.51100000000E-03 0. -1.
    9900012    2    1    2    0    0  0.23636884170E+02  0.55351302165E+01  0.35976141776E+02  0.47787277232E+02  0.20000028209E+02 0.  0.
         12    1    1    2    0    0 -0.23636884170E+02 -0.55351302165E+01 -0.35976141776E+02  0.43400722768E+02  0.00000000000E+00 0. -1.
         11    1    3    3    0    0  0.11339918422E+01 -0.42391179711E+01  0.20251157909E+01  0.48329238458E+01  0.51100000000E-03 0. -1.
        -11    1    3    3    0    0  0.91771046903E+01  0.74844203395E+01  0.10223219471E+02  0.15644488325E+02  0.51100000000E-03 0.  1.
         12    1    3    3    0    0  0.13325787637E+02  0.22898278481E+01  0.23727806513E+02  0.27309865061E+02  0.00000000000E+00 0. -1.
</event>
<event>
 7    1  0.2412036E-009  0.4778727E+02  0.7816164E-02  0.1312668E+00
        -11   -1    0    0    0    0  0.00000000000E+00  0.00000000000E+00  0.45593999997E+02  0.45594000000E+02  0.51100000000E-03 0.  1.
         11   -1    0    0    0    0 -0.00000000000E+00 -0.00000000000E+00 -0.45593999997E+02  0.45594000000E+02  0.51100000000E-03 0. -1.
    9900012    2    1    2    0    0  0.26932150423E+02  0.13648091091E+02  0.31177110206E+02  0.47787270540E+02  0.19999997699E+02 0.  0.
         12    1    1    2    0    0 -0.26932150423E+02 -0.13648091091E+02 -0.31177110206E+02  0.43400729460E+02  0.00000000000E+00 0. -1.
         11    1    3    3    0    0 -0.61172154346E+00  0.46698508332E+01  0.25369907567E+01  0.53495824521E+01  0.51100000000E-03 0. -1.
        -11    1    3    3    0    0  0.25081304132E+02  0.11672644747E+02  0.25432586707E+02  0.37578436891E+02  0.51100000000E-03 0.  1.
         12    1    3    3    0    0  0.24625678347E+01 -0.26944044890E+01  0.32075327430E+01  0.48592511963E+01  0.00000000000E+00 0. -1.
</event>
<event>
 7    1  0.2412036E-009  0.4778727E+02  0.7816164E-02  0.1312668E+00
        -11   -1    0    0    0    0  0.00000000000E+00  0.00000000000E+00  0.45593999997E+02  0.45594000000E+02  0.51100000000E-03 0.  1.
         11   -1    0    0    0    0 -0.00000000000E+00 -0.00000000000E+00 -0.45593999997E+02  0.45594000000E+02  0.51100000000E-03 0. -1.
    9900012    2    1    2    0    0  0.58661792946E+01 -0.28059997419E+02  0.32586004776E+02  0.47787271643E+02  0.20000002730E+02 0.  0.
         12    1    1    2    0    0 -0.58661792946E+01  0.28059997419E+02 -0.32586004776E+02  0.43400728357E+02  0.00000000000E+00 0. -1.
         11    1    3    3    0    0  0.25186210218E+01 -0.10391928934E+00  0.13259695846E+02  0.13497176937E+02  0.51100000000E-03 0. -1.
        -11    1    3    3    0    0  0.24444571020E+01 -0.19983987447E+02  0.15460196745E+02  0.25384105430E+02  0.51100000000E-03 0.  1.
         12    1    3    3    0    0  0.90310117072E+00 -0.79720906822E+01  0.38661121838E+01  0.89059892762E+01  0.00000000000E+00 0. -1.
</event>
<event>
 7    1  0.2412036E-009  0.4778727E+02  0.7816164E-02  0.1312668E+00
        -11   -1    0    0    0    0  0.00000000000E+00  0.00000000000E+00  0.45593999997E+02  0.45594000000E+02  0.51100000000E-03 0.  1.
         11   -1    0    0    0    0 -0.00000000000E+00 -0.00000000000E+00 -0.45593999997E+02  0.45594000000E+02  0.51100000000E-03 0. -1.
    9900012    2    1    2    0    0  0.25862179637E+02  0.30511341571E+02  0.16847225940E+02  0.47787270491E+02  0.19999997478E+02 0.  0.
         12    1    1    2    0    0 -0.25862179637E+02 -0.30511341571E+02 -0.16847225940E+02  0.43400729509E+02  0.00000000000E+00 0. -1.
         11    1    3    3    0    0 -0.21892975850E+00 -0.69065170764E+00  0.18202343798E+01  0.19591282447E+01  0.51100000000E-03 0. -1.
        -11    1    3    3    0    0  0.23983086381E+02  0.28869910832E+02  0.17893025894E+02  0.41579088009E+02  0.51100000000E-03 0.  1.
        -12    1    3    3    0    0  0.20980230142E+01  0.23320824468E+01 -0.28660343339E+01  0.42490542371E+01  0.00000000000E+00 0.  1.
</event>
<event>
 7    1  0.2412036E-009  0.4778727E+02  0.7816164E-02  0.1312668E+00
        -11   -1    0    0    0    0  0.00000000000E+00  0.00000000000E+00  0.45593999997E+02  0.45594000000E+02  0.51100000000E-03 0. -1.
         11   -1    0    0    0    0 -0.00000000000E+00 -0.00000000000E+00 -0.45593999997E+02  0.45594000000E+02  0.51100000000E-03 0.  1.
    9900012    2    1    2    0    0 -0.29662649268E+01  0.43251910426E+02 -0.20240868994E+01  0.47787269466E+02  0.19999992804E+02 0.  0.
         12    1    1    2    0    0  0.29662649268E+01 -0.43251910426E+02  0.20240868994E+01  0.43400730534E+02  0.00000000000E+00 0. -1.
         11    1    3    3    0    0 -0.72410136330E-01  0.73032436496E+01  0.57343601774E+01  0.92857685702E+01  0.51100000000E-03 0. -1.
        -11    1    3    3    0    0 -0.51166060459E+01  0.16255512405E+02 -0.76573394363E+01  0.18683045482E+02  0.51100000000E-03 0.  1.
         12    1    3    3    0    0  0.22227512555E+01  0.19693154372E+02 -0.10110764049E+00  0.19818455414E+02  0.00000000000E+00 0. -1.
</event>
<event>
 7    1  0.2412036E-009  0.4778728E+02  0.7816164E-02  0.1312668E+00
        -11   -1    0    0    0    0  0.00000000000E+00  0.00000000000E+00  0.45593999997E+02  0.45594000000E+02  0.51100000000E-03 0.  1.
         11   -1    0    0    0    0 -0.00000000000E+00 -0.00000000000E+00 -0.45593999997E+02  0.45594000000E+02  0.51100000000E-03 0. -1.
    9900012    2    1    2    0    0 -0.40284931813E+02 -0.74843729817E+01  0.14308434572E+02  0.47787275697E+02  0.20000021212E+02 0.  0.
         12    1    1    2    0    0  0.40284931813E+02  0.74843729817E+01 -0.14308434572E+02  0.43400724303E+02  0.00000000000E+00 0. -1.
         11    1    3    3    0    0 -0.75174928094E+01 -0.62762284033E+01  0.48257071929E+00  0.98049281420E+01  0.51100000000E-03 0.  1.
        -11    1    3    3    0    0 -0.31758968719E+00 -0.28580778618E+01  0.89069226289E+00  0.30104493422E+01  0.51100000000E-03 0. -1.
         12    1    3    3    0    0 -0.32449849317E+02  0.16499332835E+01  0.12935171590E+02  0.34971898212E+02  0.00000000000E+00 0. -1.
</event>
<event>
 7    1  0.2412036E-009  0.4778727E+02  0.7816164E-02  0.1312668E+00
        -11   -1    0    0    0    0  0.00000000000E+00  0.00000000000E+00  0.45593999997E+02  0.45594000000E+02  0.51100000000E-03 0.  1.
         11   -1    0    0    0    0 -0.00000000000E+00 -0.00000000000E+00 -0.45593999997E+02  0.45594000000E+02  0.51100000000E-03 0. -1.
    9900012    2    1    2    0    0 -0.32441733800E+02 -0.36934647333E+01  0.28592230239E+02  0.47787269548E+02  0.19999993179E+02 0.  0.
         12    1    1    2    0    0  0.32441733800E+02  0.36934647333E+01 -0.28592230239E+02  0.43400730452E+02  0.00000000000E+00 0. -1.
         11    1    3    3    0    0 -0.26855884437E+02 -0.20584671636E+00  0.15443354260E+02  0.30980285552E+02  0.51100000000E-03 0. -1.
        -11    1    3    3    0    0 -0.29256646327E+01 -0.60575701322E+01  0.77468121973E+01  0.10259959500E+02  0.51100000000E-03 0.  1.
         12    1    3    3    0    0 -0.26601847299E+01  0.25699521153E+01  0.54020637813E+01  0.65470244973E+01  0.00000000000E+00 0. -1.
</event>
<event>
 7    1  0.2412036E-009  0.4778727E+02  0.7816164E-02  0.1312668E+00
        -11   -1    0    0    0    0  0.00000000000E+00  0.00000000000E+00  0.45593999997E+02  0.45594000000E+02  0.51100000000E-03 0.  1.
         11   -1    0    0    0    0 -0.00000000000E+00 -0.00000000000E+00 -0.45593999997E+02  0.45594000000E+02  0.51100000000E-03 0. -1.
    9900012    2    1    2    0    0 -0.14016603516E+02  0.25542048591E+02  0.32167719056E+02  0.47787267637E+02  0.19999984465E+02 0.  0.
         12    1    1    2    0    0  0.14016603516E+02 -0.25542048591E+02 -0.32167719056E+02  0.43400732363E+02  0.00000000000E+00 0. -1.
         11    1    3    3    0    0 -0.75708322269E+01 -0.75222228607E+00  0.52815299320E+01  0.92616357982E+01  0.51100000000E-03 0. -1.
        -11    1    3    3    0    0 -0.72589595614E+01  0.21603657746E+02  0.23013870408E+02  0.32389022111E+02  0.51100000000E-03 0.  1.
         12    1    3    3    0    0  0.81318827213E+00  0.46906131310E+01  0.38723187159E+01  0.61366097276E+01  0.00000000000E+00 0. -1.
</event>
<event>
 7    1  0.2412036E-009  0.4778727E+02  0.7816164E-02  0.1312668E+00
        -11   -1    0    0    0    0  0.00000000000E+00  0.00000000000E+00  0.45593999997E+02  0.45594000000E+02  0.51100000000E-03 0.  1.
         11   -1    0    0    0    0 -0.00000000000E+00 -0.00000000000E+00 -0.45593999997E+02  0.45594000000E+02  0.51100000000E-03 0. -1.
    9900012    2    1    2    0    0 -0.36326897910E+02 -0.16573896934E+00  0.23747687685E+02  0.47787266693E+02  0.19999980161E+02 0.  0.
         12    1    1    2    0    0  0.36326897910E+02  0.16573896934E+00 -0.23747687685E+02  0.43400733307E+02  0.00000000000E+00 0. -1.
         11    1    3    3    0    0 -0.30932497045E+02 -0.55282197196E+01  0.23545569278E+02  0.39265435431E+02  0.51100000000E-03 0.  1.
        -11    1    3    3    0    0 -0.20174762628E+01  0.44413315618E+01  0.87910926691E+00  0.49566591448E+01  0.51100000000E-03 0. -1.
         12    1    3    3    0    0 -0.33769246028E+01  0.92114918846E+00 -0.67699086037E+00  0.35651721172E+01  0.00000000000E+00 0. -1.
</event>
<event>
 7    1  0.2412036E-009  0.4778726E+02  0.7816164E-02  0.1312668E+00
        -11   -1    0    0    0    0  0.00000000000E+00  0.00000000000E+00  0.45593999997E+02  0.45594000000E+02  0.51100000000E-03 0.  1.
         11   -1    0    0    0    0 -0.00000000000E+00 -0.00000000000E+00 -0.45593999997E+02  0.45594000000E+02  0.51100000000E-03 0. -1.
    9900012    2    1    2    0    0 -0.37303478424E+02 -0.17261077728E+02  0.13933039138E+02  0.47787263987E+02  0.19999967820E+02 0.  0.
         12    1    1    2    0    0  0.37303478424E+02  0.17261077728E+02 -0.13933039138E+02  0.43400736013E+02  0.00000000000E+00 0. -1.
         11    1    3    3    0    0  0.38003569989E+00 -0.39794356451E+00  0.46018983516E+01  0.46346795913E+01  0.51100000000E-03 0. -1.
        -11    1    3    3    0    0 -0.27869130431E+02 -0.88966499923E+01  0.85918095910E+01  0.30490293610E+02  0.51100000000E-03 0.  1.
         12    1    3    3    0    0 -0.98143836928E+01 -0.79664841715E+01  0.73933119510E+00  0.12662290786E+02  0.00000000000E+00 0. -1.
</event>
<event>
 7    1  0.2412036E-009  0.4778727E+02  0.7816164E-02  0.1312668E+00
        -11   -1    0    0    0    0  0.00000000000E+00  0.00000000000E+00  0.45593999997E+02  0.45594000000E+02  0.51100000000E-03 0.  1.
         11   -1    0    0    0    0 -0.00000000000E+00 -0.00000000000E+00 -0.45593999997E+02  0.45594000000E+02  0.51100000000E-03 0. -1.
    9900012    2    1    2    0    0 -0.33099134560E+02 -0.49809945670E+01  0.27627167356E+02  0.47787269688E+02  0.19999993816E+02 0.  0.
         12    1    1    2    0    0  0.33099134560E+02  0.49809945670E+01 -0.27627167356E+02  0.43400730312E+02  0.00000000000E+00 0. -1.
         11    1    3    3    0    0 -0.19104701581E+02 -0.29699228038E+01  0.48315985542E+01  0.19928733247E+02  0.51100000000E-03 0. -1.
        -11    1    3    3    0    0 -0.80931382584E+01  0.10202987710E+01  0.17713175598E+02  0.19501191925E+02  0.51100000000E-03 0.  1.
        -12    1    3    3    0    0 -0.59012947203E+01 -0.30313705342E+01  0.50823932036E+01  0.83573445164E+01  0.00000000000E+00 0.  1.
</event>
<event>
 7    1  0.2412036E-009  0.4778726E+02  0.7816164E-02  0.1312668E+00
        -11   -1    0    0    0    0  0.00000000000E+00  0.00000000000E+00  0.45593999997E+02  0.45594000000E+02  0.51100000000E-03 0.  1.
         11   -1    0    0    0    0 -0.00000000000E+00 -0.00000000000E+00 -0.45593999997E+02  0.45594000000E+02  0.51100000000E-03 0. -1.
    9900012    2    1    2    0    0 -0.21852356469E+02  0.22305173915E+02  0.30142629783E+02  0.47787258107E+02  0.19999941012E+02 0.  0.
         12    1    1    2    0    0  0.21852356469E+02 -0.22305173915E+02 -0.30142629783E+02  0.43400741893E+02  0.00000000000E+00 0. -1.
         11    1    3    3    0    0 -0.56048380097E+01  0.32244849795E+01  0.29479529772E+01  0.71064716642E+01  0.51100000000E-03 0. -1.
        -11    1    3    3    0    0 -0.47737939120E+01 -0.27932904608E+01  0.56110927491E+01  0.78788287209E+01  0.51100000000E-03 0.  1.
        -12    1    3    3    0    0 -0.11473724548E+02  0.21873979396E+02  0.21583584057E+02  0.32801957722E+02  0.00000000000E+00 0.  1.
</event>
<event>
 7    1  0.2412036E-009  0.4778727E+02  0.7816164E-02  0.1312668E+00
        -11   -1    0    0    0    0  0.00000000000E+00  0.00000000000E+00  0.45593999997E+02  0.45594000000E+02  0.51100000000E-03 0.  1.
         11   -1    0    0    0    0 -0.00000000000E+00 -0.00000000000E+00 -0.45593999997E+02  0.45594000000E+02  0.51100000000E-03 0. -1.
    9900012    2    1    2    0    0 -0.11644338407E+02 -0.15470112184E+00  0.41809195022E+02  0.47787270308E+02  0.19999996644E+02 0.  0.
         12    1    1    2    0    0  0.11644338407E+02  0.15470112184E+00 -0.41809195022E+02  0.43400729692E+02  0.00000000000E+00 0. -1.
         11    1    3    3    0    0 -0.14346052693E+02  0.20193111802E+01  0.27036212219E+02  0.30673174223E+02  0.51100000000E-03 0. -1.
        -11    1    3    3    0    0 -0.28022628335E+01 -0.30556006990E+00  0.51909347571E+01  0.59069321866E+01  0.51100000000E-03 0.  1.
         12    1    3    3    0    0  0.55039771203E+01 -0.18684522321E+01  0.95820480461E+01  0.11207163898E+02  0.00000000000E+00 0. -1.
</event>
<event>
 7    1  0.2412036E-009  0.4778727E+02  0.7816164E-02  0.1312668E+00
        -11   -1    0    0    0    0  0.00000000000E+00  0.00000000000E+00  0.45593999997E+02  0.45594000000E+02  0.51100000000E-03 0.  1.
         11   -1    0    0    0    0 -0.00000000000E+00 -0.00000000000E+00 -0.45593999997E+02  0.45594000000E+02  0.51100000000E-03 0. -1.
    9900012    2    1    2    0    0  0.42787417525E+02 -0.24536963795E+01  0.68439587007E+01  0.47787268496E+02  0.19999988379E+02 0.  0.
         12    1    1    2    0    0 -0.42787417525E+02  0.24536963795E+01 -0.68439587007E+01  0.43400731504E+02  0.00000000000E+00 0. -1.
         11    1    3    3    0    0 -0.48002938620E+00 -0.14432152303E+01 -0.21962515114E+01  0.26714826173E+01  0.51100000000E-03 0. -1.
        -11    1    3    3    0    0  0.30116663259E+02 -0.45805837146E+01  0.77147297751E+01  0.31424706980E+02  0.51100000000E-03 0.  1.
         12    1    3    3    0    0  0.13150783652E+02  0.35701025654E+01  0.13254804369E+01  0.13691078898E+02  0.00000000000E+00 0. -1.
</event>
<event>
 7    1  0.2412036E-009  0.4778728E+02  0.7816164E-02  0.1312668E+00
        -11   -1    0    0    0    0  0.00000000000E+00  0.00000000000E+00  0.45593999997E+02  0.45594000000E+02  0.51100000000E-03 0. -1.
         11   -1    0    0    0    0 -0.00000000000E+00 -0.00000000000E+00 -0.45593999997E+02  0.45594000000E+02  0.51100000000E-03 0.  1.
    9900012    2    1    2    0    0  0.13503327261E+01  0.12782350856E+02 -0.41453718868E+02  0.47787277658E+02  0.20000030152E+02 0.  0.
         12    1    1    2    0    0 -0.13503327261E+01 -0.12782350856E+02  0.41453718868E+02  0.43400722342E+02  0.00000000000E+00 0. -1.
         11    1    3    3    0    0  0.12747861846E+01 -0.12732687417E+01  0.12362052446E+00  0.18059832226E+01  0.51100000000E-03 0. -1.
        -11    1    3    3    0    0  0.60915084234E+01  0.10829279783E+02 -0.22255063412E+02  0.25488578289E+02  0.51100000000E-03 0.  1.
        -12    1    3    3    0    0 -0.60159618820E+01  0.32263398147E+01 -0.19322275980E+02  0.20492716146E+02  0.00000000000E+00 0.  1.
</event>
<event>
 7    1  0.2412036E-009  0.4778727E+02  0.7816164E-02  0.1312668E+00
        -11   -1    0    0    0    0  0.00000000000E+00  0.00000000000E+00  0.45593999997E+02  0.45594000000E+02  0.51100000000E-03 0. -1.
         11   -1    0    0    0    0 -0.00000000000E+00 -0.00000000000E+00 -0.45593999997E+02  0.45594000000E+02  0.51100000000E-03 0.  1.
    9900012    2    1    2    0    0 -0.32395734989E+02 -0.24990029066E+01 -0.28773160208E+02  0.47787269483E+02  0.19999992883E+02 0.  0.
         12    1    1    2    0    0  0.32395734989E+02  0.24990029066E+01  0.28773160208E+02  0.43400730517E+02  0.00000000000E+00 0. -1.
         11    1    3    3    0    0 -0.15563876980E+01  0.30162170555E+01  0.13494463399E+01  0.36525215506E+01  0.51100000000E-03 0. -1.
        -11    1    3    3    0    0 -0.20116464085E+02  0.17600642867E+00 -0.18777804964E+02  0.27519248991E+02  0.51100000000E-03 0.  1.
         12    1    3    3    0    0 -0.10722883206E+02 -0.56912263907E+01 -0.11344801584E+02  0.16615498941E+02  0.00000000000E+00 0. -1.
</event>
<event>
 7    1  0.2412036E-009  0.4778727E+02  0.7816164E-02  0.1312668E+00
        -11   -1    0    0    0    0  0.00000000000E+00  0.00000000000E+00  0.45593999997E+02  0.45594000000E+02  0.51100000000E-03 0.  1.
         11   -1    0    0    0    0 -0.00000000000E+00 -0.00000000000E+00 -0.45593999997E+02  0.45594000000E+02  0.51100000000E-03 0. -1.
    9900012    2    1    2    0    0 -0.35976287938E+02 -0.12506041443E+02  0.20806943501E+02  0.47787271155E+02  0.20000000505E+02 0.  0.
         12    1    1    2    0    0  0.35976287938E+02  0.12506041443E+02 -0.20806943501E+02  0.43400728845E+02  0.00000000000E+00 0. -1.
         11    1    3    3    0    0  0.17473874734E+01 -0.14900690901E+01  0.28194046772E+01  0.36363046999E+01  0.51100000000E-03 0. -1.
        -11    1    3    3    0    0 -0.10859156252E+02 -0.53176560410E+01  0.16682235400E+01  0.12205806418E+02  0.51100000000E-03 0.  1.
         12    1    3    3    0    0 -0.26864519160E+02 -0.56983163123E+01  0.16319315283E+02  0.31945160037E+02  0.00000000000E+00 0. -1.
</event>
<event>
 7    1  0.2412036E-009  0.4778726E+02  0.7816164E-02  0.1312668E+00
        -11   -1    0    0    0    0  0.00000000000E+00  0.00000000000E+00  0.45593999997E+02  0.45594000000E+02  0.51100000000E-03 0.  1.
         11   -1    0    0    0    0 -0.00000000000E+00 -0.00000000000E+00 -0.45593999997E+02  0.45594000000E+02  0.51100000000E-03 0. -1.
    9900012    2    1    2    0    0  0.29741811481E+02  0.31253817746E+02  0.47167977542E+01  0.47787255134E+02  0.19999927458E+02 0.  0.
         12    1    1    2    0    0 -0.29741811481E+02 -0.31253817746E+02 -0.47167977542E+01  0.43400744866E+02  0.00000000000E+00 0. -1.
         11    1    3    3    0    0  0.14250955479E+01  0.13635635618E+01  0.22654131591E+01  0.30037143589E+01  0.51100000000E-03 0. -1.
        -11    1    3    3    0    0  0.21520329289E+02  0.17569860039E+02  0.90824426716E+01  0.29228672903E+02  0.51100000000E-03 0.  1.
        -12    1    3    3    0    0  0.67963866435E+01  0.12320394145E+02 -0.66310580766E+01  0.15554867872E+02  0.00000000000E+00 0.  1.
</event>
<event>
 7    1  0.2412036E-009  0.4778727E+02  0.7816164E-02  0.1312668E+00
        -11   -1    0    0    0    0  0.00000000000E+00  0.00000000000E+00  0.45593999997E+02  0.45594000000E+02  0.51100000000E-03 0.  1.
         11   -1    0    0    0    0 -0.00000000000E+00 -0.00000000000E+00 -0.45593999997E+02  0.45594000000E+02  0.51100000000E-03 0. -1.
    9900012    2    1    2    0    0  0.20422786157E+02  0.20810462048E+02  0.32147435490E+02  0.47787272660E+02  0.20000007366E+02 0.  0.
         12    1    1    2    0    0 -0.20422786157E+02 -0.20810462048E+02 -0.32147435490E+02  0.43400727340E+02  0.00000000000E+00 0. -1.
         11    1    3    3    0    0  0.12558438208E+01  0.89981029395E+01  0.40931999010E+01  0.99648023515E+01  0.51100000000E-03 0. -1.
        -11    1    3    3    0    0  0.19419933258E+02  0.92205427795E+01  0.27889268827E+02  0.35213115921E+02  0.51100000000E-03 0.  1.
        -12    1    3    3    0    0 -0.25299092186E+00  0.25918163288E+01  0.16496676203E+00  0.26093543879E+01  0.00000000000E+00 0.  1.
</event>
<event>
 7    1  0.2412036E-009  0.4778727E+02  0.7816164E-02  0.1312668E+00
        -11   -1    0    0    0    0  0.00000000000E+00  0.00000000000E+00  0.45593999997E+02  0.45594000000E+02  0.51100000000E-03 0.  1.
         11   -1    0    0    0    0 -0.00000000000E+00 -0.00000000000E+00 -0.45593999997E+02  0.45594000000E+02  0.51100000000E-03 0. -1.
    9900012    2    1    2    0    0  0.12385388103E+02  0.41020714789E+02  0.68939557752E+01  0.47787268365E+02  0.19999987782E+02 0.  0.
         12    1    1    2    0    0 -0.12385388103E+02 -0.41020714789E+02 -0.68939557752E+01  0.43400731635E+02  0.00000000000E+00 0. -1.
         11    1    3    3    0    0  0.57699077777E+01  0.22942069676E+02  0.13630022947E+02  0.27302159669E+02  0.51100000000E-03 0.  1.
        -11    1    3    3    0    0  0.44717372997E+01  0.13153572920E+02 -0.40015472157E+01  0.14457707129E+02  0.51100000000E-03 0. -1.
        -12    1    3    3    0    0  0.21437430256E+01  0.49250721929E+01 -0.27345199558E+01  0.60274015674E+01  0.00000000000E+00 0.  1.
</event>
<event>
 7    1  0.2412036E-009  0.4778727E+02  0.7816164E-02  0.1312668E+00
        -11   -1    0    0    0    0  0.00000000000E+00  0.00000000000E+00  0.45593999997E+02  0.45594000000E+02  0.51100000000E-03 0. -1.
         11   -1    0    0    0    0 -0.00000000000E+00 -0.00000000000E+00 -0.45593999997E+02  0.45594000000E+02  0.51100000000E-03 0.  1.
    9900012    2    1    2    0    0  0.27497199419E+02 -0.12953122141E+02 -0.30979729419E+02  0.47787274384E+02  0.20000015229E+02 0.  0.
         12    1    1    2    0    0 -0.27497199419E+02  0.12953122141E+02  0.30979729419E+02  0.43400725616E+02  0.00000000000E+00 0. -1.
         11    1    3    3    0    0  0.70301157061E+01 -0.59890686678E+01 -0.16872751942E+00  0.92368793207E+01  0.51100000000E-03 0. -1.
        -11    1    3    3    0    0  0.92518561688E+01  0.99715646973E+00 -0.10619053643E+02  0.14119329450E+02  0.51100000000E-03 0.  1.
         12    1    3    3    0    0  0.11215227544E+02 -0.79612099431E+01 -0.20191948256E+02  0.24431065614E+02  0.00000000000E+00 0. -1.
</event>
<event>
 7    1  0.2412036E-009  0.4778728E+02  0.7816164E-02  0.1312668E+00
        -11   -1    0    0    0    0  0.00000000000E+00  0.00000000000E+00  0.45593999997E+02  0.45594000000E+02  0.51100000000E-03 0. -1.
         11   -1    0    0    0    0 -0.00000000000E+00 -0.00000000000E+00 -0.45593999997E+02  0.45594000000E+02  0.51100000000E-03 0.  1.
    9900012    2    1    2    0    0  0.22354204336E+02 -0.37182894584E+02  0.11596403842E+01  0.47787275733E+02  0.20000021375E+02 0.  0.
         12    1    1    2    0    0 -0.22354204336E+02  0.37182894584E+02 -0.11596403842E+01  0.43400724267E+02  0.00000000000E+00 0. -1.
         11    1    3    3    0    0  0.47194755414E+00 -0.17068505032E+02  0.20889136696E+01  0.17202330048E+02  0.51100000000E-03 0.  1.
        -11    1    3    3    0    0  0.19588119698E+02 -0.14527776961E+02  0.44363802123E+00  0.24391546726E+02  0.51100000000E-03 0. -1.
         12    1    3    3    0    0  0.22941370844E+01 -0.55866125913E+01 -0.13729113066E+01  0.61933989588E+01  0.00000000000E+00 0. -1.
</event>
<event>
 7    1  0.2412036E-009  0.4778727E+02  0.7816164E-02  0.1312668E+00
        -11   -1    0    0    0    0  0.00000000000E+00  0.00000000000E+00  0.45593999997E+02  0.45594000000E+02  0.51100000000E-03 0. -1.
         11   -1    0    0    0    0 -0.00000000000E+00 -0.00000000000E+00 -0.45593999997E+02  0.45594000000E+02  0.51100000000E-03 0.  1.
    9900012    2    1    2    0    0  0.45851067192E+00 -0.41466088289E+02 -0.12805334199E+02  0.47787270813E+02  0.19999998944E+02 0.  0.
         12    1    1    2    0    0 -0.45851067192E+00  0.41466088289E+02  0.12805334199E+02  0.43400729187E+02  0.00000000000E+00 0. -1.
         11    1    3    3    0    0  0.31543228020E+01 -0.98870777203E+01 -0.49054207962E+01  0.11478990009E+02  0.51100000000E-03 0. -1.
        -11    1    3    3    0    0  0.25754744082E+01 -0.14638797181E+02 -0.10744288575E+02  0.18340315935E+02  0.51100000000E-03 0.  1.
        -12    1    3    3    0    0 -0.52712865382E+01 -0.16940213388E+02  0.28443751730E+01  0.17967964868E+02  0.00000000000E+00 0.  1.
</event>
<event>
 7    1  0.2412036E-009  0.4778727E+02  0.7816164E-02  0.1312668E+00
        -11   -1    0    0    0    0  0.00000000000E+00  0.00000000000E+00  0.45593999997E+02  0.45594000000E+02  0.51100000000E-03 0.  1.
         11   -1    0    0    0    0 -0.00000000000E+00 -0.00000000000E+00 -0.45593999997E+02  0.45594000000E+02  0.51100000000E-03 0. -1.
    9900012    2    1    2    0    0 -0.20471475469E+02  0.15415777534E+02  0.35027074062E+02  0.47787269336E+02  0.19999992210E+02 0.  0.
         12    1    1    2    0    0  0.20471475469E+02 -0.15415777534E+02 -0.35027074062E+02  0.43400730664E+02  0.00000000000E+00 0. -1.
         11    1    3    3    0    0 -0.75418633068E+00  0.39755676940E+00 -0.21561367831E+01  0.23185716497E+01  0.51100000000E-03 0. -1.
        -11    1    3    3    0    0 -0.19265747640E+02  0.13715361643E+02  0.30236902857E+02  0.38386852851E+02  0.51100000000E-03 0.  1.
        -12    1    3    3    0    0 -0.45154149824E+00  0.13028591218E+01  0.69463079875E+01  0.70818448355E+01  0.00000000000E+00 0.  1.
</event>
<event>
 7    1  0.2412036E-009  0.4778727E+02  0.7816164E-02  0.1312668E+00
        -11   -1    0    0    0    0  0.00000000000E+00  0.00000000000E+00  0.45593999997E+02  0.45594000000E+02  0.51100000000E-03 0. -1.
         11   -1    0    0    0    0 -0.00000000000E+00 -0.00000000000E+00 -0.45593999997E+02  0.45594000000E+02  0.51100000000E-03 0.  1.
    9900012    2    1    2    0    0 -0.16523414394E+02 -0.34470720609E+02 -0.20551627451E+02  0.47787271971E+02  0.20000004226E+02 0.  0.
         12    1    1    2    0    0  0.16523414394E+02  0.34470720609E+02  0.20551627451E+02  0.43400728029E+02  0.00000000000E+00 0. -1.
         11    1    3    3    0    0 -0.97553655120E+01 -0.67717510449E+01 -0.10884802152E+01  0.11925122973E+02  0.51100000000E-03 0. -1.
        -11    1    3    3    0    0 -0.35476495796E+01 -0.26415286188E+02 -0.17096315744E+02  0.31664446533E+02  0.51100000000E-03 0.  1.
        -12    1    3    3    0    0 -0.32203993028E+01 -0.12836833756E+01 -0.23668314914E+01  0.41977024653E+01  0.00000000000E+00 0.  1.
</event>
<event>
 7    1  0.2412036E-009  0.4778727E+02  0.7816164E-02  0.1312668E+00
        -11   -1    0    0    0    0  0.00000000000E+00  0.00000000000E+00  0.45593999997E+02  0.45594000000E+02  0.51100000000E-03 0. -1.
         11   -1    0    0    0    0 -0.00000000000E+00 -0.00000000000E+00 -0.45593999997E+02  0.45594000000E+02  0.51100000000E-03 0.  1.
    9900012    2    1    2    0    0 -0.18475247111E+02  0.32467354229E+02 -0.22094333572E+02  0.47787269333E+02  0.19999992196E+02 0.  0.
         12    1    1    2    0    0  0.18475247111E+02 -0.32467354229E+02  0.22094333572E+02  0.43400730667E+02  0.00000000000E+00 0. -1.
         11    1    3    3    0    0 -0.10055315801E+02  0.36345187479E+01 -0.72543030943E+01  0.12920681717E+02  0.51100000000E-03 0. -1.
        -11    1    3    3    0    0 -0.40881870320E+01  0.17749842400E+02 -0.37418299393E+01  0.18594931298E+02  0.51100000000E-03 0.  1.
        -12    1    3    3    0    0 -0.43317442787E+01  0.11082993082E+02 -0.11098200538E+02  0.16271656318E+02  0.00000000000E+00 0.  1.
</event>
<event>
 7    1  0.2412036E-009  0.4778727E+02  0.7816164E-02  0.1312668E+00
        -11   -1    0    0    0    0  0.00000000000E+00  0.00000000000E+00  0.45593999997E+02  0.45594000000E+02  0.51100000000E-03 0.  1.
         11   -1    0    0    0    0 -0.00000000000E+00 -0.00000000000E+00 -0.45593999997E+02  0.45594000000E+02  0.51100000000E-03 0. -1.
    9900012    2    1    2    0    0  0.57746819603E+01 -0.35393954654E+02  0.24444722206E+02  0.47787269343E+02  0.19999992244E+02 0.  0.
         12    1    1    2    0    0 -0.57746819603E+01  0.35393954654E+02 -0.24444722206E+02  0.43400730657E+02  0.00000000000E+00 0. -1.
         11    1    3    3    0    0  0.58485864184E+00 -0.64917382719E+01  0.13523023071E+02  0.15011891242E+02  0.51100000000E-03 0. -1.
        -11    1    3    3    0    0  0.69404817785E+01 -0.27832101554E+02  0.92818714378E+01  0.30148786076E+02  0.51100000000E-03 0.  1.
         12    1    3    3    0    0 -0.17506584600E+01 -0.10701148280E+01  0.16398276972E+01  0.26265920249E+01  0.00000000000E+00 0. -1.
</event>
<event>
 7    1  0.2412036E-009  0.4778727E+02  0.7816164E-02  0.1312668E+00
        -11   -1    0    0    0    0  0.00000000000E+00  0.00000000000E+00  0.45593999997E+02  0.45594000000E+02  0.51100000000E-03 0.  1.
         11   -1    0    0    0    0 -0.00000000000E+00 -0.00000000000E+00 -0.45593999997E+02  0.45594000000E+02  0.51100000000E-03 0. -1.
    9900012    2    1    2    0    0 -0.37647016633E+02  0.16747130571E+02 -0.13633013906E+02  0.47787270607E+02  0.19999998004E+02 0.  0.
         12    1    1    2    0    0  0.37647016633E+02 -0.16747130571E+02  0.13633013906E+02  0.43400729393E+02  0.00000000000E+00 0. -1.
         11    1    3    3    0    0 -0.82837582223E+00  0.21786323945E+00  0.26696905864E+01  0.28037330441E+01  0.51100000000E-03 0.  1.
        -11    1    3    3    0    0 -0.36338584872E+02  0.14076641571E+02 -0.16797536167E+02  0.42435855241E+02  0.51100000000E-03 0. -1.
         12    1    3    3    0    0 -0.48005593798E+00  0.24526257611E+01  0.49483167452E+00  0.25476823220E+01  0.00000000000E+00 0. -1.
</event>
<event>
 7    1  0.2412036E-009  0.4778727E+02  0.7816164E-02  0.1312668E+00
        -11   -1    0    0    0    0  0.00000000000E+00  0.00000000000E+00  0.45593999997E+02  0.45594000000E+02  0.51100000000E-03 0. -1.
         11   -1    0    0    0    0 -0.00000000000E+00 -0.00000000000E+00 -0.45593999997E+02  0.45594000000E+02  0.51100000000E-03 0.  1.
    9900012    2    1    2    0    0 -0.21412808516E+01  0.43329060185E+02  0.12769491364E+01  0.47787272595E+02  0.20000007071E+02 0.  0.
         12    1    1    2    0    0  0.21412808516E+01 -0.43329060185E+02 -0.12769491364E+01  0.43400727405E+02  0.00000000000E+00 0. -1.
         11    1    3    3    0    0  0.11207306008E+01 -0.93330097244E+00 -0.12500351087E+01  0.19208528884E+01  0.51100000000E-03 0. -1.
        -11    1    3    3    0    0 -0.10401756054E+01  0.40101715854E+02 -0.75143953790E+00  0.40122241230E+02  0.51100000000E-03 0.  1.
        -12    1    3    3    0    0 -0.22218358470E+01  0.41606453034E+01  0.32784237830E+01  0.57441784768E+01  0.00000000000E+00 0.  1.
</event>
<event>
 7    1  0.2412036E-009  0.4778727E+02  0.7816164E-02  0.1312668E+00
        -11   -1    0    0    0    0  0.00000000000E+00  0.00000000000E+00  0.45593999997E+02  0.45594000000E+02  0.51100000000E-03 0.  1.
         11   -1    0    0    0    0 -0.00000000000E+00 -0.00000000000E+00 -0.45593999997E+02  0.45594000000E+02  0.51100000000E-03 0. -1.
    9900012    2    1    2    0    0  0.28467684470E+02  0.32707067212E+02 -0.18606545046E+01  0.47787270284E+02  0.19999996532E+02 0.  0.
         12    1    1    2    0    0 -0.28467684470E+02 -0.32707067212E+02  0.18606545046E+01  0.43400729716E+02  0.00000000000E+00 0. -1.
         11    1    3    3    0    0 -0.11547895103E+01  0.26090188801E+01  0.21747375282E+01  0.35874784888E+01  0.51100000000E-03 0. -1.
        -11    1    3    3    0    0  0.28512591390E+02  0.26923296762E+02 -0.35858023763E+00  0.39216837664E+02  0.51100000000E-03 0.  1.
        -12    1    3    3    0    0  0.11098825904E+01  0.31747515704E+01 -0.36768117951E+01  0.49829541314E+01  0.00000000000E+00 0.  1.
</event>
<event>
 7    1  0.2412036E-009  0.4778722E+02  0.7816164E-02  0.1312668E+00
        -11   -1    0    0    0    0  0.00000000000E+00  0.00000000000E+00  0.45593999997E+02  0.45594000000E+02  0.51100000000E-03 0.  1.
         11   -1    0    0    0    0 -0.00000000000E+00 -0.00000000000E+00 -0.45593999997E+02  0.45594000000E+02  0.51100000000E-03 0. -1.
    9900012    2    1    2    0    0  0.81663036799E+01 -0.11501373827E+02  0.41044577574E+02  0.47787222773E+02  0.19999779911E+02 0.  0.
         12    1    1    2    0    0 -0.81663036799E+01  0.11501373827E+02 -0.41044577574E+02  0.43400777227E+02  0.00000000000E+00 0. -1.
         11    1    3    3    0    0 -0.49933528159E+01 -0.65122721154E+01  0.14078294091E+02  0.16295447991E+02  0.51100000000E-03 0. -1.
        -11    1    3    3    0    0  0.11911066469E+02 -0.56732347799E+01  0.17483888226E+02  0.21903092135E+02  0.51100000000E-03 0.  1.
         12    1    3    3    0    0  0.12485900264E+01  0.68413306873E+00  0.94823952573E+01  0.95886826481E+01  0.00000000000E+00 0. -1.
</event>
<event>
 7    1  0.2412036E-009  0.4778727E+02  0.7816164E-02  0.1312668E+00
        -11   -1    0    0    0    0  0.00000000000E+00  0.00000000000E+00  0.45593999997E+02  0.45594000000E+02  0.51100000000E-03 0.  1.
         11   -1    0    0    0    0 -0.00000000000E+00 -0.00000000000E+00 -0.45593999997E+02  0.45594000000E+02  0.51100000000E-03 0. -1.
    9900012    2    1    2    0    0 -0.28149177604E+01 -0.10007415913E+02  0.42137291386E+02  0.47787268893E+02  0.19999990191E+02 0.  0.
         12    1    1    2    0    0  0.28149177604E+01  0.10007415913E+02 -0.42137291386E+02  0.43400731107E+02  0.00000000000E+00 0. -1.
         11    1    3    3    0    0  0.18463647830E+01 -0.70476336993E+01  0.41254861532E+01  0.83724452780E+01  0.51100000000E-03 0. -1.
        -11    1    3    3    0    0  0.10254090110E+01  0.18159704927E+01  0.17038373284E+02  0.17165528739E+02  0.51100000000E-03 0.  1.
         12    1    3    3    0    0 -0.56866915544E+01 -0.47757527067E+01  0.20973431949E+02  0.22249294876E+02  0.00000000000E+00 0. -1.
</event>
<event>
 7    1  0.2412036E-009  0.4778728E+02  0.7816164E-02  0.1312668E+00
        -11   -1    0    0    0    0  0.00000000000E+00  0.00000000000E+00  0.45593999997E+02  0.45594000000E+02  0.51100000000E-03 0.  1.
         11   -1    0    0    0    0 -0.00000000000E+00 -0.00000000000E+00 -0.45593999997E+02  0.45594000000E+02  0.51100000000E-03 0. -1.
    9900012    2    1    2    0    0  0.14994969815E+02  0.12726221130E+02  0.38688718600E+02  0.47787276839E+02  0.20000026421E+02 0.  0.
         12    1    1    2    0    0 -0.14994969815E+02 -0.12726221130E+02 -0.38688718600E+02  0.43400723161E+02  0.00000000000E+00 0. -1.
         11    1    3    3    0    0  0.21019683039E+01  0.12800972259E+01  0.79906818001E+00  0.25875528740E+01  0.51100000000E-03 0. -1.
        -11    1    3    3    0    0  0.65141660232E+01  0.83853201578E+00  0.14648853413E+01  0.67292929973E+01  0.51100000000E-03 0.  1.
        -12    1    3    3    0    0  0.63788354876E+01  0.10607591888E+02  0.36424765078E+02  0.38470430968E+02  0.00000000000E+00 0.  1.
</event>
<event>
 7    1  0.2412036E-009  0.4778727E+02  0.7816164E-02  0.1312668E+00
        -11   -1    0    0    0    0  0.00000000000E+00  0.00000000000E+00  0.45593999997E+02  0.45594000000E+02  0.51100000000E-03 0.  1.
         11   -1    0    0    0    0 -0.00000000000E+00 -0.00000000000E+00 -0.45593999997E+02  0.45594000000E+02  0.51100000000E-03 0. -1.
    9900012    2    1    2    0    0 -0.38560873238E+02 -0.14437054849E+02  0.13720573299E+02  0.47787266951E+02  0.19999981335E+02 0.  0.
         12    1    1    2    0    0  0.38560873238E+02  0.14437054849E+02 -0.13720573299E+02  0.43400733049E+02  0.00000000000E+00 0. -1.
         11    1    3    3    0    0 -0.64159241082E+01 -0.17812280132E+01 -0.12555276536E+01  0.67759283753E+01  0.51100000000E-03 0. -1.
        -11    1    3    3    0    0 -0.17913567767E+02 -0.10314540393E+02  0.16581395749E+02  0.26499591297E+02  0.51100000000E-03 0.  1.
        -12    1    3    3    0    0 -0.14231381363E+02 -0.23412864429E+01 -0.16052947965E+01  0.14511747279E+02  0.00000000000E+00 0.  1.
</event>
<event>
 7    1  0.2412036E-009  0.4778727E+02  0.7816164E-02  0.1312668E+00
        -11   -1    0    0    0    0  0.00000000000E+00  0.00000000000E+00  0.45593999997E+02  0.45594000000E+02  0.51100000000E-03 0.  1.
         11   -1    0    0    0    0 -0.00000000000E+00 -0.00000000000E+00 -0.45593999997E+02  0.45594000000E+02  0.51100000000E-03 0. -1.
    9900012    2    1    2    0    0  0.14347278892E+02  0.33068003816E+02  0.24172007801E+02  0.47787271329E+02  0.20000001298E+02 0.  0.
         12    1    1    2    0    0 -0.14347278892E+02 -0.33068003816E+02 -0.24172007801E+02  0.43400728671E+02  0.00000000000E+00 0. -1.
         11    1    3    3    0    0  0.40406179513E+01 -0.12045088799E+01  0.23100530544E+01  0.48076793202E+01  0.51100000000E-03 0. -1.
        -11    1    3    3    0    0  0.41863580033E+01  0.27114963406E+02  0.17922447266E+02  0.32771343429E+02  0.51100000000E-03 0.  1.
         12    1    3    3    0    0  0.61203029376E+01  0.71575492897E+01  0.39395074807E+01  0.10208248580E+02  0.00000000000E+00 0. -1.
</event>
<event>
 7    1  0.2412036E-009  0.4778727E+02  0.7816164E-02  0.1312668E+00
        -11   -1    0    0    0    0  0.00000000000E+00  0.00000000000E+00  0.45593999997E+02  0.45594000000E+02  0.51100000000E-03 0.  1.
         11   -1    0    0    0    0 -0.00000000000E+00 -0.00000000000E+00 -0.45593999997E+02  0.45594000000E+02  0.51100000000E-03 0. -1.
    9900012    2    1    2    0    0 -0.64101165894E+01  0.23328999210E+02  0.36031810085E+02  0.47787272623E+02  0.20000007198E+02 0.  0.
         12    1    1    2    0    0  0.64101165894E+01 -0.23328999210E+02 -0.36031810085E+02  0.43400727377E+02  0.00000000000E+00 0. -1.
         11    1    3    3    0    0 -0.88169587736E+01  0.34054241986E+01  0.48092034315E+01  0.10604909896E+02  0.51100000000E-03 0. -1.
        -11    1    3    3    0    0  0.18046069839E+01  0.11850098365E+02  0.20491128535E+02  0.23739582695E+02  0.51100000000E-03 0.  1.
         12    1    3    3    0    0  0.60223520021E+00  0.80734766464E+01  0.10731478119E+02  0.13442780033E+02  0.00000000000E+00 0. -1.
</event>
<event>
 7    1  0.2412036E-009  0.4778727E+02  0.7816164E-02  0.1312668E+00
        -11   -1    0    0    0    0  0.00000000000E+00  0.00000000000E+00  0.45593999997E+02  0.45594000000E+02  0.51100000000E-03 0. -1.
         11   -1    0    0    0    0 -0.00000000000E+00 -0.00000000000E+00 -0.45593999997E+02  0.45594000000E+02  0.51100000000E-03 0.  1.
    9900012    2    1    2    0    0  0.27752396031E+02  0.24557177237E+02 -0.22591430202E+02  0.47787272381E+02  0.20000006093E+02 0.  0.
         12    1    1    2    0    0 -0.27752396031E+02 -0.24557177237E+02  0.22591430202E+02  0.43400727619E+02  0.00000000000E+00 0. -1.
         11    1    3    3    0    0  0.12747336823E+01  0.27381522194E+01 -0.58808124322E+01  0.66110799920E+01  0.51100000000E-03 0. -1.
        -11    1    3    3    0    0  0.26263858904E+02  0.20994825265E+02 -0.10963359907E+02  0.35366201848E+02  0.51100000000E-03 0.  1.
        -12    1    3    3    0    0  0.21380344467E+00  0.82419975300E+00 -0.57472578628E+01  0.58099905410E+01  0.00000000000E+00 0.  1.
</event>
<event>
 7    1  0.2412036E-009  0.4778727E+02  0.7816164E-02  0.1312668E+00
        -11   -1    0    0    0    0  0.00000000000E+00  0.00000000000E+00  0.45593999997E+02  0.45594000000E+02  0.51100000000E-03 0.  1.
         11   -1    0    0    0    0 -0.00000000000E+00 -0.00000000000E+00 -0.45593999997E+02  0.45594000000E+02  0.51100000000E-03 0. -1.
    9900012    2    1    2    0    0  0.11486449866E+02  0.33113451870E+02 -0.25596567664E+02  0.47787268423E+02  0.19999988046E+02 0.  0.
         12    1    1    2    0    0 -0.11486449866E+02 -0.33113451870E+02  0.25596567664E+02  0.43400731577E+02  0.00000000000E+00 0. -1.
         11    1    3    3    0    0 -0.22461043702E+00  0.55527894132E+01 -0.80901481414E+01  0.98150097976E+01  0.51100000000E-03 0. -1.
        -11    1    3    3    0    0  0.64053760007E+01  0.23073869840E+01 -0.79209625411E+01  0.10444832418E+02  0.51100000000E-03 0.  1.
        -12    1    3    3    0    0  0.53056843020E+01  0.25253275473E+02 -0.95854569811E+01  0.27527426207E+02  0.00000000000E+00 0.  1.
</event>
<event>
 7    1  0.2412036E-009  0.4778727E+02  0.7816164E-02  0.1312668E+00
        -11   -1    0    0    0    0  0.00000000000E+00  0.00000000000E+00  0.45593999997E+02  0.45594000000E+02  0.51100000000E-03 0.  1.
         11   -1    0    0    0    0 -0.00000000000E+00 -0.00000000000E+00 -0.45593999997E+02  0.45594000000E+02  0.51100000000E-03 0. -1.
    9900012    2    1    2    0    0 -0.30577005151E+02 -0.17235941627E+02  0.25526307693E+02  0.47787270603E+02  0.19999997986E+02 0.  0.
         12    1    1    2    0    0  0.30577005151E+02  0.17235941627E+02 -0.25526307693E+02  0.43400729397E+02  0.00000000000E+00 0. -1.
         11    1    3    3    0    0 -0.11775632080E+02 -0.12287332894E+02  0.14708568801E+02  0.22494133834E+02  0.51100000000E-03 0. -1.
        -11    1    3    3    0    0 -0.74266014548E+01 -0.17842840690E+01 -0.19705133551E+01  0.78880290282E+01  0.51100000000E-03 0.  1.
        -12    1    3    3    0    0 -0.11374771616E+02 -0.31643246645E+01  0.12788252248E+02  0.17405107740E+02  0.00000000000E+00 0.  1.
</event>
<event>
 7    1  0.2412036E-009  0.4778727E+02  0.7816164E-02  0.1312668E+00
        -11   -1    0    0    0    0  0.00000000000E+00  0.00000000000E+00  0.45593999997E+02  0.45594000000E+02  0.51100000000E-03 0.  1.
         11   -1    0    0    0    0 -0.00000000000E+00 -0.00000000000E+00 -0.45593999997E+02  0.45594000000E+02  0.51100000000E-03 0. -1.
    9900012    2    1    2    0    0 -0.79186684297E+01  0.42657153521E+02  0.11337512859E+01  0.47787269036E+02  0.19999990842E+02 0.  0.
         12    1    1    2    0    0  0.79186684297E+01 -0.42657153521E+02 -0.11337512859E+01  0.43400730964E+02  0.00000000000E+00 0. -1.
         11    1    3    3    0    0 -0.20028094793E+01  0.13568705759E+01 -0.84064928476E+00  0.25610613135E+01  0.51100000000E-03 0. -1.
        -11    1    3    3    0    0 -0.11018410669E+02  0.28039073457E+02  0.54088800198E+01  0.30608021781E+02  0.51100000000E-03 0.  1.
        -12    1    3    3    0    0  0.51025517187E+01  0.13261209488E+02 -0.34344794492E+01  0.14618185942E+02  0.00000000000E+00 0.  1.
</event>
<event>
 7    1  0.2412036E-009  0.4778727E+02  0.7816164E-02  0.1312668E+00
        -11   -1    0    0    0    0  0.00000000000E+00  0.00000000000E+00  0.45593999997E+02  0.45594000000E+02  0.51100000000E-03 0. -1.
         11   -1    0    0    0    0 -0.00000000000E+00 -0.00000000000E+00 -0.45593999997E+02  0.45594000000E+02  0.51100000000E-03 0.  1.
    9900012    2    1    2    0    0  0.20404266317E+02  0.82770161066E+01 -0.37400269960E+02  0.47787271059E+02  0.20000000066E+02 0.  0.
         12    1    1    2    0    0 -0.20404266317E+02 -0.82770161066E+01  0.37400269960E+02  0.43400728941E+02  0.00000000000E+00 0. -1.
         11    1    3    3    0    0  0.32671613277E+01 -0.20300869943E+01 -0.63591694668E+01  0.74320005998E+01  0.51100000000E-03 0. -1.
        -11    1    3    3    0    0 -0.17775364089E+01  0.34409598132E+01 -0.68133746842E+00  0.39324370469E+01  0.51100000000E-03 0.  1.
        -12    1    3    3    0    0  0.18914641399E+02  0.68661432877E+01 -0.30359763024E+02  0.36422833412E+02  0.00000000000E+00 0.  1.
</event>
<event>
 7    1  0.2412036E-009  0.4778727E+02  0.7816164E-02  0.1312668E+00
        -11   -1    0    0    0    0  0.00000000000E+00  0.00000000000E+00  0.45593999997E+02  0.45594000000E+02  0.51100000000E-03 0.  1.
         11   -1    0    0    0    0 -0.00000000000E+00 -0.00000000000E+00 -0.45593999997E+02  0.45594000000E+02  0.51100000000E-03 0. -1.
    9900012    2    1    2    0    0  0.18143344866E+02  0.14358738673E+02  0.36718778892E+02  0.47787273479E+02  0.20000011102E+02 0.  0.
         12    1    1    2    0    0 -0.18143344866E+02 -0.14358738673E+02 -0.36718778892E+02  0.43400726521E+02  0.00000000000E+00 0. -1.
         11    1    3    3    0    0  0.71113833685E+01  0.11486101517E+02  0.18533818163E+02  0.22934792727E+02  0.51100000000E-03 0. -1.
        -11    1    3    3    0    0  0.12548722727E+02 -0.11332554529E+01  0.12658242633E+02  0.17860174042E+02  0.51100000000E-03 0.  1.
        -12    1    3    3    0    0 -0.15167612292E+01  0.40058926081E+01  0.55267180957E+01  0.69923067098E+01  0.00000000000E+00 0.  1.
</event>
<event>
 7    1  0.2412036E-009  0.4778727E+02  0.7816164E-02  0.1312668E+00
        -11   -1    0    0    0    0  0.00000000000E+00  0.00000000000E+00  0.45593999997E+02  0.45594000000E+02  0.51100000000E-03 0.  1.
         11   -1    0    0    0    0 -0.00000000000E+00 -0.00000000000E+00 -0.45593999997E+02  0.45594000000E+02  0.51100000000E-03 0. -1.
    9900012    2    1    2    0    0 -0.19800754014E+02 -0.15832378782E+02  0.35226253399E+02  0.47787274131E+02  0.20000014073E+02 0.  0.
         12    1    1    2    0    0  0.19800754014E+02  0.15832378782E+02 -0.35226253399E+02  0.43400725869E+02  0.00000000000E+00 0. -1.
         11    1    3    3    0    0 -0.74978372665E+00  0.34943399619E+01  0.48201247607E+01  0.60005158425E+01  0.51100000000E-03 0. -1.
        -11    1    3    3    0    0 -0.17710847081E+02 -0.13048038664E+02  0.21106072021E+02  0.30485926158E+02  0.51100000000E-03 0.  1.
         12    1    3    3    0    0 -0.13401232060E+01 -0.62786800798E+01  0.93000566173E+01  0.11300832130E+02  0.00000000000E+00 0. -1.
</event>
<event>
 7    1  0.2412036E-009  0.4778727E+02  0.7816164E-02  0.1312668E+00
        -11   -1    0    0    0    0  0.00000000000E+00  0.00000000000E+00  0.45593999997E+02  0.45594000000E+02  0.51100000000E-03 0.  1.
         11   -1    0    0    0    0 -0.00000000000E+00 -0.00000000000E+00 -0.45593999997E+02  0.45594000000E+02  0.51100000000E-03 0. -1.
    9900012    2    1    2    0    0  0.27196736538E+02 -0.42784567460E+01  0.33550789668E+02  0.47787272382E+02  0.20000006097E+02 0.  0.
         12    1    1    2    0    0 -0.27196736538E+02  0.42784567460E+01 -0.33550789668E+02  0.43400727618E+02  0.00000000000E+00 0. -1.
         11    1    3    3    0    0 -0.14241503097E+01  0.25890078763E+00  0.28663727555E+01  0.32111254658E+01  0.51100000000E-03 0. -1.
        -11    1    3    3    0    0  0.16838703125E+02  0.21787874963E+01  0.95955333853E+01  0.19502904889E+02  0.51100000000E-03 0.  1.
        -12    1    3    3    0    0  0.11782183723E+02 -0.67161450299E+01  0.21088883527E+02  0.25073242027E+02  0.00000000000E+00 0.  1.
</event>
<event>
 7    1  0.2412036E-009  0.4778727E+02  0.7816164E-02  0.1312668E+00
        -11   -1    0    0    0    0  0.00000000000E+00  0.00000000000E+00  0.45593999997E+02  0.45594000000E+02  0.51100000000E-03 0. -1.
         11   -1    0    0    0    0 -0.00000000000E+00 -0.00000000000E+00 -0.45593999997E+02  0.45594000000E+02  0.51100000000E-03 0.  1.
    9900012    2    1    2    0    0 -0.30368642297E+02  0.17921926027E+02  0.25301648374E+02  0.47787270997E+02  0.19999999786E+02 0.  0.
         12    1    1    2    0    0  0.30368642297E+02 -0.17921926027E+02 -0.25301648374E+02  0.43400729003E+02  0.00000000000E+00 0. -1.
         11    1    3    3    0    0  0.16737323567E+01 -0.10088899489E+01  0.43235423457E+01  0.47447083795E+01  0.51100000000E-03 0. -1.
        -11    1    3    3    0    0 -0.20506648050E+02  0.14754831818E+02  0.13040251875E+02  0.28430192498E+02  0.51100000000E-03 0.  1.
         12    1    3    3    0    0 -0.11535726604E+02  0.41759841572E+01  0.79378541535E+01  0.14612370120E+02  0.00000000000E+00 0. -1.
</event>
<event>
 7    1  0.2412036E-009  0.4778727E+02  0.7816164E-02  0.1312668E+00
        -11   -1    0    0    0    0  0.00000000000E+00  0.00000000000E+00  0.45593999997E+02  0.45594000000E+02  0.51100000000E-03 0.  1.
         11   -1    0    0    0    0 -0.00000000000E+00 -0.00000000000E+00 -0.45593999997E+02  0.45594000000E+02  0.51100000000E-03 0. -1.
    9900012    2    1    2    0    0 -0.14474071492E+01 -0.36101738861E+02  0.24045642536E+02  0.47787268886E+02  0.19999990159E+02 0.  0.
         12    1    1    2    0    0  0.14474071492E+01  0.36101738861E+02 -0.24045642536E+02  0.43400731114E+02  0.00000000000E+00 0. -1.
         11    1    3    3    0    0  0.40333915348E+01 -0.89686808719E+01  0.37415572801E+01  0.10521631765E+02  0.51100000000E-03 0. -1.
        -11    1    3    3    0    0 -0.81755387927E+01 -0.27349327101E+02  0.18551889418E+02  0.34044055702E+02  0.51100000000E-03 0.  1.
        -12    1    3    3    0    0  0.26947401086E+01  0.21626911190E+00  0.17521958380E+01  0.32215814186E+01  0.00000000000E+00 0.  1.
</event>
<event>
 7    1  0.2412036E-009  0.4778724E+02  0.7816164E-02  0.1312668E+00
        -11   -1    0    0    0    0  0.00000000000E+00  0.00000000000E+00  0.45593999997E+02  0.45594000000E+02  0.51100000000E-03 0. -1.
         11   -1    0    0    0    0 -0.00000000000E+00 -0.00000000000E+00 -0.45593999997E+02  0.45594000000E+02  0.51100000000E-03 0.  1.
    9900012    2    1    2    0    0 -0.37391904491E+02  0.15852142493E+02 -0.15302965009E+02  0.47787243311E+02  0.19999873554E+02 0.  0.
         12    1    1    2    0    0  0.37391904491E+02 -0.15852142493E+02  0.15302965009E+02  0.43400756689E+02  0.00000000000E+00 0. -1.
         11    1    3    3    0    0 -0.14226271765E+01  0.50941036737E+01  0.15334665760E+01  0.55068394132E+01  0.51100000000E-03 0. -1.
        -11    1    3    3    0    0 -0.35462492880E+02  0.10635091799E+02 -0.14296226890E+02  0.39687223163E+02  0.51100000000E-03 0.  1.
        -12    1    3    3    0    0 -0.50678443436E+00  0.12294702052E+00 -0.25402046950E+01  0.25931807352E+01  0.00000000000E+00 0.  1.
</event>
<event>
 7    1  0.2412036E-009  0.4778728E+02  0.7816164E-02  0.1312668E+00
        -11   -1    0    0    0    0  0.00000000000E+00  0.00000000000E+00  0.45593999997E+02  0.45594000000E+02  0.51100000000E-03 0.  1.
         11   -1    0    0    0    0 -0.00000000000E+00 -0.00000000000E+00 -0.45593999997E+02  0.45594000000E+02  0.51100000000E-03 0. -1.
    9900012    2    1    2    0    0 -0.35207265163E+02 -0.15519659405E+02  0.20080123165E+02  0.47787277718E+02  0.20000030428E+02 0.  0.
         12    1    1    2    0    0  0.35207265163E+02  0.15519659405E+02 -0.20080123165E+02  0.43400722282E+02  0.00000000000E+00 0. -1.
         11    1    3    3    0    0 -0.11894691341E+02 -0.12058164371E+02  0.13317900563E+01  0.16989899208E+02  0.51100000000E-03 0. -1.
        -11    1    3    3    0    0 -0.12402646247E+02 -0.46473916703E+01  0.12263331046E+02  0.18050295617E+02  0.51100000000E-03 0.  1.
         12    1    3    3    0    0 -0.10909927575E+02  0.11858966364E+01  0.64850020627E+01  0.12747082893E+02  0.00000000000E+00 0. -1.
</event>
<event>
 7    1  0.2412036E-009  0.4778727E+02  0.7816164E-02  0.1312668E+00
        -11   -1    0    0    0    0  0.00000000000E+00  0.00000000000E+00  0.45593999997E+02  0.45594000000E+02  0.51100000000E-03 0. -1.
         11   -1    0    0    0    0 -0.00000000000E+00 -0.00000000000E+00 -0.45593999997E+02  0.45594000000E+02  0.51100000000E-03 0.  1.
    9900012    2    1    2    0    0 -0.15148314073E+02  0.39753780313E+02  0.85900313575E+01  0.47787272965E+02  0.20000008756E+02 0.  0.
         12    1    1    2    0    0  0.15148314073E+02 -0.39753780313E+02 -0.85900313575E+01  0.43400727035E+02  0.00000000000E+00 0. -1.
         11    1    3    3    0    0 -0.67175064620E+01  0.16365649162E+01  0.36793169607E+01  0.78320247286E+01  0.51100000000E-03 0. -1.
        -11    1    3    3    0    0 -0.85097325932E+01  0.38388838263E+02  0.50433671484E+01  0.39642830429E+02  0.51100000000E-03 0.  1.
        -12    1    3    3    0    0  0.78924981724E-01 -0.27162286555E+00 -0.13265275160E+00  0.31241780733E+00  0.00000000000E+00 0.  1.
</event>
<event>
 7    1  0.2412036E-009  0.4778727E+02  0.7816164E-02  0.1312668E+00
        -11   -1    0    0    0    0  0.00000000000E+00  0.00000000000E+00  0.45593999997E+02  0.45594000000E+02  0.51100000000E-03 0. -1.
         11   -1    0    0    0    0 -0.00000000000E+00 -0.00000000000E+00 -0.45593999997E+02  0.45594000000E+02  0.51100000000E-03 0.  1.
    9900012    2    1    2    0    0  0.22298956712E+02 -0.26458424233E+02 -0.26197932377E+02  0.47787270234E+02  0.19999996306E+02 0.  0.
         12    1    1    2    0    0 -0.22298956712E+02  0.26458424233E+02  0.26197932377E+02  0.43400729766E+02  0.00000000000E+00 0. -1.
         11    1    3    3    0    0 -0.56926427090E+00 -0.21583085299E+01  0.21027323102E+01  0.30665682692E+01  0.51100000000E-03 0. -1.
        -11    1    3    3    0    0  0.15575952094E+02 -0.21004055721E+02 -0.24607799217E+02  0.35907163950E+02  0.51100000000E-03 0.  1.
        -12    1    3    3    0    0  0.72922688888E+01 -0.32960599821E+01 -0.36928654705E+01  0.88135380146E+01  0.00000000000E+00 0.  1.
</event>
<event>
 7    1  0.2412036E-009  0.4778728E+02  0.7816164E-02  0.1312668E+00
        -11   -1    0    0    0    0  0.00000000000E+00  0.00000000000E+00  0.45593999997E+02  0.45594000000E+02  0.51100000000E-03 0.  1.
         11   -1    0    0    0    0 -0.00000000000E+00 -0.00000000000E+00 -0.45593999997E+02  0.45594000000E+02  0.51100000000E-03 0. -1.
    9900012    2    1    2    0    0  0.37846352824E+02 -0.20377470711E+01  0.21145304870E+02  0.47787277042E+02  0.20000027348E+02 0.  0.
         12    1    1    2    0    0 -0.37846352824E+02  0.20377470711E+01 -0.21145304870E+02  0.43400722958E+02  0.00000000000E+00 0. -1.
         11    1    3    3    0    0  0.16840772024E+02  0.30195360913E+00 -0.85792614111E+00  0.16865313987E+02  0.51100000000E-03 0. -1.
        -11    1    3    3    0    0  0.14865827879E+02 -0.39213944435E+01  0.16033284166E+02  0.22213427793E+02  0.51100000000E-03 0.  1.
         12    1    3    3    0    0  0.61397529213E+01  0.15816937633E+01  0.59699468451E+01  0.87085352632E+01  0.00000000000E+00 0. -1.
</event>
<event>
 7    1  0.2412036E-009  0.4778726E+02  0.7816164E-02  0.1312668E+00
        -11   -1    0    0    0    0  0.00000000000E+00  0.00000000000E+00  0.45593999997E+02  0.45594000000E+02  0.51100000000E-03 0.  1.
         11   -1    0    0    0    0 -0.00000000000E+00 -0.00000000000E+00 -0.45593999997E+02  0.45594000000E+02  0.51100000000E-03 0. -1.
    9900012    2    1    2    0    0  0.25791055286E+02  0.34449891890E+02  0.56258675192E+01  0.47787263032E+02  0.19999963469E+02 0.  0.
         12    1    1    2    0    0 -0.25791055286E+02 -0.34449891890E+02 -0.56258675192E+01  0.43400736968E+02  0.00000000000E+00 0. -1.
         11    1    3    3    0    0  0.82763233740E+01  0.59658604282E+01 -0.45359839806E+01  0.11165311020E+02  0.51100000000E-03 0. -1.
        -11    1    3    3    0    0  0.22584267125E+01  0.94372877639E+01 -0.10607677385E+01  0.97615633999E+01  0.51100000000E-03 0.  1.
         12    1    3    3    0    0  0.15256305199E+02  0.19046743698E+02  0.11222619238E+02  0.26860388612E+02  0.00000000000E+00 0. -1.
</event>
<event>
 7    1  0.2412036E-009  0.4778727E+02  0.7816164E-02  0.1312668E+00
        -11   -1    0    0    0    0  0.00000000000E+00  0.00000000000E+00  0.45593999997E+02  0.45594000000E+02  0.51100000000E-03 0.  1.
         11   -1    0    0    0    0 -0.00000000000E+00 -0.00000000000E+00 -0.45593999997E+02  0.45594000000E+02  0.51100000000E-03 0. -1.
    9900012    2    1    2    0    0 -0.11164638551E+02 -0.16695905679E+02  0.38473636886E+02  0.47787272407E+02  0.20000006211E+02 0.  0.
         12    1    1    2    0    0  0.11164638551E+02  0.16695905679E+02 -0.38473636886E+02  0.43400727593E+02  0.00000000000E+00 0. -1.
         11    1    3    3    0    0 -0.38001332780E+01  0.12916659735E+01  0.75132074321E+00  0.40833683446E+01  0.51100000000E-03 0. -1.
        -11    1    3    3    0    0 -0.42553522127E+01 -0.17917464820E+02  0.35092366936E+02  0.39631020494E+02  0.51100000000E-03 0.  1.
        -12    1    3    3    0    0 -0.31091530606E+01 -0.70106832137E-01  0.26299492071E+01  0.40728835675E+01  0.00000000000E+00 0.  1.
</event>
<event>
 7    1  0.2412036E-009  0.4778727E+02  0.7816164E-02  0.1312668E+00
        -11   -1    0    0    0    0  0.00000000000E+00  0.00000000000E+00  0.45593999997E+02  0.45594000000E+02  0.51100000000E-03 0. -1.
         11   -1    0    0    0    0 -0.00000000000E+00 -0.00000000000E+00 -0.45593999997E+02  0.45594000000E+02  0.51100000000E-03 0.  1.
    9900012    2    1    2    0    0 -0.40451694945E+02  0.12960893019E+02 -0.89049903990E+01  0.47787271599E+02  0.20000002526E+02 0.  0.
         12    1    1    2    0    0  0.40451694945E+02 -0.12960893019E+02  0.89049903990E+01  0.43400728401E+02  0.00000000000E+00 0. -1.
         11    1    3    3    0    0 -0.97395775160E+01  0.14441165173E+01  0.53649348225E+01  0.11212821617E+02  0.51100000000E-03 0. -1.
        -11    1    3    3    0    0 -0.20973335559E+02  0.11091723612E+02 -0.11898608992E+02  0.26542118102E+02  0.51100000000E-03 0.  1.
         12    1    3    3    0    0 -0.97387818705E+01  0.42505288965E+00 -0.23713162297E+01  0.10032331880E+02  0.00000000000E+00 0. -1.
</event>
<event>
 7    1  0.2412036E-009  0.4778727E+02  0.7816164E-02  0.1312668E+00
        -11   -1    0    0    0    0  0.00000000000E+00  0.00000000000E+00  0.45593999997E+02  0.45594000000E+02  0.51100000000E-03 0.  1.
         11   -1    0    0    0    0 -0.00000000000E+00 -0.00000000000E+00 -0.45593999997E+02  0.45594000000E+02  0.51100000000E-03 0. -1.
    9900012    2    1    2    0    0 -0.30857718671E+02  0.11335859733E+02  0.28335893858E+02  0.47787269613E+02  0.19999993472E+02 0.  0.
         12    1    1    2    0    0  0.30857718671E+02 -0.11335859733E+02 -0.28335893858E+02  0.43400730387E+02  0.00000000000E+00 0. -1.
         11    1    3    3    0    0 -0.98671189347E+01  0.24530286116E-01  0.10519711798E+02  0.14423070907E+02  0.51100000000E-03 0. -1.
        -11    1    3    3    0    0 -0.17371991788E+02  0.85741879935E+01  0.20408119488E+02  0.28138836858E+02  0.51100000000E-03 0.  1.
        -12    1    3    3    0    0 -0.36186079475E+01  0.27371414530E+01 -0.25919374280E+01  0.52253618479E+01  0.00000000000E+00 0.  1.
</event>
<event>
 7    1  0.3163742E-009  0.4778727E+02  0.7816164E-02  0.1312668E+00
        -11   -1    0    0    0    0  0.00000000000E+00  0.00000000000E+00  0.45593999997E+02  0.45594000000E+02  0.51100000000E-03 0.  1.
         11   -1    0    0    0    0 -0.00000000000E+00 -0.00000000000E+00 -0.45593999997E+02  0.45594000000E+02  0.51100000000E-03 0. -1.
    9900012    2    1    2    0    0 -0.31817725833E+02  0.22718818609E+01  0.29429477028E+02  0.47787271406E+02  0.20000001648E+02 0.  0.
         12    1    1    2    0    0  0.31817725833E+02 -0.22718818609E+01 -0.29429477028E+02  0.43400728594E+02  0.00000000000E+00 0. -1.
         11    1    3    3    0    0 -0.12327471371E+01  0.74189621414E+00 -0.62924647642E+00  0.15703588399E+01  0.51100000000E-03 0. -1.
        -11    1    3    3    0    0  0.15706274011E+01 -0.22287682961E+01  0.25580587103E+01  0.37387087580E+01  0.51100000000E-03 0.  1.
        -12    1    3    3    0    0 -0.32155606097E+02  0.37587539428E+01  0.27500664794E+02  0.42478203808E+02  0.00000000000E+00 0.  1.
</event>
<event>
 7    1  0.2412036E-009  0.4778727E+02  0.7816164E-02  0.1312668E+00
        -11   -1    0    0    0    0  0.00000000000E+00  0.00000000000E+00  0.45593999997E+02  0.45594000000E+02  0.51100000000E-03 0.  1.
         11   -1    0    0    0    0 -0.00000000000E+00 -0.00000000000E+00 -0.45593999997E+02  0.45594000000E+02  0.51100000000E-03 0. -1.
    9900012    2    1    2    0    0 -0.29942316534E+02  0.12207224915E+02  0.28949340211E+02  0.47787274681E+02  0.20000016580E+02 0.  0.
         12    1    1    2    0    0  0.29942316534E+02 -0.12207224915E+02 -0.28949340211E+02  0.43400725319E+02  0.00000000000E+00 0. -1.
         11    1    3    3    0    0 -0.12847928492E+02  0.82878594687E+01  0.20336466935E+02  0.25442676133E+02  0.51100000000E-03 0. -1.
        -11    1    3    3    0    0 -0.92348122394E+01 -0.33261737951E+01  0.29596953082E+01  0.10252072268E+02  0.51100000000E-03 0.  1.
        -12    1    3    3    0    0 -0.78595758030E+01  0.72455392418E+01  0.56531779673E+01  0.12092526280E+02  0.00000000000E+00 0.  1.
</event>
<event>
 7    1  0.2412036E-009  0.4778727E+02  0.7816164E-02  0.1312668E+00
        -11   -1    0    0    0    0  0.00000000000E+00  0.00000000000E+00  0.45593999997E+02  0.45594000000E+02  0.51100000000E-03 0.  1.
         11   -1    0    0    0    0 -0.00000000000E+00 -0.00000000000E+00 -0.45593999997E+02  0.45594000000E+02  0.51100000000E-03 0. -1.
    9900012    2    1    2    0    0 -0.40555808352E+02  0.85374644170E+01 -0.12882596677E+02  0.47787272047E+02  0.20000004570E+02 0.  0.
         12    1    1    2    0    0  0.40555808352E+02 -0.85374644170E+01  0.12882596677E+02  0.43400727953E+02  0.00000000000E+00 0. -1.
         11    1    3    3    0    0  0.47916178315E+00 -0.92165123263E+00  0.69117357073E+00  0.12477011561E+01  0.51100000000E-03 0. -1.
        -11    1    3    3    0    0 -0.10717073997E+01  0.16150129481E+01  0.21400731661E+01  0.28873408165E+01  0.51100000000E-03 0.  1.
        -12    1    3    3    0    0 -0.39963262735E+02  0.78441027015E+01 -0.15713843414E+02  0.43652230074E+02  0.00000000000E+00 0.  1.
</event>
<event>
 7    1  0.2412036E-009  0.4778727E+02  0.7816164E-02  0.1312668E+00
        -11   -1    0    0    0    0  0.00000000000E+00  0.00000000000E+00  0.45593999997E+02  0.45594000000E+02  0.51100000000E-03 0.  1.
         11   -1    0    0    0    0 -0.00000000000E+00 -0.00000000000E+00 -0.45593999997E+02  0.45594000000E+02  0.51100000000E-03 0. -1.
    9900012    2    1    2    0    0 -0.12983804258E+02  0.23265890184E+02  0.34259926111E+02  0.47787270096E+02  0.19999995676E+02 0.  0.
         12    1    1    2    0    0  0.12983804258E+02 -0.23265890184E+02 -0.34259926111E+02  0.43400729904E+02  0.00000000000E+00 0. -1.
         11    1    3    3    0    0 -0.89154981109E+01  0.14186095661E+01  0.13753761821E+02  0.16451885124E+02  0.51100000000E-03 0. -1.
        -11    1    3    3    0    0  0.32792087307E+00  0.11191151689E+02  0.56774670525E+01  0.12553208380E+02  0.51100000000E-03 0.  1.
         12    1    3    3    0    0 -0.43962270207E+01  0.10656128929E+02  0.14828697238E+02  0.18782176592E+02  0.00000000000E+00 0. -1.
</event>
<event>
 7    1  0.2412036E-009  0.4778727E+02  0.7816164E-02  0.1312668E+00
        -11   -1    0    0    0    0  0.00000000000E+00  0.00000000000E+00  0.45593999997E+02  0.45594000000E+02  0.51100000000E-03 0.  1.
         11   -1    0    0    0    0 -0.00000000000E+00 -0.00000000000E+00 -0.45593999997E+02  0.45594000000E+02  0.51100000000E-03 0. -1.
    9900012    2    1    2    0    0 -0.22754194327E+02 -0.12704281924E+02  0.34705491115E+02  0.47787271294E+02  0.20000001139E+02 0.  0.
         12    1    1    2    0    0  0.22754194327E+02  0.12704281924E+02 -0.34705491115E+02  0.43400728706E+02  0.00000000000E+00 0. -1.
         11    1    3    3    0    0 -0.10514536347E+02 -0.11754378047E+02  0.17970806541E+02  0.23909637510E+02  0.51100000000E-03 0. -1.
        -11    1    3    3    0    0 -0.90527527153E+00  0.66958855575E+00 -0.17814734998E+01  0.21074914574E+01  0.51100000000E-03 0.  1.
        -12    1    3    3    0    0 -0.11334382709E+02 -0.16194924330E+01  0.18516158074E+02  0.21770142327E+02  0.00000000000E+00 0.  1.
</event>
<event>
 7    1  0.2412036E-009  0.4778727E+02  0.7816164E-02  0.1312668E+00
        -11   -1    0    0    0    0  0.00000000000E+00  0.00000000000E+00  0.45593999997E+02  0.45594000000E+02  0.51100000000E-03 0.  1.
         11   -1    0    0    0    0 -0.00000000000E+00 -0.00000000000E+00 -0.45593999997E+02  0.45594000000E+02  0.51100000000E-03 0. -1.
    9900012    2    1    2    0    0 -0.22643669520E+02  0.22074866955E+02  0.29725202351E+02  0.47787272181E+02  0.20000005180E+02 0.  0.
         12    1    1    2    0    0  0.22643669520E+02 -0.22074866955E+02 -0.29725202351E+02  0.43400727819E+02  0.00000000000E+00 0. -1.
         11    1    3    3    0    0 -0.69393941861E+01  0.12866305453E+02  0.18058708230E+02  0.23233896592E+02  0.51100000000E-03 0. -1.
        -11    1    3    3    0    0 -0.16604370414E+02  0.96610942227E+01  0.81017157622E+01  0.20848972564E+02  0.51100000000E-03 0.  1.
         12    1    3    3    0    0  0.90009507971E+00 -0.45253272032E+00  0.35647783596E+01  0.37044030246E+01  0.00000000000E+00 0. -1.
</event>
<event>
 7    1  0.2412036E-009  0.4778727E+02  0.7816164E-02  0.1312668E+00
        -11   -1    0    0    0    0  0.00000000000E+00  0.00000000000E+00  0.45593999997E+02  0.45594000000E+02  0.51100000000E-03 0.  1.
         11   -1    0    0    0    0 -0.00000000000E+00 -0.00000000000E+00 -0.45593999997E+02  0.45594000000E+02  0.51100000000E-03 0. -1.
    9900012    2    1    2    0    0 -0.18569834044E+02  0.30860746256E+02  0.24215677462E+02  0.47787269236E+02  0.19999991755E+02 0.  0.
         12    1    1    2    0    0  0.18569834044E+02 -0.30860746256E+02 -0.24215677462E+02  0.43400730764E+02  0.00000000000E+00 0. -1.
         11    1    3    3    0    0 -0.25813067907E+01  0.59110474058E+01 -0.77986518602E+00  0.64970621169E+01  0.51100000000E-03 0. -1.
        -11    1    3    3    0    0 -0.13047046950E+02  0.21860162725E+02  0.26518782688E+02  0.36760549289E+02  0.51100000000E-03 0.  1.
        -12    1    3    3    0    0 -0.29414803032E+01  0.30895361243E+01 -0.15232400403E+01  0.45296578301E+01  0.00000000000E+00 0.  1.
</event>
<event>
 7    1  0.2412036E-009  0.4778727E+02  0.7816164E-02  0.1312668E+00
        -11   -1    0    0    0    0  0.00000000000E+00  0.00000000000E+00  0.45593999997E+02  0.45594000000E+02  0.51100000000E-03 0.  1.
         11   -1    0    0    0    0 -0.00000000000E+00 -0.00000000000E+00 -0.45593999997E+02  0.45594000000E+02  0.51100000000E-03 0. -1.
    9900012    2    1    2    0    0 -0.16389155086E+02  0.13419950046E+02  0.37880386364E+02  0.47787272648E+02  0.20000007309E+02 0.  0.
         12    1    1    2    0    0  0.16389155086E+02 -0.13419950046E+02 -0.37880386364E+02  0.43400727352E+02  0.00000000000E+00 0. -1.
         11    1    3    3    0    0  0.37778021449E+01  0.31575811766E+00  0.49965330033E+01  0.62719083658E+01  0.51100000000E-03 0. -1.
        -11    1    3    3    0    0 -0.14726998119E+02  0.13239672031E+02  0.27213600447E+02  0.33656402639E+02  0.51100000000E-03 0.  1.
         12    1    3    3    0    0 -0.54399591116E+01 -0.13548010264E+00  0.56702529135E+01  0.78589616424E+01  0.00000000000E+00 0. -1.
</event>
<event>
 7    1  0.2412036E-009  0.4778727E+02  0.7816164E-02  0.1312668E+00
        -11   -1    0    0    0    0  0.00000000000E+00  0.00000000000E+00  0.45593999997E+02  0.45594000000E+02  0.51100000000E-03 0.  1.
         11   -1    0    0    0    0 -0.00000000000E+00 -0.00000000000E+00 -0.45593999997E+02  0.45594000000E+02  0.51100000000E-03 0. -1.
    9900012    2    1    2    0    0 -0.16735151913E+02  0.95716995969E+01  0.38883680255E+02  0.47787270365E+02  0.19999996901E+02 0.  0.
         12    1    1    2    0    0  0.16735151913E+02 -0.95716995969E+01 -0.38883680255E+02  0.43400729635E+02  0.00000000000E+00 0. -1.
         11    1    3    3    0    0 -0.10816317005E+02 -0.21562526717E+00  0.75672918035E+01  0.13202390439E+02  0.51100000000E-03 0. -1.
        -11    1    3    3    0    0  0.24499744598E+01  0.17361183705E+01  0.52366564221E+01  0.60364768363E+01  0.51100000000E-03 0.  1.
         12    1    3    3    0    0 -0.83688093684E+01  0.80512064936E+01  0.26079732029E+02  0.28548403089E+02  0.00000000000E+00 0. -1.
</event>
<event>
 7    1  0.2412036E-009  0.4778727E+02  0.7816164E-02  0.1312668E+00
        -11   -1    0    0    0    0  0.00000000000E+00  0.00000000000E+00  0.45593999997E+02  0.45594000000E+02  0.51100000000E-03 0.  1.
         11   -1    0    0    0    0 -0.00000000000E+00 -0.00000000000E+00 -0.45593999997E+02  0.45594000000E+02  0.51100000000E-03 0. -1.
    9900012    2    1    2    0    0 -0.43312250347E+02 -0.22413846565E+01 -0.16273355059E+01  0.47787273553E+02  0.20000011438E+02 0.  0.
         12    1    1    2    0    0  0.43312250347E+02  0.22413846565E+01  0.16273355059E+01  0.43400726447E+02  0.00000000000E+00 0. -1.
         11    1    3    3    0    0 -0.43446860298E+01 -0.43446335715E+01 -0.12359257501E+00  0.61455197465E+01  0.51100000000E-03 0. -1.
        -11    1    3    3    0    0 -0.36307810261E+02  0.59197497526E+01 -0.25436177027E+01  0.36875066296E+02  0.51100000000E-03 0.  1.
        -12    1    3    3    0    0 -0.26597540558E+01 -0.38165008376E+01  0.10398747719E+01  0.47666875104E+01  0.00000000000E+00 0.  1.
</event>
<event>
 7    1  0.2412036E-009  0.4778727E+02  0.7816164E-02  0.1312668E+00
        -11   -1    0    0    0    0  0.00000000000E+00  0.00000000000E+00  0.45593999997E+02  0.45594000000E+02  0.51100000000E-03 0. -1.
         11   -1    0    0    0    0 -0.00000000000E+00 -0.00000000000E+00 -0.45593999997E+02  0.45594000000E+02  0.51100000000E-03 0.  1.
    9900012    2    1    2    0    0 -0.22215650950E+02 -0.34569553029E+02  0.13965456931E+02  0.47787272690E+02  0.20000007503E+02 0.  0.
         12    1    1    2    0    0  0.22215650950E+02  0.34569553029E+02 -0.13965456931E+02  0.43400727310E+02  0.00000000000E+00 0. -1.
         11    1    3    3    0    0 -0.73491661858E+01 -0.32622274268E+01 -0.18224230445E+01  0.82446102045E+01  0.51100000000E-03 0. -1.
        -11    1    3    3    0    0 -0.13907012011E+02 -0.26956987390E+02  0.94023372422E+01  0.31756701625E+02  0.51100000000E-03 0.  1.
        -12    1    3    3    0    0 -0.95947275299E+00 -0.43503382121E+01  0.63855427332E+01  0.77859608605E+01  0.00000000000E+00 0.  1.
</event>
<event>
 7    1  0.2412036E-009  0.4778727E+02  0.7816164E-02  0.1312668E+00
        -11   -1    0    0    0    0  0.00000000000E+00  0.00000000000E+00  0.45593999997E+02  0.45594000000E+02  0.51100000000E-03 0.  1.
         11   -1    0    0    0    0 -0.00000000000E+00 -0.00000000000E+00 -0.45593999997E+02  0.45594000000E+02  0.51100000000E-03 0. -1.
    9900012    2    1    2    0    0 -0.34950973239E+02  0.16672527436E+02  0.19597953706E+02  0.47787268544E+02  0.19999988600E+02 0.  0.
         12    1    1    2    0    0  0.34950973239E+02 -0.16672527436E+02 -0.19597953706E+02  0.43400731456E+02  0.00000000000E+00 0. -1.
         11    1    3    3    0    0 -0.18378859234E+02  0.13274818529E+02  0.15046815509E+02  0.27210474655E+02  0.51100000000E-03 0.  1.
        -11    1    3    3    0    0 -0.11727158646E+02 -0.75855267585E+00 -0.14184918796E+01  0.11836966315E+02  0.51100000000E-03 0. -1.
         12    1    3    3    0    0 -0.48449553586E+01  0.41562615825E+01  0.59696300769E+01  0.87398275741E+01  0.00000000000E+00 0. -1.
</event>
<event>
 7    1  0.2412036E-009  0.4778733E+02  0.7816164E-02  0.1312668E+00
        -11   -1    0    0    0    0  0.00000000000E+00  0.00000000000E+00  0.45593999997E+02  0.45594000000E+02  0.51100000000E-03 0.  1.
         11   -1    0    0    0    0 -0.00000000000E+00 -0.00000000000E+00 -0.45593999997E+02  0.45594000000E+02  0.51100000000E-03 0. -1.
    9900012    2    1    2    0    0  0.29310592216E+02 -0.31944516245E+02 -0.20138482372E+01  0.47787325825E+02  0.20000249764E+02 0.  0.
         12    1    1    2    0    0 -0.29310592216E+02  0.31944516245E+02  0.20138482372E+01  0.43400674175E+02  0.00000000000E+00 0. -1.
         11    1    3    3    0    0  0.16642298599E+00  0.41059039587E+00  0.37927283938E+00  0.58320599385E+00  0.51100000000E-03 0. -1.
        -11    1    3    3    0    0  0.91164998954E+01 -0.15429429426E+01 -0.47203911376E+01  0.10381393742E+02  0.51100000000E-03 0.  1.
        -12    1    3    3    0    0  0.20027669334E+02 -0.30812163698E+02  0.23272700610E+01  0.36822726089E+02  0.00000000000E+00 0.  1.
</event>
<event>
 7    1  0.2412036E-009  0.4778726E+02  0.7816164E-02  0.1312668E+00
        -11   -1    0    0    0    0  0.00000000000E+00  0.00000000000E+00  0.45593999997E+02  0.45594000000E+02  0.51100000000E-03 0.  1.
         11   -1    0    0    0    0 -0.00000000000E+00 -0.00000000000E+00 -0.45593999997E+02  0.45594000000E+02  0.51100000000E-03 0. -1.
    9900012    2    1    2    0    0 -0.60475812014E+01  0.30443632328E+02  0.30335390533E+02  0.47787263756E+02  0.19999966770E+02 0.  0.
         12    1    1    2    0    0  0.60475812014E+01 -0.30443632328E+02 -0.30335390533E+02  0.43400736244E+02  0.00000000000E+00 0. -1.
         11    1    3    3    0    0 -0.38001355245E+01  0.10222148786E+02  0.18384982904E+02  0.21376177218E+02  0.51100000000E-03 0.  1.
        -11    1    3    3    0    0 -0.59638764522E+01  0.13952595017E+02  0.41393334974E+01  0.15728217068E+02  0.51100000000E-03 0. -1.
        -12    1    3    3    0    0  0.37164307754E+01  0.62688885246E+01  0.78110741319E+01  0.10682869471E+02  0.00000000000E+00 0.  1.
</event>
<event>
 7    1  0.2412036E-009  0.4778728E+02  0.7816164E-02  0.1312668E+00
        -11   -1    0    0    0    0  0.00000000000E+00  0.00000000000E+00  0.45593999997E+02  0.45594000000E+02  0.51100000000E-03 0.  1.
         11   -1    0    0    0    0 -0.00000000000E+00 -0.00000000000E+00 -0.45593999997E+02  0.45594000000E+02  0.51100000000E-03 0. -1.
    9900012    2    1    2    0    0  0.30010551563E+02  0.72053394633E+01  0.30513476936E+02  0.47787281150E+02  0.20000046077E+02 0.  0.
         12    1    1    2    0    0 -0.30010551563E+02 -0.72053394633E+01 -0.30513476936E+02  0.43400718850E+02  0.00000000000E+00 0. -1.
         11    1    3    3    0    0 -0.74932137262E+00 -0.10136837187E+01  0.21683703193E+01  0.25081601432E+01  0.51100000000E-03 0. -1.
        -11    1    3    3    0    0  0.14964106463E+02  0.58809431861E+01  0.47069409513E+01  0.16753067432E+02  0.51100000000E-03 0.  1.
        -12    1    3    3    0    0  0.15795766473E+02  0.23380799959E+01  0.23638165666E+02  0.28526053575E+02  0.00000000000E+00 0.  1.
</event>
<event>
 7    1  0.2412036E-009  0.4778727E+02  0.7816164E-02  0.1312668E+00
        -11   -1    0    0    0    0  0.00000000000E+00  0.00000000000E+00  0.45593999997E+02  0.45594000000E+02  0.51100000000E-03 0.  1.
         11   -1    0    0    0    0 -0.00000000000E+00 -0.00000000000E+00 -0.45593999997E+02  0.45594000000E+02  0.51100000000E-03 0. -1.
    9900012    2    1    2    0    0 -0.24670032014E+02 -0.27444066990E+02  0.22843725763E+02  0.47787273056E+02  0.20000009173E+02 0.  0.
         12    1    1    2    0    0  0.24670032014E+02  0.27444066990E+02 -0.22843725763E+02  0.43400726944E+02  0.00000000000E+00 0. -1.
         11    1    3    3    0    0 -0.11601061613E+02 -0.10478311206E+02  0.19203605480E+02  0.24762029399E+02  0.51100000000E-03 0. -1.
        -11    1    3    3    0    0 -0.12926537215E+02 -0.12858761422E+02  0.12605269665E+01  0.18276543386E+02  0.51100000000E-03 0.  1.
        -12    1    3    3    0    0 -0.14243318590E+00 -0.41069943627E+01  0.23795933162E+01  0.47487002704E+01  0.00000000000E+00 0.  1.
</event>
<event>
 7    1  0.2412036E-009  0.4778727E+02  0.7816164E-02  0.1312668E+00
        -11   -1    0    0    0    0  0.00000000000E+00  0.00000000000E+00  0.45593999997E+02  0.45594000000E+02  0.51100000000E-03 0.  1.
         11   -1    0    0    0    0 -0.00000000000E+00 -0.00000000000E+00 -0.45593999997E+02  0.45594000000E+02  0.51100000000E-03 0. -1.
    9900012    2    1    2    0    0  0.98488509705E+01  0.83342361892E+01  0.41438673062E+02  0.47787274390E+02  0.20000015254E+02 0.  0.
         12    1    1    2    0    0 -0.98488509705E+01 -0.83342361892E+01 -0.41438673062E+02  0.43400725610E+02  0.00000000000E+00 0. -1.
         11    1    3    3    0    0  0.36211426189E+01  0.38036095857E+01  0.94283819814E+00  0.53356409058E+01  0.51100000000E-03 0. -1.
        -11    1    3    3    0    0  0.57876112145E+01 -0.19243738188E+01  0.23098357108E+02  0.23890034733E+02  0.51100000000E-03 0.  1.
        -12    1    3    3    0    0  0.44009713712E+00  0.64550004223E+01  0.17397477756E+02  0.18561598751E+02  0.00000000000E+00 0.  1.
</event>
<event>
 7    1  0.2412036E-009  0.4778727E+02  0.7816164E-02  0.1312668E+00
        -11   -1    0    0    0    0  0.00000000000E+00  0.00000000000E+00  0.45593999997E+02  0.45594000000E+02  0.51100000000E-03 0.  1.
         11   -1    0    0    0    0 -0.00000000000E+00 -0.00000000000E+00 -0.45593999997E+02  0.45594000000E+02  0.51100000000E-03 0. -1.
    9900012    2    1    2    0    0 -0.14488468510E+01  0.25898338144E+02  0.34796554635E+02  0.47787270855E+02  0.19999999138E+02 0.  0.
         12    1    1    2    0    0  0.14488468510E+01 -0.25898338144E+02 -0.34796554635E+02  0.43400729145E+02  0.00000000000E+00 0. -1.
         11    1    3    3    0    0 -0.30464888609E+00  0.60409065141E+01 -0.82192361845E+00  0.61041724379E+01  0.51100000000E-03 0. -1.
        -11    1    3    3    0    0  0.60266444117E+00  0.19731258094E+02  0.31088750654E+02  0.36826568777E+02  0.51100000000E-03 0.  1.
         12    1    3    3    0    0 -0.17468624061E+01  0.12617353619E+00  0.45297275990E+01  0.48565296404E+01  0.00000000000E+00 0. -1.
</event>
<event>
 7    1  0.2412036E-009  0.4778726E+02  0.7816164E-02  0.1312668E+00
        -11   -1    0    0    0    0  0.00000000000E+00  0.00000000000E+00  0.45593999997E+02  0.45594000000E+02  0.51100000000E-03 0.  1.
         11   -1    0    0    0    0 -0.00000000000E+00 -0.00000000000E+00 -0.45593999997E+02  0.45594000000E+02  0.51100000000E-03 0. -1.
    9900012    2    1    2    0    0  0.31638189790E+02 -0.41491566213E+01  0.29418252408E+02  0.47787261198E+02  0.19999955104E+02 0.  0.
         12    1    1    2    0    0 -0.31638189790E+02  0.41491566213E+01 -0.29418252408E+02  0.43400738802E+02  0.00000000000E+00 0. -1.
         11    1    3    3    0    0  0.16766710067E+01  0.45475828222E+00  0.57201919706E+01  0.59781792548E+01  0.51100000000E-03 0. -1.
        -11    1    3    3    0    0  0.90941599239E+01  0.25130475534E+01  0.15774644318E+02  0.18380929148E+02  0.51100000000E-03 0.  1.
        -12    1    3    3    0    0  0.20867358859E+02 -0.71169624569E+01  0.79234161199E+01  0.23428152795E+02  0.00000000000E+00 0.  1.
</event>
<event>
 7    1  0.2412036E-009  0.4778727E+02  0.7816164E-02  0.1312668E+00
        -11   -1    0    0    0    0  0.00000000000E+00  0.00000000000E+00  0.45593999997E+02  0.45594000000E+02  0.51100000000E-03 0.  1.
         11   -1    0    0    0    0 -0.00000000000E+00 -0.00000000000E+00 -0.45593999997E+02  0.45594000000E+02  0.51100000000E-03 0. -1.
    9900012    2    1    2    0    0  0.14814291522E+02 -0.40740489916E+02 -0.20910965363E+01  0.47787269170E+02  0.19999991454E+02 0.  0.
         12    1    1    2    0    0 -0.14814291522E+02  0.40740489916E+02  0.20910965363E+01  0.43400730830E+02  0.00000000000E+00 0. -1.
         11    1    3    3    0    0  0.58175982006E+01 -0.76022105280E+01 -0.65136821978E+01  0.11578692058E+02  0.51100000000E-03 0. -1.
        -11    1    3    3    0    0  0.10370394731E+02 -0.24042795766E+02  0.60330346531E+01  0.26870032052E+02  0.51100000000E-03 0.  1.
         12    1    3    3    0    0 -0.13737014097E+01 -0.90954836221E+01 -0.16104489916E+01  0.93385450600E+01  0.00000000000E+00 0. -1.
</event>
<event>
 7    1  0.2412036E-009  0.4778726E+02  0.7816164E-02  0.1312668E+00
        -11   -1    0    0    0    0  0.00000000000E+00  0.00000000000E+00  0.45593999997E+02  0.45594000000E+02  0.51100000000E-03 0. -1.
         11   -1    0    0    0    0 -0.00000000000E+00 -0.00000000000E+00 -0.45593999997E+02  0.45594000000E+02  0.51100000000E-03 0.  1.
    9900012    2    1    2    0    0  0.11601248174E+02 -0.33147041546E+02 -0.25501150736E+02  0.47787262549E+02  0.19999961265E+02 0.  0.
         12    1    1    2    0    0 -0.11601248174E+02  0.33147041546E+02  0.25501150736E+02  0.43400737451E+02  0.00000000000E+00 0. -1.
         11    1    3    3    0    0  0.41627177433E+01 -0.16418103238E+02 -0.83897360553E+01  0.18901587349E+02  0.51100000000E-03 0. -1.
        -11    1    3    3    0    0  0.88871799276E+01 -0.18770685201E+02 -0.15234525778E+02  0.25756773205E+02  0.51100000000E-03 0.  1.
        -12    1    3    3    0    0 -0.14486494966E+01  0.20417468937E+01 -0.18768889024E+01  0.31289019950E+01  0.00000000000E+00 0.  1.
</event>
<event>
 7    1  0.2412036E-009  0.4778727E+02  0.7816164E-02  0.1312668E+00
        -11   -1    0    0    0    0  0.00000000000E+00  0.00000000000E+00  0.45593999997E+02  0.45594000000E+02  0.51100000000E-03 0.  1.
         11   -1    0    0    0    0 -0.00000000000E+00 -0.00000000000E+00 -0.45593999997E+02  0.45594000000E+02  0.51100000000E-03 0. -1.
    9900012    2    1    2    0    0 -0.18887583688E+02  0.31770886373E+02  0.22748478139E+02  0.47787270788E+02  0.19999998829E+02 0.  0.
         12    1    1    2    0    0  0.18887583688E+02 -0.31770886373E+02 -0.22748478139E+02  0.43400729212E+02  0.00000000000E+00 0. -1.
         11    1    3    3    0    0 -0.45890313195E+01  0.21388736963E+02  0.15158769875E+02  0.26614386743E+02  0.51100000000E-03 0. -1.
        -11    1    3    3    0    0 -0.66943016087E+01  0.10013503988E+02  0.57158994751E+01  0.13332495761E+02  0.51100000000E-03 0.  1.
         12    1    3    3    0    0 -0.76042507598E+01  0.36864542255E+00  0.18738087894E+01  0.78403882840E+01  0.00000000000E+00 0. -1.
</event>
<event>
 7    1  0.2412036E-009  0.4778722E+02  0.7816164E-02  0.1312668E+00
        -11   -1    0    0    0    0  0.00000000000E+00  0.00000000000E+00  0.45593999997E+02  0.45594000000E+02  0.51100000000E-03 0. -1.
         11   -1    0    0    0    0 -0.00000000000E+00 -0.00000000000E+00 -0.45593999997E+02  0.45594000000E+02  0.51100000000E-03 0.  1.
    9900012    2    1    2    0    0  0.14095908317E+02 -0.36519411659E+01 -0.40885161479E+02  0.47787219653E+02  0.19999765683E+02 0.  0.
         12    1    1    2    0    0 -0.14095908317E+02  0.36519411659E+01  0.40885161479E+02  0.43400780347E+02  0.00000000000E+00 0. -1.
         11    1    3    3    0    0  0.41863246787E+01 -0.73615382910E+01 -0.19386551850E+02  0.21155518269E+02  0.51100000000E-03 0.  1.
        -11    1    3    3    0    0  0.14658270642E+01  0.32804559694E+01 -0.68062203668E-01  0.35936990795E+01  0.51100000000E-03 0. -1.
         12    1    3    3    0    0  0.84437565740E+01  0.42914115564E+00 -0.21430547426E+02  0.23038002304E+02  0.00000000000E+00 0. -1.
</event>
<event>
 7    1  0.2412036E-009  0.4778727E+02  0.7816164E-02  0.1312668E+00
        -11   -1    0    0    0    0  0.00000000000E+00  0.00000000000E+00  0.45593999997E+02  0.45594000000E+02  0.51100000000E-03 0. -1.
         11   -1    0    0    0    0 -0.00000000000E+00 -0.00000000000E+00 -0.45593999997E+02  0.45594000000E+02  0.51100000000E-03 0.  1.
    9900012    2    1    2    0    0  0.20032220363E+02  0.36284440734E+02 -0.12875276161E+02  0.47787271570E+02  0.20000002395E+02 0.  0.
         12    1    1    2    0    0 -0.20032220363E+02 -0.36284440734E+02  0.12875276161E+02  0.43400728430E+02  0.00000000000E+00 0. -1.
         11    1    3    3    0    0  0.12916556888E+02  0.25759548867E+02 -0.15078544874E+02  0.32523135081E+02  0.51100000000E-03 0. -1.
        -11    1    3    3    0    0 -0.11683605118E+00 -0.11888819911E+01 -0.38731735142E+00  0.12558288273E+01  0.51100000000E-03 0.  1.
         12    1    3    3    0    0  0.72324995260E+01  0.11713773858E+02  0.25905860645E+01  0.14008307662E+02  0.00000000000E+00 0. -1.
</event>
<event>
 7    1  0.2412036E-009  0.4778727E+02  0.7816164E-02  0.1312668E+00
        -11   -1    0    0    0    0  0.00000000000E+00  0.00000000000E+00  0.45593999997E+02  0.45594000000E+02  0.51100000000E-03 0.  1.
         11   -1    0    0    0    0 -0.00000000000E+00 -0.00000000000E+00 -0.45593999997E+02  0.45594000000E+02  0.51100000000E-03 0. -1.
    9900012    2    1    2    0    0 -0.52307426251E+01 -0.10884440280E+02  0.41686829023E+02  0.47787269331E+02  0.19999992186E+02 0.  0.
         12    1    1    2    0    0  0.52307426251E+01  0.10884440280E+02 -0.41686829023E+02  0.43400730669E+02  0.00000000000E+00 0. -1.
         11    1    3    3    0    0 -0.14548700715E+00  0.76378113343E+00 -0.48571508866E-01  0.77902987210E+00  0.51100000000E-03 0. -1.
        -11    1    3    3    0    0 -0.60515088939E+01 -0.62908152232E+01  0.53934485324E+01  0.10260818846E+02  0.51100000000E-03 0.  1.
        -12    1    3    3    0    0  0.96625327596E+00 -0.53574061905E+01  0.36341952000E+02  0.36747420612E+02  0.00000000000E+00 0.  1.
</event>
<event>
 7    1  0.2412036E-009  0.4778727E+02  0.7816164E-02  0.1312668E+00
        -11   -1    0    0    0    0  0.00000000000E+00  0.00000000000E+00  0.45593999997E+02  0.45594000000E+02  0.51100000000E-03 0.  1.
         11   -1    0    0    0    0 -0.00000000000E+00 -0.00000000000E+00 -0.45593999997E+02  0.45594000000E+02  0.51100000000E-03 0. -1.
    9900012    2    1    2    0    0 -0.15892344505E+01 -0.17907745810E+02  0.39502027637E+02  0.47787271739E+02  0.20000003166E+02 0.  0.
         12    1    1    2    0    0  0.15892344505E+01  0.17907745810E+02 -0.39502027637E+02  0.43400728261E+02  0.00000000000E+00 0. -1.
         11    1    3    3    0    0  0.62664819771E+01 -0.50645052056E+00  0.72670670986E+01  0.96091390341E+01  0.51100000000E-03 0. -1.
        -11    1    3    3    0    0 -0.42076212556E+01 -0.10641224597E+02  0.25548516276E+02  0.27994042611E+02  0.51100000000E-03 0.  1.
         12    1    3    3    0    0 -0.36480951721E+01 -0.67600706928E+01  0.66864442631E+01  0.10184090094E+02  0.00000000000E+00 0. -1.
</event>
<event>
 7    1  0.2412036E-009  0.4778728E+02  0.7816164E-02  0.1312668E+00
        -11   -1    0    0    0    0  0.00000000000E+00  0.00000000000E+00  0.45593999997E+02  0.45594000000E+02  0.51100000000E-03 0. -1.
         11   -1    0    0    0    0 -0.00000000000E+00 -0.00000000000E+00 -0.45593999997E+02  0.45594000000E+02  0.51100000000E-03 0.  1.
    9900012    2    1    2    0    0 -0.39545372625E+02  0.16435683765E+02 -0.70466046569E+01  0.47787276111E+02  0.20000023101E+02 0.  0.
         12    1    1    2    0    0  0.39545372625E+02 -0.16435683765E+02  0.70466046569E+01  0.43400723889E+02  0.00000000000E+00 0. -1.
         11    1    3    3    0    0 -0.23259469177E+02  0.11160239904E+02  0.31319229859E+01  0.25987743321E+02  0.51100000000E-03 0. -1.
        -11    1    3    3    0    0 -0.16582619298E+02  0.65967764806E+01 -0.89235616080E+01  0.19953212142E+02  0.51100000000E-03 0.  1.
         12    1    3    3    0    0  0.29671585000E+00 -0.13213326195E+01 -0.12549660348E+01  0.18463206481E+01  0.00000000000E+00 0. -1.
</event>
<event>
 7    1  0.2412036E-009  0.4778727E+02  0.7816164E-02  0.1312668E+00
        -11   -1    0    0    0    0  0.00000000000E+00  0.00000000000E+00  0.45593999997E+02  0.45594000000E+02  0.51100000000E-03 0.  1.
         11   -1    0    0    0    0 -0.00000000000E+00 -0.00000000000E+00 -0.45593999997E+02  0.45594000000E+02  0.51100000000E-03 0. -1.
    9900012    2    1    2    0    0  0.15284168875E+02  0.18576074958E+02  0.36124048356E+02  0.47787271335E+02  0.20000001323E+02 0.  0.
         12    1    1    2    0    0 -0.15284168875E+02 -0.18576074958E+02 -0.36124048356E+02  0.43400728665E+02  0.00000000000E+00 0. -1.
         11    1    3    3    0    0 -0.29499681330E+01  0.11032424137E+01  0.14453123698E+01  0.34653115180E+01  0.51100000000E-03 0. -1.
        -11    1    3    3    0    0  0.19170646758E+02  0.17167720264E+02  0.29929910900E+02  0.39472064589E+02  0.51100000000E-03 0.  1.
        -12    1    3    3    0    0 -0.93650975038E+00  0.30511228059E+00  0.47488250864E+01  0.48498952274E+01  0.00000000000E+00 0.  1.
</event>
<event>
 7    1  0.2412036E-009  0.4778728E+02  0.7816164E-02  0.1312668E+00
        -11   -1    0    0    0    0  0.00000000000E+00  0.00000000000E+00  0.45593999997E+02  0.45594000000E+02  0.51100000000E-03 0.  1.
         11   -1    0    0    0    0 -0.00000000000E+00 -0.00000000000E+00 -0.45593999997E+02  0.45594000000E+02  0.51100000000E-03 0. -1.
    9900012    2    1    2    0    0  0.41005037786E+02  0.13159092922E+01  0.14159016028E+02  0.47787280237E+02  0.20000041911E+02 0.  0.
         12    1    1    2    0    0 -0.41005037786E+02 -0.13159092922E+01 -0.14159016028E+02  0.43400719763E+02  0.00000000000E+00 0. -1.
         11    1    3    3    0    0  0.54700239931E+01  0.58252932743E+01  0.24951658139E+01  0.83714429411E+01  0.51100000000E-03 0. -1.
        -11    1    3    3    0    0  0.21209174258E+02 -0.81440507564E+01  0.87847348025E+01  0.24358288142E+02  0.51100000000E-03 0.  1.
        -12    1    3    3    0    0  0.14325839535E+02  0.36346667743E+01  0.28791154116E+01  0.15057549153E+02  0.00000000000E+00 0.  1.
</event>
<event>
 7    1  0.2412036E-009  0.4778728E+02  0.7816164E-02  0.1312668E+00
        -11   -1    0    0    0    0  0.00000000000E+00  0.00000000000E+00  0.45593999997E+02  0.45594000000E+02  0.51100000000E-03 0.  1.
         11   -1    0    0    0    0 -0.00000000000E+00 -0.00000000000E+00 -0.45593999997E+02  0.45594000000E+02  0.51100000000E-03 0. -1.
    9900012    2    1    2    0    0 -0.45830877417E+01 -0.42778967820E+02  0.57077120874E+01  0.47787276984E+02  0.20000027081E+02 0.  0.
         12    1    1    2    0    0  0.45830877417E+01  0.42778967820E+02 -0.57077120874E+01  0.43400723016E+02  0.00000000000E+00 0. -1.
         11    1    3    3    0    0  0.31025653313E-02 -0.34321962239E+02  0.42003997046E-01  0.34321988086E+02  0.51100000000E-03 0.  1.
        -11    1    3    3    0    0 -0.16179692128E+01 -0.82221936374E+01  0.17746669227E+01  0.85657302976E+01  0.51100000000E-03 0. -1.
         12    1    3    3    0    0 -0.29682210942E+01 -0.23481194411E+00  0.38910411677E+01  0.48995586007E+01  0.00000000000E+00 0. -1.
</event>
<event>
 7    1  0.2412036E-009  0.4778728E+02  0.7816164E-02  0.1312668E+00
        -11   -1    0    0    0    0  0.00000000000E+00  0.00000000000E+00  0.45593999997E+02  0.45594000000E+02  0.51100000000E-03 0. -1.
         11   -1    0    0    0    0 -0.00000000000E+00 -0.00000000000E+00 -0.45593999997E+02  0.45594000000E+02  0.51100000000E-03 0.  1.
    9900012    2    1    2    0    0  0.17735552662E+02 -0.39012190284E+02  0.68645516698E+01  0.47787275483E+02  0.20000020235E+02 0.  0.
         12    1    1    2    0    0 -0.17735552662E+02  0.39012190284E+02 -0.68645516698E+01  0.43400724517E+02  0.00000000000E+00 0. -1.
         11    1    3    3    0    0  0.11079981867E+02 -0.34207026540E+02  0.20437852064E+01  0.36014770874E+02  0.51100000000E-03 0. -1.
        -11    1    3    3    0    0  0.74886894473E+01 -0.22921197010E+01  0.46752251400E+01  0.91209655592E+01  0.51100000000E-03 0.  1.
        -12    1    3    3    0    0 -0.83311865239E+00 -0.25130440436E+01  0.14554132339E+00  0.26515390495E+01  0.00000000000E+00 0.  1.
</event>
<event>
 7    1  0.2412036E-009  0.4778727E+02  0.7816164E-02  0.1312668E+00
        -11   -1    0    0    0    0  0.00000000000E+00  0.00000000000E+00  0.45593999997E+02  0.45594000000E+02  0.51100000000E-03 0.  1.
         11   -1    0    0    0    0 -0.00000000000E+00 -0.00000000000E+00 -0.45593999997E+02  0.45594000000E+02  0.51100000000E-03 0. -1.
    9900012    2    1    2    0    0 -0.67549163100E+01 -0.21422030308E+01  0.42818285831E+02  0.47787268097E+02  0.19999986561E+02 0.  0.
         12    1    1    2    0    0  0.67549163100E+01  0.21422030308E+01 -0.42818285831E+02  0.43400731903E+02  0.00000000000E+00 0. -1.
         11    1    3    3    0    0 -0.23144379429E+01  0.42803862776E+01  0.23017352563E+02  0.23526088688E+02  0.51100000000E-03 0.  1.
        -11    1    3    3    0    0 -0.70557287463E+01 -0.80596740432E+01  0.17004279288E+02  0.20096944250E+02  0.51100000000E-03 0. -1.
         12    1    3    3    0    0  0.26152503792E+01  0.16370847348E+01  0.27966539806E+01  0.41642351593E+01  0.00000000000E+00 0. -1.
</event>
<event>
 7    1  0.2412036E-009  0.4778727E+02  0.7816164E-02  0.1312668E+00
        -11   -1    0    0    0    0  0.00000000000E+00  0.00000000000E+00  0.45593999997E+02  0.45594000000E+02  0.51100000000E-03 0.  1.
         11   -1    0    0    0    0 -0.00000000000E+00 -0.00000000000E+00 -0.45593999997E+02  0.45594000000E+02  0.51100000000E-03 0. -1.
    9900012    2    1    2    0    0 -0.24469504722E+02  0.35840629094E+02  0.56216585018E+00  0.47787269757E+02  0.19999994129E+02 0.  0.
         12    1    1    2    0    0  0.24469504722E+02 -0.35840629094E+02 -0.56216585018E+00  0.43400730243E+02  0.00000000000E+00 0. -1.
         11    1    3    3    0    0 -0.62497936297E+01  0.21074955011E+02 -0.46814006483E+00  0.21987105414E+02  0.51100000000E-03 0. -1.
        -11    1    3    3    0    0 -0.91511144722E+01  0.65852234617E+01  0.58122908832E+01  0.12684273322E+02  0.51100000000E-03 0.  1.
         12    1    3    3    0    0 -0.90685966201E+01  0.81804506217E+01 -0.47819849682E+01  0.13115891021E+02  0.00000000000E+00 0. -1.
</event>
<event>
 7    1  0.2412036E-009  0.4778727E+02  0.7816164E-02  0.1312668E+00
        -11   -1    0    0    0    0  0.00000000000E+00  0.00000000000E+00  0.45593999997E+02  0.45594000000E+02  0.51100000000E-03 0.  1.
         11   -1    0    0    0    0 -0.00000000000E+00 -0.00000000000E+00 -0.45593999997E+02  0.45594000000E+02  0.51100000000E-03 0. -1.
    9900012    2    1    2    0    0  0.33377326538E+01 -0.18129414488E+01  0.43234198524E+02  0.47787272610E+02  0.20000007138E+02 0.  0.
         12    1    1    2    0    0 -0.33377326538E+01  0.18129414488E+01 -0.43234198524E+02  0.43400727390E+02  0.00000000000E+00 0. -1.
         11    1    3    3    0    0  0.59430303958E+01 -0.10532169552E+01  0.79961365693E+01  0.10018337015E+02  0.51100000000E-03 0.  1.
        -11    1    3    3    0    0 -0.47925337105E+01  0.41146626053E+01  0.28385383685E+02  0.29079697986E+02  0.51100000000E-03 0. -1.
         12    1    3    3    0    0  0.21872359684E+01 -0.48743870989E+01  0.68526782697E+01  0.86892376098E+01  0.00000000000E+00 0. -1.
</event>
<event>
 7    1  0.2412036E-009  0.4778727E+02  0.7816164E-02  0.1312668E+00
        -11   -1    0    0    0    0  0.00000000000E+00  0.00000000000E+00  0.45593999997E+02  0.45594000000E+02  0.51100000000E-03 0.  1.
         11   -1    0    0    0    0 -0.00000000000E+00 -0.00000000000E+00 -0.45593999997E+02  0.45594000000E+02  0.51100000000E-03 0. -1.
    9900012    2    1    2    0    0 -0.27887006358E+02 -0.23429225517E+02  0.23601051421E+02  0.47787270051E+02  0.19999995471E+02 0.  0.
         12    1    1    2    0    0  0.27887006358E+02  0.23429225517E+02 -0.23601051421E+02  0.43400729949E+02  0.00000000000E+00 0. -1.
         11    1    3    3    0    0 -0.70728599686E+00 -0.47662897656E+01 -0.26534471500E+01  0.55007775496E+01  0.51100000000E-03 0. -1.
        -11    1    3    3    0    0 -0.12737886203E+02 -0.69413637605E+01  0.12569283337E+02  0.19194352286E+02  0.51100000000E-03 0.  1.
         12    1    3    3    0    0 -0.14441834158E+02 -0.11721571990E+02  0.13685215234E+02  0.23092140216E+02  0.00000000000E+00 0. -1.
</event>
<event>
 7    1  0.2412036E-009  0.4778728E+02  0.7816164E-02  0.1312668E+00
        -11   -1    0    0    0    0  0.00000000000E+00  0.00000000000E+00  0.45593999997E+02  0.45594000000E+02  0.51100000000E-03 0. -1.
         11   -1    0    0    0    0 -0.00000000000E+00 -0.00000000000E+00 -0.45593999997E+02  0.45594000000E+02  0.51100000000E-03 0.  1.
    9900012    2    1    2    0    0 -0.33836447994E+02 -0.26963678322E+02  0.34171654376E+01  0.47787283633E+02  0.20000057398E+02 0.  0.
         12    1    1    2    0    0  0.33836447994E+02  0.26963678322E+02 -0.34171654376E+01  0.43400716367E+02  0.00000000000E+00 0. -1.
         11    1    3    3    0    0 -0.71613450687E+01 -0.16336387814E+01 -0.14693438069E+01  0.74908350900E+01  0.51100000000E-03 0. -1.
        -11    1    3    3    0    0 -0.96232830480E+01 -0.57735356617E+01 -0.53139175932E+01  0.12416884114E+02  0.51100000000E-03 0.  1.
        -12    1    3    3    0    0 -0.17051819877E+02 -0.19556503879E+02  0.10200426838E+02  0.27879564429E+02  0.00000000000E+00 0.  1.
</event>
<event>
 7    1  0.2412036E-009  0.4778725E+02  0.7816164E-02  0.1312668E+00
        -11   -1    0    0    0    0  0.00000000000E+00  0.00000000000E+00  0.45593999997E+02  0.45594000000E+02  0.51100000000E-03 0.  1.
         11   -1    0    0    0    0 -0.00000000000E+00 -0.00000000000E+00 -0.45593999997E+02  0.45594000000E+02  0.51100000000E-03 0. -1.
    9900012    2    1    2    0    0 -0.24097998700E+02  0.32767691419E+02  0.15139024250E+02  0.47787248883E+02  0.19999898957E+02 0.  0.
         12    1    1    2    0    0  0.24097998700E+02 -0.32767691419E+02 -0.15139024250E+02  0.43400751117E+02  0.00000000000E+00 0. -1.
         11    1    3    3    0    0 -0.49979434336E+00 -0.10812366307E+01 -0.31862171378E+00  0.12330397783E+01  0.51100000000E-03 0. -1.
        -11    1    3    3    0    0 -0.21485287092E+02  0.19889544291E+02  0.70248959179E+01  0.30109146392E+02  0.51100000000E-03 0.  1.
        -12    1    3    3    0    0 -0.21129172647E+01  0.13959383759E+02  0.84327500457E+01  0.16445062713E+02  0.00000000000E+00 0.  1.
</event>
<event>
 7    1  0.2412036E-009  0.4778727E+02  0.7816164E-02  0.1312668E+00
        -11   -1    0    0    0    0  0.00000000000E+00  0.00000000000E+00  0.45593999997E+02  0.45594000000E+02  0.51100000000E-03 0. -1.
         11   -1    0    0    0    0 -0.00000000000E+00 -0.00000000000E+00 -0.45593999997E+02  0.45594000000E+02  0.51100000000E-03 0.  1.
    9900012    2    1    2    0    0 -0.37179718603E+01  0.50987459750E+01 -0.42939521887E+02  0.47787273449E+02  0.20000010962E+02 0.  0.
         12    1    1    2    0    0  0.37179718603E+01 -0.50987459750E+01  0.42939521887E+02  0.43400726551E+02  0.00000000000E+00 0. -1.
         11    1    3    3    0    0  0.21252557536E+01 -0.30858117551E+01 -0.26233692963E+01  0.45739493801E+01  0.51100000000E-03 0. -1.
        -11    1    3    3    0    0 -0.90424434698E+01  0.66766785341E+01 -0.35507086734E+02  0.37243751540E+02  0.51100000000E-03 0.  1.
        -12    1    3    3    0    0  0.31992158559E+01  0.15078791959E+01 -0.48090658566E+01  0.59695725287E+01  0.00000000000E+00 0.  1.
</event>
<event>
 7    1  0.2473497E-009  0.4778727E+02  0.7816164E-02  0.1312668E+00
        -11   -1    0    0    0    0  0.00000000000E+00  0.00000000000E+00  0.45593999997E+02  0.45594000000E+02  0.51100000000E-03 0. -1.
         11   -1    0    0    0    0 -0.00000000000E+00 -0.00000000000E+00 -0.45593999997E+02  0.45594000000E+02  0.51100000000E-03 0.  1.
    9900012    2    1    2    0    0  0.15744559108E+02  0.16169052436E+01 -0.40411851475E+02  0.47787271162E+02  0.20000000535E+02 0.  0.
         12    1    1    2    0    0 -0.15744559108E+02 -0.16169052436E+01  0.40411851475E+02  0.43400728838E+02  0.00000000000E+00 0. -1.
         11    1    3    3    0    0  0.35807982305E+01 -0.66101757878E+01 -0.11025348014E+02  0.13344468480E+02  0.51100000000E-03 0. -1.
        -11    1    3    3    0    0  0.11302315776E+02  0.63440497486E+01 -0.14645610687E+02  0.19557178267E+02  0.51100000000E-03 0.  1.
        -12    1    3    3    0    0  0.86144510197E+00  0.18830312828E+01 -0.14740892773E+02  0.14885624415E+02  0.00000000000E+00 0.  1.
</event>
<event>
 7    1  0.2412036E-009  0.4778727E+02  0.7816164E-02  0.1312668E+00
        -11   -1    0    0    0    0  0.00000000000E+00  0.00000000000E+00  0.45593999997E+02  0.45594000000E+02  0.51100000000E-03 0.  1.
         11   -1    0    0    0    0 -0.00000000000E+00 -0.00000000000E+00 -0.45593999997E+02  0.45594000000E+02  0.51100000000E-03 0. -1.
    9900012    2    1    2    0    0 -0.27830049258E+01  0.42959686825E+02  0.55084912688E+01  0.47787270921E+02  0.19999999439E+02 0.  0.
         12    1    1    2    0    0  0.27830049258E+01 -0.42959686825E+02 -0.55084912688E+01  0.43400729079E+02  0.00000000000E+00 0. -1.
         11    1    3    3    0    0 -0.16374568047E+01  0.29057949758E+02 -0.39319674826E+01  0.29368453781E+02  0.51100000000E-03 0. -1.
        -11    1    3    3    0    0 -0.16631517142E+01  0.15596982724E+01  0.46325484423E+01  0.51632584341E+01  0.51100000000E-03 0.  1.
        -12    1    3    3    0    0  0.51760359307E+00  0.12342038794E+02  0.48079103091E+01  0.13255558706E+02  0.00000000000E+00 0.  1.
</event>
<event>
 7    1  0.2412036E-009  0.4778727E+02  0.7816164E-02  0.1312668E+00
        -11   -1    0    0    0    0  0.00000000000E+00  0.00000000000E+00  0.45593999997E+02  0.45594000000E+02  0.51100000000E-03 0. -1.
         11   -1    0    0    0    0 -0.00000000000E+00 -0.00000000000E+00 -0.45593999997E+02  0.45594000000E+02  0.51100000000E-03 0.  1.
    9900012    2    1    2    0    0  0.56034589716E+01 -0.27115318772E+01 -0.42951972563E+02  0.47787272995E+02  0.20000008892E+02 0.  0.
         12    1    1    2    0    0 -0.56034589716E+01  0.27115318772E+01  0.42951972563E+02  0.43400727005E+02  0.00000000000E+00 0. -1.
         11    1    3    3    0    0 -0.37816618601E+01  0.23075264628E+01 -0.17631696330E+02  0.18179723885E+02  0.51100000000E-03 0. -1.
        -11    1    3    3    0    0  0.85940066624E+01  0.25071126018E+00 -0.21182624577E+02  0.22860957786E+02  0.51100000000E-03 0.  1.
         12    1    3    3    0    0  0.79111416932E+00 -0.52697696002E+01 -0.41376516554E+01  0.67465913237E+01  0.00000000000E+00 0. -1.
</event>
<event>
 7    1  0.2412036E-009  0.4778728E+02  0.7816164E-02  0.1312668E+00
        -11   -1    0    0    0    0  0.00000000000E+00  0.00000000000E+00  0.45593999997E+02  0.45594000000E+02  0.51100000000E-03 0.  1.
         11   -1    0    0    0    0 -0.00000000000E+00 -0.00000000000E+00 -0.45593999997E+02  0.45594000000E+02  0.51100000000E-03 0. -1.
    9900012    2    1    2    0    0  0.41016621436E+02 -0.10454739021E+02  0.95894376607E+01  0.47787284376E+02  0.20000060782E+02 0.  0.
         12    1    1    2    0    0 -0.41016621436E+02  0.10454739021E+02 -0.95894376607E+01  0.43400715624E+02  0.00000000000E+00 0. -1.
         11    1    3    3    0    0  0.67244266855E+01 -0.82701415580E+01 -0.14318571371E+01  0.10754690640E+02  0.51100000000E-03 0. -1.
        -11    1    3    3    0    0  0.24073109325E+02  0.22935488480E+01  0.70350614774E+01  0.25184659004E+02  0.51100000000E-03 0.  1.
         12    1    3    3    0    0  0.10219085426E+02 -0.44781463109E+01  0.39862333204E+01  0.11847934732E+02  0.00000000000E+00 0. -1.
</event>
<event>
 7    1  0.2412036E-009  0.4778727E+02  0.7816164E-02  0.1312668E+00
        -11   -1    0    0    0    0  0.00000000000E+00  0.00000000000E+00  0.45593999997E+02  0.45594000000E+02  0.51100000000E-03 0. -1.
         11   -1    0    0    0    0 -0.00000000000E+00 -0.00000000000E+00 -0.45593999997E+02  0.45594000000E+02  0.51100000000E-03 0.  1.
    9900012    2    1    2    0    0 -0.38855332479E+02  0.13172688880E+02 -0.14155083338E+02  0.47787274445E+02  0.20000015505E+02 0.  0.
         12    1    1    2    0    0  0.38855332479E+02 -0.13172688880E+02  0.14155083338E+02  0.43400725555E+02  0.00000000000E+00 0. -1.
         11    1    3    3    0    0 -0.27352105901E+01 -0.36864516231E+01 -0.15878838457E+01  0.48572294480E+01  0.51100000000E-03 0. -1.
        -11    1    3    3    0    0 -0.17290464863E+02  0.13462465695E+02 -0.69417022720E+01  0.22986634997E+02  0.51100000000E-03 0.  1.
         12    1    3    3    0    0 -0.18829657026E+02  0.33966748079E+01 -0.56254972198E+01  0.19943410000E+02  0.00000000000E+00 0. -1.
</event>
<event>
 7    1  0.2412036E-009  0.4778727E+02  0.7816164E-02  0.1312668E+00
        -11   -1    0    0    0    0  0.00000000000E+00  0.00000000000E+00  0.45593999997E+02  0.45594000000E+02  0.51100000000E-03 0.  1.
         11   -1    0    0    0    0 -0.00000000000E+00 -0.00000000000E+00 -0.45593999997E+02  0.45594000000E+02  0.51100000000E-03 0. -1.
    9900012    2    1    2    0    0  0.26805592930E+02 -0.16026875542E+02  0.30136734030E+02  0.47787270859E+02  0.19999999155E+02 0.  0.
         12    1    1    2    0    0 -0.26805592930E+02  0.16026875542E+02 -0.30136734030E+02  0.43400729141E+02  0.00000000000E+00 0. -1.
         11    1    3    3    0    0  0.11697412562E+01 -0.35147962019E+01 -0.19554798135E+01  0.41887932044E+01  0.51100000000E-03 0. -1.
        -11    1    3    3    0    0  0.17739078058E+02 -0.12045561401E+02  0.25369292075E+02  0.33217035094E+02  0.51100000000E-03 0.  1.
         12    1    3    3    0    0  0.78967736158E+01 -0.46651793892E+00  0.67229217688E+01  0.10381442560E+02  0.00000000000E+00 0. -1.
</event>
<event>
 7    1  0.2412036E-009  0.4778727E+02  0.7816164E-02  0.1312668E+00
        -11   -1    0    0    0    0  0.00000000000E+00  0.00000000000E+00  0.45593999997E+02  0.45594000000E+02  0.51100000000E-03 0.  1.
         11   -1    0    0    0    0 -0.00000000000E+00 -0.00000000000E+00 -0.45593999997E+02  0.45594000000E+02  0.51100000000E-03 0. -1.
    9900012    2    1    2    0    0  0.24532954551E+02 -0.34001411664E+02 -0.11209892062E+02  0.47787268046E+02  0.19999986330E+02 0.  0.
         12    1    1    2    0    0 -0.24532954551E+02  0.34001411664E+02  0.11209892062E+02  0.43400731954E+02  0.00000000000E+00 0. -1.
         11    1    3    3    0    0 -0.17659189194E+00 -0.39190928910E+01 -0.58301276126E+00  0.39661540471E+01  0.51100000000E-03 0. -1.
        -11    1    3    3    0    0  0.16121855889E+02 -0.22641841851E+02  0.66340590641E+00  0.27803009682E+02  0.51100000000E-03 0.  1.
        -12    1    3    3    0    0  0.85876905538E+01 -0.74404769211E+01 -0.11290285207E+02  0.16018104317E+02  0.00000000000E+00 0.  1.
</event>
<event>
 7    1  0.2412036E-009  0.4778728E+02  0.7816164E-02  0.1312668E+00
        -11   -1    0    0    0    0  0.00000000000E+00  0.00000000000E+00  0.45593999997E+02  0.45594000000E+02  0.51100000000E-03 0. -1.
         11   -1    0    0    0    0 -0.00000000000E+00 -0.00000000000E+00 -0.45593999997E+02  0.45594000000E+02  0.51100000000E-03 0.  1.
    9900012    2    1    2    0    0  0.26814583249E+02 -0.15407592537E+02 -0.30450075609E+02  0.47787275499E+02  0.20000020308E+02 0.  0.
         12    1    1    2    0    0 -0.26814583249E+02  0.15407592537E+02  0.30450075609E+02  0.43400724501E+02  0.00000000000E+00 0. -1.
         11    1    3    3    0    0 -0.24179797359E+01 -0.12533957079E+01 -0.77225504245E+00  0.28309017849E+01  0.51100000000E-03 0. -1.
        -11    1    3    3    0    0  0.15259589868E+01 -0.20262351546E+01 -0.61027666304E+01  0.66089288495E+01  0.51100000000E-03 0.  1.
         12    1    3    3    0    0  0.27706603999E+02 -0.12127961675E+02 -0.23575053936E+02  0.38347444864E+02  0.00000000000E+00 0. -1.
</event>
<event>
 7    1  0.2412036E-009  0.4778727E+02  0.7816164E-02  0.1312668E+00
        -11   -1    0    0    0    0  0.00000000000E+00  0.00000000000E+00  0.45593999997E+02  0.45594000000E+02  0.51100000000E-03 0. -1.
         11   -1    0    0    0    0 -0.00000000000E+00 -0.00000000000E+00 -0.45593999997E+02  0.45594000000E+02  0.51100000000E-03 0.  1.
    9900012    2    1    2    0    0  0.22661177208E+02  0.36605771653E+02  0.54874304845E+01  0.47787270005E+02  0.19999995261E+02 0.  0.
         12    1    1    2    0    0 -0.22661177208E+02 -0.36605771653E+02 -0.54874304845E+01  0.43400729995E+02  0.00000000000E+00 0. -1.
         11    1    3    3    0    0  0.27506549010E+01  0.24928967290E+01  0.67103500815E+01  0.76687309878E+01  0.51100000000E-03 0. -1.
        -11    1    3    3    0    0  0.16533820979E+02  0.26939249352E+02  0.17353977347E+01  0.31655994651E+02  0.51100000000E-03 0.  1.
         12    1    3    3    0    0  0.33767013279E+01  0.71736255722E+01 -0.29583173317E+01  0.84625443658E+01  0.00000000000E+00 0. -1.
</event>
<event>
 7    1  0.2412036E-009  0.4778727E+02  0.7816164E-02  0.1312668E+00
        -11   -1    0    0    0    0  0.00000000000E+00  0.00000000000E+00  0.45593999997E+02  0.45594000000E+02  0.51100000000E-03 0. -1.
         11   -1    0    0    0    0 -0.00000000000E+00 -0.00000000000E+00 -0.45593999997E+02  0.45594000000E+02  0.51100000000E-03 0.  1.
    9900012    2    1    2    0    0  0.33141757153E+02  0.27235466873E+02 -0.65936493276E+01  0.47787274955E+02  0.20000017828E+02 0.  0.
         12    1    1    2    0    0 -0.33141757153E+02 -0.27235466873E+02  0.65936493276E+01  0.43400725045E+02  0.00000000000E+00 0. -1.
         11    1    3    3    0    0  0.19899342991E+02  0.10950864181E+02 -0.10180420994E+01  0.22736351681E+02  0.51100000000E-03 0. -1.
        -11    1    3    3    0    0  0.68667558804E-01 -0.13933853117E+01 -0.24008819057E+01  0.27767736758E+01  0.51100000000E-03 0.  1.
         12    1    3    3    0    0  0.13173746604E+02  0.17677988004E+02 -0.31747253225E+01  0.22274149598E+02  0.00000000000E+00 0. -1.
</event>
<event>
 7    1  0.2412036E-009  0.4778726E+02  0.7816164E-02  0.1312668E+00
        -11   -1    0    0    0    0  0.00000000000E+00  0.00000000000E+00  0.45593999997E+02  0.45594000000E+02  0.51100000000E-03 0. -1.
         11   -1    0    0    0    0 -0.00000000000E+00 -0.00000000000E+00 -0.45593999997E+02  0.45594000000E+02  0.51100000000E-03 0.  1.
    9900012    2    1    2    0    0 -0.16736662921E+02  0.39977440721E+02 -0.23049668838E+01  0.47787256635E+02  0.19999934302E+02 0.  0.
         12    1    1    2    0    0  0.16736662921E+02 -0.39977440721E+02  0.23049668838E+01  0.43400743365E+02  0.00000000000E+00 0. -1.
         11    1    3    3    0    0 -0.11277777850E+02  0.30717024435E+02 -0.16069514645E+01  0.32761351569E+02  0.51100000000E-03 0. -1.
        -11    1    3    3    0    0 -0.76662045856E+01  0.10022153586E+02 -0.10620885610E+01  0.12662633519E+02  0.51100000000E-03 0.  1.
         12    1    3    3    0    0  0.22073195143E+01 -0.76173730075E+00  0.36407314169E+00  0.23632715472E+01  0.00000000000E+00 0. -1.
</event>
<event>
 7    1  0.2412036E-009  0.4778727E+02  0.7816164E-02  0.1312668E+00
        -11   -1    0    0    0    0  0.00000000000E+00  0.00000000000E+00  0.45593999997E+02  0.45594000000E+02  0.51100000000E-03 0.  1.
         11   -1    0    0    0    0 -0.00000000000E+00 -0.00000000000E+00 -0.45593999997E+02  0.45594000000E+02  0.51100000000E-03 0. -1.
    9900012    2    1    2    0    0  0.18065654847E+02 -0.25309230651E+02  0.30277023545E+02  0.47787271943E+02  0.20000004095E+02 0.  0.
         12    1    1    2    0    0 -0.18065654847E+02  0.25309230651E+02 -0.30277023545E+02  0.43400728057E+02  0.00000000000E+00 0. -1.
         11    1    3    3    0    0 -0.29296068683E+01 -0.14560225977E+00  0.50180389620E+01  0.58124445551E+01  0.51100000000E-03 0. -1.
        -11    1    3    3    0    0  0.13387728302E+02 -0.11519646024E+02  0.10885283231E+02  0.20746635990E+02  0.51100000000E-03 0.  1.
        -12    1    3    3    0    0  0.76075334130E+01 -0.13643982368E+02  0.14373701351E+02  0.21228191398E+02  0.00000000000E+00 0.  1.
</event>
<event>
 7    1  0.2412036E-009  0.4778727E+02  0.7816164E-02  0.1312668E+00
        -11   -1    0    0    0    0  0.00000000000E+00  0.00000000000E+00  0.45593999997E+02  0.45594000000E+02  0.51100000000E-03 0. -1.
         11   -1    0    0    0    0 -0.00000000000E+00 -0.00000000000E+00 -0.45593999997E+02  0.45594000000E+02  0.51100000000E-03 0.  1.
    9900012    2    1    2    0    0  0.19100930646E+02  0.38799208673E+02 -0.36605011140E+01  0.47787269435E+02  0.19999992660E+02 0.  0.
         12    1    1    2    0    0 -0.19100930646E+02 -0.38799208673E+02  0.36605011140E+01  0.43400730565E+02  0.00000000000E+00 0. -1.
         11    1    3    3    0    0  0.31466415429E+01  0.31168084950E+01  0.81197602955E+00  0.45027939691E+01  0.51100000000E-03 0. -1.
        -11    1    3    3    0    0 -0.13456326204E+01  0.11622849412E+02 -0.68457336043E+01  0.13556010639E+02  0.51100000000E-03 0.  1.
        -12    1    3    3    0    0  0.17299921723E+02  0.24059550766E+02  0.23732564608E+01  0.29728464826E+02  0.00000000000E+00 0.  1.
</event>
<event>
 7    1  0.2412036E-009  0.4778727E+02  0.7816164E-02  0.1312668E+00
        -11   -1    0    0    0    0  0.00000000000E+00  0.00000000000E+00  0.45593999997E+02  0.45594000000E+02  0.51100000000E-03 0.  1.
         11   -1    0    0    0    0 -0.00000000000E+00 -0.00000000000E+00 -0.45593999997E+02  0.45594000000E+02  0.51100000000E-03 0. -1.
    9900012    2    1    2    0    0 -0.62889687515E+01 -0.28336864136E+02  0.32265993129E+02  0.47787270633E+02  0.19999998122E+02 0.  0.
         12    1    1    2    0    0  0.62889687515E+01  0.28336864136E+02 -0.32265993129E+02  0.43400729367E+02  0.00000000000E+00 0. -1.
         11    1    3    3    0    0  0.43554567294E+01 -0.59989860926E+00  0.38680787041E+01  0.58559298822E+01  0.51100000000E-03 0. -1.
        -11    1    3    3    0    0 -0.60563210532E+00 -0.50013660655E+01  0.93404521946E+01  0.10612469092E+02  0.51100000000E-03 0.  1.
         12    1    3    3    0    0 -0.10038793376E+02 -0.22735599461E+02  0.19057462230E+02  0.31318871658E+02  0.00000000000E+00 0. -1.
</event>
<event>
 7    1  0.2412036E-009  0.4778727E+02  0.7816164E-02  0.1312668E+00
        -11   -1    0    0    0    0  0.00000000000E+00  0.00000000000E+00  0.45593999997E+02  0.45594000000E+02  0.51100000000E-03 0.  1.
         11   -1    0    0    0    0 -0.00000000000E+00 -0.00000000000E+00 -0.45593999997E+02  0.45594000000E+02  0.51100000000E-03 0. -1.
    9900012    2    1    2    0    0  0.38089079297E+02 -0.10117907189E+01  0.20780319317E+02  0.47787270132E+02  0.19999995841E+02 0.  0.
         12    1    1    2    0    0 -0.38089079297E+02  0.10117907189E+01 -0.20780319317E+02  0.43400729868E+02  0.00000000000E+00 0. -1.
         11    1    3    3    0    0  0.12408441563E+02  0.55660709307E+01  0.62761453315E+00  0.13614127512E+02  0.51100000000E-03 0. -1.
        -11    1    3    3    0    0  0.19414222344E+02 -0.35013350159E+01  0.10762293051E+02  0.22472167855E+02  0.51100000000E-03 0.  1.
         12    1    3    3    0    0  0.62664153896E+01 -0.30765266338E+01  0.93904117325E+01  0.11700974766E+02  0.00000000000E+00 0. -1.
</event>
<event>
 7    1  0.2412036E-009  0.4778727E+02  0.7816164E-02  0.1312668E+00
        -11   -1    0    0    0    0  0.00000000000E+00  0.00000000000E+00  0.45593999997E+02  0.45594000000E+02  0.51100000000E-03 0. -1.
         11   -1    0    0    0    0 -0.00000000000E+00 -0.00000000000E+00 -0.45593999997E+02  0.45594000000E+02  0.51100000000E-03 0.  1.
    9900012    2    1    2    0    0  0.26162330954E+01 -0.29878436128E+02 -0.31369693692E+02  0.47787270704E+02  0.19999998449E+02 0.  0.
         12    1    1    2    0    0 -0.26162330954E+01  0.29878436128E+02  0.31369693692E+02  0.43400729296E+02  0.00000000000E+00 0. -1.
         11    1    3    3    0    0 -0.19761591297E+01 -0.86356934133E+01 -0.22184134739E+02  0.23887575014E+02  0.51100000000E-03 0. -1.
        -11    1    3    3    0    0  0.49978638602E+01 -0.19184111274E+02 -0.74547491208E+01  0.21179755741E+02  0.51100000000E-03 0.  1.
        -12    1    3    3    0    0 -0.40547163506E+00 -0.20586314405E+01 -0.17308098318E+01  0.27199399495E+01  0.00000000000E+00 0.  1.
</event>
<event>
 7    1  0.2412036E-009  0.4778723E+02  0.7816164E-02  0.1312668E+00
        -11   -1    0    0    0    0  0.00000000000E+00  0.00000000000E+00  0.45593999997E+02  0.45594000000E+02  0.51100000000E-03 0.  1.
         11   -1    0    0    0    0 -0.00000000000E+00 -0.00000000000E+00 -0.45593999997E+02  0.45594000000E+02  0.51100000000E-03 0. -1.
    9900012    2    1    2    0    0 -0.19304867204E+02  0.45639379991E+01  0.38602065282E+02  0.47787229594E+02  0.19999811009E+02 0.  0.
         12    1    1    2    0    0  0.19304867204E+02 -0.45639379991E+01 -0.38602065282E+02  0.43400770406E+02  0.00000000000E+00 0. -1.
         11    1    3    3    0    0 -0.83289027018E+01  0.68468451801E+00  0.29469354790E+01  0.88613679578E+01  0.51100000000E-03 0. -1.
        -11    1    3    3    0    0 -0.69167522647E+01  0.42684674419E+01  0.97123866400E+01  0.12664585690E+02  0.51100000000E-03 0.  1.
         12    1    3    3    0    0 -0.40592122375E+01 -0.38921396078E+00  0.25942743163E+02  0.26261275946E+02  0.00000000000E+00 0. -1.
</event>
<event>
 7    1  0.2412036E-009  0.4778727E+02  0.7816164E-02  0.1312668E+00
        -11   -1    0    0    0    0  0.00000000000E+00  0.00000000000E+00  0.45593999997E+02  0.45594000000E+02  0.51100000000E-03 0.  1.
         11   -1    0    0    0    0 -0.00000000000E+00 -0.00000000000E+00 -0.45593999997E+02  0.45594000000E+02  0.51100000000E-03 0. -1.
    9900012    2    1    2    0    0  0.23561203274E+02  0.29850626231E+02  0.20914898647E+02  0.47787272224E+02  0.20000005377E+02 0.  0.
         12    1    1    2    0    0 -0.23561203274E+02 -0.29850626231E+02 -0.20914898647E+02  0.43400727776E+02  0.00000000000E+00 0. -1.
         11    1    3    3    0    0  0.65937448240E+01  0.18825898372E+02  0.72742405484E+01  0.21232204222E+02  0.51100000000E-03 0. -1.
        -11    1    3    3    0    0  0.63047394025E+01 -0.13390558237E+01  0.42508916972E+01  0.77209384090E+01  0.51100000000E-03 0.  1.
        -12    1    3    3    0    0  0.10662719047E+02  0.12363783683E+02  0.93897664013E+01  0.18834129592E+02  0.00000000000E+00 0.  1.
</event>
<event>
 7    1  0.2412036E-009  0.4778727E+02  0.7816164E-02  0.1312668E+00
        -11   -1    0    0    0    0  0.00000000000E+00  0.00000000000E+00  0.45593999997E+02  0.45594000000E+02  0.51100000000E-03 0.  1.
         11   -1    0    0    0    0 -0.00000000000E+00 -0.00000000000E+00 -0.45593999997E+02  0.45594000000E+02  0.51100000000E-03 0. -1.
    9900012    2    1    2    0    0  0.10541618781E+02 -0.27928228727E+02  0.31504148739E+02  0.47787273346E+02  0.20000010494E+02 0.  0.
         12    1    1    2    0    0 -0.10541618781E+02  0.27928228727E+02 -0.31504148739E+02  0.43400726654E+02  0.00000000000E+00 0. -1.
         11    1    3    3    0    0  0.20369436021E+01 -0.21061227639E+02  0.11900264899E+02  0.24276341442E+02  0.51100000000E-03 0. -1.
        -11    1    3    3    0    0  0.45048186128E+01 -0.65779253881E+01  0.16865284011E+02  0.18654766098E+02  0.51100000000E-03 0.  1.
        -12    1    3    3    0    0  0.39998565664E+01 -0.28907570035E+00  0.27385998281E+01  0.48561658055E+01  0.00000000000E+00 0.  1.
</event>
<event>
 7    1  0.2412036E-009  0.4778726E+02  0.7816164E-02  0.1312668E+00
        -11   -1    0    0    0    0  0.00000000000E+00  0.00000000000E+00  0.45593999997E+02  0.45594000000E+02  0.51100000000E-03 0. -1.
         11   -1    0    0    0    0 -0.00000000000E+00 -0.00000000000E+00 -0.45593999997E+02  0.45594000000E+02  0.51100000000E-03 0.  1.
    9900012    2    1    2    0    0 -0.34557677080E+02  0.25312713780E+02 -0.69755382878E+01  0.47787255093E+02  0.19999927272E+02 0.  0.
         12    1    1    2    0    0  0.34557677080E+02 -0.25312713780E+02  0.69755382878E+01  0.43400744907E+02  0.00000000000E+00 0. -1.
         11    1    3    3    0    0 -0.21554799972E+02  0.63317627321E+01 -0.24609984815E+01  0.22599936613E+02  0.51100000000E-03 0. -1.
        -11    1    3    3    0    0 -0.65247834082E+01  0.52900398601E+01  0.21022279347E+01  0.86589077137E+01  0.51100000000E-03 0.  1.
         12    1    3    3    0    0 -0.64780936999E+01  0.13690911187E+02 -0.66167677410E+01  0.16528410766E+02  0.00000000000E+00 0. -1.
</event>
<event>
 7    1  0.2412036E-009  0.4778727E+02  0.7816164E-02  0.1312668E+00
        -11   -1    0    0    0    0  0.00000000000E+00  0.00000000000E+00  0.45593999997E+02  0.45594000000E+02  0.51100000000E-03 0. -1.
         11   -1    0    0    0    0 -0.00000000000E+00 -0.00000000000E+00 -0.45593999997E+02  0.45594000000E+02  0.51100000000E-03 0.  1.
    9900012    2    1    2    0    0 -0.13609626543E+02 -0.23158611425E+02 -0.34089290966E+02  0.47787274472E+02  0.20000015626E+02 0.  0.
         12    1    1    2    0    0  0.13609626543E+02  0.23158611425E+02  0.34089290966E+02  0.43400725528E+02  0.00000000000E+00 0. -1.
         11    1    3    3    0    0 -0.74323069151E+01 -0.58321817072E+01 -0.24407974186E+02  0.26172556880E+02  0.51100000000E-03 0. -1.
        -11    1    3    3    0    0 -0.23362656939E+01 -0.10939259963E+02 -0.29418482165E+01  0.11566331187E+02  0.51100000000E-03 0.  1.
         12    1    3    3    0    0 -0.38410539345E+01 -0.63871697548E+01 -0.67394685639E+01  0.10048386404E+02  0.00000000000E+00 0. -1.
</event>
<event>
 7    1  0.2412036E-009  0.4778729E+02  0.7816164E-02  0.1312668E+00
        -11   -1    0    0    0    0  0.00000000000E+00  0.00000000000E+00  0.45593999997E+02  0.45594000000E+02  0.51100000000E-03 0.  1.
         11   -1    0    0    0    0 -0.00000000000E+00 -0.00000000000E+00 -0.45593999997E+02  0.45594000000E+02  0.51100000000E-03 0. -1.
    9900012    2    1    2    0    0 -0.25179458866E+02  0.34335415739E+02  0.84080765685E+01  0.47787289472E+02  0.20000084019E+02 0.  0.
         12    1    1    2    0    0  0.25179458866E+02 -0.34335415739E+02 -0.84080765685E+01  0.43400710528E+02  0.00000000000E+00 0. -1.
         11    1    3    3    0    0 -0.93285435167E+01  0.15221711682E+02 -0.45990095430E+01  0.18435648068E+02  0.51100000000E-03 0. -1.
        -11    1    3    3    0    0 -0.15037151435E+02  0.12406789508E+02  0.10521682893E+02  0.22152881536E+02  0.51100000000E-03 0.  1.
        -12    1    3    3    0    0 -0.81376391381E+00  0.67069145487E+01  0.24854032181E+01  0.71987598673E+01  0.00000000000E+00 0.  1.
</event>
<event>
 7    1  0.2412036E-009  0.4778727E+02  0.7816164E-02  0.1312668E+00
        -11   -1    0    0    0    0  0.00000000000E+00  0.00000000000E+00  0.45593999997E+02  0.45594000000E+02  0.51100000000E-03 0. -1.
         11   -1    0    0    0    0 -0.00000000000E+00 -0.00000000000E+00 -0.45593999997E+02  0.45594000000E+02  0.51100000000E-03 0.  1.
    9900012    2    1    2    0    0 -0.16520161305E+02  0.39352426809E+02 -0.78799997013E+01  0.47787267050E+02  0.19999981789E+02 0.  0.
         12    1    1    2    0    0  0.16520161305E+02 -0.39352426809E+02  0.78799997013E+01  0.43400732950E+02  0.00000000000E+00 0. -1.
         11    1    3    3    0    0  0.10051812962E+01  0.12088484503E+02 -0.47196823363E+01  0.13016038131E+02  0.51100000000E-03 0. -1.
        -11    1    3    3    0    0 -0.18479286496E+02  0.24414271766E+02 -0.53101238177E+01  0.31076327172E+02  0.51100000000E-03 0.  1.
        -12    1    3    3    0    0  0.95394389435E+00  0.28496705392E+01  0.21498064527E+01  0.36949017469E+01  0.00000000000E+00 0.  1.
</event>
<event>
 7    1  0.2412036E-009  0.4778727E+02  0.7816164E-02  0.1312668E+00
        -11   -1    0    0    0    0  0.00000000000E+00  0.00000000000E+00  0.45593999997E+02  0.45594000000E+02  0.51100000000E-03 0.  1.
         11   -1    0    0    0    0 -0.00000000000E+00 -0.00000000000E+00 -0.45593999997E+02  0.45594000000E+02  0.51100000000E-03 0. -1.
    9900012    2    1    2    0    0 -0.17238502462E+02  0.28990642390E+02  0.27312997243E+02  0.47787272682E+02  0.20000007466E+02 0.  0.
         12    1    1    2    0    0  0.17238502462E+02 -0.28990642390E+02 -0.27312997243E+02  0.43400727318E+02  0.00000000000E+00 0. -1.
         11    1    3    3    0    0 -0.23422025626E+01 -0.66908646456E+00 -0.15300888377E+01  0.28765885443E+01  0.51100000000E-03 0. -1.
        -11    1    3    3    0    0 -0.22383475186E+01  0.12113746756E+02  0.14133404184E+02  0.18748497918E+02  0.51100000000E-03 0.  1.
        -12    1    3    3    0    0 -0.12657952381E+02  0.17545982099E+02  0.14709681896E+02  0.26162186220E+02  0.00000000000E+00 0.  1.
</event>
<event>
 7    1  0.2412036E-009  0.4778724E+02  0.7816164E-02  0.1312668E+00
        -11   -1    0    0    0    0  0.00000000000E+00  0.00000000000E+00  0.45593999997E+02  0.45594000000E+02  0.51100000000E-03 0.  1.
         11   -1    0    0    0    0 -0.00000000000E+00 -0.00000000000E+00 -0.45593999997E+02  0.45594000000E+02  0.51100000000E-03 0. -1.
    9900012    2    1    2    0    0  0.33594278225E+02 -0.19887380964E+02 -0.18961609813E+02  0.47787238512E+02  0.19999851671E+02 0.  0.
         12    1    1    2    0    0 -0.33594278225E+02  0.19887380964E+02  0.18961609813E+02  0.43400761488E+02  0.00000000000E+00 0. -1.
         11    1    3    3    0    0  0.19373933054E+01  0.17462446671E+01 -0.12656234638E+01  0.28990802456E+01  0.51100000000E-03 0. -1.
        -11    1    3    3    0    0  0.24109533300E+02 -0.23182407950E+02 -0.13126985911E+02  0.35930646998E+02  0.51100000000E-03 0.  1.
        -12    1    3    3    0    0  0.75473516188E+01  0.15487823184E+01 -0.45690004380E+01  0.89575112688E+01  0.00000000000E+00 0.  1.
</event>
<event>
 7    1  0.2412036E-009  0.4778727E+02  0.7816164E-02  0.1312668E+00
        -11   -1    0    0    0    0  0.00000000000E+00  0.00000000000E+00  0.45593999997E+02  0.45594000000E+02  0.51100000000E-03 0.  1.
         11   -1    0    0    0    0 -0.00000000000E+00 -0.00000000000E+00 -0.45593999997E+02  0.45594000000E+02  0.51100000000E-03 0. -1.
    9900012    2    1    2    0    0  0.55994446984E+01 -0.35857363543E+02  0.23801661960E+02  0.47787269439E+02  0.19999992680E+02 0.  0.
         12    1    1    2    0    0 -0.55994446984E+01  0.35857363543E+02 -0.23801661960E+02  0.43400730561E+02  0.00000000000E+00 0. -1.
         11    1    3    3    0    0 -0.40040584666E+01 -0.28972759485E+01  0.67478116258E+01  0.83641887906E+01  0.51100000000E-03 0. -1.
        -11    1    3    3    0    0  0.67691254219E+00 -0.15326820699E+02  0.10539388157E+02  0.18613122960E+02  0.51100000000E-03 0.  1.
         12    1    3    3    0    0  0.89265906228E+01 -0.17633266895E+02  0.65144621774E+01  0.20809957688E+02  0.00000000000E+00 0. -1.
</event>
<event>
 7    1  0.2412036E-009  0.4778726E+02  0.7816164E-02  0.1312668E+00
        -11   -1    0    0    0    0  0.00000000000E+00  0.00000000000E+00  0.45593999997E+02  0.45594000000E+02  0.51100000000E-03 0.  1.
         11   -1    0    0    0    0 -0.00000000000E+00 -0.00000000000E+00 -0.45593999997E+02  0.45594000000E+02  0.51100000000E-03 0. -1.
    9900012    2    1    2    0    0 -0.34892132447E+02 -0.98771227263E+01  0.23845452877E+02  0.47787261724E+02  0.19999957503E+02 0.  0.
         12    1    1    2    0    0  0.34892132447E+02  0.98771227263E+01 -0.23845452877E+02  0.43400738276E+02  0.00000000000E+00 0. -1.
         11    1    3    3    0    0 -0.77796426379E+01  0.43228118539E+01  0.11310705205E+01  0.89715585425E+01  0.51100000000E-03 0. -1.
        -11    1    3    3    0    0 -0.20738167428E+02 -0.88264174952E+01  0.13017338719E+02  0.26027453614E+02  0.51100000000E-03 0.  1.
         12    1    3    3    0    0 -0.63743223816E+01 -0.53735170849E+01  0.96970436372E+01  0.12788249567E+02  0.00000000000E+00 0. -1.
</event>
<event>
 7    1  0.2412036E-009  0.4778727E+02  0.7816164E-02  0.1312668E+00
        -11   -1    0    0    0    0  0.00000000000E+00  0.00000000000E+00  0.45593999997E+02  0.45594000000E+02  0.51100000000E-03 0.  1.
         11   -1    0    0    0    0 -0.00000000000E+00 -0.00000000000E+00 -0.45593999997E+02  0.45594000000E+02  0.51100000000E-03 0. -1.
    9900012    2    1    2    0    0 -0.18178525494E+02  0.39098390477E+02 -0.49477801473E+01  0.47787268953E+02  0.19999990465E+02 0.  0.
         12    1    1    2    0    0  0.18178525494E+02 -0.39098390477E+02  0.49477801473E+01  0.43400731047E+02  0.00000000000E+00 0. -1.
         11    1    3    3    0    0  0.17220783507E+01  0.40358489546E+01 -0.71325104938E+00  0.44454873694E+01  0.51100000000E-03 0. -1.
        -11    1    3    3    0    0 -0.21945604925E+02  0.33265382378E+02 -0.56873187895E+01  0.40255941618E+02  0.51100000000E-03 0.  1.
        -12    1    3    3    0    0  0.20450010800E+01  0.17971591439E+01  0.14527896916E+01  0.30858399657E+01  0.00000000000E+00 0.  1.
</event>
<event>
 7    1  0.2412036E-009  0.4778727E+02  0.7816164E-02  0.1312668E+00
        -11   -1    0    0    0    0  0.00000000000E+00  0.00000000000E+00  0.45593999997E+02  0.45594000000E+02  0.51100000000E-03 0. -1.
         11   -1    0    0    0    0 -0.00000000000E+00 -0.00000000000E+00 -0.45593999997E+02  0.45594000000E+02  0.51100000000E-03 0.  1.
    9900012    2    1    2    0    0  0.29939698103E+02  0.25866608391E+02 -0.17836943315E+02  0.47787268451E+02  0.19999988176E+02 0.  0.
         12    1    1    2    0    0 -0.29939698103E+02 -0.25866608391E+02  0.17836943315E+02  0.43400731549E+02  0.00000000000E+00 0. -1.
         11    1    3    3    0    0  0.24302229589E+02  0.19455005786E+02 -0.66566965177E+01  0.31834057579E+02  0.51100000000E-03 0. -1.
        -11    1    3    3    0    0  0.13558842108E+01  0.68163411269E+01 -0.57094368158E+01  0.89943647561E+01  0.51100000000E-03 0.  1.
         12    1    3    3    0    0  0.42815843030E+01 -0.40473852167E+00 -0.54708099815E+01  0.69588461162E+01  0.00000000000E+00 0. -1.
</event>
<event>
 7    1  0.2412036E-009  0.4778727E+02  0.7816164E-02  0.1312668E+00
        -11   -1    0    0    0    0  0.00000000000E+00  0.00000000000E+00  0.45593999997E+02  0.45594000000E+02  0.51100000000E-03 0. -1.
         11   -1    0    0    0    0 -0.00000000000E+00 -0.00000000000E+00 -0.45593999997E+02  0.45594000000E+02  0.51100000000E-03 0.  1.
    9900012    2    1    2    0    0 -0.10183944557E+02 -0.42187281804E+02 -0.37947793827E+00  0.47787268713E+02  0.19999989368E+02 0.  0.
         12    1    1    2    0    0  0.10183944557E+02  0.42187281804E+02  0.37947793827E+00  0.43400731287E+02  0.00000000000E+00 0. -1.
         11    1    3    3    0    0 -0.21024423991E+01 -0.23322049923E+01 -0.15465847577E+01  0.35001955433E+01  0.51100000000E-03 0. -1.
        -11    1    3    3    0    0 -0.17931842014E+01 -0.12977622077E+02 -0.78203456183E+01  0.15257522413E+02  0.51100000000E-03 0.  1.
        -12    1    3    3    0    0 -0.62883179563E+01 -0.26877454735E+02  0.89874524377E+01  0.29029550756E+02  0.00000000000E+00 0.  1.
</event>
<event>
 7    1  0.2412036E-009  0.4778727E+02  0.7816164E-02  0.1312668E+00
        -11   -1    0    0    0    0  0.00000000000E+00  0.00000000000E+00  0.45593999997E+02  0.45594000000E+02  0.51100000000E-03 0.  1.
         11   -1    0    0    0    0 -0.00000000000E+00 -0.00000000000E+00 -0.45593999997E+02  0.45594000000E+02  0.51100000000E-03 0. -1.
    9900012    2    1    2    0    0 -0.12603690396E+02  0.28214856045E+01  0.41434400106E+02  0.47787270688E+02  0.19999998376E+02 0.  0.
         12    1    1    2    0    0  0.12603690396E+02 -0.28214856045E+01 -0.41434400106E+02  0.43400729312E+02  0.00000000000E+00 0. -1.
         11    1    3    3    0    0 -0.50806670218E+01  0.92289579915E+01  0.21310020458E+02  0.23771912316E+02  0.51100000000E-03 0. -1.
        -11    1    3    3    0    0 -0.91752235825E+01 -0.42568741345E+01  0.17657381240E+02  0.20349172408E+02  0.51100000000E-03 0.  1.
         12    1    3    3    0    0  0.16522002085E+01 -0.21505982526E+01  0.24669984085E+01  0.36661859637E+01  0.00000000000E+00 0. -1.
</event>
<event>
 7    1  0.2412036E-009  0.4778727E+02  0.7816164E-02  0.1312668E+00
        -11   -1    0    0    0    0  0.00000000000E+00  0.00000000000E+00  0.45593999997E+02  0.45594000000E+02  0.51100000000E-03 0. -1.
         11   -1    0    0    0    0 -0.00000000000E+00 -0.00000000000E+00 -0.45593999997E+02  0.45594000000E+02  0.51100000000E-03 0.  1.
    9900012    2    1    2    0    0 -0.34844707611E+02  0.25808210434E+02  0.18454938951E+01  0.47787271642E+02  0.20000002724E+02 0.  0.
         12    1    1    2    0    0  0.34844707611E+02 -0.25808210434E+02 -0.18454938951E+01  0.43400728358E+02  0.00000000000E+00 0. -1.
         11    1    3    3    0    0 -0.96689402400E+01  0.17395202913E+02 -0.10328005702E+01  0.19928576643E+02  0.51100000000E-03 0. -1.
        -11    1    3    3    0    0 -0.11083077238E+02  0.66436497530E+01 -0.14688370483E+01  0.13005005407E+02  0.51100000000E-03 0.  1.
         12    1    3    3    0    0 -0.14092690132E+02  0.17693577688E+01  0.43471315137E+01  0.14853689591E+02  0.00000000000E+00 0. -1.
</event>
<event>
 7    1  0.2412036E-009  0.4778727E+02  0.7816164E-02  0.1312668E+00
        -11   -1    0    0    0    0  0.00000000000E+00  0.00000000000E+00  0.45593999997E+02  0.45594000000E+02  0.51100000000E-03 0. -1.
         11   -1    0    0    0    0 -0.00000000000E+00 -0.00000000000E+00 -0.45593999997E+02  0.45594000000E+02  0.51100000000E-03 0.  1.
    9900012    2    1    2    0    0 -0.39246993227E+02 -0.18118487943E+02  0.38751997181E+01  0.47787271256E+02  0.20000000963E+02 0.  0.
         12    1    1    2    0    0  0.39246993227E+02  0.18118487943E+02 -0.38751997181E+01  0.43400728744E+02  0.00000000000E+00 0. -1.
         11    1    3    3    0    0 -0.23928704276E+02 -0.27468790962E+01  0.73961311608E+01  0.25195852626E+02  0.51100000000E-03 0. -1.
        -11    1    3    3    0    0 -0.77938683375E+01 -0.11254660810E+02 -0.14388278758E+01  0.13765246076E+02  0.51100000000E-03 0.  1.
         12    1    3    3    0    0 -0.75244206129E+01 -0.41169480364E+01 -0.20821035668E+01  0.88261725542E+01  0.00000000000E+00 0. -1.
</event>
<event>
 7    1  0.2412036E-009  0.4778727E+02  0.7816164E-02  0.1312668E+00
        -11   -1    0    0    0    0  0.00000000000E+00  0.00000000000E+00  0.45593999997E+02  0.45594000000E+02  0.51100000000E-03 0.  1.
         11   -1    0    0    0    0 -0.00000000000E+00 -0.00000000000E+00 -0.45593999997E+02  0.45594000000E+02  0.51100000000E-03 0. -1.
    9900012    2    1    2    0    0 -0.41009070293E+02 -0.30103524912E+01 -0.13885868989E+02  0.47787269292E+02  0.19999992010E+02 0.  0.
         12    1    1    2    0    0  0.41009070293E+02  0.30103524912E+01  0.13885868989E+02  0.43400730708E+02  0.00000000000E+00 0. -1.
         11    1    3    3    0    0 -0.58730012517E+01 -0.14814451845E+01 -0.10504281463E+02  0.12125458872E+02  0.51100000000E-03 0. -1.
        -11    1    3    3    0    0 -0.16818972153E+02 -0.10871820343E+01  0.78226198497E+00  0.16872217493E+02  0.51100000000E-03 0.  1.
         12    1    3    3    0    0 -0.18317096888E+02 -0.44172527239E+00 -0.41638495109E+01  0.18789592927E+02  0.00000000000E+00 0. -1.
</event>
<event>
 7    1  0.2412036E-009  0.4778727E+02  0.7816164E-02  0.1312668E+00
        -11   -1    0    0    0    0  0.00000000000E+00  0.00000000000E+00  0.45593999997E+02  0.45594000000E+02  0.51100000000E-03 0.  1.
         11   -1    0    0    0    0 -0.00000000000E+00 -0.00000000000E+00 -0.45593999997E+02  0.45594000000E+02  0.51100000000E-03 0. -1.
    9900012    2    1    2    0    0 -0.63973544643E+01 -0.29001889584E+02  0.31647868329E+02  0.47787270590E+02  0.19999997928E+02 0.  0.
         12    1    1    2    0    0  0.63973544643E+01  0.29001889584E+02 -0.31647868329E+02  0.43400729410E+02  0.00000000000E+00 0. -1.
         11    1    3    3    0    0  0.29927184948E+01 -0.35766643703E+00  0.76713112998E-01  0.30149916139E+01  0.51100000000E-03 0. -1.
        -11    1    3    3    0    0 -0.99939449546E+01 -0.15633940094E+02  0.20776666683E+02  0.27856218288E+02  0.51100000000E-03 0.  1.
         12    1    3    3    0    0  0.60387199556E+00 -0.13010283053E+02  0.10794488533E+02  0.16916060688E+02  0.00000000000E+00 0. -1.
</event>
<event>
 7    1  0.2412036E-009  0.4778727E+02  0.7816164E-02  0.1312668E+00
        -11   -1    0    0    0    0  0.00000000000E+00  0.00000000000E+00  0.45593999997E+02  0.45594000000E+02  0.51100000000E-03 0.  1.
         11   -1    0    0    0    0 -0.00000000000E+00 -0.00000000000E+00 -0.45593999997E+02  0.45594000000E+02  0.51100000000E-03 0. -1.
    9900012    2    1    2    0    0 -0.36389054093E+02 -0.22542215738E+02  0.71629909497E+01  0.47787272039E+02  0.20000004535E+02 0.  0.
         12    1    1    2    0    0  0.36389054093E+02  0.22542215738E+02 -0.71629909497E+01  0.43400727961E+02  0.00000000000E+00 0. -1.
         11    1    3    3    0    0 -0.82425905817E+01 -0.12137289097E+02  0.80461450937E+01  0.16733037299E+02  0.51100000000E-03 0. -1.
        -11    1    3    3    0    0 -0.25280000045E+02 -0.92095709974E+01 -0.33162968157E+01  0.27108899371E+02  0.51100000000E-03 0.  1.
        -12    1    3    3    0    0 -0.28664634661E+01 -0.11953556438E+01  0.24331426717E+01  0.39453353696E+01  0.00000000000E+00 0.  1.
</event>
<event>
 7    1  0.2412036E-009  0.4778725E+02  0.7816164E-02  0.1312668E+00
        -11   -1    0    0    0    0  0.00000000000E+00  0.00000000000E+00  0.45593999997E+02  0.45594000000E+02  0.51100000000E-03 0. -1.
         11   -1    0    0    0    0 -0.00000000000E+00 -0.00000000000E+00 -0.45593999997E+02  0.45594000000E+02  0.51100000000E-03 0.  1.
    9900012    2    1    2    0    0  0.32548582729E+00  0.42569654832E+02  0.84465013894E+01  0.47787253010E+02  0.19999917775E+02 0.  0.
         12    1    1    2    0    0 -0.32548582729E+00 -0.42569654832E+02 -0.84465013894E+01  0.43400746990E+02  0.00000000000E+00 0. -1.
         11    1    3    3    0    0  0.24414639158E+01  0.64773946012E+01 -0.39419618452E+01  0.79659557068E+01  0.51100000000E-03 0. -1.
        -11    1    3    3    0    0  0.37813648925E+00  0.14729769740E+02  0.10773516071E+02  0.18253157332E+02  0.51100000000E-03 0.  1.
        -12    1    3    3    0    0 -0.24941145778E+01  0.21362490491E+02  0.16149471639E+01  0.21568139972E+02  0.00000000000E+00 0.  1.
</event>
<event>
 7    1  0.2412036E-009  0.4778726E+02  0.7816164E-02  0.1312668E+00
        -11   -1    0    0    0    0  0.00000000000E+00  0.00000000000E+00  0.45593999997E+02  0.45594000000E+02  0.51100000000E-03 0.  1.
         11   -1    0    0    0    0 -0.00000000000E+00 -0.00000000000E+00 -0.45593999997E+02  0.45594000000E+02  0.51100000000E-03 0. -1.
    9900012    2    1    2    0    0  0.15096215041E+02  0.15532443146E+02  0.37609459541E+02  0.47787263306E+02  0.19999964717E+02 0.  0.
         12    1    1    2    0    0 -0.15096215041E+02 -0.15532443146E+02 -0.37609459541E+02  0.43400736694E+02  0.00000000000E+00 0. -1.
         11    1    3    3    0    0 -0.33720670668E+01  0.19256925067E+01  0.14375123470E+02  0.14890376186E+02  0.51100000000E-03 0. -1.
        -11    1    3    3    0    0  0.46370879907E+01  0.55778838010E+01  0.81872709215E+01  0.10938316970E+02  0.51100000000E-03 0.  1.
         12    1    3    3    0    0  0.13831194117E+02  0.80288668380E+01  0.15047065150E+02  0.21958570150E+02  0.00000000000E+00 0. -1.
</event>
<event>
 7    1  0.2412036E-009  0.4778726E+02  0.7816164E-02  0.1312668E+00
        -11   -1    0    0    0    0  0.00000000000E+00  0.00000000000E+00  0.45593999997E+02  0.45594000000E+02  0.51100000000E-03 0.  1.
         11   -1    0    0    0    0 -0.00000000000E+00 -0.00000000000E+00 -0.45593999997E+02  0.45594000000E+02  0.51100000000E-03 0. -1.
    9900012    2    1    2    0    0 -0.27663648639E+02  0.85439583448E+01  0.32331831337E+02  0.47787262704E+02  0.19999961972E+02 0.  0.
         12    1    1    2    0    0  0.27663648639E+02 -0.85439583448E+01 -0.32331831337E+02  0.43400737296E+02  0.00000000000E+00 0. -1.
         11    1    3    3    0    0 -0.31969245104E+01  0.31775692849E-01 -0.16781273732E+01  0.36107406112E+01  0.51100000000E-03 0. -1.
        -11    1    3    3    0    0 -0.21598756532E+02  0.68224912042E+01  0.33992462538E+02  0.40847768356E+02  0.51100000000E-03 0.  1.
         12    1    3    3    0    0 -0.28679675968E+01  0.16896914478E+01  0.17496171844E-01  0.33287537369E+01  0.00000000000E+00 0. -1.
</event>
<event>
 7    1  0.2412036E-009  0.4778727E+02  0.7816164E-02  0.1312668E+00
        -11   -1    0    0    0    0  0.00000000000E+00  0.00000000000E+00  0.45593999997E+02  0.45594000000E+02  0.51100000000E-03 0. -1.
         11   -1    0    0    0    0 -0.00000000000E+00 -0.00000000000E+00 -0.45593999997E+02  0.45594000000E+02  0.51100000000E-03 0.  1.
    9900012    2    1    2    0    0  0.19210153723E+02 -0.38664464359E+02 -0.44331072557E+01  0.47787271317E+02  0.20000001245E+02 0.  0.
         12    1    1    2    0    0 -0.19210153723E+02  0.38664464359E+02  0.44331072557E+01  0.43400728683E+02  0.00000000000E+00 0. -1.
         11    1    3    3    0    0  0.13630429858E+01 -0.48799161847E+01  0.43605553556E+01  0.66847521586E+01  0.51100000000E-03 0. -1.
        -11    1    3    3    0    0  0.46416758079E+01 -0.20753984875E+02 -0.73231941589E+01  0.22492270126E+02  0.51100000000E-03 0.  1.
        -12    1    3    3    0    0  0.13205434930E+02 -0.13030563299E+02 -0.14704684524E+01  0.18610249033E+02  0.00000000000E+00 0.  1.
</event>
<event>
 7    1  0.2412036E-009  0.4778726E+02  0.7816164E-02  0.1312668E+00
        -11   -1    0    0    0    0  0.00000000000E+00  0.00000000000E+00  0.45593999997E+02  0.45594000000E+02  0.51100000000E-03 0.  1.
         11   -1    0    0    0    0 -0.00000000000E+00 -0.00000000000E+00 -0.45593999997E+02  0.45594000000E+02  0.51100000000E-03 0. -1.
    9900012    2    1    2    0    0 -0.56435059704E+01 -0.40001362634E+02  0.15863986572E+02  0.47787259889E+02  0.19999949138E+02 0.  0.
         12    1    1    2    0    0  0.56435059704E+01  0.40001362634E+02 -0.15863986572E+02  0.43400740111E+02  0.00000000000E+00 0. -1.
         11    1    3    3    0    0 -0.64199800207E+00 -0.52209419897E+01  0.61678855705E+01  0.81063684450E+01  0.51100000000E-03 0. -1.
        -11    1    3    3    0    0 -0.51944028455E+01 -0.25069212811E+01 -0.61329375396E+00  0.58002245405E+01  0.51100000000E-03 0.  1.
        -12    1    3    3    0    0  0.19289487720E+00 -0.32273499363E+02  0.10309394755E+02  0.33880666903E+02  0.00000000000E+00 0.  1.
</event>
<event>
 7    1  0.2412036E-009  0.4778727E+02  0.7816164E-02  0.1312668E+00
        -11   -1    0    0    0    0  0.00000000000E+00  0.00000000000E+00  0.45593999997E+02  0.45594000000E+02  0.51100000000E-03 0.  1.
         11   -1    0    0    0    0 -0.00000000000E+00 -0.00000000000E+00 -0.45593999997E+02  0.45594000000E+02  0.51100000000E-03 0. -1.
    9900012    2    1    2    0    0  0.76379234496E+01  0.34149566681E+01  0.42586660298E+02  0.47787269142E+02  0.19999991326E+02 0.  0.
         12    1    1    2    0    0 -0.76379234496E+01 -0.34149566681E+01 -0.42586660298E+02  0.43400730858E+02  0.00000000000E+00 0. -1.
         11    1    3    3    0    0  0.10918669989E+02 -0.29345932976E+01  0.14417900905E+02  0.18322255836E+02  0.51100000000E-03 0. -1.
        -11    1    3    3    0    0 -0.15941181964E+01 -0.13712511901E+00  0.94054101119E+01  0.95405322575E+01  0.51100000000E-03 0.  1.
         12    1    3    3    0    0 -0.16866283426E+01  0.64866750847E+01  0.18763349281E+02  0.19924481048E+02  0.00000000000E+00 0. -1.
</event>
<event>
 7    1  0.2412036E-009  0.4778727E+02  0.7816164E-02  0.1312668E+00
        -11   -1    0    0    0    0  0.00000000000E+00  0.00000000000E+00  0.45593999997E+02  0.45594000000E+02  0.51100000000E-03 0. -1.
         11   -1    0    0    0    0 -0.00000000000E+00 -0.00000000000E+00 -0.45593999997E+02  0.45594000000E+02  0.51100000000E-03 0.  1.
    9900012    2    1    2    0    0 -0.26028539157E+02  0.73462183511E+01 -0.33943658635E+02  0.47787265718E+02  0.19999975716E+02 0.  0.
         12    1    1    2    0    0  0.26028539157E+02 -0.73462183511E+01  0.33943658635E+02  0.43400734282E+02  0.00000000000E+00 0. -1.
         11    1    3    3    0    0 -0.91292596747E+01  0.25590674583E+01 -0.19517376953E+01  0.96799529316E+01  0.51100000000E-03 0. -1.
        -11    1    3    3    0    0 -0.15131724213E+02  0.60892236670E+01 -0.31994060501E+02  0.35911942723E+02  0.51100000000E-03 0.  1.
        -12    1    3    3    0    0 -0.17675552689E+01 -0.13020727742E+01  0.21395620991E-02  0.21953700635E+01  0.00000000000E+00 0.  1.
</event>
<event>
 7    1  0.2412036E-009  0.4778728E+02  0.7816164E-02  0.1312668E+00
        -11   -1    0    0    0    0  0.00000000000E+00  0.00000000000E+00  0.45593999997E+02  0.45594000000E+02  0.51100000000E-03 0.  1.
         11   -1    0    0    0    0 -0.00000000000E+00 -0.00000000000E+00 -0.45593999997E+02  0.45594000000E+02  0.51100000000E-03 0. -1.
    9900012    2    1    2    0    0  0.40913689531E+02  0.10663342736E+02 -0.97972430035E+01  0.47787276045E+02  0.20000022798E+02 0.  0.
         12    1    1    2    0    0 -0.40913689531E+02 -0.10663342736E+02  0.97972430035E+01  0.43400723955E+02  0.00000000000E+00 0. -1.
         11    1    3    3    0    0  0.31330535234E+02  0.33564108384E+01 -0.10595065082E+02  0.33243395376E+02  0.51100000000E-03 0.  1.
        -11    1    3    3    0    0  0.10171083694E+02  0.63804512060E+01  0.27379710609E+01  0.12314933491E+02  0.51100000000E-03 0. -1.
         12    1    3    3    0    0 -0.58792939644E+00  0.92648069190E+00 -0.19401489822E+01  0.22289471777E+01  0.00000000000E+00 0. -1.
</event>
<event>
 7    1  0.2412036E-009  0.4778727E+02  0.7816164E-02  0.1312668E+00
        -11   -1    0    0    0    0  0.00000000000E+00  0.00000000000E+00  0.45593999997E+02  0.45594000000E+02  0.51100000000E-03 0. -1.
         11   -1    0    0    0    0 -0.00000000000E+00 -0.00000000000E+00 -0.45593999997E+02  0.45594000000E+02  0.51100000000E-03 0.  1.
    9900012    2    1    2    0    0  0.34982415185E+02  0.14820546477E+02 -0.20981063112E+02  0.47787274438E+02  0.20000015472E+02 0.  0.
         12    1    1    2    0    0 -0.34982415185E+02 -0.14820546477E+02  0.20981063112E+02  0.43400725562E+02  0.00000000000E+00 0. -1.
         11    1    3    3    0    0  0.12876326130E+02 -0.25152670111E+01 -0.86906447752E+00  0.13148445386E+02  0.51100000000E-03 0. -1.
        -11    1    3    3    0    0  0.10456122869E+02  0.96607960688E+01 -0.95884097942E+01  0.17163889092E+02  0.51100000000E-03 0.  1.
         12    1    3    3    0    0  0.11649966186E+02  0.76750174190E+01 -0.10523588840E+02  0.17474939959E+02  0.00000000000E+00 0. -1.
</event>
<event>
 7    1  0.2412036E-009  0.4778732E+02  0.7816164E-02  0.1312668E+00
        -11   -1    0    0    0    0  0.00000000000E+00  0.00000000000E+00  0.45593999997E+02  0.45594000000E+02  0.51100000000E-03 0. -1.
         11   -1    0    0    0    0 -0.00000000000E+00 -0.00000000000E+00 -0.45593999997E+02  0.45594000000E+02  0.51100000000E-03 0.  1.
    9900012    2    1    2    0    0  0.43129380006E+02 -0.38899869116E+01  0.28884870129E+01  0.47787322873E+02  0.20000236304E+02 0.  0.
         12    1    1    2    0    0 -0.43129380006E+02  0.38899869116E+01 -0.28884870129E+01  0.43400677127E+02  0.00000000000E+00 0. -1.
         11    1    3    3    0    0  0.86460547033E+01 -0.47079284297E+01 -0.53254229214E+01  0.11192809370E+02  0.51100000000E-03 0. -1.
        -11    1    3    3    0    0  0.29982424981E+02  0.28303945314E+01  0.45626656198E+01  0.30459396888E+02  0.51100000000E-03 0.  1.
        -12    1    3    3    0    0  0.45009003217E+01 -0.20124530133E+01  0.36512443146E+01  0.61351166152E+01  0.00000000000E+00 0.  1.
</event>
<event>
 7    1  0.2412036E-009  0.4778726E+02  0.7816164E-02  0.1312668E+00
        -11   -1    0    0    0    0  0.00000000000E+00  0.00000000000E+00  0.45593999997E+02  0.45594000000E+02  0.51100000000E-03 0.  1.
         11   -1    0    0    0    0 -0.00000000000E+00 -0.00000000000E+00 -0.45593999997E+02  0.45594000000E+02  0.51100000000E-03 0. -1.
    9900012    2    1    2    0    0  0.37722787390E+02  0.28933919882E+01  0.21266019689E+02  0.47787262689E+02  0.19999961906E+02 0.  0.
         12    1    1    2    0    0 -0.37722787390E+02 -0.28933919882E+01 -0.21266019689E+02  0.43400737311E+02  0.00000000000E+00 0. -1.
         11    1    3    3    0    0  0.10427978826E+02  0.24896385605E+01 -0.13309336317E+01  0.10803352588E+02  0.51100000000E-03 0. -1.
        -11    1    3    3    0    0  0.17463069838E+02  0.24067563739E+01  0.82163688228E+01  0.19448907458E+02  0.51100000000E-03 0.  1.
         12    1    3    3    0    0  0.98317387264E+01 -0.20030029463E+01  0.14380584498E+02  0.17535002643E+02  0.00000000000E+00 0. -1.
</event>
<event>
 7    1  0.2412036E-009  0.4778722E+02  0.7816164E-02  0.1312668E+00
        -11   -1    0    0    0    0  0.00000000000E+00  0.00000000000E+00  0.45593999997E+02  0.45594000000E+02  0.51100000000E-03 0.  1.
         11   -1    0    0    0    0 -0.00000000000E+00 -0.00000000000E+00 -0.45593999997E+02  0.45594000000E+02  0.51100000000E-03 0. -1.
    9900012    2    1    2    0    0  0.13644248076E+02  0.12296107295E+02  0.39322614829E+02  0.47787218934E+02  0.19999762407E+02 0.  0.
         12    1    1    2    0    0 -0.13644248076E+02 -0.12296107295E+02 -0.39322614829E+02  0.43400781066E+02  0.00000000000E+00 0. -1.
         11    1    3    3    0    0  0.25237630428E+01 -0.30052274093E+01  0.11120162840E+02  0.11792319260E+02  0.51100000000E-03 0. -1.
        -11    1    3    3    0    0  0.90915075307E+01  0.17279457252E+02  0.24930358297E+02  0.31666353076E+02  0.51100000000E-03 0.  1.
        -12    1    3    3    0    0  0.20289775027E+01 -0.19781225476E+01  0.32720936915E+01  0.43285465974E+01  0.00000000000E+00 0.  1.
</event>
<event>
 7    1  0.2412036E-009  0.4778727E+02  0.7816164E-02  0.1312668E+00
        -11   -1    0    0    0    0  0.00000000000E+00  0.00000000000E+00  0.45593999997E+02  0.45594000000E+02  0.51100000000E-03 0.  1.
         11   -1    0    0    0    0 -0.00000000000E+00 -0.00000000000E+00 -0.45593999997E+02  0.45594000000E+02  0.51100000000E-03 0. -1.
    9900012    2    1    2    0    0 -0.42100083111E+02 -0.64155716689E+01  0.83693856604E+01  0.47787272194E+02  0.20000005241E+02 0.  0.
         12    1    1    2    0    0  0.42100083111E+02  0.64155716689E+01 -0.83693856604E+01  0.43400727806E+02  0.00000000000E+00 0. -1.
         11    1    3    3    0    0 -0.55855022386E+01 -0.76722453289E+01  0.18682398017E+01  0.96722026375E+01  0.51100000000E-03 0. -1.
        -11    1    3    3    0    0 -0.29172873188E+02  0.21229518032E+01  0.16983294720E+01  0.29299279473E+02  0.51100000000E-03 0.  1.
        -12    1    3    3    0    0 -0.73417076844E+01 -0.86627814309E+00  0.48028163867E+01  0.88157900830E+01  0.00000000000E+00 0.  1.
</event>
<event>
 7    1  0.2412036E-009  0.4778727E+02  0.7816164E-02  0.1312668E+00
        -11   -1    0    0    0    0  0.00000000000E+00  0.00000000000E+00  0.45593999997E+02  0.45594000000E+02  0.51100000000E-03 0.  1.
         11   -1    0    0    0    0 -0.00000000000E+00 -0.00000000000E+00 -0.45593999997E+02  0.45594000000E+02  0.51100000000E-03 0. -1.
    9900012    2    1    2    0    0  0.13722875432E+02  0.26381862199E+02  0.31611763985E+02  0.47787267455E+02  0.19999983632E+02 0.  0.
         12    1    1    2    0    0 -0.13722875432E+02 -0.26381862199E+02 -0.31611763985E+02  0.43400732545E+02  0.00000000000E+00 0. -1.
         11    1    3    3    0    0 -0.96101073082E-02 -0.15054108529E+01  0.14933151156E+01  0.21204585555E+01  0.51100000000E-03 0. -1.
        -11    1    3    3    0    0  0.14772896544E+02  0.28857322735E+02  0.30109375047E+02  0.44244299222E+02  0.51100000000E-03 0.  1.
        -12    1    3    3    0    0 -0.10404110050E+01 -0.97004968249E+00  0.90738228538E-02  0.14225096766E+01  0.00000000000E+00 0.  1.
</event>
<event>
 7    1  0.2412036E-009  0.4778729E+02  0.7816164E-02  0.1312668E+00
        -11   -1    0    0    0    0  0.00000000000E+00  0.00000000000E+00  0.45593999997E+02  0.45594000000E+02  0.51100000000E-03 0.  1.
         11   -1    0    0    0    0 -0.00000000000E+00 -0.00000000000E+00 -0.45593999997E+02  0.45594000000E+02  0.51100000000E-03 0. -1.
    9900012    2    1    2    0    0  0.68101231219E+01  0.33084051494E+02  0.27252331568E+02  0.47787287839E+02  0.20000076575E+02 0.  0.
         12    1    1    2    0    0 -0.68101231219E+01 -0.33084051494E+02 -0.27252331568E+02  0.43400712161E+02  0.00000000000E+00 0. -1.
         11    1    3    3    0    0  0.60207556924E+01  0.79933819256E+01  0.17455370388E+02  0.20120477364E+02  0.51100000000E-03 0. -1.
        -11    1    3    3    0    0 -0.19496191425E+01  0.93479455784E+01  0.15138940376E+01  0.96683492260E+01  0.51100000000E-03 0.  1.
         12    1    3    3    0    0  0.27389865721E+01  0.15742723990E+02  0.82830671417E+01  0.17998461249E+02  0.00000000000E+00 0. -1.
</event>
<event>
 7    1  0.2412036E-009  0.4778727E+02  0.7816164E-02  0.1312668E+00
        -11   -1    0    0    0    0  0.00000000000E+00  0.00000000000E+00  0.45593999997E+02  0.45594000000E+02  0.51100000000E-03 0. -1.
         11   -1    0    0    0    0 -0.00000000000E+00 -0.00000000000E+00 -0.45593999997E+02  0.45594000000E+02  0.51100000000E-03 0.  1.
    9900012    2    1    2    0    0  0.16219031613E+01  0.10321736285E+02 -0.42124273670E+02  0.47787271411E+02  0.20000001672E+02 0.  0.
         12    1    1    2    0    0 -0.16219031613E+01 -0.10321736285E+02  0.42124273670E+02  0.43400728589E+02  0.00000000000E+00 0. -1.
         11    1    3    3    0    0  0.43418920108E+01  0.32373508924E+01 -0.25585550470E+01  0.59898807353E+01  0.51100000000E-03 0. -1.
        -11    1    3    3    0    0 -0.67301649111E+01  0.26184442345E+01 -0.25540013901E+02  0.26541357921E+02  0.51100000000E-03 0.  1.
        -12    1    3    3    0    0  0.40101760616E+01  0.44659411581E+01 -0.14025704722E+02  0.15256032755E+02  0.00000000000E+00 0.  1.
</event>
<event>
 7    1  0.2412036E-009  0.4778727E+02  0.7816164E-02  0.1312668E+00
        -11   -1    0    0    0    0  0.00000000000E+00  0.00000000000E+00  0.45593999997E+02  0.45594000000E+02  0.51100000000E-03 0.  1.
         11   -1    0    0    0    0 -0.00000000000E+00 -0.00000000000E+00 -0.45593999997E+02  0.45594000000E+02  0.51100000000E-03 0. -1.
    9900012    2    1    2    0    0 -0.28307353114E+02  0.29617319097E+02 -0.14322418383E+02  0.47787268449E+02  0.19999988168E+02 0.  0.
         12    1    1    2    0    0  0.28307353114E+02 -0.29617319097E+02  0.14322418383E+02  0.43400731551E+02  0.00000000000E+00 0. -1.
         11    1    3    3    0    0 -0.12037790403E+02  0.86706782458E+01 -0.14548989476E+02  0.20778887219E+02  0.51100000000E-03 0. -1.
        -11    1    3    3    0    0 -0.83909125796E+01  0.68092147218E+01  0.55639694560E+00  0.10820461953E+02  0.51100000000E-03 0.  1.
         12    1    3    3    0    0 -0.78786501310E+01  0.14137426129E+02 -0.32982585279E+00  0.16187919277E+02  0.00000000000E+00 0. -1.
</event>
<event>
 7    1  0.2412036E-009  0.4778727E+02  0.7816164E-02  0.1312668E+00
        -11   -1    0    0    0    0  0.00000000000E+00  0.00000000000E+00  0.45593999997E+02  0.45594000000E+02  0.51100000000E-03 0.  1.
         11   -1    0    0    0    0 -0.00000000000E+00 -0.00000000000E+00 -0.45593999997E+02  0.45594000000E+02  0.51100000000E-03 0. -1.
    9900012    2    1    2    0    0 -0.13248507343E+02 -0.26779828341E+02  0.31479213113E+02  0.47787274073E+02  0.20000013807E+02 0.  0.
         12    1    1    2    0    0  0.13248507343E+02  0.26779828341E+02 -0.31479213113E+02  0.43400725927E+02  0.00000000000E+00 0. -1.
         11    1    3    3    0    0  0.28124542440E+01 -0.31615791216E+00  0.12165924835E+01  0.30805766071E+01  0.51100000000E-03 0. -1.
        -11    1    3    3    0    0 -0.13224871101E+02 -0.12578966845E+02  0.20769081061E+02  0.27649273967E+02  0.51100000000E-03 0.  1.
        -12    1    3    3    0    0 -0.28360904860E+01 -0.13884703584E+02  0.94935395687E+01  0.17057423499E+02  0.00000000000E+00 0.  1.
</event>
<event>
 7    1  0.2412036E-009  0.4778726E+02  0.7816164E-02  0.1312668E+00
        -11   -1    0    0    0    0  0.00000000000E+00  0.00000000000E+00  0.45593999997E+02  0.45594000000E+02  0.51100000000E-03 0.  1.
         11   -1    0    0    0    0 -0.00000000000E+00 -0.00000000000E+00 -0.45593999997E+02  0.45594000000E+02  0.51100000000E-03 0. -1.
    9900012    2    1    2    0    0 -0.25220851016E+02  0.16848898836E+01  0.35280219324E+02  0.47787262040E+02  0.19999958946E+02 0.  0.
         12    1    1    2    0    0  0.25220851016E+02 -0.16848898836E+01 -0.35280219324E+02  0.43400737960E+02  0.00000000000E+00 0. -1.
         11    1    3    3    0    0 -0.61019727245E+01 -0.67871431555E+01  0.64708487000E+01  0.11187996537E+02  0.51100000000E-03 0. -1.
        -11    1    3    3    0    0 -0.15121797765E+02  0.43042801714E+01  0.25460574044E+02  0.29923843777E+02  0.51100000000E-03 0.  1.
         12    1    3    3    0    0 -0.39970805263E+01  0.41677528677E+01  0.33487965799E+01  0.66754217271E+01  0.00000000000E+00 0. -1.
</event>
<event>
 7    1  0.2412036E-009  0.4778726E+02  0.7816164E-02  0.1312668E+00
        -11   -1    0    0    0    0  0.00000000000E+00  0.00000000000E+00  0.45593999997E+02  0.45594000000E+02  0.51100000000E-03 0.  1.
         11   -1    0    0    0    0 -0.00000000000E+00 -0.00000000000E+00 -0.45593999997E+02  0.45594000000E+02  0.51100000000E-03 0. -1.
    9900012    2    1    2    0    0  0.28382138974E+02  0.82990334897E+01  0.31767977850E+02  0.47787260533E+02  0.19999952074E+02 0.  0.
         12    1    1    2    0    0 -0.28382138974E+02 -0.82990334897E+01 -0.31767977850E+02  0.43400739467E+02  0.00000000000E+00 0. -1.
         11    1    3    3    0    0  0.16153535241E+02  0.13246770480E+02  0.23102821299E+02  0.31147294925E+02  0.51100000000E-03 0.  1.
        -11    1    3    3    0    0  0.11521259214E+02 -0.33739405361E+01  0.58900717038E+01  0.13372203766E+02  0.51100000000E-03 0. -1.
        -12    1    3    3    0    0  0.70734451889E+00 -0.15737964538E+01  0.27750848479E+01  0.32677618425E+01  0.00000000000E+00 0.  1.
</event>
<event>
 7    1  0.2412036E-009  0.4778727E+02  0.7816164E-02  0.1312668E+00
        -11   -1    0    0    0    0  0.00000000000E+00  0.00000000000E+00  0.45593999997E+02  0.45594000000E+02  0.51100000000E-03 0. -1.
         11   -1    0    0    0    0 -0.00000000000E+00 -0.00000000000E+00 -0.45593999997E+02  0.45594000000E+02  0.51100000000E-03 0.  1.
    9900012    2    1    2    0    0  0.22871786075E+02  0.35557259717E+02 -0.98074570840E+01  0.47787268079E+02  0.19999986478E+02 0.  0.
         12    1    1    2    0    0 -0.22871786075E+02 -0.35557259717E+02  0.98074570840E+01  0.43400731921E+02  0.00000000000E+00 0. -1.
         11    1    3    3    0    0  0.87411964126E+00  0.29259665887E+01 -0.99016025009E+00  0.32102621712E+01  0.51100000000E-03 0. -1.
        -11    1    3    3    0    0  0.15163851359E+01  0.31882004700E+01 -0.79519654085E+01  0.87004482779E+01  0.51100000000E-03 0.  1.
        -12    1    3    3    0    0  0.20481281298E+02  0.29443092658E+02 -0.86533142540E+00  0.35876557630E+02  0.00000000000E+00 0.  1.
</event>
<event>
 7    1  0.2412036E-009  0.4778727E+02  0.7816164E-02  0.1312668E+00
        -11   -1    0    0    0    0  0.00000000000E+00  0.00000000000E+00  0.45593999997E+02  0.45594000000E+02  0.51100000000E-03 0.  1.
         11   -1    0    0    0    0 -0.00000000000E+00 -0.00000000000E+00 -0.45593999997E+02  0.45594000000E+02  0.51100000000E-03 0. -1.
    9900012    2    1    2    0    0  0.14654451899E+02  0.54026320803E+01 -0.40492988378E+02  0.47787268421E+02  0.19999988038E+02 0.  0.
         12    1    1    2    0    0 -0.14654451899E+02 -0.54026320803E+01  0.40492988378E+02  0.43400731579E+02  0.00000000000E+00 0. -1.
         11    1    3    3    0    0  0.38940084382E+01  0.55867473288E+01 -0.20798702379E+01  0.71204570008E+01  0.51100000000E-03 0. -1.
        -11    1    3    3    0    0  0.80890058324E+01  0.71745307580E+00 -0.14762133448E+02  0.16848363080E+02  0.51100000000E-03 0.  1.
         12    1    3    3    0    0  0.26714376279E+01 -0.90156832431E+00 -0.23650984691E+02  0.23818448340E+02  0.00000000000E+00 0. -1.
</event>
<event>
 7    1  0.2412036E-009  0.4778727E+02  0.7816164E-02  0.1312668E+00
        -11   -1    0    0    0    0  0.00000000000E+00  0.00000000000E+00  0.45593999997E+02  0.45594000000E+02  0.51100000000E-03 0. -1.
         11   -1    0    0    0    0 -0.00000000000E+00 -0.00000000000E+00 -0.45593999997E+02  0.45594000000E+02  0.51100000000E-03 0.  1.
    9900012    2    1    2    0    0 -0.22256967133E+02  0.22358943021E+02 -0.29804840125E+02  0.47787269432E+02  0.19999992647E+02 0.  0.
         12    1    1    2    0    0  0.22256967133E+02 -0.22358943021E+02  0.29804840125E+02  0.43400730568E+02  0.00000000000E+00 0. -1.
         11    1    3    3    0    0 -0.52173534679E+01  0.37701157741E+01 -0.86778865503E+01  0.10804640920E+02  0.51100000000E-03 0. -1.
        -11    1    3    3    0    0  0.34100249680E+01  0.17807433337E+01 -0.33024147120E+01  0.50700355318E+01  0.51100000000E-03 0.  1.
        -12    1    3    3    0    0 -0.20449638633E+02  0.16808083913E+02 -0.17824538863E+02  0.31912592980E+02  0.00000000000E+00 0.  1.
</event>
<event>
 7    1  0.2412036E-009  0.4778727E+02  0.7816164E-02  0.1312668E+00
        -11   -1    0    0    0    0  0.00000000000E+00  0.00000000000E+00  0.45593999997E+02  0.45594000000E+02  0.51100000000E-03 0. -1.
         11   -1    0    0    0    0 -0.00000000000E+00 -0.00000000000E+00 -0.45593999997E+02  0.45594000000E+02  0.51100000000E-03 0.  1.
    9900012    2    1    2    0    0 -0.38812496313E+02  0.72539929794E+01 -0.18016471285E+02  0.47787268188E+02  0.19999986978E+02 0.  0.
         12    1    1    2    0    0  0.38812496313E+02 -0.72539929794E+01  0.18016471285E+02  0.43400731812E+02  0.00000000000E+00 0. -1.
         11    1    3    3    0    0 -0.18549203808E+02 -0.13300267628E+00 -0.13231576719E+01  0.18596811504E+02  0.51100000000E-03 0. -1.
        -11    1    3    3    0    0 -0.14219101232E+02  0.67415065824E+01 -0.16921329049E+02  0.23107620559E+02  0.51100000000E-03 0.  1.
        -12    1    3    3    0    0 -0.60441912735E+01  0.64548907332E+00  0.22801543597E+00  0.60828361258E+01  0.00000000000E+00 0.  1.
</event>
<event>
 7    1  0.2412036E-009  0.4778727E+02  0.7816164E-02  0.1312668E+00
        -11   -1    0    0    0    0  0.00000000000E+00  0.00000000000E+00  0.45593999997E+02  0.45594000000E+02  0.51100000000E-03 0.  1.
         11   -1    0    0    0    0 -0.00000000000E+00 -0.00000000000E+00 -0.45593999997E+02  0.45594000000E+02  0.51100000000E-03 0. -1.
    9900012    2    1    2    0    0  0.65666106382E+01  0.34747890549E+02  0.25161219144E+02  0.47787271645E+02  0.20000002739E+02 0.  0.
         12    1    1    2    0    0 -0.65666106382E+01 -0.34747890549E+02 -0.25161219144E+02  0.43400728355E+02  0.00000000000E+00 0. -1.
         11    1    3    3    0    0  0.95211143265E+00  0.16698469983E+01  0.74904122464E+01  0.77331223358E+01  0.51100000000E-03 0. -1.
        -11    1    3    3    0    0  0.97929049399E+00  0.26228176755E+02  0.82380887596E+01  0.27508950770E+02  0.51100000000E-03 0.  1.
         12    1    3    3    0    0  0.46352087116E+01  0.68498667957E+01  0.94327181383E+01  0.12545198539E+02  0.00000000000E+00 0. -1.
</event>
<event>
 7    1  0.2412036E-009  0.4778727E+02  0.7816164E-02  0.1312668E+00
        -11   -1    0    0    0    0  0.00000000000E+00  0.00000000000E+00  0.45593999997E+02  0.45594000000E+02  0.51100000000E-03 0.  1.
         11   -1    0    0    0    0 -0.00000000000E+00 -0.00000000000E+00 -0.45593999997E+02  0.45594000000E+02  0.51100000000E-03 0. -1.
    9900012    2    1    2    0    0 -0.32270967410E+02 -0.29014788339E+02 -0.59164700323E+00  0.47787270443E+02  0.19999997259E+02 0.  0.
         12    1    1    2    0    0  0.32270967410E+02  0.29014788339E+02  0.59164700323E+00  0.43400729557E+02  0.00000000000E+00 0. -1.
         11    1    3    3    0    0  0.26478276967E+00  0.23166773141E-01 -0.31965166058E+00  0.41572113216E+00  0.51100000000E-03 0. -1.
        -11    1    3    3    0    0 -0.17989094100E+02 -0.22735101503E+02  0.71603229440E+01  0.29862393940E+02  0.51100000000E-03 0.  1.
        -12    1    3    3    0    0 -0.14546656079E+02 -0.63028536087E+01 -0.74323182867E+01  0.17509155371E+02  0.00000000000E+00 0.  1.
</event>
<event>
 7    1  0.2412036E-009  0.4778727E+02  0.7816164E-02  0.1312668E+00
        -11   -1    0    0    0    0  0.00000000000E+00  0.00000000000E+00  0.45593999997E+02  0.45594000000E+02  0.51100000000E-03 0.  1.
         11   -1    0    0    0    0 -0.00000000000E+00 -0.00000000000E+00 -0.45593999997E+02  0.45594000000E+02  0.51100000000E-03 0. -1.
    9900012    2    1    2    0    0  0.36515920243E+02 -0.57528294934E+01  0.22740181788E+02  0.47787270213E+02  0.19999996207E+02 0.  0.
         12    1    1    2    0    0 -0.36515920243E+02  0.57528294934E+01 -0.22740181788E+02  0.43400729787E+02  0.00000000000E+00 0. -1.
         11    1    3    3    0    0 -0.48574880406E+00  0.13247758819E+01 -0.19974469528E-01  0.14111634485E+01  0.51100000000E-03 0. -1.
        -11    1    3    3    0    0  0.25591112392E+02 -0.38332805782E+01  0.72951766261E+01  0.26885287347E+02  0.51100000000E-03 0.  1.
        -12    1    3    3    0    0  0.11410556654E+02 -0.32443247971E+01  0.15464979631E+02  0.19490819417E+02  0.00000000000E+00 0.  1.
</event>
<event>
 7    1  0.2412036E-009  0.4778727E+02  0.7816164E-02  0.1312668E+00
        -11   -1    0    0    0    0  0.00000000000E+00  0.00000000000E+00  0.45593999997E+02  0.45594000000E+02  0.51100000000E-03 0.  1.
         11   -1    0    0    0    0 -0.00000000000E+00 -0.00000000000E+00 -0.45593999997E+02  0.45594000000E+02  0.51100000000E-03 0. -1.
    9900012    2    1    2    0    0  0.23604272561E+02  0.15103357940E+02  0.33141367737E+02  0.47787270056E+02  0.19999995494E+02 0.  0.
         12    1    1    2    0    0 -0.23604272561E+02 -0.15103357940E+02 -0.33141367737E+02  0.43400729944E+02  0.00000000000E+00 0. -1.
         11    1    3    3    0    0  0.42118380452E+01 -0.15797685672E+01  0.16579612750E+01  0.47941719093E+01  0.51100000000E-03 0. -1.
        -11    1    3    3    0    0  0.85813135866E+01  0.16331622121E+02  0.19241907831E+02  0.26657303712E+02  0.51100000000E-03 0.  1.
        -12    1    3    3    0    0  0.10811120929E+02  0.35150438592E+00  0.12241498631E+02  0.16335794434E+02  0.00000000000E+00 0.  1.
</event>
<event>
 7    1  0.2412036E-009  0.4778726E+02  0.7816164E-02  0.1312668E+00
        -11   -1    0    0    0    0  0.00000000000E+00  0.00000000000E+00  0.45593999997E+02  0.45594000000E+02  0.51100000000E-03 0.  1.
         11   -1    0    0    0    0 -0.00000000000E+00 -0.00000000000E+00 -0.45593999997E+02  0.45594000000E+02  0.51100000000E-03 0. -1.
    9900012    2    1    2    0    0 -0.36661009185E+02  0.11912819868E+02  0.19941897107E+02  0.47787261160E+02  0.19999954932E+02 0.  0.
         12    1    1    2    0    0  0.36661009185E+02 -0.11912819868E+02 -0.19941897107E+02  0.43400738840E+02  0.00000000000E+00 0. -1.
         11    1    3    3    0    0 -0.23344239696E+02  0.16205855683E+02  0.10036132715E+02  0.30138136066E+02  0.51100000000E-03 0. -1.
        -11    1    3    3    0    0 -0.73069324500E+01 -0.45090194521E+01  0.60974902774E+01  0.10530997398E+02  0.51100000000E-03 0.  1.
         12    1    3    3    0    0 -0.60098370389E+01  0.21598363741E+00  0.38082741146E+01  0.71181276961E+01  0.00000000000E+00 0. -1.
</event>
<event>
 7    1  0.2412036E-009  0.4778727E+02  0.7816164E-02  0.1312668E+00
        -11   -1    0    0    0    0  0.00000000000E+00  0.00000000000E+00  0.45593999997E+02  0.45594000000E+02  0.51100000000E-03 0.  1.
         11   -1    0    0    0    0 -0.00000000000E+00 -0.00000000000E+00 -0.45593999997E+02  0.45594000000E+02  0.51100000000E-03 0. -1.
    9900012    2    1    2    0    0  0.13075560546E+01  0.41033512117E+02 -0.14077089096E+02  0.47787271240E+02  0.20000000893E+02 0.  0.
         12    1    1    2    0    0 -0.13075560546E+01 -0.41033512117E+02  0.14077089096E+02  0.43400728760E+02  0.00000000000E+00 0. -1.
         11    1    3    3    0    0  0.41163103557E+01  0.45027559691E+01 -0.77302143350E+01  0.98475903747E+01  0.51100000000E-03 0. -1.
        -11    1    3    3    0    0 -0.44163734429E+01  0.11441579730E+02 -0.20484458795E+01  0.12434236281E+02  0.51100000000E-03 0.  1.
         12    1    3    3    0    0  0.16076191418E+01  0.25089176417E+02 -0.42984288817E+01  0.25505444584E+02  0.00000000000E+00 0. -1.
</event>
<event>
 7    1  0.2412036E-009  0.4778727E+02  0.7816164E-02  0.1312668E+00
        -11   -1    0    0    0    0  0.00000000000E+00  0.00000000000E+00  0.45593999997E+02  0.45594000000E+02  0.51100000000E-03 0.  1.
         11   -1    0    0    0    0 -0.00000000000E+00 -0.00000000000E+00 -0.45593999997E+02  0.45594000000E+02  0.51100000000E-03 0. -1.
    9900012    2    1    2    0    0 -0.33489763472E+02 -0.27195676971E+02  0.47385799411E+01  0.47787271398E+02  0.20000001611E+02 0.  0.
         12    1    1    2    0    0  0.33489763472E+02  0.27195676971E+02 -0.47385799411E+01  0.43400728602E+02  0.00000000000E+00 0. -1.
         11    1    3    3    0    0 -0.26081992779E+01 -0.11349181604E+02  0.23996243320E+01  0.11889694014E+02  0.51100000000E-03 0. -1.
        -11    1    3    3    0    0 -0.14465287208E+01 -0.89050009664E+00 -0.19696160781E+01  0.26009274343E+01  0.51100000000E-03 0.  1.
         12    1    3    3    0    0 -0.29435035474E+02 -0.14955995270E+02  0.43085716873E+01  0.33296649950E+02  0.00000000000E+00 0. -1.
</event>
<event>
 7    1  0.2412036E-009  0.4778727E+02  0.7816164E-02  0.1312668E+00
        -11   -1    0    0    0    0  0.00000000000E+00  0.00000000000E+00  0.45593999997E+02  0.45594000000E+02  0.51100000000E-03 0.  1.
         11   -1    0    0    0    0 -0.00000000000E+00 -0.00000000000E+00 -0.45593999997E+02  0.45594000000E+02  0.51100000000E-03 0. -1.
    9900012    2    1    2    0    0 -0.30866282295E+02 -0.16148870081E+02  0.25886476742E+02  0.47787273443E+02  0.20000010935E+02 0.  0.
         12    1    1    2    0    0  0.30866282295E+02  0.16148870081E+02 -0.25886476742E+02  0.43400726557E+02  0.00000000000E+00 0. -1.
         11    1    3    3    0    0 -0.10150634042E+02 -0.20140519021E+01 -0.14359066531E+01  0.10447660250E+02  0.51100000000E-03 0. -1.
        -11    1    3    3    0    0 -0.18986415438E+02 -0.11240662494E+02  0.24121854351E+02  0.32690982275E+02  0.51100000000E-03 0.  1.
         12    1    3    3    0    0 -0.17292328152E+01 -0.28941556849E+01  0.32005290433E+01  0.46486309183E+01  0.00000000000E+00 0. -1.
</event>
<event>
 7    1  0.2412036E-009  0.4778726E+02  0.7816164E-02  0.1312668E+00
        -11   -1    0    0    0    0  0.00000000000E+00  0.00000000000E+00  0.45593999997E+02  0.45594000000E+02  0.51100000000E-03 0.  1.
         11   -1    0    0    0    0 -0.00000000000E+00 -0.00000000000E+00 -0.45593999997E+02  0.45594000000E+02  0.51100000000E-03 0. -1.
    9900012    2    1    2    0    0 -0.29671154909E+02 -0.89218090035E+01  0.30391584136E+02  0.47787256966E+02  0.19999935812E+02 0.  0.
         12    1    1    2    0    0  0.29671154909E+02  0.89218090035E+01 -0.30391584136E+02  0.43400743034E+02  0.00000000000E+00 0. -1.
         11    1    3    3    0    0 -0.94406669887E+01  0.37464260753E+01  0.84007941377E+01  0.13180866585E+02  0.51100000000E-03 0. -1.
        -11    1    3    3    0    0 -0.10962290542E+02 -0.13102952873E+02  0.16866370878E+02  0.24006950134E+02  0.51100000000E-03 0.  1.
        -12    1    3    3    0    0 -0.92681973790E+01  0.43471779420E+00  0.51244191209E+01  0.10599440247E+02  0.00000000000E+00 0.  1.
</event>
<event>
 7    1  0.2412036E-009  0.4778727E+02  0.7816164E-02  0.1312668E+00
        -11   -1    0    0    0    0  0.00000000000E+00  0.00000000000E+00  0.45593999997E+02  0.45594000000E+02  0.51100000000E-03 0. -1.
         11   -1    0    0    0    0 -0.00000000000E+00 -0.00000000000E+00 -0.45593999997E+02  0.45594000000E+02  0.51100000000E-03 0.  1.
    9900012    2    1    2    0    0 -0.39332023617E+02  0.14800790284E+02 -0.10842129437E+02  0.47787271370E+02  0.20000001486E+02 0.  0.
         12    1    1    2    0    0  0.39332023617E+02 -0.14800790284E+02  0.10842129437E+02  0.43400728630E+02  0.00000000000E+00 0. -1.
         11    1    3    3    0    0 -0.20708402493E+01 -0.14848004731E+01  0.29842893619E+01  0.39241553282E+01  0.51100000000E-03 0. -1.
        -11    1    3    3    0    0 -0.26971994472E+02  0.12817774834E+02 -0.14050290593E+02  0.33002946891E+02  0.51100000000E-03 0.  1.
         12    1    3    3    0    0 -0.10289188896E+02  0.34678159237E+01  0.22387179397E+00  0.10860169152E+02  0.00000000000E+00 0. -1.
</event>
<event>
 7    1  0.2412036E-009  0.4778727E+02  0.7816164E-02  0.1312668E+00
        -11   -1    0    0    0    0  0.00000000000E+00  0.00000000000E+00  0.45593999997E+02  0.45594000000E+02  0.51100000000E-03 0. -1.
         11   -1    0    0    0    0 -0.00000000000E+00 -0.00000000000E+00 -0.45593999997E+02  0.45594000000E+02  0.51100000000E-03 0.  1.
    9900012    2    1    2    0    0 -0.14668680705E+02  0.36298928077E+02 -0.18730747959E+02  0.47787270833E+02  0.19999999034E+02 0.  0.
         12    1    1    2    0    0  0.14668680705E+02 -0.36298928077E+02  0.18730747959E+02  0.43400729167E+02  0.00000000000E+00 0. -1.
         11    1    3    3    0    0  0.25943136583E+01  0.25448893554E+01 -0.65048821463E+01  0.74512023988E+01  0.51100000000E-03 0. -1.
        -11    1    3    3    0    0 -0.10943032373E+02  0.26947707000E+02 -0.10266118639E+02  0.30843509241E+02  0.51100000000E-03 0.  1.
         12    1    3    3    0    0 -0.63199619900E+01  0.68063317212E+01 -0.19597471735E+01  0.94925591933E+01  0.00000000000E+00 0. -1.
</event>
<event>
 7    1  0.2412036E-009  0.4778727E+02  0.7816164E-02  0.1312668E+00
        -11   -1    0    0    0    0  0.00000000000E+00  0.00000000000E+00  0.45593999997E+02  0.45594000000E+02  0.51100000000E-03 0.  1.
         11   -1    0    0    0    0 -0.00000000000E+00 -0.00000000000E+00 -0.45593999997E+02  0.45594000000E+02  0.51100000000E-03 0. -1.
    9900012    2    1    2    0    0 -0.39180337622E+02  0.17633113636E+02 -0.61317218958E+01  0.47787267678E+02  0.19999984653E+02 0.  0.
         12    1    1    2    0    0  0.39180337622E+02 -0.17633113636E+02  0.61317218958E+01  0.43400732322E+02  0.00000000000E+00 0. -1.
         11    1    3    3    0    0  0.12222926856E+01  0.33096725095E+01 -0.22573907910E+01  0.41885253938E+01  0.51100000000E-03 0. -1.
        -11    1    3    3    0    0 -0.23497615438E+02  0.10790576463E+02 -0.48217818064E+01  0.26302548389E+02  0.51100000000E-03 0.  1.
         12    1    3    3    0    0 -0.16905014869E+02  0.35328646634E+01  0.94745070167E+00  0.17296193896E+02  0.00000000000E+00 0. -1.
</event>
<event>
 7    1  0.2412036E-009  0.4778727E+02  0.7816164E-02  0.1312668E+00
        -11   -1    0    0    0    0  0.00000000000E+00  0.00000000000E+00  0.45593999997E+02  0.45594000000E+02  0.51100000000E-03 0.  1.
         11   -1    0    0    0    0 -0.00000000000E+00 -0.00000000000E+00 -0.45593999997E+02  0.45594000000E+02  0.51100000000E-03 0. -1.
    9900012    2    1    2    0    0 -0.86770252105E+00  0.25647221142E+02  0.35001287897E+02  0.47787274033E+02  0.20000013625E+02 0.  0.
         12    1    1    2    0    0  0.86770252105E+00 -0.25647221142E+02 -0.35001287897E+02  0.43400725967E+02  0.00000000000E+00 0. -1.
         11    1    3    3    0    0  0.53847534179E+01  0.52094498136E+01  0.66325535852E+01  0.10006233260E+02  0.51100000000E-03 0. -1.
        -11    1    3    3    0    0 -0.58279284330E+01  0.20637171519E+02  0.29549408823E+02  0.36510617088E+02  0.51100000000E-03 0.  1.
        -12    1    3    3    0    0 -0.42452750600E+00 -0.19940019033E+00 -0.11806745103E+01  0.12704236847E+01  0.00000000000E+00 0.  1.
</event>
<event>
 7    1  0.2412036E-009  0.4778727E+02  0.7816164E-02  0.1312668E+00
        -11   -1    0    0    0    0  0.00000000000E+00  0.00000000000E+00  0.45593999997E+02  0.45594000000E+02  0.51100000000E-03 0.  1.
         11   -1    0    0    0    0 -0.00000000000E+00 -0.00000000000E+00 -0.45593999997E+02  0.45594000000E+02  0.51100000000E-03 0. -1.
    9900012    2    1    2    0    0  0.28246148943E+02  0.14835792873E+02  0.29422404290E+02  0.47787267812E+02  0.19999985262E+02 0.  0.
         12    1    1    2    0    0 -0.28246148943E+02 -0.14835792873E+02 -0.29422404290E+02  0.43400732188E+02  0.00000000000E+00 0. -1.
         11    1    3    3    0    0  0.41317368149E+01  0.15273163985E+01  0.12816107922E+02  0.13551994946E+02  0.51100000000E-03 0. -1.
        -11    1    3    3    0    0  0.17764769540E+02  0.64718086259E+01  0.54199129905E+01  0.19668421410E+02  0.51100000000E-03 0.  1.
        -12    1    3    3    0    0  0.63496425880E+01  0.68366678487E+01  0.11186383378E+02  0.14566851456E+02  0.00000000000E+00 0.  1.
</event>
<event>
 7    1  0.2412036E-009  0.4778725E+02  0.7816164E-02  0.1312668E+00
        -11   -1    0    0    0    0  0.00000000000E+00  0.00000000000E+00  0.45593999997E+02  0.45594000000E+02  0.51100000000E-03 0. -1.
         11   -1    0    0    0    0 -0.00000000000E+00 -0.00000000000E+00 -0.45593999997E+02  0.45594000000E+02  0.51100000000E-03 0.  1.
    9900012    2    1    2    0    0 -0.22759448531E+02 -0.17601845406E+02 -0.32493192972E+02  0.47787250598E+02  0.19999906777E+02 0.  0.
         12    1    1    2    0    0  0.22759448531E+02  0.17601845406E+02  0.32493192972E+02  0.43400749402E+02  0.00000000000E+00 0. -1.
         11    1    3    3    0    0 -0.60089074243E+01 -0.45875137816E+01  0.12623877456E+01  0.76645857169E+01  0.51100000000E-03 0. -1.
        -11    1    3    3    0    0 -0.14537511122E+02 -0.11349289738E+02 -0.25918158047E+02  0.31810321030E+02  0.51100000000E-03 0.  1.
        -12    1    3    3    0    0 -0.22130299844E+01 -0.16650418868E+01 -0.78374226703E+01  0.83123438518E+01  0.00000000000E+00 0.  1.
</event>
<event>
 7    1  0.2412036E-009  0.4778728E+02  0.7816164E-02  0.1312668E+00
        -11   -1    0    0    0    0  0.00000000000E+00  0.00000000000E+00  0.45593999997E+02  0.45594000000E+02  0.51100000000E-03 0. -1.
         11   -1    0    0    0    0 -0.00000000000E+00 -0.00000000000E+00 -0.45593999997E+02  0.45594000000E+02  0.51100000000E-03 0.  1.
    9900012    2    1    2    0    0 -0.30899749360E+02  0.18401238844E+02  0.24294500305E+02  0.47787275967E+02  0.20000022446E+02 0.  0.
         12    1    1    2    0    0  0.30899749360E+02 -0.18401238844E+02 -0.24294500305E+02  0.43400724033E+02  0.00000000000E+00 0. -1.
         11    1    3    3    0    0 -0.24054303976E+02  0.82077935700E+01  0.17426237947E+02  0.30816410958E+02  0.51100000000E-03 0. -1.
        -11    1    3    3    0    0 -0.84663611725E+01  0.10845052718E+02  0.58656100899E+01  0.14956597940E+02  0.51100000000E-03 0.  1.
         12    1    3    3    0    0  0.16209157889E+01 -0.65160744426E+00  0.10026522677E+01  0.20142670692E+01  0.00000000000E+00 0. -1.
</event>
<event>
 7    1  0.2412036E-009  0.4778727E+02  0.7816164E-02  0.1312668E+00
        -11   -1    0    0    0    0  0.00000000000E+00  0.00000000000E+00  0.45593999997E+02  0.45594000000E+02  0.51100000000E-03 0.  1.
         11   -1    0    0    0    0 -0.00000000000E+00 -0.00000000000E+00 -0.45593999997E+02  0.45594000000E+02  0.51100000000E-03 0. -1.
    9900012    2    1    2    0    0  0.37300157742E+02 -0.11162124665E+02  0.19176249019E+02  0.47787270501E+02  0.19999997521E+02 0.  0.
         12    1    1    2    0    0 -0.37300157742E+02  0.11162124665E+02 -0.19176249019E+02  0.43400729499E+02  0.00000000000E+00 0. -1.
         11    1    3    3    0    0  0.82792273906E+01 -0.85398059242E+01  0.29548011718E+00  0.11897949410E+02  0.51100000000E-03 0. -1.
        -11    1    3    3    0    0  0.25397048126E+02 -0.60976459954E+00  0.19029859744E+02  0.31741415037E+02  0.51100000000E-03 0.  1.
        -12    1    3    3    0    0  0.36238822253E+01 -0.20125541411E+01 -0.14909084206E+00  0.41479060540E+01  0.00000000000E+00 0.  1.
</event>
<event>
 7    1  0.2412036E-009  0.4778727E+02  0.7816164E-02  0.1312668E+00
        -11   -1    0    0    0    0  0.00000000000E+00  0.00000000000E+00  0.45593999997E+02  0.45594000000E+02  0.51100000000E-03 0. -1.
         11   -1    0    0    0    0 -0.00000000000E+00 -0.00000000000E+00 -0.45593999997E+02  0.45594000000E+02  0.51100000000E-03 0.  1.
    9900012    2    1    2    0    0  0.35005642364E+02 -0.25198964593E+02 -0.48208284988E+01  0.47787271880E+02  0.20000003812E+02 0.  0.
         12    1    1    2    0    0 -0.35005642364E+02  0.25198964593E+02  0.48208284988E+01  0.43400728120E+02  0.00000000000E+00 0. -1.
         11    1    3    3    0    0  0.10590468827E+02 -0.19167064955E+00  0.26885452149E+01  0.10928085068E+02  0.51100000000E-03 0. -1.
        -11    1    3    3    0    0  0.13232351111E+02 -0.16590186138E+02 -0.84261785749E+01  0.22832649379E+02  0.51100000000E-03 0.  1.
        -12    1    3    3    0    0  0.11182822426E+02 -0.84171078053E+01  0.91680486118E+00  0.14026537434E+02  0.00000000000E+00 0.  1.
</event>
<event>
 7    1  0.2412036E-009  0.4778727E+02  0.7816164E-02  0.1312668E+00
        -11   -1    0    0    0    0  0.00000000000E+00  0.00000000000E+00  0.45593999997E+02  0.45594000000E+02  0.51100000000E-03 0.  1.
         11   -1    0    0    0    0 -0.00000000000E+00 -0.00000000000E+00 -0.45593999997E+02  0.45594000000E+02  0.51100000000E-03 0. -1.
    9900012    2    1    2    0    0  0.74846373883E+01 -0.31103277593E+02  0.29328989063E+02  0.47787271051E+02  0.20000000030E+02 0.  0.
         12    1    1    2    0    0 -0.74846373883E+01  0.31103277593E+02 -0.29328989063E+02  0.43400728949E+02  0.00000000000E+00 0. -1.
         11    1    3    3    0    0  0.12028490562E+00 -0.21688403675E+02  0.11198077870E+02  0.24408979304E+02  0.51100000000E-03 0. -1.
        -11    1    3    3    0    0  0.11173658211E+01 -0.62074894348E+01  0.36567941352E+01  0.72906498386E+01  0.51100000000E-03 0.  1.
         12    1    3    3    0    0  0.62469866616E+01 -0.32073844838E+01  0.14474117058E+02  0.16087641909E+02  0.00000000000E+00 0. -1.
</event>
<event>
 7    1  0.2412036E-009  0.4778727E+02  0.7816164E-02  0.1312668E+00
        -11   -1    0    0    0    0  0.00000000000E+00  0.00000000000E+00  0.45593999997E+02  0.45594000000E+02  0.51100000000E-03 0. -1.
         11   -1    0    0    0    0 -0.00000000000E+00 -0.00000000000E+00 -0.45593999997E+02  0.45594000000E+02  0.51100000000E-03 0.  1.
    9900012    2    1    2    0    0  0.35115562280E+02 -0.80575366193E+00 -0.25492577578E+02  0.47787268845E+02  0.19999989972E+02 0.  0.
         12    1    1    2    0    0 -0.35115562280E+02  0.80575366193E+00  0.25492577578E+02  0.43400731155E+02  0.00000000000E+00 0. -1.
         11    1    3    3    0    0  0.18772651407E+01  0.15063380313E+01 -0.16377405954E+00  0.24124677981E+01  0.51100000000E-03 0. -1.
        -11    1    3    3    0    0  0.10946499945E+02 -0.89263772039E+01 -0.69829762864E+01  0.15756523383E+02  0.51100000000E-03 0.  1.
        -12    1    3    3    0    0  0.22291797195E+02  0.66142855107E+01 -0.18345827232E+02  0.29618277664E+02  0.00000000000E+00 0.  1.
</event>
<event>
 7    1  0.2412036E-009  0.4778728E+02  0.7816164E-02  0.1312668E+00
        -11   -1    0    0    0    0  0.00000000000E+00  0.00000000000E+00  0.45593999997E+02  0.45594000000E+02  0.51100000000E-03 0. -1.
         11   -1    0    0    0    0 -0.00000000000E+00 -0.00000000000E+00 -0.45593999997E+02  0.45594000000E+02  0.51100000000E-03 0.  1.
    9900012    2    1    2    0    0  0.22263771940E+02 -0.29556474284E+02 -0.22679554121E+02  0.47787275488E+02  0.20000020259E+02 0.  0.
         12    1    1    2    0    0 -0.22263771940E+02  0.29556474284E+02  0.22679554121E+02  0.43400724512E+02  0.00000000000E+00 0. -1.
         11    1    3    3    0    0  0.88581007693E+00 -0.12262295016E+02 -0.86996880581E+01  0.15060979753E+02  0.51100000000E-03 0. -1.
        -11    1    3    3    0    0  0.91827830930E+01 -0.15202436776E+01 -0.21863881001E+01  0.95611160101E+01  0.51100000000E-03 0.  1.
        -12    1    3    3    0    0  0.12195178770E+02 -0.15773935591E+02 -0.11793477963E+02  0.23165179725E+02  0.00000000000E+00 0.  1.
</event>
<event>
 7    1  0.2412036E-009  0.4778725E+02  0.7816164E-02  0.1312668E+00
        -11   -1    0    0    0    0  0.00000000000E+00  0.00000000000E+00  0.45593999997E+02  0.45594000000E+02  0.51100000000E-03 0.  1.
         11   -1    0    0    0    0 -0.00000000000E+00 -0.00000000000E+00 -0.45593999997E+02  0.45594000000E+02  0.51100000000E-03 0. -1.
    9900012    2    1    2    0    0 -0.20805490405E+02 -0.35048465872E+02  0.14911787967E+02  0.47787253332E+02  0.19999919241E+02 0.  0.
         12    1    1    2    0    0  0.20805490405E+02  0.35048465872E+02 -0.14911787967E+02  0.43400746668E+02  0.00000000000E+00 0. -1.
         11    1    3    3    0    0 -0.13027177074E+01 -0.79434412577E+01 -0.44332688198E+01  0.91896248634E+01  0.51100000000E-03 0. -1.
        -11    1    3    3    0    0 -0.12507476077E+02 -0.17433253056E+02  0.12820934362E+02  0.24994631986E+02  0.51100000000E-03 0.  1.
         12    1    3    3    0    0 -0.69952966206E+01 -0.96717715585E+01  0.65241224253E+01  0.13602996483E+02  0.00000000000E+00 0. -1.
</event>
<event>
 7    1  0.2412036E-009  0.4778727E+02  0.7816164E-02  0.1312668E+00
        -11   -1    0    0    0    0  0.00000000000E+00  0.00000000000E+00  0.45593999997E+02  0.45594000000E+02  0.51100000000E-03 0.  1.
         11   -1    0    0    0    0 -0.00000000000E+00 -0.00000000000E+00 -0.45593999997E+02  0.45594000000E+02  0.51100000000E-03 0. -1.
    9900012    2    1    2    0    0  0.41326900312E+02 -0.10663790254E+02  0.78736702371E+01  0.47787265041E+02  0.19999972628E+02 0.  0.
         12    1    1    2    0    0 -0.41326900312E+02  0.10663790254E+02 -0.78736702371E+01  0.43400734959E+02  0.00000000000E+00 0. -1.
         11    1    3    3    0    0  0.23810874068E+02 -0.12445200324E+02  0.44944806693E+01  0.27240431196E+02  0.51100000000E-03 0. -1.
        -11    1    3    3    0    0  0.18735308380E+02  0.95521096538E+00  0.34413707570E+01  0.19072683111E+02  0.51100000000E-03 0.  1.
         12    1    3    3    0    0 -0.12192821357E+01  0.82619910537E+00 -0.62181189240E-01  0.14741507347E+01  0.00000000000E+00 0. -1.
</event>
<event>
 7    1  0.2412036E-009  0.4778727E+02  0.7816164E-02  0.1312668E+00
        -11   -1    0    0    0    0  0.00000000000E+00  0.00000000000E+00  0.45593999997E+02  0.45594000000E+02  0.51100000000E-03 0. -1.
         11   -1    0    0    0    0 -0.00000000000E+00 -0.00000000000E+00 -0.45593999997E+02  0.45594000000E+02  0.51100000000E-03 0.  1.
    9900012    2    1    2    0    0  0.39286996227E+02  0.17083927474E+02  0.69494220143E+01  0.47787272854E+02  0.20000008249E+02 0.  0.
         12    1    1    2    0    0 -0.39286996227E+02 -0.17083927474E+02 -0.69494220143E+01  0.43400727146E+02  0.00000000000E+00 0. -1.
         11    1    3    3    0    0  0.48507437377E+01  0.13613993015E+01  0.74158299909E+01  0.89653587536E+01  0.51100000000E-03 0. -1.
        -11    1    3    3    0    0  0.22358453115E+02  0.59551105308E+01  0.13825934375E+01  0.23179200418E+02  0.51100000000E-03 0.  1.
         12    1    3    3    0    0  0.12077799375E+02  0.97674176414E+01 -0.18490014140E+01  0.15642713682E+02  0.00000000000E+00 0. -1.
</event>
<event>
 7    1  0.2412036E-009  0.4778727E+02  0.7816164E-02  0.1312668E+00
        -11   -1    0    0    0    0  0.00000000000E+00  0.00000000000E+00  0.45593999997E+02  0.45594000000E+02  0.51100000000E-03 0.  1.
         11   -1    0    0    0    0 -0.00000000000E+00 -0.00000000000E+00 -0.45593999997E+02  0.45594000000E+02  0.51100000000E-03 0. -1.
    9900012    2    1    2    0    0  0.24240156589E+02  0.49428666960E+01  0.35659590219E+02  0.47787268471E+02  0.19999988267E+02 0.  0.
         12    1    1    2    0    0 -0.24240156589E+02 -0.49428666960E+01 -0.35659590219E+02  0.43400731529E+02  0.00000000000E+00 0. -1.
         11    1    3    3    0    0 -0.73464430077E+00 -0.37750443094E+01  0.82187885425E+00  0.39327022388E+01  0.51100000000E-03 0. -1.
        -11    1    3    3    0    0  0.10707952035E+02  0.29641411718E+01  0.16883167237E+02  0.20211078791E+02  0.51100000000E-03 0.  1.
         12    1    3    3    0    0  0.14266848855E+02  0.57537698336E+01  0.17954544128E+02  0.23643487441E+02  0.00000000000E+00 0. -1.
</event>
<event>
 7    1  0.2412036E-009  0.4778727E+02  0.7816164E-02  0.1312668E+00
        -11   -1    0    0    0    0  0.00000000000E+00  0.00000000000E+00  0.45593999997E+02  0.45594000000E+02  0.51100000000E-03 0.  1.
         11   -1    0    0    0    0 -0.00000000000E+00 -0.00000000000E+00 -0.45593999997E+02  0.45594000000E+02  0.51100000000E-03 0. -1.
    9900012    2    1    2    0    0 -0.72069163393E+01 -0.23737763739E+02  0.35611825716E+02  0.47787271881E+02  0.20000003815E+02 0.  0.
         12    1    1    2    0    0  0.72069163393E+01  0.23737763739E+02 -0.35611825716E+02  0.43400728119E+02  0.00000000000E+00 0. -1.
         11    1    3    3    0    0 -0.49620967893E+01 -0.21825932922E+02  0.24627212390E+02  0.33279022564E+02  0.51100000000E-03 0. -1.
        -11    1    3    3    0    0 -0.46196167526E+01 -0.10944515686E+01  0.19522694112E+01  0.51332289343E+01  0.51100000000E-03 0.  1.
         12    1    3    3    0    0  0.23747972027E+01 -0.81737924847E+00  0.90323439149E+01  0.93750203832E+01  0.00000000000E+00 0. -1.
</event>
<event>
 7    1  0.2412036E-009  0.4778727E+02  0.7816164E-02  0.1312668E+00
        -11   -1    0    0    0    0  0.00000000000E+00  0.00000000000E+00  0.45593999997E+02  0.45594000000E+02  0.51100000000E-03 0. -1.
         11   -1    0    0    0    0 -0.00000000000E+00 -0.00000000000E+00 -0.45593999997E+02  0.45594000000E+02  0.51100000000E-03 0.  1.
    9900012    2    1    2    0    0 -0.25911696047E+02  0.29348703854E+02 -0.18731290916E+02  0.47787266489E+02  0.19999979229E+02 0.  0.
         12    1    1    2    0    0  0.25911696047E+02 -0.29348703854E+02  0.18731290916E+02  0.43400733511E+02  0.00000000000E+00 0. -1.
         11    1    3    3    0    0 -0.17147313066E+02  0.16257320604E+02 -0.11671841513E+02  0.26354557541E+02  0.51100000000E-03 0. -1.
        -11    1    3    3    0    0 -0.11781642298E+02  0.83343434571E+01 -0.63068186616E+01  0.15749423418E+02  0.51100000000E-03 0.  1.
         12    1    3    3    0    0  0.30172593177E+01  0.47570397929E+01 -0.75263074185E+00  0.56832855299E+01  0.00000000000E+00 0. -1.
</event>
<event>
 7    1  0.2412036E-009  0.4778727E+02  0.7816164E-02  0.1312668E+00
        -11   -1    0    0    0    0  0.00000000000E+00  0.00000000000E+00  0.45593999997E+02  0.45594000000E+02  0.51100000000E-03 0.  1.
         11   -1    0    0    0    0 -0.00000000000E+00 -0.00000000000E+00 -0.45593999997E+02  0.45594000000E+02  0.51100000000E-03 0. -1.
    9900012    2    1    2    0    0 -0.20821683316E+02  0.37538255347E+02 -0.64000195004E+01  0.47787270049E+02  0.19999995462E+02 0.  0.
         12    1    1    2    0    0  0.20821683316E+02 -0.37538255347E+02  0.64000195004E+01  0.43400729951E+02  0.00000000000E+00 0. -1.
         11    1    3    3    0    0 -0.57489515633E+01  0.42782770199E+01 -0.36087795107E+01  0.80235520908E+01  0.51100000000E-03 0. -1.
        -11    1    3    3    0    0  0.14578940811E+01  0.40003316656E+01 -0.43949153949E+01  0.61191004385E+01  0.51100000000E-03 0.  1.
        -12    1    3    3    0    0 -0.16530625834E+02  0.29259646662E+02  0.16036754053E+01  0.33644617520E+02  0.00000000000E+00 0.  1.
</event>
<event>
 7    1  0.2412036E-009  0.4778727E+02  0.7816164E-02  0.1312668E+00
        -11   -1    0    0    0    0  0.00000000000E+00  0.00000000000E+00  0.45593999997E+02  0.45594000000E+02  0.51100000000E-03 0. -1.
         11   -1    0    0    0    0 -0.00000000000E+00 -0.00000000000E+00 -0.45593999997E+02  0.45594000000E+02  0.51100000000E-03 0.  1.
    9900012    2    1    2    0    0 -0.20489983396E+02  0.37242282616E+02 -0.87633728980E+01  0.47787265691E+02  0.19999975592E+02 0.  0.
         12    1    1    2    0    0  0.20489983396E+02 -0.37242282616E+02  0.87633728980E+01  0.43400734309E+02  0.00000000000E+00 0. -1.
         11    1    3    3    0    0 -0.16415613388E+02  0.20521864791E+02  0.30370313904E+01  0.26454543227E+02  0.51100000000E-03 0. -1.
        -11    1    3    3    0    0 -0.14230716414E+01  0.13610778976E+02 -0.91407293473E+01  0.16456955080E+02  0.51100000000E-03 0.  1.
        -12    1    3    3    0    0 -0.26512983661E+01  0.31096388490E+01 -0.26596749411E+01  0.48757673847E+01  0.00000000000E+00 0.  1.
</event>
<event>
 7    1  0.2412036E-009  0.4778728E+02  0.7816164E-02  0.1312668E+00
        -11   -1    0    0    0    0  0.00000000000E+00  0.00000000000E+00  0.45593999997E+02  0.45594000000E+02  0.51100000000E-03 0.  1.
         11   -1    0    0    0    0 -0.00000000000E+00 -0.00000000000E+00 -0.45593999997E+02  0.45594000000E+02  0.51100000000E-03 0. -1.
    9900012    2    1    2    0    0  0.35680837044E+02  0.15412317949E+02  0.19312199298E+02  0.47787277443E+02  0.20000029175E+02 0.  0.
         12    1    1    2    0    0 -0.35680837044E+02 -0.15412317949E+02 -0.19312199298E+02  0.43400722557E+02  0.00000000000E+00 0. -1.
         11    1    3    3    0    0  0.12456938092E+02 -0.20206864211E+01  0.11378450172E+02  0.16991986606E+02  0.51100000000E-03 0. -1.
        -11    1    3    3    0    0  0.71185910882E+01  0.87341245878E+01  0.46945694824E+01  0.12206484108E+02  0.51100000000E-03 0.  1.
         12    1    3    3    0    0  0.16105307864E+02  0.86988797822E+01  0.32391796435E+01  0.18588806730E+02  0.00000000000E+00 0. -1.
</event>
<event>
 7    1  0.2412036E-009  0.4778727E+02  0.7816164E-02  0.1312668E+00
        -11   -1    0    0    0    0  0.00000000000E+00  0.00000000000E+00  0.45593999997E+02  0.45594000000E+02  0.51100000000E-03 0.  1.
         11   -1    0    0    0    0 -0.00000000000E+00 -0.00000000000E+00 -0.45593999997E+02  0.45594000000E+02  0.51100000000E-03 0. -1.
    9900012    2    1    2    0    0  0.36243223930E+02  0.15879436670E+02  0.17829630776E+02  0.47787268170E+02  0.19999986895E+02 0.  0.
         12    1    1    2    0    0 -0.36243223930E+02 -0.15879436670E+02 -0.17829630776E+02  0.43400731830E+02  0.00000000000E+00 0. -1.
         11    1    3    3    0    0  0.42278562100E+01 -0.38621691091E+01  0.13236945228E+01  0.58773536401E+01  0.51100000000E-03 0. -1.
        -11    1    3    3    0    0  0.26863322252E+01  0.49686231767E+01  0.18019040764E+01  0.59287819709E+01  0.51100000000E-03 0.  1.
         12    1    3    3    0    0  0.29329035494E+02  0.14772982602E+02  0.14704032176E+02  0.35981132559E+02  0.00000000000E+00 0. -1.
</event>
<event>
 7    1  0.2412036E-009  0.4778727E+02  0.7816164E-02  0.1312668E+00
        -11   -1    0    0    0    0  0.00000000000E+00  0.00000000000E+00  0.45593999997E+02  0.45594000000E+02  0.51100000000E-03 0.  1.
         11   -1    0    0    0    0 -0.00000000000E+00 -0.00000000000E+00 -0.45593999997E+02  0.45594000000E+02  0.51100000000E-03 0. -1.
    9900012    2    1    2    0    0 -0.29485474875E+01  0.28966469174E+02  0.32184985314E+02  0.47787267882E+02  0.19999985581E+02 0.  0.
         12    1    1    2    0    0  0.29485474875E+01 -0.28966469174E+02 -0.32184985314E+02  0.43400732118E+02  0.00000000000E+00 0. -1.
         11    1    3    3    0    0 -0.96111087905E+00  0.19676501729E+02  0.99527887700E+01  0.22071394586E+02  0.51100000000E-03 0. -1.
        -11    1    3    3    0    0 -0.29835580035E+01  0.36217293936E+01  0.17920822374E+02  0.18524967395E+02  0.51100000000E-03 0.  1.
        -12    1    3    3    0    0  0.99612139510E+00  0.56682380517E+01  0.43113741704E+01  0.71909059014E+01  0.00000000000E+00 0.  1.
</event>
<event>
 7    1  0.2412036E-009  0.4778727E+02  0.7816164E-02  0.1312668E+00
        -11   -1    0    0    0    0  0.00000000000E+00  0.00000000000E+00  0.45593999997E+02  0.45594000000E+02  0.51100000000E-03 0. -1.
         11   -1    0    0    0    0 -0.00000000000E+00 -0.00000000000E+00 -0.45593999997E+02  0.45594000000E+02  0.51100000000E-03 0.  1.
    9900012    2    1    2    0    0 -0.17462605875E+02 -0.27706475935E+02 -0.28478622685E+02  0.47787270021E+02  0.19999995333E+02 0.  0.
         12    1    1    2    0    0  0.17462605875E+02  0.27706475935E+02  0.28478622685E+02  0.43400729979E+02  0.00000000000E+00 0. -1.
         11    1    3    3    0    0 -0.34006245083E+01 -0.20555976004E+01 -0.93046786764E+01  0.10117646667E+02  0.51100000000E-03 0. -1.
        -11    1    3    3    0    0 -0.82348905393E+01 -0.21195379185E+02 -0.76158952283E+01  0.23980395772E+02  0.51100000000E-03 0.  1.
        -12    1    3    3    0    0 -0.58270908271E+01 -0.44554991496E+01 -0.11558048781E+02  0.13689227582E+02  0.00000000000E+00 0.  1.
</event>
<event>
 7    1  0.2412036E-009  0.4778726E+02  0.7816164E-02  0.1312668E+00
        -11   -1    0    0    0    0  0.00000000000E+00  0.00000000000E+00  0.45593999997E+02  0.45594000000E+02  0.51100000000E-03 0.  1.
         11   -1    0    0    0    0 -0.00000000000E+00 -0.00000000000E+00 -0.45593999997E+02  0.45594000000E+02  0.51100000000E-03 0. -1.
    9900012    2    1    2    0    0  0.17114865930E+02 -0.32533623536E+01  0.39750736188E+02  0.47787262335E+02  0.19999960288E+02 0.  0.
         12    1    1    2    0    0 -0.17114865930E+02  0.32533623536E+01 -0.39750736188E+02  0.43400737665E+02  0.00000000000E+00 0. -1.
         11    1    3    3    0    0  0.15258492021E+01 -0.20783207440E+01 -0.79254252516E+00  0.26973610841E+01  0.51100000000E-03 0. -1.
        -11    1    3    3    0    0  0.95182320745E+01  0.13891982024E+01  0.35531590293E+02  0.36810603397E+02  0.51100000000E-03 0.  1.
         12    1    3    3    0    0  0.60707846530E+01 -0.25642398120E+01  0.50116884206E+01  0.82792978532E+01  0.00000000000E+00 0. -1.
</event>
<event>
 7    1  0.2412036E-009  0.4778727E+02  0.7816164E-02  0.1312668E+00
        -11   -1    0    0    0    0  0.00000000000E+00  0.00000000000E+00  0.45593999997E+02  0.45594000000E+02  0.51100000000E-03 0.  1.
         11   -1    0    0    0    0 -0.00000000000E+00 -0.00000000000E+00 -0.45593999997E+02  0.45594000000E+02  0.51100000000E-03 0. -1.
    9900012    2    1    2    0    0  0.37244678882E+02 -0.22093532217E+02 -0.28866426334E+01  0.47787274470E+02  0.20000015619E+02 0.  0.
         12    1    1    2    0    0 -0.37244678882E+02  0.22093532217E+02  0.28866426334E+01  0.43400725530E+02  0.00000000000E+00 0. -1.
         11    1    3    3    0    0  0.24968225928E+01 -0.14386385505E+01  0.24865624020E+01  0.38061524902E+01  0.51100000000E-03 0. -1.
        -11    1    3    3    0    0 -0.15814397864E+01 -0.61474742591E+00 -0.15792602347E+01  0.23179580120E+01  0.51100000000E-03 0.  1.
        -12    1    3    3    0    0  0.36329296075E+02 -0.20040146240E+02 -0.37939448007E+01  0.41663163968E+02  0.00000000000E+00 0.  1.
</event>
<event>
 7    1  0.2412036E-009  0.4778727E+02  0.7816164E-02  0.1312668E+00
        -11   -1    0    0    0    0  0.00000000000E+00  0.00000000000E+00  0.45593999997E+02  0.45594000000E+02  0.51100000000E-03 0.  1.
         11   -1    0    0    0    0 -0.00000000000E+00 -0.00000000000E+00 -0.45593999997E+02  0.45594000000E+02  0.51100000000E-03 0. -1.
    9900012    2    1    2    0    0 -0.34672948590E+02  0.24377676324E+02  0.93348110737E+01  0.47787272302E+02  0.20000005735E+02 0.  0.
         12    1    1    2    0    0  0.34672948590E+02 -0.24377676324E+02 -0.93348110737E+01  0.43400727698E+02  0.00000000000E+00 0. -1.
         11    1    3    3    0    0 -0.81966615311E+01  0.36438793405E+01  0.49478488706E+01  0.10244233774E+02  0.51100000000E-03 0. -1.
        -11    1    3    3    0    0 -0.11631939774E+02  0.29728701266E+00 -0.11245279243E+01  0.11689951488E+02  0.51100000000E-03 0.  1.
        -12    1    3    3    0    0 -0.14844347285E+02  0.20436509971E+02  0.55114901274E+01  0.25853087041E+02  0.00000000000E+00 0.  1.
</event>
<event>
 7    1  0.2412036E-009  0.4778728E+02  0.7816164E-02  0.1312668E+00
        -11   -1    0    0    0    0  0.00000000000E+00  0.00000000000E+00  0.45593999997E+02  0.45594000000E+02  0.51100000000E-03 0.  1.
         11   -1    0    0    0    0 -0.00000000000E+00 -0.00000000000E+00 -0.45593999997E+02  0.45594000000E+02  0.51100000000E-03 0. -1.
    9900012    2    1    2    0    0 -0.33275655708E+02  0.11045081097E+02  0.25580453570E+02  0.47787277839E+02  0.20000030980E+02 0.  0.
         12    1    1    2    0    0  0.33275655708E+02 -0.11045081097E+02 -0.25580453570E+02  0.43400722161E+02  0.00000000000E+00 0. -1.
         11    1    3    3    0    0 -0.34777366464E+01  0.50882679976E+01 -0.11512368344E+01  0.62698062097E+01  0.51100000000E-03 0. -1.
        -11    1    3    3    0    0 -0.74157096840E+01  0.56059678850E+01  0.92598042738E+01  0.13121112815E+02  0.51100000000E-03 0.  1.
         12    1    3    3    0    0 -0.22382209378E+02  0.35084521418E+00  0.17471886130E+02  0.28396358815E+02  0.00000000000E+00 0. -1.
</event>
<event>
 7    1  0.2412036E-009  0.4778724E+02  0.7816164E-02  0.1312668E+00
        -11   -1    0    0    0    0  0.00000000000E+00  0.00000000000E+00  0.45593999997E+02  0.45594000000E+02  0.51100000000E-03 0.  1.
         11   -1    0    0    0    0 -0.00000000000E+00 -0.00000000000E+00 -0.45593999997E+02  0.45594000000E+02  0.51100000000E-03 0. -1.
    9900012    2    1    2    0    0 -0.11662455214E+02  0.33613388554E+02 -0.24854636476E+02  0.47787243025E+02  0.19999872246E+02 0.  0.
         12    1    1    2    0    0  0.11662455214E+02 -0.33613388554E+02  0.24854636476E+02  0.43400756975E+02  0.00000000000E+00 0. -1.
         11    1    3    3    0    0  0.42085267138E+01  0.12268173682E+02 -0.92768891154E+01  0.15946173664E+02  0.51100000000E-03 0. -1.
        -11    1    3    3    0    0 -0.11373680073E+02  0.18965924023E+02 -0.99373230403E+01  0.24244943017E+02  0.51100000000E-03 0.  1.
         12    1    3    3    0    0 -0.44973018551E+01  0.23792908488E+01 -0.56404243201E+01  0.75961263437E+01  0.00000000000E+00 0. -1.
</event>
<event>
 7    1  0.2412036E-009  0.4778727E+02  0.7816164E-02  0.1312668E+00
        -11   -1    0    0    0    0  0.00000000000E+00  0.00000000000E+00  0.45593999997E+02  0.45594000000E+02  0.51100000000E-03 0.  1.
         11   -1    0    0    0    0 -0.00000000000E+00 -0.00000000000E+00 -0.45593999997E+02  0.45594000000E+02  0.51100000000E-03 0. -1.
    9900012    2    1    2    0    0 -0.21676499107E+02 -0.10351499374E+02  0.36146913179E+02  0.47787268610E+02  0.19999988899E+02 0.  0.
         12    1    1    2    0    0  0.21676499107E+02  0.10351499374E+02 -0.36146913179E+02  0.43400731390E+02  0.00000000000E+00 0. -1.
         11    1    3    3    0    0 -0.36618204542E+01  0.65662727723E-01  0.20687309017E+01  0.42062915303E+01  0.51100000000E-03 0. -1.
        -11    1    3    3    0    0 -0.21359563509E+02 -0.72627356677E+01  0.28687941749E+02  0.36496250283E+02  0.51100000000E-03 0.  1.
        -12    1    3    3    0    0  0.33448848559E+01 -0.31544264336E+01  0.53902405284E+01  0.70847267964E+01  0.00000000000E+00 0.  1.
</event>
<event>
 7    1  0.2412036E-009  0.4778727E+02  0.7816164E-02  0.1312668E+00
        -11   -1    0    0    0    0  0.00000000000E+00  0.00000000000E+00  0.45593999997E+02  0.45594000000E+02  0.51100000000E-03 0.  1.
         11   -1    0    0    0    0 -0.00000000000E+00 -0.00000000000E+00 -0.45593999997E+02  0.45594000000E+02  0.51100000000E-03 0. -1.
    9900012    2    1    2    0    0  0.39218301925E+00  0.26553339952E+02  0.34327681519E+02  0.47787269723E+02  0.19999993976E+02 0.  0.
         12    1    1    2    0    0 -0.39218301925E+00 -0.26553339952E+02 -0.34327681519E+02  0.43400730277E+02  0.00000000000E+00 0. -1.
         11    1    3    3    0    0  0.29932185341E+01  0.39494019741E-01  0.11610555979E+02  0.11990243007E+02  0.51100000000E-03 0. -1.
        -11    1    3    3    0    0 -0.40124872510E+01  0.12071167820E+02  0.13782699584E+02  0.18755691258E+02  0.51100000000E-03 0.  1.
         12    1    3    3    0    0  0.14114517362E+01  0.14442678111E+02  0.89344259565E+01  0.17041335458E+02  0.00000000000E+00 0. -1.
</event>
<event>
 7    1  0.2412036E-009  0.4778727E+02  0.7816164E-02  0.1312668E+00
        -11   -1    0    0    0    0  0.00000000000E+00  0.00000000000E+00  0.45593999997E+02  0.45594000000E+02  0.51100000000E-03 0.  1.
         11   -1    0    0    0    0 -0.00000000000E+00 -0.00000000000E+00 -0.45593999997E+02  0.45594000000E+02  0.51100000000E-03 0. -1.
    9900012    2    1    2    0    0  0.23710174610E+02 -0.18032623405E+02  0.31563836256E+02  0.47787266756E+02  0.19999980447E+02 0.  0.
         12    1    1    2    0    0 -0.23710174610E+02  0.18032623405E+02 -0.31563836256E+02  0.43400733244E+02  0.00000000000E+00 0. -1.
         11    1    3    3    0    0  0.79937623578E+00  0.18755045131E+00  0.94461529430E+01  0.94817711016E+01  0.51100000000E-03 0. -1.
        -11    1    3    3    0    0  0.18015265269E+02 -0.12866264954E+02  0.10249312582E+02  0.24395470179E+02  0.51100000000E-03 0.  1.
         12    1    3    3    0    0  0.48955331053E+01 -0.53539089028E+01  0.11868370731E+02  0.13910025476E+02  0.00000000000E+00 0. -1.
</event>
<event>
 7    1  0.2412036E-009  0.4778727E+02  0.7816164E-02  0.1312668E+00
        -11   -1    0    0    0    0  0.00000000000E+00  0.00000000000E+00  0.45593999997E+02  0.45594000000E+02  0.51100000000E-03 0. -1.
         11   -1    0    0    0    0 -0.00000000000E+00 -0.00000000000E+00 -0.45593999997E+02  0.45594000000E+02  0.51100000000E-03 0.  1.
    9900012    2    1    2    0    0  0.28681871157E+02  0.31319717841E+02 -0.89469990338E+01  0.47787271315E+02  0.20000001232E+02 0.  0.
         12    1    1    2    0    0 -0.28681871157E+02 -0.31319717841E+02  0.89469990338E+01  0.43400728685E+02  0.00000000000E+00 0. -1.
         11    1    3    3    0    0  0.15657950462E+02  0.12344951229E+02  0.20729079956E+01  0.20046600244E+02  0.51100000000E-03 0.  1.
        -11    1    3    3    0    0  0.34920527966E+01  0.14478083450E+02 -0.58412956991E+01  0.15997814502E+02  0.51100000000E-03 0. -1.
        -12    1    3    3    0    0  0.95318678983E+01  0.44966831613E+01 -0.51786113303E+01  0.11742856569E+02  0.00000000000E+00 0.  1.
</event>
<event>
 7    1  0.2412036E-009  0.4778727E+02  0.7816164E-02  0.1312668E+00
        -11   -1    0    0    0    0  0.00000000000E+00  0.00000000000E+00  0.45593999997E+02  0.45594000000E+02  0.51100000000E-03 0.  1.
         11   -1    0    0    0    0 -0.00000000000E+00 -0.00000000000E+00 -0.45593999997E+02  0.45594000000E+02  0.51100000000E-03 0. -1.
    9900012    2    1    2    0    0 -0.29603034528E+02 -0.16152234253E+02  0.27320117104E+02  0.47787272780E+02  0.20000007914E+02 0.  0.
         12    1    1    2    0    0  0.29603034528E+02  0.16152234253E+02 -0.27320117104E+02  0.43400727220E+02  0.00000000000E+00 0. -1.
         11    1    3    3    0    0 -0.49375965032E+01  0.58853473998E+00 -0.18734646020E+01  0.53137653547E+01  0.51100000000E-03 0. -1.
        -11    1    3    3    0    0 -0.22257368827E+02 -0.17441118117E+02  0.26003509654E+02  0.38415694486E+02  0.51100000000E-03 0.  1.
         12    1    3    3    0    0 -0.24080691982E+01  0.70034912346E+00  0.31900720515E+01  0.40578129394E+01  0.00000000000E+00 0. -1.
</event>
<event>
 7    1  0.2412036E-009  0.4778727E+02  0.7816164E-02  0.1312668E+00
        -11   -1    0    0    0    0  0.00000000000E+00  0.00000000000E+00  0.45593999997E+02  0.45594000000E+02  0.51100000000E-03 0.  1.
         11   -1    0    0    0    0 -0.00000000000E+00 -0.00000000000E+00 -0.45593999997E+02  0.45594000000E+02  0.51100000000E-03 0. -1.
    9900012    2    1    2    0    0 -0.17970564584E+02 -0.25480797223E+02  0.30189584548E+02  0.47787271507E+02  0.20000002107E+02 0.  0.
         12    1    1    2    0    0  0.17970564584E+02  0.25480797223E+02 -0.30189584548E+02  0.43400728493E+02  0.00000000000E+00 0. -1.
         11    1    3    3    0    0 -0.43984824224E+01 -0.67821691030E+00  0.57661381140E+01  0.72838845961E+01  0.51100000000E-03 0. -1.
        -11    1    3    3    0    0 -0.56335288423E+01 -0.43130293168E+01 -0.69631303683E+00  0.71290757614E+01  0.51100000000E-03 0.  1.
        -12    1    3    3    0    0 -0.79385533189E+01 -0.20489550996E+02  0.25119759471E+02  0.33374311149E+02  0.00000000000E+00 0.  1.
</event>
<event>
 7    1  0.2412036E-009  0.4778727E+02  0.7816164E-02  0.1312668E+00
        -11   -1    0    0    0    0  0.00000000000E+00  0.00000000000E+00  0.45593999997E+02  0.45594000000E+02  0.51100000000E-03 0. -1.
         11   -1    0    0    0    0 -0.00000000000E+00 -0.00000000000E+00 -0.45593999997E+02  0.45594000000E+02  0.51100000000E-03 0.  1.
    9900012    2    1    2    0    0 -0.23683549201E+02 -0.25386168663E+01 -0.36280411898E+02  0.47787269985E+02  0.19999995168E+02 0.  0.
         12    1    1    2    0    0  0.23683549201E+02  0.25386168663E+01  0.36280411898E+02  0.43400730015E+02  0.00000000000E+00 0. -1.
         11    1    3    3    0    0  0.16048757131E+01  0.11358640339E+01 -0.10882656598E+02  0.11058843884E+02  0.51100000000E-03 0. -1.
        -11    1    3    3    0    0 -0.16795066175E+02 -0.45199730123E+01 -0.13170016504E+02  0.21816364015E+02  0.51100000000E-03 0.  1.
        -12    1    3    3    0    0 -0.84933587395E+01  0.84549211213E+00 -0.12227738796E+02  0.14912062086E+02  0.00000000000E+00 0.  1.
</event>
<event>
 7    1  0.2412036E-009  0.4778727E+02  0.7816164E-02  0.1312668E+00
        -11   -1    0    0    0    0  0.00000000000E+00  0.00000000000E+00  0.45593999997E+02  0.45594000000E+02  0.51100000000E-03 0.  1.
         11   -1    0    0    0    0 -0.00000000000E+00 -0.00000000000E+00 -0.45593999997E+02  0.45594000000E+02  0.51100000000E-03 0. -1.
    9900012    2    1    2    0    0  0.94270969547E+01  0.12761017915E+02  0.40396903538E+02  0.47787267856E+02  0.19999985461E+02 0.  0.
         12    1    1    2    0    0 -0.94270969547E+01 -0.12761017915E+02 -0.40396903538E+02  0.43400732144E+02  0.00000000000E+00 0. -1.
         11    1    3    3    0    0  0.67275143844E+00  0.10339292578E+02  0.18491158052E+02  0.21196143325E+02  0.51100000000E-03 0. -1.
        -11    1    3    3    0    0  0.69173244274E+00 -0.21200571499E+01 -0.55559151454E+00  0.22982206777E+01  0.51100000000E-03 0.  1.
        -12    1    3    3    0    0  0.80626130735E+01  0.45417824867E+01  0.22461337001E+02  0.24292903853E+02  0.00000000000E+00 0.  1.
</event>
<event>
 7    1  0.2412036E-009  0.4778727E+02  0.7816164E-02  0.1312668E+00
        -11   -1    0    0    0    0  0.00000000000E+00  0.00000000000E+00  0.45593999997E+02  0.45594000000E+02  0.51100000000E-03 0.  1.
         11   -1    0    0    0    0 -0.00000000000E+00 -0.00000000000E+00 -0.45593999997E+02  0.45594000000E+02  0.51100000000E-03 0. -1.
    9900012    2    1    2    0    0 -0.15924535264E+01  0.19363277629E+02  0.38809161423E+02  0.47787269141E+02  0.19999991320E+02 0.  0.
         12    1    1    2    0    0  0.15924535264E+01 -0.19363277629E+02 -0.38809161423E+02  0.43400730859E+02  0.00000000000E+00 0. -1.
         11    1    3    3    0    0  0.13767185743E+00  0.19739696143E+00  0.18660954593E+02  0.18662506415E+02  0.51100000000E-03 0. -1.
        -11    1    3    3    0    0  0.21346747903E+01  0.12251581964E+02  0.15738609661E+02  0.20058961374E+02  0.51100000000E-03 0.  1.
         12    1    3    3    0    0 -0.38648001742E+01  0.69142987038E+01  0.44095971683E+01  0.90658013511E+01  0.00000000000E+00 0. -1.
</event>
<event>
 7    1  0.2412036E-009  0.4778731E+02  0.7816164E-02  0.1312668E+00
        -11   -1    0    0    0    0  0.00000000000E+00  0.00000000000E+00  0.45593999997E+02  0.45594000000E+02  0.51100000000E-03 0.  1.
         11   -1    0    0    0    0 -0.00000000000E+00 -0.00000000000E+00 -0.45593999997E+02  0.45594000000E+02  0.51100000000E-03 0. -1.
    9900012    2    1    2    0    0 -0.15492306642E+02 -0.70049877204E+01  0.39931668156E+02  0.47787314064E+02  0.20000196140E+02 0.  0.
         12    1    1    2    0    0  0.15492306642E+02  0.70049877204E+01 -0.39931668156E+02  0.43400685936E+02  0.00000000000E+00 0. -1.
         11    1    3    3    0    0 -0.26065775839E+01  0.63666007558E+01  0.14736521823E+02  0.16263238534E+02  0.51100000000E-03 0. -1.
        -11    1    3    3    0    0 -0.11716353243E+01 -0.22711911302E+01  0.54763934023E+01  0.60433371113E+01  0.51100000000E-03 0.  1.
         12    1    3    3    0    0 -0.11714093734E+02 -0.11100397346E+02  0.19718752930E+02  0.25480738419E+02  0.00000000000E+00 0. -1.
</event>
<event>
 7    1  0.2412036E-009  0.4778726E+02  0.7816164E-02  0.1312668E+00
        -11   -1    0    0    0    0  0.00000000000E+00  0.00000000000E+00  0.45593999997E+02  0.45594000000E+02  0.51100000000E-03 0. -1.
         11   -1    0    0    0    0 -0.00000000000E+00 -0.00000000000E+00 -0.45593999997E+02  0.45594000000E+02  0.51100000000E-03 0.  1.
    9900012    2    1    2    0    0 -0.41617080425E+02  0.11995889236E+02  0.27822807287E+01  0.47787264664E+02  0.19999970910E+02 0.  0.
         12    1    1    2    0    0  0.41617080425E+02 -0.11995889236E+02 -0.27822807287E+01  0.43400735336E+02  0.00000000000E+00 0. -1.
         11    1    3    3    0    0 -0.21868109882E+02  0.76532754109E+01  0.90026761592E+01  0.24856287587E+02  0.51100000000E-03 0. -1.
        -11    1    3    3    0    0 -0.31102405159E+00 -0.10201205767E+01 -0.20925667404E+01  0.23486629763E+01  0.51100000000E-03 0.  1.
         12    1    3    3    0    0 -0.19437946491E+02  0.53627344016E+01 -0.41278286901E+01  0.20582314101E+02  0.00000000000E+00 0. -1.
</event>
<event>
 7    1  0.2412036E-009  0.4778727E+02  0.7816164E-02  0.1312668E+00
        -11   -1    0    0    0    0  0.00000000000E+00  0.00000000000E+00  0.45593999997E+02  0.45594000000E+02  0.51100000000E-03 0.  1.
         11   -1    0    0    0    0 -0.00000000000E+00 -0.00000000000E+00 -0.45593999997E+02  0.45594000000E+02  0.51100000000E-03 0. -1.
    9900012    2    1    2    0    0 -0.90915460414E+01  0.36300229319E+02  0.21983180059E+02  0.47787273468E+02  0.20000011050E+02 0.  0.
         12    1    1    2    0    0  0.90915460414E+01 -0.36300229319E+02 -0.21983180059E+02  0.43400726532E+02  0.00000000000E+00 0. -1.
         11    1    3    3    0    0 -0.78412818738E+01  0.66372468721E+01  0.29779049257E+01  0.10696105154E+02  0.51100000000E-03 0. -1.
        -11    1    3    3    0    0  0.28528016814E+01  0.23455039877E+02  0.17732354857E+02  0.29541729504E+02  0.51100000000E-03 0.  1.
        -12    1    3    3    0    0 -0.41030658490E+01  0.62079425692E+01  0.12729202766E+01  0.75494388092E+01  0.00000000000E+00 0.  1.
</event>
<event>
 7    1  0.2412036E-009  0.4778728E+02  0.7816164E-02  0.1312668E+00
        -11   -1    0    0    0    0  0.00000000000E+00  0.00000000000E+00  0.45593999997E+02  0.45594000000E+02  0.51100000000E-03 0.  1.
         11   -1    0    0    0    0 -0.00000000000E+00 -0.00000000000E+00 -0.45593999997E+02  0.45594000000E+02  0.51100000000E-03 0. -1.
    9900012    2    1    2    0    0 -0.36309474204E+02 -0.12261144256E+02 -0.20369320913E+02  0.47787276390E+02  0.20000024372E+02 0.  0.
         12    1    1    2    0    0  0.36309474204E+02  0.12261144256E+02  0.20369320913E+02  0.43400723610E+02  0.00000000000E+00 0. -1.
         11    1    3    3    0    0 -0.18602996321E+02 -0.89183862061E+01 -0.29571467604E+01  0.20841156443E+02  0.51100000000E-03 0. -1.
        -11    1    3    3    0    0 -0.16760231180E+02 -0.16900344355E-01 -0.12364050512E+02  0.20827274910E+02  0.51100000000E-03 0.  1.
         12    1    3    3    0    0 -0.94624670224E+00 -0.33258577051E+01 -0.50481236408E+01  0.61188450371E+01  0.00000000000E+00 0. -1.
</event>
<event>
 7    1  0.2412036E-009  0.4778727E+02  0.7816164E-02  0.1312668E+00
        -11   -1    0    0    0    0  0.00000000000E+00  0.00000000000E+00  0.45593999997E+02  0.45594000000E+02  0.51100000000E-03 0.  1.
         11   -1    0    0    0    0 -0.00000000000E+00 -0.00000000000E+00 -0.45593999997E+02  0.45594000000E+02  0.51100000000E-03 0. -1.
    9900012    2    1    2    0    0  0.60916142809E+01 -0.42322928455E+02  0.74354013115E+01  0.47787271547E+02  0.20000002293E+02 0.  0.
         12    1    1    2    0    0 -0.60916142809E+01  0.42322928455E+02 -0.74354013115E+01  0.43400728453E+02  0.00000000000E+00 0. -1.
         11    1    3    3    0    0 -0.20617994753E+01 -0.64788974492E+01 -0.21354441774E+01  0.71265174756E+01  0.51100000000E-03 0. -1.
        -11    1    3    3    0    0  0.99430604891E+01 -0.36238853934E+02  0.84633830402E+01  0.38519447543E+02  0.51100000000E-03 0.  1.
        -12    1    3    3    0    0 -0.17896467329E+01  0.39482292781E+00  0.11074624487E+01  0.21413065283E+01  0.00000000000E+00 0.  1.
</event>
<event>
 7    1  0.2412036E-009  0.4778728E+02  0.7816164E-02  0.1312668E+00
        -11   -1    0    0    0    0  0.00000000000E+00  0.00000000000E+00  0.45593999997E+02  0.45594000000E+02  0.51100000000E-03 0. -1.
         11   -1    0    0    0    0 -0.00000000000E+00 -0.00000000000E+00 -0.45593999997E+02  0.45594000000E+02  0.51100000000E-03 0.  1.
    9900012    2    1    2    0    0 -0.42986835488E+02  0.28118372256E+01  0.52771280215E+01  0.47787279568E+02  0.20000038864E+02 0.  0.
         12    1    1    2    0    0  0.42986835488E+02 -0.28118372256E+01 -0.52771280215E+01  0.43400720432E+02  0.00000000000E+00 0. -1.
         11    1    3    3    0    0 -0.13394727465E+02 -0.38504908645E+00  0.72164747474E+01  0.15219871704E+02  0.51100000000E-03 0. -1.
        -11    1    3    3    0    0 -0.73711467938E+01  0.56862786599E+01 -0.39590565946E+01  0.10116407437E+02  0.51100000000E-03 0.  1.
        -12    1    3    3    0    0 -0.22220961229E+02 -0.24893923479E+01  0.20197098687E+01  0.22451000427E+02  0.00000000000E+00 0.  1.
</event>
<event>
 7    1  0.2412036E-009  0.4778727E+02  0.7816164E-02  0.1312668E+00
        -11   -1    0    0    0    0  0.00000000000E+00  0.00000000000E+00  0.45593999997E+02  0.45594000000E+02  0.51100000000E-03 0.  1.
         11   -1    0    0    0    0 -0.00000000000E+00 -0.00000000000E+00 -0.45593999997E+02  0.45594000000E+02  0.51100000000E-03 0. -1.
    9900012    2    1    2    0    0  0.28916344151E+02 -0.32336792246E+02 -0.13416994202E+01  0.47787271329E+02  0.20000001298E+02 0.  0.
         12    1    1    2    0    0 -0.28916344151E+02  0.32336792246E+02  0.13416994202E+01  0.43400728671E+02  0.00000000000E+00 0. -1.
         11    1    3    3    0    0  0.26083605864E+01 -0.69703482769E+01 -0.67507865512E+01  0.10048005741E+02  0.51100000000E-03 0. -1.
        -11    1    3    3    0    0  0.24938655491E+02 -0.20623528099E+02  0.53600872052E+01  0.32802392962E+02  0.51100000000E-03 0.  1.
        -12    1    3    3    0    0  0.13693280734E+01 -0.47429158708E+01  0.48999925837E-01  0.49368726257E+01  0.00000000000E+00 0.  1.
</event>
<event>
 7    1  0.2412036E-009  0.4778728E+02  0.7816164E-02  0.1312668E+00
        -11   -1    0    0    0    0  0.00000000000E+00  0.00000000000E+00  0.45593999997E+02  0.45594000000E+02  0.51100000000E-03 0.  1.
         11   -1    0    0    0    0 -0.00000000000E+00 -0.00000000000E+00 -0.45593999997E+02  0.45594000000E+02  0.51100000000E-03 0. -1.
    9900012    2    1    2    0    0  0.27590231762E+02  0.65478425618E+01  0.32856162561E+02  0.47787279394E+02  0.20000038067E+02 0.  0.
         12    1    1    2    0    0 -0.27590231762E+02 -0.65478425618E+01 -0.32856162561E+02  0.43400720606E+02  0.00000000000E+00 0. -1.
         11    1    3    3    0    0  0.12865685091E+02  0.17672065962E+01  0.11286229723E+02  0.17205459995E+02  0.51100000000E-03 0.  1.
        -11    1    3    3    0    0  0.80987265742E+01 -0.35942153414E+01  0.33689539124E+01  0.94793252275E+01  0.51100000000E-03 0. -1.
        -12    1    3    3    0    0  0.66258200964E+01  0.83748513071E+01  0.18200978926E+02  0.21102494171E+02  0.00000000000E+00 0.  1.
</event>
<event>
 7    1  0.2412036E-009  0.4778727E+02  0.7816164E-02  0.1312668E+00
        -11   -1    0    0    0    0  0.00000000000E+00  0.00000000000E+00  0.45593999997E+02  0.45594000000E+02  0.51100000000E-03 0. -1.
         11   -1    0    0    0    0 -0.00000000000E+00 -0.00000000000E+00 -0.45593999997E+02  0.45594000000E+02  0.51100000000E-03 0.  1.
    9900012    2    1    2    0    0  0.31406852650E+02  0.26031801162E+02 -0.14818173802E+02  0.47787270283E+02  0.19999996528E+02 0.  0.
         12    1    1    2    0    0 -0.31406852650E+02 -0.26031801162E+02  0.14818173802E+02  0.43400729717E+02  0.00000000000E+00 0. -1.
         11    1    3    3    0    0  0.18495863046E+02  0.17632424897E+02 -0.13101928573E+02  0.28716892070E+02  0.51100000000E-03 0. -1.
        -11    1    3    3    0    0  0.39485205092E+01  0.32878770552E+01 -0.59994641152E+01  0.78990201717E+01  0.51100000000E-03 0.  1.
         12    1    3    3    0    0  0.89624690947E+01  0.51114992103E+01  0.42832188865E+01  0.11171358041E+02  0.00000000000E+00 0. -1.
</event>
<event>
 7    1  0.2412036E-009  0.4778728E+02  0.7816164E-02  0.1312668E+00
        -11   -1    0    0    0    0  0.00000000000E+00  0.00000000000E+00  0.45593999997E+02  0.45594000000E+02  0.51100000000E-03 0.  1.
         11   -1    0    0    0    0 -0.00000000000E+00 -0.00000000000E+00 -0.45593999997E+02  0.45594000000E+02  0.51100000000E-03 0. -1.
    9900012    2    1    2    0    0 -0.27730357432E+02 -0.22032375308E+02  0.25084339350E+02  0.47787281507E+02  0.20000047704E+02 0.  0.
         12    1    1    2    0    0  0.27730357432E+02  0.22032375308E+02 -0.25084339350E+02  0.43400718493E+02  0.00000000000E+00 0. -1.
         11    1    3    3    0    0 -0.22208895947E+02 -0.13547008313E+02  0.10046243755E+02  0.27886977378E+02  0.51100000000E-03 0. -1.
        -11    1    3    3    0    0 -0.42874810535E+01 -0.10107531245E+02  0.13032255060E+02  0.17040667647E+02  0.51100000000E-03 0.  1.
         12    1    3    3    0    0 -0.12339804320E+01  0.16221642495E+01  0.20058405351E+01  0.28596364823E+01  0.00000000000E+00 0. -1.
</event>
<event>
 7    1  0.2412036E-009  0.4778727E+02  0.7816164E-02  0.1312668E+00
        -11   -1    0    0    0    0  0.00000000000E+00  0.00000000000E+00  0.45593999997E+02  0.45594000000E+02  0.51100000000E-03 0. -1.
         11   -1    0    0    0    0 -0.00000000000E+00 -0.00000000000E+00 -0.45593999997E+02  0.45594000000E+02  0.51100000000E-03 0.  1.
    9900012    2    1    2    0    0 -0.35760535495E+02  0.22975651984E+02 -0.87707977968E+01  0.47787269857E+02  0.19999994587E+02 0.  0.
         12    1    1    2    0    0  0.35760535495E+02 -0.22975651984E+02  0.87707977968E+01  0.43400730143E+02  0.00000000000E+00 0. -1.
         11    1    3    3    0    0 -0.16248532837E+02  0.31469634073E+01 -0.50981221495E+01  0.17317882312E+02  0.51100000000E-03 0. -1.
        -11    1    3    3    0    0 -0.13053774197E+02  0.16661469588E+02  0.20672403389E+01  0.21266853846E+02  0.51100000000E-03 0.  1.
         12    1    3    3    0    0 -0.64582284601E+01  0.31672189882E+01 -0.57399159862E+01  0.92025336995E+01  0.00000000000E+00 0. -1.
</event>
<event>
 7    1  0.2412036E-009  0.4778727E+02  0.7816164E-02  0.1312668E+00
        -11   -1    0    0    0    0  0.00000000000E+00  0.00000000000E+00  0.45593999997E+02  0.45594000000E+02  0.51100000000E-03 0. -1.
         11   -1    0    0    0    0 -0.00000000000E+00 -0.00000000000E+00 -0.45593999997E+02  0.45594000000E+02  0.51100000000E-03 0.  1.
    9900012    2    1    2    0    0 -0.25300116487E+02 -0.14805955051E+02 -0.32004864420E+02  0.47787267912E+02  0.19999985719E+02 0.  0.
         12    1    1    2    0    0  0.25300116487E+02  0.14805955051E+02  0.32004864420E+02  0.43400732088E+02  0.00000000000E+00 0. -1.
         11    1    3    3    0    0 -0.12408799217E+01 -0.58372328346E+01 -0.13904400726E+01  0.61275112405E+01  0.51100000000E-03 0. -1.
        -11    1    3    3    0    0 -0.22421962271E+02 -0.11526938904E+02 -0.27066389851E+02  0.36989244010E+02  0.51100000000E-03 0.  1.
         12    1    3    3    0    0 -0.16372742942E+01  0.25582166882E+01 -0.35480344962E+01  0.46705126619E+01  0.00000000000E+00 0. -1.
</event>
<event>
 7    1  0.2412036E-009  0.4778727E+02  0.7816164E-02  0.1312668E+00
        -11   -1    0    0    0    0  0.00000000000E+00  0.00000000000E+00  0.45593999997E+02  0.45594000000E+02  0.51100000000E-03 0.  1.
         11   -1    0    0    0    0 -0.00000000000E+00 -0.00000000000E+00 -0.45593999997E+02  0.45594000000E+02  0.51100000000E-03 0. -1.
    9900012    2    1    2    0    0 -0.20629313702E+02 -0.87141340796E+01  0.37176853097E+02  0.47787272785E+02  0.20000007937E+02 0.  0.
         12    1    1    2    0    0  0.20629313702E+02  0.87141340796E+01 -0.37176853097E+02  0.43400727215E+02  0.00000000000E+00 0. -1.
         11    1    3    3    0    0  0.27857319592E+01 -0.12353202870E+01  0.99004170763E+00  0.32041381999E+01  0.51100000000E-03 0. -1.
        -11    1    3    3    0    0 -0.16720825657E+02 -0.17709432659E+01  0.27410104803E+02  0.32156431647E+02  0.51100000000E-03 0.  1.
         12    1    3    3    0    0 -0.66942200039E+01 -0.57078705268E+01  0.87767065861E+01  0.12426702938E+02  0.00000000000E+00 0. -1.
</event>
<event>
 7    1  0.2412036E-009  0.4778727E+02  0.7816164E-02  0.1312668E+00
        -11   -1    0    0    0    0  0.00000000000E+00  0.00000000000E+00  0.45593999997E+02  0.45594000000E+02  0.51100000000E-03 0. -1.
         11   -1    0    0    0    0 -0.00000000000E+00 -0.00000000000E+00 -0.45593999997E+02  0.45594000000E+02  0.51100000000E-03 0.  1.
    9900012    2    1    2    0    0  0.43369417488E+02 -0.15313504466E+01 -0.60979084819E+00  0.47787271293E+02  0.20000001134E+02 0.  0.
         12    1    1    2    0    0 -0.43369417488E+02  0.15313504466E+01  0.60979084819E+00  0.43400728707E+02  0.00000000000E+00 0. -1.
         11    1    3    3    0    0  0.91440619368E+00  0.11760958239E+01  0.38117009546E+01  0.40924814602E+01  0.51100000000E-03 0. -1.
        -11    1    3    3    0    0  0.25821455821E+02 -0.18714659611E+01 -0.70551646518E+01  0.26833287426E+02  0.51100000000E-03 0.  1.
         12    1    3    3    0    0  0.16633555473E+02 -0.83598030929E+00  0.26336728490E+01  0.16861502407E+02  0.00000000000E+00 0. -1.
</event>
<event>
 7    1  0.2412036E-009  0.4778728E+02  0.7816164E-02  0.1312668E+00
        -11   -1    0    0    0    0  0.00000000000E+00  0.00000000000E+00  0.45593999997E+02  0.45594000000E+02  0.51100000000E-03 0. -1.
         11   -1    0    0    0    0 -0.00000000000E+00 -0.00000000000E+00 -0.45593999997E+02  0.45594000000E+02  0.51100000000E-03 0.  1.
    9900012    2    1    2    0    0 -0.30309540317E+02  0.28660216575E+02 -0.11981094864E+02  0.47787275553E+02  0.20000020557E+02 0.  0.
         12    1    1    2    0    0  0.30309540317E+02 -0.28660216575E+02  0.11981094864E+02  0.43400724447E+02  0.00000000000E+00 0. -1.
         11    1    3    3    0    0  0.45171054035E+00  0.99243173426E+01 -0.19281861013E+01  0.10119981177E+02  0.51100000000E-03 0. -1.
        -11    1    3    3    0    0 -0.20176702764E+02  0.14203555144E+02 -0.82221808647E+01  0.26008548049E+02  0.51100000000E-03 0.  1.
         12    1    3    3    0    0 -0.10584548094E+02  0.45323440883E+01 -0.18307278980E+01  0.11658746327E+02  0.00000000000E+00 0. -1.
</event>
<event>
 7    1  0.2412036E-009  0.4778725E+02  0.7816164E-02  0.1312668E+00
        -11   -1    0    0    0    0  0.00000000000E+00  0.00000000000E+00  0.45593999997E+02  0.45594000000E+02  0.51100000000E-03 0.  1.
         11   -1    0    0    0    0 -0.00000000000E+00 -0.00000000000E+00 -0.45593999997E+02  0.45594000000E+02  0.51100000000E-03 0. -1.
    9900012    2    1    2    0    0 -0.94798464279E+01 -0.12188619965E+02  0.40561005164E+02  0.47787250181E+02  0.19999904873E+02 0.  0.
         12    1    1    2    0    0  0.94798464279E+01  0.12188619965E+02 -0.40561005164E+02  0.43400749819E+02  0.00000000000E+00 0. -1.
         11    1    3    3    0    0 -0.53739527150E+01  0.46189383560E+01  0.73080023234E+01  0.10179433066E+02  0.51100000000E-03 0. -1.
        -11    1    3    3    0    0 -0.92150419040E+00 -0.74594990380E+00  0.25188368655E+01  0.27839092384E+01  0.51100000000E-03 0.  1.
         12    1    3    3    0    0 -0.31843895226E+01 -0.16061608418E+02  0.30734165975E+02  0.34823907876E+02  0.00000000000E+00 0. -1.
</event>
<event>
 7    1  0.2412036E-009  0.4778727E+02  0.7816164E-02  0.1312668E+00
        -11   -1    0    0    0    0  0.00000000000E+00  0.00000000000E+00  0.45593999997E+02  0.45594000000E+02  0.51100000000E-03 0. -1.
         11   -1    0    0    0    0 -0.00000000000E+00 -0.00000000000E+00 -0.45593999997E+02  0.45594000000E+02  0.51100000000E-03 0.  1.
    9900012    2    1    2    0    0  0.31771309274E+01  0.25492668912E+02 -0.34980752341E+02  0.47787270012E+02  0.19999995293E+02 0.  0.
         12    1    1    2    0    0 -0.31771309274E+01 -0.25492668912E+02  0.34980752341E+02  0.43400729988E+02  0.00000000000E+00 0. -1.
         11    1    3    3    0    0  0.20439786477E+01  0.61250294700E+01 -0.16415982602E+01  0.66624830078E+01  0.51100000000E-03 0. -1.
        -11    1    3    3    0    0  0.68947322188E+01  0.10076729895E+02 -0.23188597470E+02  0.26206656991E+02  0.51100000000E-03 0.  1.
        -12    1    3    3    0    0 -0.57615799391E+01  0.92909095468E+01 -0.10150556610E+02  0.14918130013E+02  0.00000000000E+00 0.  1.
</event>
<event>
 7    1  0.2412036E-009  0.4778727E+02  0.7816164E-02  0.1312668E+00
        -11   -1    0    0    0    0  0.00000000000E+00  0.00000000000E+00  0.45593999997E+02  0.45594000000E+02  0.51100000000E-03 0.  1.
         11   -1    0    0    0    0 -0.00000000000E+00 -0.00000000000E+00 -0.45593999997E+02  0.45594000000E+02  0.51100000000E-03 0. -1.
    9900012    2    1    2    0    0 -0.33837141910E+02 -0.70830474293E+01  0.26239312828E+02  0.47787271075E+02  0.20000000141E+02 0.  0.
         12    1    1    2    0    0  0.33837141910E+02  0.70830474293E+01 -0.26239312828E+02  0.43400728925E+02  0.00000000000E+00 0. -1.
         11    1    3    3    0    0 -0.16374241188E+02 -0.97102603891E+01  0.20565232096E+02  0.28023806000E+02  0.51100000000E-03 0. -1.
        -11    1    3    3    0    0 -0.16195829815E+02  0.24032655265E+01  0.27951027461E+01  0.16610032758E+02  0.51100000000E-03 0.  1.
        -12    1    3    3    0    0 -0.12670709060E+01  0.22394743333E+00  0.28789779860E+01  0.31534323170E+01  0.00000000000E+00 0.  1.
</event>
<event>
 7    1  0.2412036E-009  0.4778727E+02  0.7816164E-02  0.1312668E+00
        -11   -1    0    0    0    0  0.00000000000E+00  0.00000000000E+00  0.45593999997E+02  0.45594000000E+02  0.51100000000E-03 0.  1.
         11   -1    0    0    0    0 -0.00000000000E+00 -0.00000000000E+00 -0.45593999997E+02  0.45594000000E+02  0.51100000000E-03 0. -1.
    9900012    2    1    2    0    0 -0.32827604624E+02  0.23975095561E+02 -0.15204158086E+02  0.47787271254E+02  0.20000000957E+02 0.  0.
         12    1    1    2    0    0  0.32827604624E+02 -0.23975095561E+02  0.15204158086E+02  0.43400728746E+02  0.00000000000E+00 0. -1.
         11    1    3    3    0    0 -0.19804464482E+02  0.10890894865E+02 -0.16394147179E+01  0.22660893303E+02  0.51100000000E-03 0. -1.
        -11    1    3    3    0    0 -0.14116712508E+02  0.86054929773E+01 -0.10335990050E+02  0.19497917119E+02  0.51100000000E-03 0.  1.
         12    1    3    3    0    0  0.10935723658E+01  0.44787077193E+01 -0.32287533187E+01  0.56284608329E+01  0.00000000000E+00 0. -1.
</event>
<event>
 7    1  0.2412036E-009  0.4778727E+02  0.7816164E-02  0.1312668E+00
        -11   -1    0    0    0    0  0.00000000000E+00  0.00000000000E+00  0.45593999997E+02  0.45594000000E+02  0.51100000000E-03 0.  1.
         11   -1    0    0    0    0 -0.00000000000E+00 -0.00000000000E+00 -0.45593999997E+02  0.45594000000E+02  0.51100000000E-03 0. -1.
    9900012    2    1    2    0    0 -0.47152079860E+01 -0.23728673316E+02  0.36032484869E+02  0.47787273168E+02  0.20000009683E+02 0.  0.
         12    1    1    2    0    0  0.47152079860E+01  0.23728673316E+02 -0.36032484869E+02  0.43400726832E+02  0.00000000000E+00 0. -1.
         11    1    3    3    0    0 -0.89153025281E+01 -0.57142601767E+01  0.14370498649E+02  0.17850675623E+02  0.51100000000E-03 0. -1.
        -11    1    3    3    0    0  0.67418061346E+01 -0.10001178050E+02  0.14747618027E+02  0.19051712523E+02  0.51100000000E-03 0.  1.
         12    1    3    3    0    0 -0.25417115925E+01 -0.80132350892E+01  0.69143681939E+01  0.10884885022E+02  0.00000000000E+00 0. -1.
</event>
<event>
 7    1  0.2412036E-009  0.4778727E+02  0.7816164E-02  0.1312668E+00
        -11   -1    0    0    0    0  0.00000000000E+00  0.00000000000E+00  0.45593999997E+02  0.45594000000E+02  0.51100000000E-03 0.  1.
         11   -1    0    0    0    0 -0.00000000000E+00 -0.00000000000E+00 -0.45593999997E+02  0.45594000000E+02  0.51100000000E-03 0. -1.
    9900012    2    1    2    0    0 -0.31657120707E+02 -0.13035884663E+02 -0.26674251040E+02  0.47787271332E+02  0.20000001309E+02 0.  0.
         12    1    1    2    0    0  0.31657120707E+02  0.13035884663E+02  0.26674251040E+02  0.43400728668E+02  0.00000000000E+00 0. -1.
         11    1    3    3    0    0 -0.46113957924E+00 -0.84335021163E+00 -0.67720744932E+01  0.68399475505E+01  0.51100000000E-03 0. -1.
        -11    1    3    3    0    0 -0.29002912408E+02 -0.14648821842E+02 -0.18059204486E+02  0.37173804976E+02  0.51100000000E-03 0.  1.
        -12    1    3    3    0    0 -0.21930687199E+01  0.24562873903E+01 -0.18429720610E+01  0.37735188050E+01  0.00000000000E+00 0.  1.
</event>
<event>
 7    1  0.2412036E-009  0.4778724E+02  0.7816164E-02  0.1312668E+00
        -11   -1    0    0    0    0  0.00000000000E+00  0.00000000000E+00  0.45593999997E+02  0.45594000000E+02  0.51100000000E-03 0. -1.
         11   -1    0    0    0    0 -0.00000000000E+00 -0.00000000000E+00 -0.45593999997E+02  0.45594000000E+02  0.51100000000E-03 0.  1.
    9900012    2    1    2    0    0  0.40526939224E+02 -0.11216310144E+02 -0.10741846694E+02  0.47787243250E+02  0.19999873273E+02 0.  0.
         12    1    1    2    0    0 -0.40526939224E+02  0.11216310144E+02  0.10741846694E+02  0.43400756750E+02  0.00000000000E+00 0. -1.
         11    1    3    3    0    0  0.20694817681E+01  0.55362306178E+00  0.38139786370E+01  0.43744355736E+01  0.51100000000E-03 0. -1.
        -11    1    3    3    0    0  0.34371765570E+02 -0.12069156213E+02 -0.11184820228E+02  0.38107518994E+02  0.51100000000E-03 0.  1.
         12    1    3    3    0    0  0.40856918859E+01  0.29922300775E+00 -0.33710051034E+01  0.53052886822E+01  0.00000000000E+00 0. -1.
</event>
<event>
 7    1  0.2412036E-009  0.4778727E+02  0.7816164E-02  0.1312668E+00
        -11   -1    0    0    0    0  0.00000000000E+00  0.00000000000E+00  0.45593999997E+02  0.45594000000E+02  0.51100000000E-03 0. -1.
         11   -1    0    0    0    0 -0.00000000000E+00 -0.00000000000E+00 -0.45593999997E+02  0.45594000000E+02  0.51100000000E-03 0.  1.
    9900012    2    1    2    0    0  0.29361227129E+02  0.28648728609E+02 -0.14170100188E+02  0.47787273638E+02  0.20000011826E+02 0.  0.
         12    1    1    2    0    0 -0.29361227129E+02 -0.28648728609E+02  0.14170100188E+02  0.43400726362E+02  0.00000000000E+00 0. -1.
         11    1    3    3    0    0  0.27371112565E+02  0.27189351267E+02 -0.83792000077E+01  0.39479736807E+02  0.51100000000E-03 0.  1.
        -11    1    3    3    0    0  0.33179681971E+00  0.29217011065E+01 -0.52718417829E+01  0.60364511536E+01  0.51100000000E-03 0. -1.
        -12    1    3    3    0    0  0.16583177442E+01 -0.14623237648E+01 -0.51905839698E+00  0.22710856772E+01  0.00000000000E+00 0.  1.
</event>
<event>
 7    1  0.2412036E-009  0.4778727E+02  0.7816164E-02  0.1312668E+00
        -11   -1    0    0    0    0  0.00000000000E+00  0.00000000000E+00  0.45593999997E+02  0.45594000000E+02  0.51100000000E-03 0.  1.
         11   -1    0    0    0    0 -0.00000000000E+00 -0.00000000000E+00 -0.45593999997E+02  0.45594000000E+02  0.51100000000E-03 0. -1.
    9900012    2    1    2    0    0 -0.14563197676E+02  0.39271891310E+02  0.11369049661E+02  0.47787268857E+02  0.19999990024E+02 0.  0.
         12    1    1    2    0    0  0.14563197676E+02 -0.39271891310E+02 -0.11369049661E+02  0.43400731143E+02  0.00000000000E+00 0. -1.
         11    1    3    3    0    0 -0.65545457886E+00  0.36312511170E+00  0.45423667107E+01  0.46037567429E+01  0.51100000000E-03 0. -1.
        -11    1    3    3    0    0 -0.14094773095E+02  0.26170547146E+02  0.29689668926E+01  0.29872645199E+02  0.51100000000E-03 0.  1.
         12    1    3    3    0    0  0.18702999771E+00  0.12738219052E+02  0.38577160578E+01  0.13310866914E+02  0.00000000000E+00 0. -1.
</event>
<event>
 7    1  0.2412036E-009  0.4778727E+02  0.7816164E-02  0.1312668E+00
        -11   -1    0    0    0    0  0.00000000000E+00  0.00000000000E+00  0.45593999997E+02  0.45594000000E+02  0.51100000000E-03 0. -1.
         11   -1    0    0    0    0 -0.00000000000E+00 -0.00000000000E+00 -0.45593999997E+02  0.45594000000E+02  0.51100000000E-03 0.  1.
    9900012    2    1    2    0    0  0.31750049138E+02 -0.21447487744E+02 -0.20385361909E+02  0.47787270387E+02  0.19999997001E+02 0.  0.
         12    1    1    2    0    0 -0.31750049138E+02  0.21447487744E+02  0.20385361909E+02  0.43400729613E+02  0.00000000000E+00 0. -1.
         11    1    3    3    0    0  0.39079963291E+01 -0.11696264235E+02 -0.34610026158E+01  0.12808339928E+02  0.51100000000E-03 0. -1.
        -11    1    3    3    0    0  0.23817277418E+02 -0.52990340914E+01 -0.11876238945E+02  0.27136461038E+02  0.51100000000E-03 0.  1.
         12    1    3    3    0    0  0.40247753905E+01 -0.44521894181E+01 -0.50481203481E+01  0.78424694203E+01  0.00000000000E+00 0. -1.
</event>
<event>
 7    1  0.2412036E-009  0.4778727E+02  0.7816164E-02  0.1312668E+00
        -11   -1    0    0    0    0  0.00000000000E+00  0.00000000000E+00  0.45593999997E+02  0.45594000000E+02  0.51100000000E-03 0. -1.
         11   -1    0    0    0    0 -0.00000000000E+00 -0.00000000000E+00 -0.45593999997E+02  0.45594000000E+02  0.51100000000E-03 0.  1.
    9900012    2    1    2    0    0  0.18865083513E+02  0.31852725720E+01 -0.38956205549E+02  0.47787270881E+02  0.19999999254E+02 0.  0.
         12    1    1    2    0    0 -0.18865083513E+02 -0.31852725720E+01  0.38956205549E+02  0.43400729119E+02  0.00000000000E+00 0. -1.
         11    1    3    3    0    0  0.32564184108E+01 -0.37893149403E+00 -0.17683843501E+02  0.17985165308E+02  0.51100000000E-03 0. -1.
        -11    1    3    3    0    0  0.84396810797E+01  0.85732321866E+01 -0.13715053622E+02  0.18243662543E+02  0.51100000000E-03 0.  1.
        -12    1    3    3    0    0  0.71689840230E+01 -0.50090281206E+01 -0.75573084259E+01  0.11558443030E+02  0.00000000000E+00 0.  1.
</event>
<event>
 7    1  0.2412036E-009  0.4778727E+02  0.7816164E-02  0.1312668E+00
        -11   -1    0    0    0    0  0.00000000000E+00  0.00000000000E+00  0.45593999997E+02  0.45594000000E+02  0.51100000000E-03 0.  1.
         11   -1    0    0    0    0 -0.00000000000E+00 -0.00000000000E+00 -0.45593999997E+02  0.45594000000E+02  0.51100000000E-03 0. -1.
    9900012    2    1    2    0    0 -0.44974742215E+01 -0.21931115664E+02  0.37180938745E+02  0.47787270575E+02  0.19999997862E+02 0.  0.
         12    1    1    2    0    0  0.44974742215E+01  0.21931115664E+02 -0.37180938745E+02  0.43400729425E+02  0.00000000000E+00 0. -1.
         11    1    3    3    0    0  0.86963937462E-01  0.18682846503E+01 -0.53494389010E+00  0.19453060139E+01  0.51100000000E-03 0. -1.
        -11    1    3    3    0    0 -0.27764350716E+01 -0.23561283287E+02  0.31953116104E+02  0.39797541267E+02  0.51100000000E-03 0.  1.
        -12    1    3    3    0    0 -0.18080030874E+01 -0.23811702755E+00  0.57627665304E+01  0.60444232948E+01  0.00000000000E+00 0.  1.
</event>
<event>
 7    1  0.2412036E-009  0.4778727E+02  0.7816164E-02  0.1312668E+00
        -11   -1    0    0    0    0  0.00000000000E+00  0.00000000000E+00  0.45593999997E+02  0.45594000000E+02  0.51100000000E-03 0.  1.
         11   -1    0    0    0    0 -0.00000000000E+00 -0.00000000000E+00 -0.45593999997E+02  0.45594000000E+02  0.51100000000E-03 0. -1.
    9900012    2    1    2    0    0  0.35557343159E+02  0.23857625574E+02 -0.70790070788E+01  0.47787270838E+02  0.19999999061E+02 0.  0.
         12    1    1    2    0    0 -0.35557343159E+02 -0.23857625574E+02  0.70790070788E+01  0.43400729162E+02  0.00000000000E+00 0. -1.
         11    1    3    3    0    0  0.30463588024E+02  0.15235623673E+02 -0.89744012229E+01  0.35223490764E+02  0.51100000000E-03 0. -1.
        -11    1    3    3    0    0  0.64842836613E+01  0.44842535720E+01  0.21614838958E+00  0.78867727928E+01  0.51100000000E-03 0.  1.
         12    1    3    3    0    0 -0.13905285262E+01  0.41377483283E+01  0.16792457546E+01  0.46770072819E+01  0.00000000000E+00 0. -1.
</event>
<event>
 7    1  0.2412036E-009  0.4778727E+02  0.7816164E-02  0.1312668E+00
        -11   -1    0    0    0    0  0.00000000000E+00  0.00000000000E+00  0.45593999997E+02  0.45594000000E+02  0.51100000000E-03 0. -1.
         11   -1    0    0    0    0 -0.00000000000E+00 -0.00000000000E+00 -0.45593999997E+02  0.45594000000E+02  0.51100000000E-03 0.  1.
    9900012    2    1    2    0    0 -0.92625361092E+01  0.10491992798E+01 -0.42387828213E+02  0.47787269880E+02  0.19999994691E+02 0.  0.
         12    1    1    2    0    0  0.92625361092E+01 -0.10491992798E+01  0.42387828213E+02  0.43400730120E+02  0.00000000000E+00 0. -1.
         11    1    3    3    0    0 -0.41590310713E+01  0.71072302778E+01 -0.10398566447E+02  0.13264254449E+02  0.51100000000E-03 0.  1.
        -11    1    3    3    0    0 -0.16717454196E+01 -0.12216242182E+01 -0.26042553178E+02  0.26124733008E+02  0.51100000000E-03 0. -1.
         12    1    3    3    0    0 -0.34317596183E+01 -0.48364067798E+01 -0.59467085887E+01  0.83982824230E+01  0.00000000000E+00 0. -1.
</event>
<event>
 7    1  0.2412036E-009  0.4778727E+02  0.7816164E-02  0.1312668E+00
        -11   -1    0    0    0    0  0.00000000000E+00  0.00000000000E+00  0.45593999997E+02  0.45594000000E+02  0.51100000000E-03 0.  1.
         11   -1    0    0    0    0 -0.00000000000E+00 -0.00000000000E+00 -0.45593999997E+02  0.45594000000E+02  0.51100000000E-03 0. -1.
    9900012    2    1    2    0    0  0.34638787472E+02  0.15680541709E+02  0.20926016958E+02  0.47787272223E+02  0.20000005374E+02 0.  0.
         12    1    1    2    0    0 -0.34638787472E+02 -0.15680541709E+02 -0.20926016958E+02  0.43400727777E+02  0.00000000000E+00 0. -1.
         11    1    3    3    0    0  0.85426467330E+01  0.78571158032E+01 -0.21365049940E+01  0.11801514132E+02  0.51100000000E-03 0. -1.
        -11    1    3    3    0    0  0.13267215706E+02  0.41796568836E+01  0.14732410195E+02  0.20261600496E+02  0.51100000000E-03 0.  1.
         12    1    3    3    0    0  0.12828925034E+02  0.36437690225E+01  0.83301117566E+01  0.15724157596E+02  0.00000000000E+00 0. -1.
</event>
<event>
 7    1  0.2412036E-009  0.4778726E+02  0.7816164E-02  0.1312668E+00
        -11   -1    0    0    0    0  0.00000000000E+00  0.00000000000E+00  0.45593999997E+02  0.45594000000E+02  0.51100000000E-03 0.  1.
         11   -1    0    0    0    0 -0.00000000000E+00 -0.00000000000E+00 -0.45593999997E+02  0.45594000000E+02  0.51100000000E-03 0. -1.
    9900012    2    1    2    0    0 -0.36892143891E+02 -0.16494921692E+02  0.15827544145E+02  0.47787264106E+02  0.19999968363E+02 0.  0.
         12    1    1    2    0    0  0.36892143891E+02  0.16494921692E+02 -0.15827544145E+02  0.43400735894E+02  0.00000000000E+00 0. -1.
         11    1    3    3    0    0 -0.13044485711E+02 -0.17657875268E+01 -0.24654814980E+01  0.13392356489E+02  0.51100000000E-03 0. -1.
        -11    1    3    3    0    0 -0.17594380063E+02 -0.14140477102E+02  0.12265352967E+02  0.25689573490E+02  0.51100000000E-03 0.  1.
         12    1    3    3    0    0 -0.62532781175E+01 -0.58865706309E+00  0.60276726759E+01  0.87053341257E+01  0.00000000000E+00 0. -1.
</event>
<event>
 7    1  0.2412036E-009  0.4778727E+02  0.7816164E-02  0.1312668E+00
        -11   -1    0    0    0    0  0.00000000000E+00  0.00000000000E+00  0.45593999997E+02  0.45594000000E+02  0.51100000000E-03 0.  1.
         11   -1    0    0    0    0 -0.00000000000E+00 -0.00000000000E+00 -0.45593999997E+02  0.45594000000E+02  0.51100000000E-03 0. -1.
    9900012    2    1    2    0    0 -0.53403392825E+01 -0.43070819780E+02 -0.91398961882E-01  0.47787273117E+02  0.20000009450E+02 0.  0.
         12    1    1    2    0    0  0.53403392825E+01  0.43070819780E+02  0.91398961882E-01  0.43400726883E+02  0.00000000000E+00 0. -1.
         11    1    3    3    0    0 -0.44923835588E+01 -0.98600676874E+01 -0.44310833298E+00  0.10844297584E+02  0.51100000000E-03 0. -1.
        -11    1    3    3    0    0 -0.65643439545E+01 -0.13450821904E+02  0.51358613753E+01  0.15823788856E+02  0.51100000000E-03 0.  1.
        -12    1    3    3    0    0  0.57163882308E+01 -0.19759930189E+02 -0.47841520042E+01  0.21119186677E+02  0.00000000000E+00 0.  1.
</event>
<event>
 7    1  0.2412036E-009  0.4778727E+02  0.7816164E-02  0.1312668E+00
        -11   -1    0    0    0    0  0.00000000000E+00  0.00000000000E+00  0.45593999997E+02  0.45594000000E+02  0.51100000000E-03 0.  1.
         11   -1    0    0    0    0 -0.00000000000E+00 -0.00000000000E+00 -0.45593999997E+02  0.45594000000E+02  0.51100000000E-03 0. -1.
    9900012    2    1    2    0    0  0.20538868443E+02 -0.32223967203E+02  0.20576540484E+02  0.47787271924E+02  0.20000004009E+02 0.  0.
         12    1    1    2    0    0 -0.20538868443E+02  0.32223967203E+02 -0.20576540484E+02  0.43400728076E+02  0.00000000000E+00 0. -1.
         11    1    3    3    0    0  0.14915940874E+01 -0.11392475178E+02  0.38413473215E+01  0.12114837725E+02  0.51100000000E-03 0. -1.
        -11    1    3    3    0    0  0.26654368287E+01  0.19793375529E+01  0.93527326111E+00  0.34492125145E+01  0.51100000000E-03 0.  1.
        -12    1    3    3    0    0  0.16381837527E+02 -0.22810829578E+02  0.15799919902E+02  0.32223221684E+02  0.00000000000E+00 0.  1.
</event>
<event>
 7    1  0.2412036E-009  0.4778727E+02  0.7816164E-02  0.1312668E+00
        -11   -1    0    0    0    0  0.00000000000E+00  0.00000000000E+00  0.45593999997E+02  0.45594000000E+02  0.51100000000E-03 0. -1.
         11   -1    0    0    0    0 -0.00000000000E+00 -0.00000000000E+00 -0.45593999997E+02  0.45594000000E+02  0.51100000000E-03 0.  1.
    9900012    2    1    2    0    0 -0.10465549575E+02  0.31151802962E+02 -0.28348910731E+02  0.47787270797E+02  0.19999998874E+02 0.  0.
         12    1    1    2    0    0  0.10465549575E+02 -0.31151802962E+02  0.28348910731E+02  0.43400729203E+02  0.00000000000E+00 0. -1.
         11    1    3    3    0    0 -0.14240779849E+01  0.10550599075E+02 -0.14796255781E+02  0.18228338497E+02  0.51100000000E-03 0.  1.
        -11    1    3    3    0    0 -0.64273159659E+01  0.11940268080E+01 -0.20650834069E+01  0.68557027563E+01  0.51100000000E-03 0. -1.
        -12    1    3    3    0    0 -0.26141556244E+01  0.19407177079E+02 -0.11487571543E+02  0.22703229544E+02  0.00000000000E+00 0.  1.
</event>
<event>
 7    1  0.2412036E-009  0.4778727E+02  0.7816164E-02  0.1312668E+00
        -11   -1    0    0    0    0  0.00000000000E+00  0.00000000000E+00  0.45593999997E+02  0.45594000000E+02  0.51100000000E-03 0.  1.
         11   -1    0    0    0    0 -0.00000000000E+00 -0.00000000000E+00 -0.45593999997E+02  0.45594000000E+02  0.51100000000E-03 0. -1.
    9900012    2    1    2    0    0 -0.37145009426E+01 -0.11883543606E+02  0.41576523842E+02  0.47787268892E+02  0.19999990186E+02 0.  0.
         12    1    1    2    0    0  0.37145009426E+01  0.11883543606E+02 -0.41576523842E+02  0.43400731108E+02  0.00000000000E+00 0. -1.
         11    1    3    3    0    0 -0.83115707189E+01 -0.11857817222E+02  0.27997973486E+02  0.31521049422E+02  0.51100000000E-03 0. -1.
        -11    1    3    3    0    0  0.10196636625E+01  0.34667295610E+01  0.79815561823E+01  0.87614591928E+01  0.51100000000E-03 0.  1.
         12    1    3    3    0    0  0.35774061138E+01 -0.34924559449E+01  0.55969941738E+01  0.75047602768E+01  0.00000000000E+00 0. -1.
</event>
<event>
 7    1  0.2412036E-009  0.4778728E+02  0.7816164E-02  0.1312668E+00
        -11   -1    0    0    0    0  0.00000000000E+00  0.00000000000E+00  0.45593999997E+02  0.45594000000E+02  0.51100000000E-03 0.  1.
         11   -1    0    0    0    0 -0.00000000000E+00 -0.00000000000E+00 -0.45593999997E+02  0.45594000000E+02  0.51100000000E-03 0. -1.
    9900012    2    1    2    0    0  0.19022477774E+02 -0.69688765954E+01  0.38382317319E+02  0.47787283596E+02  0.20000057226E+02 0.  0.
         12    1    1    2    0    0 -0.19022477774E+02  0.69688765954E+01 -0.38382317319E+02  0.43400716404E+02  0.00000000000E+00 0. -1.
         11    1    3    3    0    0  0.10883884854E+02 -0.12017651337E+02  0.23463455372E+02  0.28520459875E+02  0.51100000000E-03 0. -1.
        -11    1    3    3    0    0  0.18006085577E+01  0.42990627027E+01  0.24643754807E+01  0.52723124026E+01  0.51100000000E-03 0.  1.
        -12    1    3    3    0    0  0.63379843624E+01  0.74971203914E+00  0.12454486466E+02  0.13994511318E+02  0.00000000000E+00 0.  1.
</event>
<event>
 7    1  0.2412036E-009  0.4778727E+02  0.7816164E-02  0.1312668E+00
        -11   -1    0    0    0    0  0.00000000000E+00  0.00000000000E+00  0.45593999997E+02  0.45594000000E+02  0.51100000000E-03 0.  1.
         11   -1    0    0    0    0 -0.00000000000E+00 -0.00000000000E+00 -0.45593999997E+02  0.45594000000E+02  0.51100000000E-03 0. -1.
    9900012    2    1    2    0    0  0.32799582328E+02 -0.10310861213E+02 -0.26485786900E+02  0.47787269965E+02  0.19999995078E+02 0.  0.
         12    1    1    2    0    0 -0.32799582328E+02  0.10310861213E+02  0.26485786900E+02  0.43400730035E+02  0.00000000000E+00 0. -1.
         11    1    3    3    0    0  0.81577987593E+00 -0.17391370901E+01  0.23685482599E+01  0.30496091134E+01  0.51100000000E-03 0. -1.
        -11    1    3    3    0    0  0.29367014115E+02 -0.76175468606E+01 -0.22412980961E+02  0.37719892020E+02  0.51100000000E-03 0.  1.
        -12    1    3    3    0    0  0.26167883370E+01 -0.95417726261E+00 -0.64413541992E+01  0.70177688312E+01  0.00000000000E+00 0.  1.
</event>
<event>
 7    1  0.2469510E-009  0.4778727E+02  0.7816164E-02  0.1312668E+00
        -11   -1    0    0    0    0  0.00000000000E+00  0.00000000000E+00  0.45593999997E+02  0.45594000000E+02  0.51100000000E-03 0.  1.
         11   -1    0    0    0    0 -0.00000000000E+00 -0.00000000000E+00 -0.45593999997E+02  0.45594000000E+02  0.51100000000E-03 0. -1.
    9900012    2    1    2    0    0 -0.20420067450E+02 -0.37974828025E+02 -0.49554579403E+01  0.47787270955E+02  0.19999999594E+02 0.  0.
         12    1    1    2    0    0  0.20420067450E+02  0.37974828025E+02  0.49554579403E+01  0.43400729045E+02  0.00000000000E+00 0. -1.
         11    1    3    3    0    0 -0.42175288543E+01 -0.56127850805E+00 -0.33565406322E+01  0.54193125465E+01  0.51100000000E-03 0. -1.
        -11    1    3    3    0    0 -0.40497540314E+01 -0.17879338608E+02  0.38346832059E+01  0.18729016321E+02  0.51100000000E-03 0.  1.
        -12    1    3    3    0    0 -0.12152784564E+02 -0.19534210909E+02 -0.54336005141E+01  0.23638942088E+02  0.00000000000E+00 0.  1.
</event>
<event>
 7    1  0.2412036E-009  0.4778727E+02  0.7816164E-02  0.1312668E+00
        -11   -1    0    0    0    0  0.00000000000E+00  0.00000000000E+00  0.45593999997E+02  0.45594000000E+02  0.51100000000E-03 0. -1.
         11   -1    0    0    0    0 -0.00000000000E+00 -0.00000000000E+00 -0.45593999997E+02  0.45594000000E+02  0.51100000000E-03 0.  1.
    9900012    2    1    2    0    0  0.23028377613E+02 -0.14652899411E+02 -0.33743290953E+02  0.47787270502E+02  0.19999997526E+02 0.  0.
         12    1    1    2    0    0 -0.23028377613E+02  0.14652899411E+02  0.33743290953E+02  0.43400729498E+02  0.00000000000E+00 0. -1.
         11    1    3    3    0    0  0.19023324149E+02 -0.16217005764E+02 -0.29978524464E+02  0.39033191862E+02  0.51100000000E-03 0. -1.
        -11    1    3    3    0    0  0.23198296361E+01  0.41464637812E+01 -0.28374581614E+01  0.55340708803E+01  0.51100000000E-03 0.  1.
         12    1    3    3    0    0  0.16852238277E+01 -0.25823574281E+01 -0.92730832721E+00  0.32200077592E+01  0.00000000000E+00 0. -1.
</event>
<event>
 7    1  0.2412036E-009  0.4778727E+02  0.7816164E-02  0.1312668E+00
        -11   -1    0    0    0    0  0.00000000000E+00  0.00000000000E+00  0.45593999997E+02  0.45594000000E+02  0.51100000000E-03 0.  1.
         11   -1    0    0    0    0 -0.00000000000E+00 -0.00000000000E+00 -0.45593999997E+02  0.45594000000E+02  0.51100000000E-03 0. -1.
    9900012    2    1    2    0    0 -0.27093220723E+02 -0.16240818062E+02  0.29762670412E+02  0.47787270392E+02  0.19999997024E+02 0.  0.
         12    1    1    2    0    0  0.27093220723E+02  0.16240818062E+02 -0.29762670412E+02  0.43400729608E+02  0.00000000000E+00 0. -1.
         11    1    3    3    0    0 -0.12062472048E+02 -0.21848340160E+01  0.20490344563E+02  0.23877415106E+02  0.51100000000E-03 0. -1.
        -11    1    3    3    0    0 -0.14106018405E+02 -0.13616032651E+02  0.10556850154E+02  0.22267087502E+02  0.51100000000E-03 0.  1.
         12    1    3    3    0    0 -0.92473026912E+00 -0.43995139564E+00 -0.12845243044E+01  0.16427677833E+01  0.00000000000E+00 0. -1.
</event>
<event>
 7    1  0.2412036E-009  0.4778726E+02  0.7816164E-02  0.1312668E+00
        -11   -1    0    0    0    0  0.00000000000E+00  0.00000000000E+00  0.45593999997E+02  0.45594000000E+02  0.51100000000E-03 0.  1.
         11   -1    0    0    0    0 -0.00000000000E+00 -0.00000000000E+00 -0.45593999997E+02  0.45594000000E+02  0.51100000000E-03 0. -1.
    9900012    2    1    2    0    0 -0.30914316764E+02  0.16602235144E+02  0.25540060410E+02  0.47787264079E+02  0.19999968241E+02 0.  0.
         12    1    1    2    0    0  0.30914316764E+02 -0.16602235144E+02 -0.25540060410E+02  0.43400735921E+02  0.00000000000E+00 0. -1.
         11    1    3    3    0    0 -0.18297633643E+02  0.18925858192E+02  0.11799271891E+02  0.28848125115E+02  0.51100000000E-03 0. -1.
        -11    1    3    3    0    0 -0.58780405319E+01 -0.15759525471E+01  0.49946933003E+01  0.78728615096E+01  0.51100000000E-03 0.  1.
         12    1    3    3    0    0 -0.67386425892E+01 -0.74767050096E+00  0.87460952189E+01  0.11066277455E+02  0.00000000000E+00 0. -1.
</event>
<event>
 7    1  0.2412036E-009  0.4778727E+02  0.7816164E-02  0.1312668E+00
        -11   -1    0    0    0    0  0.00000000000E+00  0.00000000000E+00  0.45593999997E+02  0.45594000000E+02  0.51100000000E-03 0. -1.
         11   -1    0    0    0    0 -0.00000000000E+00 -0.00000000000E+00 -0.45593999997E+02  0.45594000000E+02  0.51100000000E-03 0.  1.
    9900012    2    1    2    0    0  0.26974515458E+02  0.10092850027E+01 -0.33985000758E+02  0.47787269396E+02  0.19999992486E+02 0.  0.
         12    1    1    2    0    0 -0.26974515458E+02 -0.10092850027E+01  0.33985000758E+02  0.43400730604E+02  0.00000000000E+00 0. -1.
         11    1    3    3    0    0  0.21933509401E+02 -0.28075112072E+01 -0.22813882894E+02  0.31771594338E+02  0.51100000000E-03 0. -1.
        -11    1    3    3    0    0  0.50220917902E+01  0.28567370751E+01 -0.12845733684E+02  0.14085284052E+02  0.51100000000E-03 0.  1.
         12    1    3    3    0    0  0.18914266499E-01  0.96005913476E+00  0.16746158203E+01  0.19303910064E+01  0.00000000000E+00 0. -1.
</event>
<event>
 7    1  0.2412036E-009  0.4778727E+02  0.7816164E-02  0.1312668E+00
        -11   -1    0    0    0    0  0.00000000000E+00  0.00000000000E+00  0.45593999997E+02  0.45594000000E+02  0.51100000000E-03 0.  1.
         11   -1    0    0    0    0 -0.00000000000E+00 -0.00000000000E+00 -0.45593999997E+02  0.45594000000E+02  0.51100000000E-03 0. -1.
    9900012    2    1    2    0    0  0.92598644795E+01 -0.20980680552E+02  0.36846837931E+02  0.47787268300E+02  0.19999987487E+02 0.  0.
         12    1    1    2    0    0 -0.92598644795E+01  0.20980680552E+02 -0.36846837931E+02  0.43400731700E+02  0.00000000000E+00 0. -1.
         11    1    3    3    0    0  0.15979946800E+00 -0.21014927739E+01  0.83958600818E+00  0.22686367438E+01  0.51100000000E-03 0. -1.
        -11    1    3    3    0    0 -0.50475016179E+01 -0.20595299877E+01  0.43222252788E+01  0.69570516726E+01  0.51100000000E-03 0.  1.
        -12    1    3    3    0    0  0.14147566629E+02 -0.16819657790E+02  0.31685026644E+02  0.38561579884E+02  0.00000000000E+00 0.  1.
</event>
<event>
 7    1  0.2412036E-009  0.4778727E+02  0.7816164E-02  0.1312668E+00
        -11   -1    0    0    0    0  0.00000000000E+00  0.00000000000E+00  0.45593999997E+02  0.45594000000E+02  0.51100000000E-03 0.  1.
         11   -1    0    0    0    0 -0.00000000000E+00 -0.00000000000E+00 -0.45593999997E+02  0.45594000000E+02  0.51100000000E-03 0. -1.
    9900012    2    1    2    0    0 -0.17595267254E+02  0.17698401154E+02  0.35507695607E+02  0.47787270969E+02  0.19999999654E+02 0.  0.
         12    1    1    2    0    0  0.17595267254E+02 -0.17698401154E+02 -0.35507695607E+02  0.43400729031E+02  0.00000000000E+00 0. -1.
         11    1    3    3    0    0 -0.11015083196E+02  0.85109824087E+00  0.13651794728E+02  0.17562116205E+02  0.51100000000E-03 0. -1.
        -11    1    3    3    0    0 -0.64542505529E+01  0.12112699175E+02  0.87182906296E+01  0.16259871563E+02  0.51100000000E-03 0.  1.
         12    1    3    3    0    0 -0.12593350475E+00  0.47346037388E+01  0.13137610249E+02  0.13965283200E+02  0.00000000000E+00 0. -1.
</event>
<event>
 7    1  0.2412036E-009  0.4778727E+02  0.7816164E-02  0.1312668E+00
        -11   -1    0    0    0    0  0.00000000000E+00  0.00000000000E+00  0.45593999997E+02  0.45594000000E+02  0.51100000000E-03 0.  1.
         11   -1    0    0    0    0 -0.00000000000E+00 -0.00000000000E+00 -0.45593999997E+02  0.45594000000E+02  0.51100000000E-03 0. -1.
    9900012    2    1    2    0    0  0.60176964101E+00  0.25221079033E+02  0.35315131067E+02  0.47787269171E+02  0.19999991456E+02 0.  0.
         12    1    1    2    0    0 -0.60176964101E+00 -0.25221079033E+02 -0.35315131067E+02  0.43400730829E+02  0.00000000000E+00 0. -1.
         11    1    3    3    0    0 -0.42163240933E+00  0.11208686389E+02  0.24596347741E+01  0.11483127968E+02  0.51100000000E-03 0. -1.
        -11    1    3    3    0    0  0.36841216952E+01  0.68750276643E+01  0.15557468255E+02  0.17403263396E+02  0.51100000000E-03 0.  1.
         12    1    3    3    0    0 -0.26607196448E+01  0.71373649799E+01  0.17298028037E+02  0.18900877807E+02  0.00000000000E+00 0. -1.
</event>
<event>
 7    1  0.2412036E-009  0.4778728E+02  0.7816164E-02  0.1312668E+00
        -11   -1    0    0    0    0  0.00000000000E+00  0.00000000000E+00  0.45593999997E+02  0.45594000000E+02  0.51100000000E-03 0.  1.
         11   -1    0    0    0    0 -0.00000000000E+00 -0.00000000000E+00 -0.45593999997E+02  0.45594000000E+02  0.51100000000E-03 0. -1.
    9900012    2    1    2    0    0 -0.33091744046E+01 -0.12662532431E+02  0.41380340003E+02  0.47787275333E+02  0.20000019554E+02 0.  0.
         12    1    1    2    0    0  0.33091744046E+01  0.12662532431E+02 -0.41380340003E+02  0.43400724667E+02  0.00000000000E+00 0. -1.
         11    1    3    3    0    0 -0.57302507775E+01 -0.86141410008E+01  0.10405693760E+02  0.14673706486E+02  0.51100000000E-03 0. -1.
        -11    1    3    3    0    0  0.54002042040E+01 -0.58300118912E+01  0.17876145593E+02  0.19562919660E+02  0.51100000000E-03 0.  1.
        -12    1    3    3    0    0 -0.29791278310E+01  0.17816204609E+01  0.13098500650E+02  0.13550649187E+02  0.00000000000E+00 0.  1.
</event>
<event>
 7    1  0.2412036E-009  0.4778727E+02  0.7816164E-02  0.1312668E+00
        -11   -1    0    0    0    0  0.00000000000E+00  0.00000000000E+00  0.45593999997E+02  0.45594000000E+02  0.51100000000E-03 0.  1.
         11   -1    0    0    0    0 -0.00000000000E+00 -0.00000000000E+00 -0.45593999997E+02  0.45594000000E+02  0.51100000000E-03 0. -1.
    9900012    2    1    2    0    0 -0.36461022545E+02 -0.23491096908E+02  0.15445257414E+01  0.47787270067E+02  0.19999995544E+02 0.  0.
         12    1    1    2    0    0  0.36461022545E+02  0.23491096908E+02 -0.15445257414E+01  0.43400729933E+02  0.00000000000E+00 0. -1.
         11    1    3    3    0    0 -0.93157634768E+01 -0.10208621701E+02 -0.67772249839E+01  0.15392536664E+02  0.51100000000E-03 0. -1.
        -11    1    3    3    0    0 -0.21343407972E+02 -0.12956978968E+02  0.90072769526E+01  0.26543462588E+02  0.51100000000E-03 0.  1.
        -12    1    3    3    0    0 -0.58018510962E+01 -0.32549623911E+00 -0.68552622723E+00  0.58512708151E+01  0.00000000000E+00 0.  1.
</event>
