<event>
 7    1  0.3807360E-011  0.4778727E+02  0.7816164E-02  0.1312668E+00
        -11   -1    0    0    0    0  0.00000000000E+00  0.00000000000E+00  0.45593999997E+02  0.45594000000E+02  0.51100000000E-03 0. -1.
         11   -1    0    0    0    0 -0.00000000000E+00 -0.00000000000E+00 -0.45593999997E+02  0.45594000000E+02  0.51100000000E-03 0.  1.
    9900012    2    1    2    0    0 -0.48363227749E+01 -0.24382290010E+02  0.35577201474E+02  0.47787270181E+02  0.19999996062E+02 0.  0.
        -12    1    1    2    0    0  0.48363227749E+01  0.24382290010E+02 -0.35577201474E+02  0.43400729819E+02  0.00000000000E+00 0.  1.
         11    1    3    3    0    0  0.12746585876E+00  0.13078294161E+01  0.40134862719E+00  0.13739528043E+01  0.51100000000E-03 0. -1.
        -11    1    3    3    0    0  0.12848831835E+01  0.34779795806E+00 -0.80983872951E+00  0.15581165694E+01  0.51100000000E-03 0.  1.
         12    1    3    3    0    0 -0.62486718172E+01 -0.26037917384E+02  0.35985691577E+02  0.44855200807E+02  0.00000000000E+00 0. -1.
</event>
<event>
 7    1  0.3807360E-011  0.4778727E+02  0.7816164E-02  0.1312668E+00
        -11   -1    0    0    0    0  0.00000000000E+00  0.00000000000E+00  0.45593999997E+02  0.45594000000E+02  0.51100000000E-03 0. -1.
         11   -1    0    0    0    0 -0.00000000000E+00 -0.00000000000E+00 -0.45593999997E+02  0.45594000000E+02  0.51100000000E-03 0.  1.
    9900012    2    1    2    0    0 -0.36702701134E+02 -0.19196394061E+02 -0.12962778178E+02  0.47787269205E+02  0.19999991611E+02 0.  0.
         12    1    1    2    0    0  0.36702701134E+02  0.19196394061E+02  0.12962778178E+02  0.43400730795E+02  0.00000000000E+00 0. -1.
         11    1    3    3    0    0  0.56190368603E+00 -0.17869141478E+01 -0.16628650059E+01  0.25047790747E+01  0.51100000000E-03 0. -1.
        -11    1    3    3    0    0 -0.24477935806E+02 -0.64833430638E+01 -0.56245688499E+00  0.25328233981E+02  0.51100000000E-03 0.  1.
        -12    1    3    3    0    0 -0.12786669014E+02 -0.10926136849E+02 -0.10737456287E+02  0.19954256148E+02  0.00000000000E+00 0.  1.
</event>
<event>
 7    1  0.3807360E-011  0.4778727E+02  0.7816164E-02  0.1312668E+00
        -11   -1    0    0    0    0  0.00000000000E+00  0.00000000000E+00  0.45593999997E+02  0.45594000000E+02  0.51100000000E-03 0. -1.
         11   -1    0    0    0    0 -0.00000000000E+00 -0.00000000000E+00 -0.45593999997E+02  0.45594000000E+02  0.51100000000E-03 0.  1.
    9900012    2    1    2    0    0 -0.54818692050E+01  0.27541806343E+02  0.33091106651E+02  0.47787270444E+02  0.19999997264E+02 0.  0.
        -12    1    1    2    0    0  0.54818692050E+01 -0.27541806343E+02 -0.33091106651E+02  0.43400729556E+02  0.00000000000E+00 0.  1.
         11    1    3    3    0    0  0.51846491680E+01  0.10851393067E+02  0.18874218202E+02  0.22380112410E+02  0.51100000000E-03 0. -1.
        -11    1    3    3    0    0  0.37823635665E+00  0.43802637304E+01  0.19178497776E+01  0.47966572860E+01  0.51100000000E-03 0.  1.
         12    1    3    3    0    0 -0.11044754730E+02  0.12310149546E+02  0.12299038671E+02  0.20610500749E+02  0.00000000000E+00 0. -1.
</event>
<event>
 7    1  0.3807360E-011  0.4778727E+02  0.7816164E-02  0.1312668E+00
        -11   -1    0    0    0    0  0.00000000000E+00  0.00000000000E+00  0.45593999997E+02  0.45594000000E+02  0.51100000000E-03 0. -1.
         11   -1    0    0    0    0 -0.00000000000E+00 -0.00000000000E+00 -0.45593999997E+02  0.45594000000E+02  0.51100000000E-03 0.  1.
    9900012    2    1    2    0    0 -0.21145208797E+02 -0.21418499882E+02  0.31269020720E+02  0.47787266722E+02  0.19999980292E+02 0.  0.
        -12    1    1    2    0    0  0.21145208797E+02  0.21418499882E+02 -0.31269020720E+02  0.43400733278E+02  0.00000000000E+00 0.  1.
         11    1    3    3    0    0 -0.85165801619E+00  0.12521669142E+01  0.50775226716E+01  0.52985356561E+01  0.51100000000E-03 0.  1.
        -11    1    3    3    0    0 -0.11132365759E+02 -0.17876856191E+02  0.23980888862E+02  0.31915428644E+02  0.51100000000E-03 0. -1.
         12    1    3    3    0    0 -0.91611850217E+01 -0.47938106052E+01  0.22106091864E+01  0.10573302421E+02  0.00000000000E+00 0. -1.
</event>
<event>
 7    1  0.3807360E-011  0.4778727E+02  0.7816164E-02  0.1312668E+00
        -11   -1    0    0    0    0  0.00000000000E+00  0.00000000000E+00  0.45593999997E+02  0.45594000000E+02  0.51100000000E-03 0. -1.
         11   -1    0    0    0    0 -0.00000000000E+00 -0.00000000000E+00 -0.45593999997E+02  0.45594000000E+02  0.51100000000E-03 0.  1.
    9900012    2    1    2    0    0 -0.21592362879E+02 -0.25726431475E+02 -0.27487152122E+02  0.47787274858E+02  0.20000017386E+02 0.  0.
         12    1    1    2    0    0  0.21592362879E+02  0.25726431475E+02  0.27487152122E+02  0.43400725142E+02  0.00000000000E+00 0. -1.
         11    1    3    3    0    0 -0.66474952417E+01 -0.82532002991E+01 -0.32204547743E+01  0.11075912485E+02  0.51100000000E-03 0. -1.
        -11    1    3    3    0    0 -0.76315915096E+01 -0.58603099678E+01 -0.20237135576E+02  0.22408169905E+02  0.51100000000E-03 0.  1.
        -12    1    3    3    0    0 -0.73132761276E+01 -0.11612921208E+02 -0.40295617713E+01  0.14303192468E+02  0.00000000000E+00 0.  1.
</event>
<event>
 7    1  0.3807360E-011  0.4778727E+02  0.7816164E-02  0.1312668E+00
        -11   -1    0    0    0    0  0.00000000000E+00  0.00000000000E+00  0.45593999997E+02  0.45594000000E+02  0.51100000000E-03 0. -1.
         11   -1    0    0    0    0 -0.00000000000E+00 -0.00000000000E+00 -0.45593999997E+02  0.45594000000E+02  0.51100000000E-03 0.  1.
    9900012    2    1    2    0    0  0.92854680103E+01  0.40301610341E+00 -0.42393880711E+02  0.47787268901E+02  0.19999990227E+02 0.  0.
         12    1    1    2    0    0 -0.92854680103E+01 -0.40301610341E+00  0.42393880711E+02  0.43400731099E+02  0.00000000000E+00 0. -1.
         11    1    3    3    0    0  0.23926489638E+01 -0.60382052880E+01 -0.79648016238E+01  0.10277293288E+02  0.51100000000E-03 0. -1.
        -11    1    3    3    0    0  0.62098668524E+01  0.47383597304E+01 -0.86079207127E+01  0.11623717070E+02  0.51100000000E-03 0.  1.
        -12    1    3    3    0    0  0.68295219420E+00  0.17028616610E+01 -0.25821158375E+02  0.25886258543E+02  0.00000000000E+00 0.  1.
</event>
<event>
 7    1  0.3807360E-011  0.4778727E+02  0.7816164E-02  0.1312668E+00
        -11   -1    0    0    0    0  0.00000000000E+00  0.00000000000E+00  0.45593999997E+02  0.45594000000E+02  0.51100000000E-03 0. -1.
         11   -1    0    0    0    0 -0.00000000000E+00 -0.00000000000E+00 -0.45593999997E+02  0.45594000000E+02  0.51100000000E-03 0.  1.
    9900012    2    1    2    0    0  0.12010448908E+02 -0.28299415641E+01  0.41609658244E+02  0.47787272916E+02  0.20000008533E+02 0.  0.
        -12    1    1    2    0    0 -0.12010448908E+02  0.28299415641E+01 -0.41609658244E+02  0.43400727084E+02  0.00000000000E+00 0.  1.
         11    1    3    3    0    0 -0.10855213884E+00  0.31021640455E+01  0.84571811975E+01  0.90088356296E+01  0.51100000000E-03 0. -1.
        -11    1    3    3    0    0  0.23080862081E+01 -0.94208063262E+01  0.15578343524E+02  0.18351120974E+02  0.51100000000E-03 0.  1.
        -12    1    3    3    0    0  0.98109148390E+01  0.34887007166E+01  0.17574133522E+02  0.20427316313E+02  0.00000000000E+00 0.  1.
</event>
<event>
 7    1  0.3807360E-011  0.4778727E+02  0.7816164E-02  0.1312668E+00
        -11   -1    0    0    0    0  0.00000000000E+00  0.00000000000E+00  0.45593999997E+02  0.45594000000E+02  0.51100000000E-03 0. -1.
         11   -1    0    0    0    0 -0.00000000000E+00 -0.00000000000E+00 -0.45593999997E+02  0.45594000000E+02  0.51100000000E-03 0.  1.
    9900012    2    1    2    0    0 -0.24753044653E+02 -0.17294013178E+02  0.31174140606E+02  0.47787272427E+02  0.20000006302E+02 0.  0.
        -12    1    1    2    0    0  0.24753044653E+02  0.17294013178E+02 -0.31174140606E+02  0.43400727573E+02  0.00000000000E+00 0.  1.
         11    1    3    3    0    0 -0.57305316193E+01  0.36752561656E+01  0.58645009448E+01  0.89854811844E+01  0.51100000000E-03 0.  1.
        -11    1    3    3    0    0 -0.79710797103E+01 -0.73496582582E+01  0.14828052296E+02  0.18369178626E+02  0.51100000000E-03 0. -1.
        -12    1    3    3    0    0 -0.11051433323E+02 -0.13619611085E+02  0.10481587365E+02  0.20432612616E+02  0.00000000000E+00 0.  1.
</event>
<event>
 7    1  0.3807360E-011  0.4778727E+02  0.7816164E-02  0.1312668E+00
        -11   -1    0    0    0    0  0.00000000000E+00  0.00000000000E+00  0.45593999997E+02  0.45594000000E+02  0.51100000000E-03 0. -1.
         11   -1    0    0    0    0 -0.00000000000E+00 -0.00000000000E+00 -0.45593999997E+02  0.45594000000E+02  0.51100000000E-03 0.  1.
    9900012    2    1    2    0    0  0.54417724722E+01  0.25775476271E+00  0.43057447839E+02  0.47787272592E+02  0.20000007054E+02 0.  0.
        -12    1    1    2    0    0 -0.54417724722E+01 -0.25775476271E+00 -0.43057447839E+02  0.43400727408E+02  0.00000000000E+00 0.  1.
         11    1    3    3    0    0  0.47302768007E+01  0.42651693730E+01  0.94350976006E+01  0.11383683735E+02  0.51100000000E-03 0. -1.
        -11    1    3    3    0    0 -0.61337172644E+01 -0.28636531199E+00  0.13766850716E+02  0.15074172331E+02  0.51100000000E-03 0.  1.
         12    1    3    3    0    0  0.68452129359E+01 -0.37210492983E+01  0.19855499523E+02  0.21329416526E+02  0.00000000000E+00 0. -1.
</event>
<event>
 7    1  0.3807360E-011  0.4778728E+02  0.7816164E-02  0.1312668E+00
        -11   -1    0    0    0    0  0.00000000000E+00  0.00000000000E+00  0.45593999997E+02  0.45594000000E+02  0.51100000000E-03 0. -1.
         11   -1    0    0    0    0 -0.00000000000E+00 -0.00000000000E+00 -0.45593999997E+02  0.45594000000E+02  0.51100000000E-03 0.  1.
    9900012    2    1    2    0    0 -0.15746669244E+02  0.14345677450E+02 -0.37813578855E+02  0.47787276509E+02  0.20000024913E+02 0.  0.
         12    1    1    2    0    0  0.15746669244E+02 -0.14345677450E+02  0.37813578855E+02  0.43400723491E+02  0.00000000000E+00 0. -1.
         11    1    3    3    0    0 -0.61730991327E+01  0.17595766666E+02 -0.20340382404E+02  0.27594371058E+02  0.51100000000E-03 0.  1.
        -11    1    3    3    0    0 -0.33152330639E+01 -0.12209096927E+01 -0.65226972831E+01  0.74180166388E+01  0.51100000000E-03 0. -1.
        -12    1    3    3    0    0 -0.62583370478E+01 -0.20291795236E+01 -0.10950499167E+02  0.12774888812E+02  0.00000000000E+00 0.  1.
</event>
<event>
 7    1  0.3807360E-011  0.4778726E+02  0.7816164E-02  0.1312668E+00
        -11   -1    0    0    0    0  0.00000000000E+00  0.00000000000E+00  0.45593999997E+02  0.45594000000E+02  0.51100000000E-03 0. -1.
         11   -1    0    0    0    0 -0.00000000000E+00 -0.00000000000E+00 -0.45593999997E+02  0.45594000000E+02  0.51100000000E-03 0.  1.
    9900012    2    1    2    0    0 -0.24658404165E+02  0.31407696624E+02  0.17004222982E+02  0.47787263803E+02  0.19999966983E+02 0.  0.
        -12    1    1    2    0    0  0.24658404165E+02 -0.31407696624E+02 -0.17004222982E+02  0.43400736197E+02  0.00000000000E+00 0.  1.
         11    1    3    3    0    0 -0.13642337303E+02  0.15818019370E+02  0.48539041650E+01  0.21444894260E+02  0.51100000000E-03 0. -1.
        -11    1    3    3    0    0 -0.10678143266E+02  0.17738221602E+02  0.91484623596E+01  0.22635406182E+02  0.51100000000E-03 0.  1.
        -12    1    3    3    0    0 -0.33792359593E+00 -0.21485443482E+01  0.30018564572E+01  0.37069633614E+01  0.00000000000E+00 0.  1.
</event>
<event>
 7    1  0.3807360E-011  0.4778726E+02  0.7816164E-02  0.1312668E+00
        -11   -1    0    0    0    0  0.00000000000E+00  0.00000000000E+00  0.45593999997E+02  0.45594000000E+02  0.51100000000E-03 0. -1.
         11   -1    0    0    0    0 -0.00000000000E+00 -0.00000000000E+00 -0.45593999997E+02  0.45594000000E+02  0.51100000000E-03 0.  1.
    9900012    2    1    2    0    0  0.11647808348E+01  0.42862992446E+02 -0.67105378704E+01  0.47787260901E+02  0.19999953752E+02 0.  0.
         12    1    1    2    0    0 -0.11647808348E+01 -0.42862992446E+02  0.67105378704E+01  0.43400739099E+02  0.00000000000E+00 0. -1.
         11    1    3    3    0    0  0.35378810341E+01  0.40217023205E+01 -0.45848911970E+01  0.70506680049E+01  0.51100000000E-03 0. -1.
        -11    1    3    3    0    0 -0.64484785235E+01  0.12904617953E+02 -0.70851854306E+00  0.14443477371E+02  0.51100000000E-03 0.  1.
         12    1    3    3    0    0  0.40753783243E+01  0.25936672172E+02 -0.14171281304E+01  0.26293115525E+02  0.00000000000E+00 0. -1.
</event>
<event>
 7    1  0.3807360E-011  0.4778730E+02  0.7816164E-02  0.1312668E+00
        -11   -1    0    0    0    0  0.00000000000E+00  0.00000000000E+00  0.45593999997E+02  0.45594000000E+02  0.51100000000E-03 0. -1.
         11   -1    0    0    0    0 -0.00000000000E+00 -0.00000000000E+00 -0.45593999997E+02  0.45594000000E+02  0.51100000000E-03 0.  1.
    9900012    2    1    2    0    0  0.31607767580E+02  0.14992554659E+01  0.29703908335E+02  0.47787298293E+02  0.20000124235E+02 0.  0.
        -12    1    1    2    0    0 -0.31607767580E+02 -0.14992554659E+01 -0.29703908335E+02  0.43400701707E+02  0.00000000000E+00 0.  1.
         11    1    3    3    0    0  0.56181154673E+01 -0.62110308187E+01  0.10743032113E+02  0.13621779050E+02  0.51100000000E-03 0.  1.
        -11    1    3    3    0    0  0.15143162923E+02  0.52844925934E+01  0.16019167566E+02  0.22668369484E+02  0.51100000000E-03 0. -1.
        -12    1    3    3    0    0  0.10846489190E+02  0.24257936911E+01  0.29417086555E+01  0.11497149759E+02  0.00000000000E+00 0.  1.
</event>
<event>
 7    1  0.3807360E-011  0.4778727E+02  0.7816164E-02  0.1312668E+00
        -11   -1    0    0    0    0  0.00000000000E+00  0.00000000000E+00  0.45593999997E+02  0.45594000000E+02  0.51100000000E-03 0. -1.
         11   -1    0    0    0    0 -0.00000000000E+00 -0.00000000000E+00 -0.45593999997E+02  0.45594000000E+02  0.51100000000E-03 0.  1.
    9900012    2    1    2    0    0  0.81219111125E+01  0.43246890527E+01 -0.42414086924E+02  0.47787272527E+02  0.20000006761E+02 0.  0.
         12    1    1    2    0    0 -0.81219111125E+01 -0.43246890527E+01  0.42414086924E+02  0.43400727473E+02  0.00000000000E+00 0. -1.
         11    1    3    3    0    0  0.15068344282E+01  0.28927227666E+01 -0.12268626349E+02  0.12694785849E+02  0.51100000000E-03 0.  1.
        -11    1    3    3    0    0  0.22964491950E+01 -0.62358565447E+01 -0.46223433701E+01  0.80947911797E+01  0.51100000000E-03 0. -1.
         12    1    3    3    0    0  0.43186274893E+01  0.76678228307E+01 -0.25523117205E+02  0.26997695498E+02  0.00000000000E+00 0. -1.
</event>
<event>
 7    1  0.3807360E-011  0.4778727E+02  0.7816164E-02  0.1312668E+00
        -11   -1    0    0    0    0  0.00000000000E+00  0.00000000000E+00  0.45593999997E+02  0.45594000000E+02  0.51100000000E-03 0. -1.
         11   -1    0    0    0    0 -0.00000000000E+00 -0.00000000000E+00 -0.45593999997E+02  0.45594000000E+02  0.51100000000E-03 0.  1.
    9900012    2    1    2    0    0  0.41203741565E+01 -0.28927919432E+02 -0.32090826141E+02  0.47787272723E+02  0.20000007651E+02 0.  0.
         12    1    1    2    0    0 -0.41203741565E+01  0.28927919432E+02  0.32090826141E+02  0.43400727277E+02  0.00000000000E+00 0. -1.
         11    1    3    3    0    0  0.91793078575E+00 -0.15945240613E+02 -0.81023032654E+01  0.17909232636E+02  0.51100000000E-03 0. -1.
        -11    1    3    3    0    0 -0.68662651037E+00 -0.91251500828E+01 -0.56864886633E+01  0.10773856022E+02  0.51100000000E-03 0.  1.
        -12    1    3    3    0    0  0.38890698811E+01 -0.38575287354E+01 -0.18302034212E+02  0.19104184065E+02  0.00000000000E+00 0.  1.
</event>
<event>
 7    1  0.3807360E-011  0.4778727E+02  0.7816164E-02  0.1312668E+00
        -11   -1    0    0    0    0  0.00000000000E+00  0.00000000000E+00  0.45593999997E+02  0.45594000000E+02  0.51100000000E-03 0. -1.
         11   -1    0    0    0    0 -0.00000000000E+00 -0.00000000000E+00 -0.45593999997E+02  0.45594000000E+02  0.51100000000E-03 0.  1.
    9900012    2    1    2    0    0 -0.29048662172E+02  0.95905613011E+01  0.30786680219E+02  0.47787270525E+02  0.19999997632E+02 0.  0.
        -12    1    1    2    0    0  0.29048662172E+02 -0.95905613011E+01 -0.30786680219E+02  0.43400729475E+02  0.00000000000E+00 0.  1.
         11    1    3    3    0    0 -0.67960104961E+01  0.22884557393E+01  0.17600199209E+01  0.73837970393E+01  0.51100000000E-03 0. -1.
        -11    1    3    3    0    0 -0.13720915390E+01  0.16479994255E+01  0.13760638705E+02  0.13926726648E+02  0.51100000000E-03 0.  1.
         12    1    3    3    0    0 -0.20880560137E+02  0.56541061364E+01  0.15266021593E+02  0.26476746837E+02  0.00000000000E+00 0. -1.
</event>
<event>
 7    1  0.3807360E-011  0.4778727E+02  0.7816164E-02  0.1312668E+00
        -11   -1    0    0    0    0  0.00000000000E+00  0.00000000000E+00  0.45593999997E+02  0.45594000000E+02  0.51100000000E-03 0. -1.
         11   -1    0    0    0    0 -0.00000000000E+00 -0.00000000000E+00 -0.45593999997E+02  0.45594000000E+02  0.51100000000E-03 0.  1.
    9900012    2    1    2    0    0  0.14798003816E+02  0.20813728027E+02  0.35091751884E+02  0.47787271416E+02  0.20000001695E+02 0.  0.
        -12    1    1    2    0    0 -0.14798003816E+02 -0.20813728027E+02 -0.35091751884E+02  0.43400728584E+02  0.00000000000E+00 0.  1.
         11    1    3    3    0    0  0.76711278915E+01  0.31943331196E+01  0.81523550281E+01  0.11640913193E+02  0.51100000000E-03 0. -1.
        -11    1    3    3    0    0  0.97723230253E+01  0.46277716574E+01  0.12993024712E+02  0.16903646330E+02  0.51100000000E-03 0.  1.
        -12    1    3    3    0    0 -0.26454471005E+01  0.12991623250E+02  0.13946372144E+02  0.19242711893E+02  0.00000000000E+00 0.  1.
</event>
<event>
 7    1  0.3807360E-011  0.4778726E+02  0.7816164E-02  0.1312668E+00
        -11   -1    0    0    0    0  0.00000000000E+00  0.00000000000E+00  0.45593999997E+02  0.45594000000E+02  0.51100000000E-03 0. -1.
         11   -1    0    0    0    0 -0.00000000000E+00 -0.00000000000E+00 -0.45593999997E+02  0.45594000000E+02  0.51100000000E-03 0.  1.
    9900012    2    1    2    0    0 -0.11857664086E+02 -0.24714048720E+02  0.33648711049E+02  0.47787260871E+02  0.19999953615E+02 0.  0.
        -12    1    1    2    0    0  0.11857664086E+02  0.24714048720E+02 -0.33648711049E+02  0.43400739129E+02  0.00000000000E+00 0.  1.
         11    1    3    3    0    0 -0.64067734689E+01 -0.13308408503E+02  0.13734435114E+02  0.20169164368E+02  0.51100000000E-03 0. -1.
        -11    1    3    3    0    0 -0.35921083470E+01 -0.37573635638E+01  0.18995306244E+02  0.19693721916E+02  0.51100000000E-03 0.  1.
        -12    1    3    3    0    0 -0.18587822704E+01 -0.76482766539E+01  0.91896969072E+00  0.79243745870E+01  0.00000000000E+00 0.  1.
</event>
<event>
 7    1  0.3807360E-011  0.4778727E+02  0.7816164E-02  0.1312668E+00
        -11   -1    0    0    0    0  0.00000000000E+00  0.00000000000E+00  0.45593999997E+02  0.45594000000E+02  0.51100000000E-03 0. -1.
         11   -1    0    0    0    0 -0.00000000000E+00 -0.00000000000E+00 -0.45593999997E+02  0.45594000000E+02  0.51100000000E-03 0.  1.
    9900012    2    1    2    0    0  0.10617813859E+02  0.21509362743E+02  0.36169494905E+02  0.47787273987E+02  0.20000013418E+02 0.  0.
        -12    1    1    2    0    0 -0.10617813859E+02 -0.21509362743E+02 -0.36169494905E+02  0.43400726013E+02  0.00000000000E+00 0.  1.
         11    1    3    3    0    0  0.33686222055E+01  0.23270788887E+02  0.29297176688E+02  0.37565965888E+02  0.51100000000E-03 0. -1.
        -11    1    3    3    0    0  0.17496490173E+01 -0.98045715014E+00  0.20020061246E+01  0.28338307450E+01  0.51100000000E-03 0.  1.
         12    1    3    3    0    0  0.54995426362E+01 -0.78096899399E+00  0.48703120925E+01  0.73874773539E+01  0.00000000000E+00 0. -1.
</event>
<event>
 7    1  0.3807360E-011  0.4778727E+02  0.7816164E-02  0.1312668E+00
        -11   -1    0    0    0    0  0.00000000000E+00  0.00000000000E+00  0.45593999997E+02  0.45594000000E+02  0.51100000000E-03 0. -1.
         11   -1    0    0    0    0 -0.00000000000E+00 -0.00000000000E+00 -0.45593999997E+02  0.45594000000E+02  0.51100000000E-03 0.  1.
    9900012    2    1    2    0    0 -0.28488928074E+02 -0.12812077281E+02 -0.30130634940E+02  0.47787268336E+02  0.19999987653E+02 0.  0.
         12    1    1    2    0    0  0.28488928074E+02  0.12812077281E+02  0.30130634940E+02  0.43400731664E+02  0.00000000000E+00 0. -1.
         11    1    3    3    0    0 -0.15777589309E+02 -0.43683048810E+01 -0.17948070861E+02  0.24292954942E+02  0.51100000000E-03 0. -1.
        -11    1    3    3    0    0 -0.61788673185E+01 -0.52180604288E+00 -0.11668144392E+02  0.13213488438E+02  0.51100000000E-03 0.  1.
         12    1    3    3    0    0 -0.65324714458E+01 -0.79219663572E+01 -0.51441968657E+00  0.10280824956E+02  0.00000000000E+00 0. -1.
</event>
<event>
 7    1  0.3807360E-011  0.4778727E+02  0.7816164E-02  0.1312668E+00
        -11   -1    0    0    0    0  0.00000000000E+00  0.00000000000E+00  0.45593999997E+02  0.45594000000E+02  0.51100000000E-03 0. -1.
         11   -1    0    0    0    0 -0.00000000000E+00 -0.00000000000E+00 -0.45593999997E+02  0.45594000000E+02  0.51100000000E-03 0.  1.
    9900012    2    1    2    0    0  0.35616037054E+02  0.14449971651E+02  0.20157372319E+02  0.47787269189E+02  0.19999991540E+02 0.  0.
        -12    1    1    2    0    0 -0.35616037054E+02 -0.14449971651E+02 -0.20157372319E+02  0.43400730811E+02  0.00000000000E+00 0.  1.
         11    1    3    3    0    0  0.99389705575E+01  0.88660199397E+01  0.68898328518E+01  0.14995307343E+02  0.51100000000E-03 0. -1.
        -11    1    3    3    0    0  0.22782054324E+02  0.86818426416E+01  0.72588887099E+01  0.25437921622E+02  0.51100000000E-03 0.  1.
        -12    1    3    3    0    0  0.28950121721E+01 -0.30978909305E+01  0.60086507574E+01  0.73540402241E+01  0.00000000000E+00 0.  1.
</event>
<event>
 7    1  0.3941823E-011  0.4778727E+02  0.7816164E-02  0.1312668E+00
        -11   -1    0    0    0    0  0.00000000000E+00  0.00000000000E+00  0.45593999997E+02  0.45594000000E+02  0.51100000000E-03 0. -1.
         11   -1    0    0    0    0 -0.00000000000E+00 -0.00000000000E+00 -0.45593999997E+02  0.45594000000E+02  0.51100000000E-03 0.  1.
    9900012    2    1    2    0    0 -0.21499295296E+01  0.29374083830E+02 -0.31877332201E+02  0.47787270674E+02  0.19999998310E+02 0.  0.
         12    1    1    2    0    0  0.21499295296E+01 -0.29374083830E+02  0.31877332201E+02  0.43400729326E+02  0.00000000000E+00 0. -1.
         11    1    3    3    0    0 -0.19261762808E+01  0.24719589989E+01 -0.97207724609E+01  0.10213430073E+02  0.51100000000E-03 0.  1.
        -11    1    3    3    0    0  0.47136616992E+01  0.23728999117E+02 -0.19749739687E+02  0.31230373416E+02  0.51100000000E-03 0. -1.
         12    1    3    3    0    0 -0.49374149480E+01  0.31731257141E+01 -0.24068200524E+01  0.63434671853E+01  0.00000000000E+00 0. -1.
</event>
<event>
 7    1  0.4020205E-011  0.4778727E+02  0.7816164E-02  0.1312668E+00
        -11   -1    0    0    0    0  0.00000000000E+00  0.00000000000E+00  0.45593999997E+02  0.45594000000E+02  0.51100000000E-03 0. -1.
         11   -1    0    0    0    0 -0.00000000000E+00 -0.00000000000E+00 -0.45593999997E+02  0.45594000000E+02  0.51100000000E-03 0.  1.
    9900012    2    1    2    0    0 -0.68436414954E+01  0.34925928789E+02 -0.24838831414E+02  0.47787268708E+02  0.19999989348E+02 0.  0.
         12    1    1    2    0    0  0.68436414954E+01 -0.34925928789E+02  0.24838831414E+02  0.43400731292E+02  0.00000000000E+00 0. -1.
         11    1    3    3    0    0 -0.44985074458E+01  0.98041859428E+01 -0.79343874790E+01  0.13390785495E+02  0.51100000000E-03 0. -1.
        -11    1    3    3    0    0 -0.34489831638E+01  0.26153639870E+02 -0.18483438339E+02  0.32210958639E+02  0.51100000000E-03 0.  1.
         12    1    3    3    0    0  0.11038491142E+01 -0.10318970244E+01  0.15789944045E+01  0.21855245744E+01  0.00000000000E+00 0. -1.
</event>
<event>
 7    1  0.5323018E-011  0.4778727E+02  0.7816164E-02  0.1312668E+00
        -11   -1    0    0    0    0  0.00000000000E+00  0.00000000000E+00  0.45593999997E+02  0.45594000000E+02  0.51100000000E-03 0. -1.
         11   -1    0    0    0    0 -0.00000000000E+00 -0.00000000000E+00 -0.45593999997E+02  0.45594000000E+02  0.51100000000E-03 0.  1.
    9900012    2    1    2    0    0 -0.93064624507E+01  0.25943680010E+02 -0.33525196082E+02  0.47787267885E+02  0.19999985594E+02 0.  0.
         12    1    1    2    0    0  0.93064624507E+01 -0.25943680010E+02  0.33525196082E+02  0.43400732115E+02  0.00000000000E+00 0. -1.
         11    1    3    3    0    0 -0.12126838570E+02  0.13612663737E+02 -0.99787513609E+01  0.20783173644E+02  0.51100000000E-03 0. -1.
        -11    1    3    3    0    0 -0.33000551135E+00  0.67725150049E+01 -0.10937011196E+02  0.12868336228E+02  0.51100000000E-03 0.  1.
         12    1    3    3    0    0  0.31503816305E+01  0.55585012681E+01 -0.12609433526E+02  0.14135758013E+02  0.00000000000E+00 0. -1.
</event>
<event>
 7    1  0.3807360E-011  0.4778727E+02  0.7816164E-02  0.1312668E+00
        -11   -1    0    0    0    0  0.00000000000E+00  0.00000000000E+00  0.45593999997E+02  0.45594000000E+02  0.51100000000E-03 0. -1.
         11   -1    0    0    0    0 -0.00000000000E+00 -0.00000000000E+00 -0.45593999997E+02  0.45594000000E+02  0.51100000000E-03 0.  1.
    9900012    2    1    2    0    0 -0.63968035229E+01  0.16524641285E+02  0.39618683405E+02  0.47787274895E+02  0.20000017557E+02 0.  0.
        -12    1    1    2    0    0  0.63968035229E+01 -0.16524641285E+02 -0.39618683405E+02  0.43400725105E+02  0.00000000000E+00 0.  1.
         11    1    3    3    0    0 -0.39126781686E+01  0.40588006893E+01  0.43512394070E+01  0.71215306026E+01  0.51100000000E-03 0. -1.
        -11    1    3    3    0    0  0.26824428519E+01 -0.28036014735E+01  0.96214110911E+01  0.10374354559E+02  0.51100000000E-03 0.  1.
         12    1    3    3    0    0 -0.51665682063E+01  0.15269442069E+02  0.25646032907E+02  0.30291389733E+02  0.00000000000E+00 0. -1.
</event>
<event>
 7    1  0.3807360E-011  0.4778727E+02  0.7816164E-02  0.1312668E+00
        -11   -1    0    0    0    0  0.00000000000E+00  0.00000000000E+00  0.45593999997E+02  0.45594000000E+02  0.51100000000E-03 0.  1.
         11   -1    0    0    0    0 -0.00000000000E+00 -0.00000000000E+00 -0.45593999997E+02  0.45594000000E+02  0.51100000000E-03 0. -1.
    9900012    2    1    2    0    0  0.16843084945E+02 -0.39583831094E+02  0.57492540353E+01  0.47787272857E+02  0.20000008263E+02 0.  0.
        -12    1    1    2    0    0 -0.16843084945E+02  0.39583831094E+02 -0.57492540353E+01  0.43400727143E+02  0.00000000000E+00 0.  1.
         11    1    3    3    0    0  0.62148576683E+01 -0.27377779244E+01  0.20714194706E+01  0.71000466678E+01  0.51100000000E-03 0. -1.
        -11    1    3    3    0    0  0.70195062190E+01 -0.91174206346E+01 -0.30963788149E+01  0.11915888075E+02  0.51100000000E-03 0.  1.
        -12    1    3    3    0    0  0.36087210580E+01 -0.27728632535E+02  0.67742133796E+01  0.28771338114E+02  0.00000000000E+00 0.  1.
</event>
<event>
 7    1  0.3807360E-011  0.4778727E+02  0.7816164E-02  0.1312668E+00
        -11   -1    0    0    0    0  0.00000000000E+00  0.00000000000E+00  0.45593999997E+02  0.45594000000E+02  0.51100000000E-03 0. -1.
         11   -1    0    0    0    0 -0.00000000000E+00 -0.00000000000E+00 -0.45593999997E+02  0.45594000000E+02  0.51100000000E-03 0.  1.
    9900012    2    1    2    0    0  0.57065928628E+01 -0.26747344343E+01 -0.42940697896E+02  0.47787274865E+02  0.20000017420E+02 0.  0.
         12    1    1    2    0    0 -0.57065928628E+01  0.26747344343E+01  0.42940697896E+02  0.43400725135E+02  0.00000000000E+00 0. -1.
         11    1    3    3    0    0  0.67114054318E+01  0.39825798706E+00 -0.85633403617E+01  0.10887257263E+02  0.51100000000E-03 0.  1.
        -11    1    3    3    0    0  0.53595329532E+01 -0.39550727330E+01 -0.13457657630E+02  0.15015849725E+02  0.51100000000E-03 0. -1.
        -12    1    3    3    0    0 -0.63643455222E+01  0.88208031164E+00 -0.20919699905E+02  0.21884167878E+02  0.00000000000E+00 0.  1.
</event>
<event>
 7    1  0.3807360E-011  0.4778727E+02  0.7816164E-02  0.1312668E+00
        -11   -1    0    0    0    0  0.00000000000E+00  0.00000000000E+00  0.45593999997E+02  0.45594000000E+02  0.51100000000E-03 0. -1.
         11   -1    0    0    0    0 -0.00000000000E+00 -0.00000000000E+00 -0.45593999997E+02  0.45594000000E+02  0.51100000000E-03 0.  1.
    9900012    2    1    2    0    0  0.16842317831E+02  0.16584418290E+02  0.36399407901E+02  0.47787268491E+02  0.19999988358E+02 0.  0.
        -12    1    1    2    0    0 -0.16842317831E+02 -0.16584418290E+02 -0.36399407901E+02  0.43400731509E+02  0.00000000000E+00 0.  1.
         11    1    3    3    0    0  0.28538578450E+01  0.12168877116E+02  0.19308307811E+02  0.23000800544E+02  0.51100000000E-03 0. -1.
        -11    1    3    3    0    0  0.62669396652E+01 -0.46778777092E+00  0.13643908803E+02  0.15021637922E+02  0.51100000000E-03 0.  1.
        -12    1    3    3    0    0  0.77215203212E+01  0.48833289447E+01  0.34471912867E+01  0.97648300252E+01  0.00000000000E+00 0.  1.
</event>
<event>
 7    1  0.3807360E-011  0.4778727E+02  0.7816164E-02  0.1312668E+00
        -11   -1    0    0    0    0  0.00000000000E+00  0.00000000000E+00  0.45593999997E+02  0.45594000000E+02  0.51100000000E-03 0. -1.
         11   -1    0    0    0    0 -0.00000000000E+00 -0.00000000000E+00 -0.45593999997E+02  0.45594000000E+02  0.51100000000E-03 0.  1.
    9900012    2    1    2    0    0 -0.15266354169E+02 -0.95022735384E+01 -0.39500233614E+02  0.47787271578E+02  0.20000002434E+02 0.  0.
         12    1    1    2    0    0  0.15266354169E+02  0.95022735384E+01  0.39500233614E+02  0.43400728422E+02  0.00000000000E+00 0. -1.
         11    1    3    3    0    0 -0.69231694685E+01 -0.36939127705E+01 -0.34810040730E+02  0.35683528454E+02  0.51100000000E-03 0.  1.
        -11    1    3    3    0    0 -0.83911747066E+00 -0.53395582942E+00  0.91744236080E+00  0.13531177716E+01  0.51100000000E-03 0. -1.
        -12    1    3    3    0    0 -0.75040672295E+01 -0.52744049385E+01 -0.56076352447E+01  0.10750625353E+02  0.00000000000E+00 0.  1.
</event>
<event>
 7    1  0.3807360E-011  0.4778728E+02  0.7816164E-02  0.1312668E+00
        -11   -1    0    0    0    0  0.00000000000E+00  0.00000000000E+00  0.45593999997E+02  0.45594000000E+02  0.51100000000E-03 0. -1.
         11   -1    0    0    0    0 -0.00000000000E+00 -0.00000000000E+00 -0.45593999997E+02  0.45594000000E+02  0.51100000000E-03 0.  1.
    9900012    2    1    2    0    0  0.11443065976E+02 -0.77282783846E+01 -0.41145503492E+02  0.47787279922E+02  0.20000040476E+02 0.  0.
         12    1    1    2    0    0 -0.11443065976E+02  0.77282783846E+01  0.41145503492E+02  0.43400720078E+02  0.00000000000E+00 0. -1.
         11    1    3    3    0    0 -0.26125146162E+01 -0.29852546831E+01 -0.44981674579E+01  0.59975402360E+01  0.51100000000E-03 0. -1.
        -11    1    3    3    0    0  0.66648672308E+01 -0.48877934811E+01 -0.32018278046E+02  0.33067825898E+02  0.51100000000E-03 0.  1.
         12    1    3    3    0    0  0.73907133609E+01  0.14476977954E+00 -0.46290579881E+01  0.87219137883E+01  0.00000000000E+00 0. -1.
</event>
<event>
 7    1  0.3807360E-011  0.4778727E+02  0.7816164E-02  0.1312668E+00
        -11   -1    0    0    0    0  0.00000000000E+00  0.00000000000E+00  0.45593999997E+02  0.45594000000E+02  0.51100000000E-03 0.  1.
         11   -1    0    0    0    0 -0.00000000000E+00 -0.00000000000E+00 -0.45593999997E+02  0.45594000000E+02  0.51100000000E-03 0. -1.
    9900012    2    1    2    0    0 -0.19337821118E+02 -0.34909016162E+02 -0.17059681415E+02  0.47787268843E+02  0.19999989961E+02 0.  0.
         12    1    1    2    0    0  0.19337821118E+02  0.34909016162E+02  0.17059681415E+02  0.43400731157E+02  0.00000000000E+00 0. -1.
         11    1    3    3    0    0 -0.53126111003E+01 -0.11556118788E+01 -0.70732635570E+01  0.89213414420E+01  0.51100000000E-03 0. -1.
        -11    1    3    3    0    0 -0.94913595462E+01 -0.13287335137E+02 -0.20748734840E+01  0.16460385212E+02  0.51100000000E-03 0.  1.
        -12    1    3    3    0    0 -0.45338504712E+01 -0.20466069146E+02 -0.79115443738E+01  0.22405542189E+02  0.00000000000E+00 0.  1.
</event>
<event>
 7    1  0.3807360E-011  0.4778727E+02  0.7816164E-02  0.1312668E+00
        -11   -1    0    0    0    0  0.00000000000E+00  0.00000000000E+00  0.45593999997E+02  0.45594000000E+02  0.51100000000E-03 0. -1.
         11   -1    0    0    0    0 -0.00000000000E+00 -0.00000000000E+00 -0.45593999997E+02  0.45594000000E+02  0.51100000000E-03 0.  1.
    9900012    2    1    2    0    0  0.14399122681E+02 -0.20889591572E+02 -0.35212403245E+02  0.47787272906E+02  0.20000008486E+02 0.  0.
         12    1    1    2    0    0 -0.14399122681E+02  0.20889591572E+02  0.35212403245E+02  0.43400727094E+02  0.00000000000E+00 0. -1.
         11    1    3    3    0    0  0.75705703818E+01 -0.66969807860E+01 -0.16334344986E+02  0.19208693707E+02  0.51100000000E-03 0.  1.
        -11    1    3    3    0    0  0.79373720226E+01 -0.82065757711E+01 -0.19355656516E+02  0.22472009255E+02  0.51100000000E-03 0. -1.
         12    1    3    3    0    0 -0.11088197238E+01 -0.59860350153E+01  0.47759825718E+00  0.61065699439E+01  0.00000000000E+00 0. -1.
</event>
<event>
 7    1  0.3807360E-011  0.4778727E+02  0.7816164E-02  0.1312668E+00
        -11   -1    0    0    0    0  0.00000000000E+00  0.00000000000E+00  0.45593999997E+02  0.45594000000E+02  0.51100000000E-03 0. -1.
         11   -1    0    0    0    0 -0.00000000000E+00 -0.00000000000E+00 -0.45593999997E+02  0.45594000000E+02  0.51100000000E-03 0.  1.
    9900012    2    1    2    0    0  0.13725260737E+02  0.31297879719E+02  0.26752255778E+02  0.47787271361E+02  0.20000001445E+02 0.  0.
        -12    1    1    2    0    0 -0.13725260737E+02 -0.31297879719E+02 -0.26752255778E+02  0.43400728639E+02  0.00000000000E+00 0.  1.
         11    1    3    3    0    0  0.67750681837E+01  0.20434248121E+02  0.21378647489E+02  0.30339851909E+02  0.51100000000E-03 0. -1.
        -11    1    3    3    0    0  0.88539845011E+01  0.53461943626E+01  0.52740209155E+01  0.11609915270E+02  0.51100000000E-03 0.  1.
        -12    1    3    3    0    0 -0.19037919475E+01  0.55174372354E+01  0.99587373029E-01  0.58375041816E+01  0.00000000000E+00 0.  1.
</event>
<event>
 7    1  0.3807360E-011  0.4778727E+02  0.7816164E-02  0.1312668E+00
        -11   -1    0    0    0    0  0.00000000000E+00  0.00000000000E+00  0.45593999997E+02  0.45594000000E+02  0.51100000000E-03 0. -1.
         11   -1    0    0    0    0 -0.00000000000E+00 -0.00000000000E+00 -0.45593999997E+02  0.45594000000E+02  0.51100000000E-03 0.  1.
    9900012    2    1    2    0    0  0.42513965378E+02 -0.85332526934E+01 -0.18356190092E+01  0.47787272462E+02  0.20000006463E+02 0.  0.
        -12    1    1    2    0    0 -0.42513965378E+02  0.85332526934E+01  0.18356190092E+01  0.43400727538E+02  0.00000000000E+00 0.  1.
         11    1    3    3    0    0  0.53006636851E+01 -0.70588742977E+01 -0.18660479098E+01  0.90225759578E+01  0.51100000000E-03 0.  1.
        -11    1    3    3    0    0  0.20400962916E+02  0.15105085453E+01 -0.48138644913E+01  0.21015570789E+02  0.51100000000E-03 0. -1.
        -12    1    3    3    0    0  0.16812338777E+02 -0.29848869411E+01  0.48442933918E+01  0.17749125716E+02  0.00000000000E+00 0.  1.
</event>
<event>
 7    1  0.3807360E-011  0.4778727E+02  0.7816164E-02  0.1312668E+00
        -11   -1    0    0    0    0  0.00000000000E+00  0.00000000000E+00  0.45593999997E+02  0.45594000000E+02  0.51100000000E-03 0. -1.
         11   -1    0    0    0    0 -0.00000000000E+00 -0.00000000000E+00 -0.45593999997E+02  0.45594000000E+02  0.51100000000E-03 0.  1.
    9900012    2    1    2    0    0  0.13300467585E+02  0.11742142042E+02 -0.39608621224E+02  0.47787271745E+02  0.20000003196E+02 0.  0.
         12    1    1    2    0    0 -0.13300467585E+02 -0.11742142042E+02  0.39608621224E+02  0.43400728255E+02  0.00000000000E+00 0. -1.
         11    1    3    3    0    0  0.63317666764E+01 -0.32280360167E+01 -0.33133482753E+01  0.78415408450E+01  0.51100000000E-03 0. -1.
        -11    1    3    3    0    0  0.16927797524E+01  0.50150943037E+01 -0.13957365520E+02  0.14927314785E+02  0.51100000000E-03 0.  1.
         12    1    3    3    0    0  0.52759211565E+01  0.99550837552E+01 -0.22337907429E+02  0.25018416116E+02  0.00000000000E+00 0. -1.
</event>
<event>
 7    1  0.3807360E-011  0.4778727E+02  0.7816164E-02  0.1312668E+00
        -11   -1    0    0    0    0  0.00000000000E+00  0.00000000000E+00  0.45593999997E+02  0.45594000000E+02  0.51100000000E-03 0. -1.
         11   -1    0    0    0    0 -0.00000000000E+00 -0.00000000000E+00 -0.45593999997E+02  0.45594000000E+02  0.51100000000E-03 0.  1.
    9900012    2    1    2    0    0 -0.13984710131E+02 -0.21278161766E+02  0.35146702088E+02  0.47787274739E+02  0.20000016843E+02 0.  0.
        -12    1    1    2    0    0  0.13984710131E+02  0.21278161766E+02 -0.35146702088E+02  0.43400725261E+02  0.00000000000E+00 0.  1.
         11    1    3    3    0    0 -0.10764856693E+02 -0.22371182575E+02  0.36015268025E+02  0.43743016364E+02  0.51100000000E-03 0. -1.
        -11    1    3    3    0    0 -0.41627505165E+00  0.10579269529E+01 -0.37656084687E+00  0.11976195927E+01  0.51100000000E-03 0.  1.
         12    1    3    3    0    0 -0.28035783859E+01  0.35093856551E-01 -0.49200509065E+00  0.28466387818E+01  0.00000000000E+00 0. -1.
</event>
<event>
 7    1  0.3807360E-011  0.4778727E+02  0.7816164E-02  0.1312668E+00
        -11   -1    0    0    0    0  0.00000000000E+00  0.00000000000E+00  0.45593999997E+02  0.45594000000E+02  0.51100000000E-03 0. -1.
         11   -1    0    0    0    0 -0.00000000000E+00 -0.00000000000E+00 -0.45593999997E+02  0.45594000000E+02  0.51100000000E-03 0.  1.
    9900012    2    1    2    0    0 -0.21582681388E+02  0.32671823049E+02  0.18717996584E+02  0.47787267824E+02  0.19999985317E+02 0.  0.
        -12    1    1    2    0    0  0.21582681388E+02 -0.32671823049E+02 -0.18717996584E+02  0.43400732176E+02  0.00000000000E+00 0.  1.
         11    1    3    3    0    0 -0.10172252175E+01 -0.56557741606E+00 -0.12297898999E+01  0.16932242662E+01  0.51100000000E-03 0.  1.
        -11    1    3    3    0    0 -0.39174604290E+01  0.43257779619E+01  0.94724269287E+01  0.11125903261E+02  0.51100000000E-03 0. -1.
        -12    1    3    3    0    0 -0.16647995742E+02  0.28911622504E+02  0.10475359556E+02  0.34968140297E+02  0.00000000000E+00 0.  1.
</event>
<event>
 7    1  0.4536514E-011  0.4778728E+02  0.7816164E-02  0.1312668E+00
        -11   -1    0    0    0    0  0.00000000000E+00  0.00000000000E+00  0.45593999997E+02  0.45594000000E+02  0.51100000000E-03 0. -1.
         11   -1    0    0    0    0 -0.00000000000E+00 -0.00000000000E+00 -0.45593999997E+02  0.45594000000E+02  0.51100000000E-03 0.  1.
    9900012    2    1    2    0    0  0.21147681645E+02  0.29326382103E+02 -0.24007526317E+02  0.47787280581E+02  0.20000043481E+02 0.  0.
         12    1    1    2    0    0 -0.21147681645E+02 -0.29326382103E+02  0.24007526317E+02  0.43400719419E+02  0.00000000000E+00 0. -1.
         11    1    3    3    0    0  0.10787811066E+02  0.67340675929E+01 -0.12427519742E+02  0.17781107422E+02  0.51100000000E-03 0. -1.
        -11    1    3    3    0    0  0.10441172343E+02  0.14414761779E+02 -0.28179608898E+01  0.18020664274E+02  0.51100000000E-03 0.  1.
         12    1    3    3    0    0 -0.81301763646E-01  0.81775527318E+01 -0.87620456853E+01  0.11985508886E+02  0.00000000000E+00 0. -1.
</event>
<event>
 7    1  0.3807360E-011  0.4778727E+02  0.7816164E-02  0.1312668E+00
        -11   -1    0    0    0    0  0.00000000000E+00  0.00000000000E+00  0.45593999997E+02  0.45594000000E+02  0.51100000000E-03 0. -1.
         11   -1    0    0    0    0 -0.00000000000E+00 -0.00000000000E+00 -0.45593999997E+02  0.45594000000E+02  0.51100000000E-03 0.  1.
    9900012    2    1    2    0    0  0.34793153812E+02 -0.17025040500E+02 -0.19575692529E+02  0.47787270810E+02  0.19999998931E+02 0.  0.
         12    1    1    2    0    0 -0.34793153812E+02  0.17025040500E+02  0.19575692529E+02  0.43400729190E+02  0.00000000000E+00 0. -1.
         11    1    3    3    0    0  0.30138338018E+01  0.14129144999E+01 -0.13288044564E+01  0.35840261039E+01  0.51100000000E-03 0. -1.
        -11    1    3    3    0    0  0.29452173262E+02 -0.20267142910E+02 -0.19791686806E+02  0.40864391082E+02  0.51100000000E-03 0.  1.
        -12    1    3    3    0    0  0.23271467481E+01  0.18291879101E+01  0.15447987331E+01  0.33388536241E+01  0.00000000000E+00 0.  1.
</event>
<event>
 7    1  0.3807360E-011  0.4778727E+02  0.7816164E-02  0.1312668E+00
        -11   -1    0    0    0    0  0.00000000000E+00  0.00000000000E+00  0.45593999997E+02  0.45594000000E+02  0.51100000000E-03 0. -1.
         11   -1    0    0    0    0 -0.00000000000E+00 -0.00000000000E+00 -0.45593999997E+02  0.45594000000E+02  0.51100000000E-03 0.  1.
    9900012    2    1    2    0    0 -0.11539332951E+02 -0.14925137976E+02  0.39085892900E+02  0.47787274518E+02  0.20000015838E+02 0.  0.
        -12    1    1    2    0    0  0.11539332951E+02  0.14925137976E+02 -0.39085892900E+02  0.43400725482E+02  0.00000000000E+00 0.  1.
         11    1    3    3    0    0 -0.13848354698E+01 -0.34776405761E+01  0.24725232955E+02  0.25006976990E+02  0.51100000000E-03 0. -1.
        -11    1    3    3    0    0 -0.11078430774E+01  0.14061154267E-01 -0.10670913145E+01  0.15382451478E+01  0.51100000000E-03 0.  1.
        -12    1    3    3    0    0 -0.90466544035E+01 -0.11461558554E+02  0.15427751260E+02  0.21242052380E+02  0.00000000000E+00 0.  1.
</event>
<event>
 7    1  0.3807360E-011  0.4778727E+02  0.7816164E-02  0.1312668E+00
        -11   -1    0    0    0    0  0.00000000000E+00  0.00000000000E+00  0.45593999997E+02  0.45594000000E+02  0.51100000000E-03 0.  1.
         11   -1    0    0    0    0 -0.00000000000E+00 -0.00000000000E+00 -0.45593999997E+02  0.45594000000E+02  0.51100000000E-03 0. -1.
    9900012    2    1    2    0    0 -0.13399572843E+02 -0.34323875237E+02  0.22933524872E+02  0.47787268131E+02  0.19999986717E+02 0.  0.
        -12    1    1    2    0    0  0.13399572843E+02  0.34323875237E+02 -0.22933524872E+02  0.43400731869E+02  0.00000000000E+00 0.  1.
         11    1    3    3    0    0 -0.86086111785E+01 -0.25767959142E+02  0.18587004302E+02  0.32917664467E+02  0.51100000000E-03 0. -1.
        -11    1    3    3    0    0 -0.77163877147E+01 -0.38182298786E+01  0.31988574023E+01  0.91844546769E+01  0.51100000000E-03 0.  1.
        -12    1    3    3    0    0  0.29254260501E+01 -0.47376862168E+01  0.11476631678E+01  0.56851489875E+01  0.00000000000E+00 0.  1.
</event>
<event>
 7    1  0.3807360E-011  0.4778728E+02  0.7816164E-02  0.1312668E+00
        -11   -1    0    0    0    0  0.00000000000E+00  0.00000000000E+00  0.45593999997E+02  0.45594000000E+02  0.51100000000E-03 0. -1.
         11   -1    0    0    0    0 -0.00000000000E+00 -0.00000000000E+00 -0.45593999997E+02  0.45594000000E+02  0.51100000000E-03 0.  1.
    9900012    2    1    2    0    0  0.23897192447E+02 -0.11156754750E+02 -0.34468441756E+02  0.47787280415E+02  0.20000042724E+02 0.  0.
         12    1    1    2    0    0 -0.23897192447E+02  0.11156754750E+02  0.34468441756E+02  0.43400719585E+02  0.00000000000E+00 0. -1.
         11    1    3    3    0    0  0.23237044813E+02 -0.93869996919E+01 -0.31662384897E+02  0.40380473406E+02  0.51100000000E-03 0. -1.
        -11    1    3    3    0    0 -0.12674449289E+01 -0.18796919504E+01 -0.43693846703E+01  0.49225177638E+01  0.51100000000E-03 0.  1.
         12    1    3    3    0    0  0.19275925634E+01  0.10993689228E+00  0.15633278111E+01  0.24842892456E+01  0.00000000000E+00 0. -1.
</event>
<event>
 7    1  0.3807360E-011  0.4778727E+02  0.7816164E-02  0.1312668E+00
        -11   -1    0    0    0    0  0.00000000000E+00  0.00000000000E+00  0.45593999997E+02  0.45594000000E+02  0.51100000000E-03 0. -1.
         11   -1    0    0    0    0 -0.00000000000E+00 -0.00000000000E+00 -0.45593999997E+02  0.45594000000E+02  0.51100000000E-03 0.  1.
    9900012    2    1    2    0    0 -0.14936973886E+02  0.39836753233E+02 -0.85757589019E+01  0.47787265700E+02  0.19999975633E+02 0.  0.
         12    1    1    2    0    0  0.14936973886E+02 -0.39836753233E+02  0.85757589019E+01  0.43400734300E+02  0.00000000000E+00 0. -1.
         11    1    3    3    0    0 -0.34207015221E+01  0.60106466147E+01 -0.76300577960E+01  0.10297905314E+02  0.51100000000E-03 0. -1.
        -11    1    3    3    0    0  0.26871307824E+00 -0.40621117827E+00 -0.11885141475E+01  0.12844377680E+01  0.51100000000E-03 0.  1.
         12    1    3    3    0    0 -0.11784985442E+02  0.34232317797E+02  0.24281304159E+00  0.36204922618E+02  0.00000000000E+00 0. -1.
</event>
<event>
 7    1  0.3807360E-011  0.4778727E+02  0.7816164E-02  0.1312668E+00
        -11   -1    0    0    0    0  0.00000000000E+00  0.00000000000E+00  0.45593999997E+02  0.45594000000E+02  0.51100000000E-03 0. -1.
         11   -1    0    0    0    0 -0.00000000000E+00 -0.00000000000E+00 -0.45593999997E+02  0.45594000000E+02  0.51100000000E-03 0.  1.
    9900012    2    1    2    0    0  0.39009040758E+01  0.70375024888E+01  0.42648325489E+02  0.47787272345E+02  0.20000005932E+02 0.  0.
        -12    1    1    2    0    0 -0.39009040758E+01 -0.70375024888E+01 -0.42648325489E+02  0.43400727655E+02  0.00000000000E+00 0.  1.
         11    1    3    3    0    0  0.10346795569E+02  0.25795833324E+01  0.27941710000E+02  0.29907350045E+02  0.51100000000E-03 0. -1.
        -11    1    3    3    0    0 -0.97624551449E+00 -0.39924216439E-01  0.82160143032E+01  0.82739072112E+01  0.51100000000E-03 0.  1.
        -12    1    3    3    0    0 -0.54696459788E+01  0.44978433728E+01  0.64906011863E+01  0.96060150895E+01  0.00000000000E+00 0.  1.
</event>
<event>
 7    1  0.3807360E-011  0.4778727E+02  0.7816164E-02  0.1312668E+00
        -11   -1    0    0    0    0  0.00000000000E+00  0.00000000000E+00  0.45593999997E+02  0.45594000000E+02  0.51100000000E-03 0. -1.
         11   -1    0    0    0    0 -0.00000000000E+00 -0.00000000000E+00 -0.45593999997E+02  0.45594000000E+02  0.51100000000E-03 0.  1.
    9900012    2    1    2    0    0 -0.86967136525E+01 -0.11209775877E+02  0.41016233536E+02  0.47787270547E+02  0.19999997734E+02 0.  0.
        -12    1    1    2    0    0  0.86967136525E+01  0.11209775877E+02 -0.41016233536E+02  0.43400729453E+02  0.00000000000E+00 0.  1.
         11    1    3    3    0    0  0.16195858609E+01 -0.44481069349E+01  0.48507943848E+01  0.67778256167E+01  0.51100000000E-03 0. -1.
        -11    1    3    3    0    0 -0.28331246821E+01  0.39889770143E+01  0.17741495191E+02  0.18403781812E+02  0.51100000000E-03 0.  1.
         12    1    3    3    0    0 -0.74831748312E+01 -0.10750645956E+02  0.18423943960E+02  0.22605663119E+02  0.00000000000E+00 0. -1.
</event>
<event>
 7    1  0.3807360E-011  0.4778729E+02  0.7816164E-02  0.1312668E+00
        -11   -1    0    0    0    0  0.00000000000E+00  0.00000000000E+00  0.45593999997E+02  0.45594000000E+02  0.51100000000E-03 0. -1.
         11   -1    0    0    0    0 -0.00000000000E+00 -0.00000000000E+00 -0.45593999997E+02  0.45594000000E+02  0.51100000000E-03 0.  1.
    9900012    2    1    2    0    0 -0.20613275046E+02  0.69883044268E+01 -0.37548344596E+02  0.47787289306E+02  0.20000083261E+02 0.  0.
         12    1    1    2    0    0  0.20613275046E+02 -0.69883044268E+01  0.37548344596E+02  0.43400710694E+02  0.00000000000E+00 0. -1.
         11    1    3    3    0    0 -0.56086674788E+01 -0.30129073205E+01 -0.21645338232E+02  0.22562256732E+02  0.51100000000E-03 0. -1.
        -11    1    3    3    0    0 -0.98561309888E+01  0.29292142577E+01 -0.55959730003E+01  0.11706345643E+02  0.51100000000E-03 0.  1.
        -12    1    3    3    0    0 -0.51484765787E+01  0.70719974897E+01 -0.10307033364E+02  0.13518686931E+02  0.00000000000E+00 0.  1.
</event>
<event>
 7    1  0.3807360E-011  0.4778727E+02  0.7816164E-02  0.1312668E+00
        -11   -1    0    0    0    0  0.00000000000E+00  0.00000000000E+00  0.45593999997E+02  0.45594000000E+02  0.51100000000E-03 0.  1.
         11   -1    0    0    0    0 -0.00000000000E+00 -0.00000000000E+00 -0.45593999997E+02  0.45594000000E+02  0.51100000000E-03 0. -1.
    9900012    2    1    2    0    0 -0.18240236710E+02  0.25136798141E+02  0.30315982107E+02  0.47787266975E+02  0.19999981446E+02 0.  0.
        -12    1    1    2    0    0  0.18240236710E+02 -0.25136798141E+02 -0.30315982107E+02  0.43400733025E+02  0.00000000000E+00 0.  1.
         11    1    3    3    0    0 -0.77768852666E+00  0.65495036976E+01  0.57025283029E+01  0.87189235250E+01  0.51100000000E-03 0. -1.
        -11    1    3    3    0    0 -0.15414286085E+02  0.44995093766E+01  0.11965632456E+02  0.20025537707E+02  0.51100000000E-03 0.  1.
        -12    1    3    3    0    0 -0.20482620985E+01  0.14087785066E+02  0.12647821348E+02  0.19042805743E+02  0.00000000000E+00 0.  1.
</event>
<event>
 7    1  0.3807360E-011  0.4778727E+02  0.7816164E-02  0.1312668E+00
        -11   -1    0    0    0    0  0.00000000000E+00  0.00000000000E+00  0.45593999997E+02  0.45594000000E+02  0.51100000000E-03 0. -1.
         11   -1    0    0    0    0 -0.00000000000E+00 -0.00000000000E+00 -0.45593999997E+02  0.45594000000E+02  0.51100000000E-03 0.  1.
    9900012    2    1    2    0    0  0.92471293118E+01  0.72662320343E+01  0.41776979060E+02  0.47787268348E+02  0.19999987708E+02 0.  0.
        -12    1    1    2    0    0 -0.92471293118E+01 -0.72662320343E+01 -0.41776979060E+02  0.43400731652E+02  0.00000000000E+00 0.  1.
         11    1    3    3    0    0  0.33149984518E+01  0.86358988140E+01  0.26002876316E+02  0.27599230787E+02  0.51100000000E-03 0. -1.
        -11    1    3    3    0    0  0.64769525463E+01  0.34155236134E+01  0.12048783350E+02  0.14099287086E+02  0.51100000000E-03 0.  1.
        -12    1    3    3    0    0 -0.54482168623E+00 -0.47851903932E+01  0.37253193939E+01  0.60887504757E+01  0.00000000000E+00 0.  1.
</event>
<event>
 7    1  0.3807360E-011  0.4778727E+02  0.7816164E-02  0.1312668E+00
        -11   -1    0    0    0    0  0.00000000000E+00  0.00000000000E+00  0.45593999997E+02  0.45594000000E+02  0.51100000000E-03 0. -1.
         11   -1    0    0    0    0 -0.00000000000E+00 -0.00000000000E+00 -0.45593999997E+02  0.45594000000E+02  0.51100000000E-03 0.  1.
    9900012    2    1    2    0    0 -0.15227853111E+02 -0.37663059097E+01 -0.40466665605E+02  0.47787267336E+02  0.19999983091E+02 0.  0.
         12    1    1    2    0    0  0.15227853111E+02  0.37663059097E+01  0.40466665605E+02  0.43400732664E+02  0.00000000000E+00 0. -1.
         11    1    3    3    0    0  0.12190843663E+01 -0.11681037773E+01  0.11561369491E+01  0.20462859118E+01  0.51100000000E-03 0. -1.
        -11    1    3    3    0    0 -0.13239793845E+02 -0.34219095078E+01 -0.22469883739E+02  0.26303940413E+02  0.51100000000E-03 0.  1.
        -12    1    3    3    0    0 -0.32071436322E+01  0.82370737533E+00 -0.19152918815E+02  0.19437041011E+02  0.00000000000E+00 0.  1.
</event>
<event>
 7    1  0.3807360E-011  0.4778727E+02  0.7816164E-02  0.1312668E+00
        -11   -1    0    0    0    0  0.00000000000E+00  0.00000000000E+00  0.45593999997E+02  0.45594000000E+02  0.51100000000E-03 0. -1.
         11   -1    0    0    0    0 -0.00000000000E+00 -0.00000000000E+00 -0.45593999997E+02  0.45594000000E+02  0.51100000000E-03 0.  1.
    9900012    2    1    2    0    0 -0.22220038805E+02 -0.33690528070E+02  0.15963764549E+02  0.47787267464E+02  0.19999983676E+02 0.  0.
        -12    1    1    2    0    0  0.22220038805E+02  0.33690528070E+02 -0.15963764549E+02  0.43400732536E+02  0.00000000000E+00 0.  1.
         11    1    3    3    0    0  0.11766380459E+01 -0.25362816458E+01  0.12021842282E+01  0.30434271566E+01  0.51100000000E-03 0. -1.
        -11    1    3    3    0    0  0.54490956015E+00 -0.46675570057E+01  0.66291520803E+01  0.81258028770E+01  0.51100000000E-03 0.  1.
         12    1    3    3    0    0 -0.23941586411E+02 -0.26486689418E+02  0.81324282401E+01  0.36618037431E+02  0.00000000000E+00 0. -1.
</event>
<event>
 7    1  0.3807360E-011  0.4778727E+02  0.7816164E-02  0.1312668E+00
        -11   -1    0    0    0    0  0.00000000000E+00  0.00000000000E+00  0.45593999997E+02  0.45594000000E+02  0.51100000000E-03 0. -1.
         11   -1    0    0    0    0 -0.00000000000E+00 -0.00000000000E+00 -0.45593999997E+02  0.45594000000E+02  0.51100000000E-03 0.  1.
    9900012    2    1    2    0    0 -0.91678407647E+01  0.29611468473E+01  0.42317916608E+02  0.47787265433E+02  0.19999974413E+02 0.  0.
        -12    1    1    2    0    0  0.91678407647E+01 -0.29611468473E+01 -0.42317916608E+02  0.43400734567E+02  0.00000000000E+00 0.  1.
         11    1    3    3    0    0 -0.98363557132E-01 -0.26391596523E+00  0.22846832382E+01  0.23019784504E+01  0.51100000000E-03 0. -1.
        -11    1    3    3    0    0  0.63340135173E-01  0.43390711696E+01  0.34452088843E+02  0.34724313910E+02  0.51100000000E-03 0.  1.
        -12    1    3    3    0    0 -0.91328173428E+01 -0.11140083570E+01  0.55811445268E+01  0.10760973072E+02  0.00000000000E+00 0.  1.
</event>
<event>
 7    1  0.3807360E-011  0.4778727E+02  0.7816164E-02  0.1312668E+00
        -11   -1    0    0    0    0  0.00000000000E+00  0.00000000000E+00  0.45593999997E+02  0.45594000000E+02  0.51100000000E-03 0. -1.
         11   -1    0    0    0    0 -0.00000000000E+00 -0.00000000000E+00 -0.45593999997E+02  0.45594000000E+02  0.51100000000E-03 0.  1.
    9900012    2    1    2    0    0  0.20169809917E+02  0.34647607881E+02  0.16623640417E+02  0.47787269768E+02  0.19999994180E+02 0.  0.
        -12    1    1    2    0    0 -0.20169809917E+02 -0.34647607881E+02 -0.16623640417E+02  0.43400730232E+02  0.00000000000E+00 0.  1.
         11    1    3    3    0    0 -0.21357204185E+01  0.44232436487E+01  0.36676512884E+01  0.61300939892E+01  0.51100000000E-03 0. -1.
        -11    1    3    3    0    0 -0.14852718950E+01  0.33832523026E+01  0.16838779581E+01  0.40605263186E+01  0.51100000000E-03 0.  1.
         12    1    3    3    0    0  0.23790802230E+02  0.26841111929E+02  0.11272111171E+02  0.37596649460E+02  0.00000000000E+00 0. -1.
</event>
<event>
 7    1  0.3807360E-011  0.4778727E+02  0.7816164E-02  0.1312668E+00
        -11   -1    0    0    0    0  0.00000000000E+00  0.00000000000E+00  0.45593999997E+02  0.45594000000E+02  0.51100000000E-03 0. -1.
         11   -1    0    0    0    0 -0.00000000000E+00 -0.00000000000E+00 -0.45593999997E+02  0.45594000000E+02  0.51100000000E-03 0.  1.
    9900012    2    1    2    0    0 -0.58383581193E+00  0.26467747191E+02  0.34390999626E+02  0.47787270041E+02  0.19999995427E+02 0.  0.
        -12    1    1    2    0    0  0.58383581193E+00 -0.26467747191E+02 -0.34390999626E+02  0.43400729959E+02  0.00000000000E+00 0.  1.
         11    1    3    3    0    0  0.20060663347E+01  0.11577068883E+02  0.25742546611E+02  0.28297200080E+02  0.51100000000E-03 0. -1.
        -11    1    3    3    0    0  0.78806089755E+00 -0.15761711658E+00 -0.10114315467E+01  0.12918502887E+01  0.51100000000E-03 0.  1.
         12    1    3    3    0    0 -0.33779630442E+01  0.15048295425E+02  0.96598845617E+01  0.18198219673E+02  0.00000000000E+00 0. -1.
</event>
<event>
 7    1  0.3807360E-011  0.4778727E+02  0.7816164E-02  0.1312668E+00
        -11   -1    0    0    0    0  0.00000000000E+00  0.00000000000E+00  0.45593999997E+02  0.45594000000E+02  0.51100000000E-03 0. -1.
         11   -1    0    0    0    0 -0.00000000000E+00 -0.00000000000E+00 -0.45593999997E+02  0.45594000000E+02  0.51100000000E-03 0.  1.
    9900012    2    1    2    0    0  0.22131799059E+01 -0.37842142028E+02  0.21135213626E+02  0.47787272661E+02  0.20000007370E+02 0.  0.
        -12    1    1    2    0    0 -0.22131799059E+01  0.37842142028E+02 -0.21135213626E+02  0.43400727339E+02  0.00000000000E+00 0.  1.
         11    1    3    3    0    0  0.11816563779E+01 -0.86703396314E+01  0.97960125103E+01  0.13135180337E+02  0.51100000000E-03 0. -1.
        -11    1    3    3    0    0  0.48201390757E+01 -0.78557198468E+01 -0.17093177794E+01  0.93737848574E+01  0.51100000000E-03 0.  1.
        -12    1    3    3    0    0 -0.37886155476E+01 -0.21316082549E+02  0.13048518895E+02  0.25278307467E+02  0.00000000000E+00 0.  1.
</event>
<event>
 7    1  0.3807360E-011  0.4778727E+02  0.7816164E-02  0.1312668E+00
        -11   -1    0    0    0    0  0.00000000000E+00  0.00000000000E+00  0.45593999997E+02  0.45594000000E+02  0.51100000000E-03 0. -1.
         11   -1    0    0    0    0 -0.00000000000E+00 -0.00000000000E+00 -0.45593999997E+02  0.45594000000E+02  0.51100000000E-03 0.  1.
    9900012    2    1    2    0    0  0.25934879442E+02  0.44555765009E+01  0.34513088974E+02  0.47787269083E+02  0.19999991056E+02 0.  0.
        -12    1    1    2    0    0 -0.25934879442E+02 -0.44555765009E+01 -0.34513088974E+02  0.43400730917E+02  0.00000000000E+00 0.  1.
         11    1    3    3    0    0  0.13981299216E+02  0.35911766684E+01  0.12868283006E+02  0.19338200160E+02  0.51100000000E-03 0. -1.
        -11    1    3    3    0    0  0.61383842239E+01  0.38212663800E+01  0.20612762094E+02  0.21844170825E+02  0.51100000000E-03 0.  1.
        -12    1    3    3    0    0  0.58151960022E+01 -0.29568665475E+01  0.10320438733E+01  0.66048980976E+01  0.00000000000E+00 0.  1.
</event>
<event>
 7    1  0.3807360E-011  0.4778727E+02  0.7816164E-02  0.1312668E+00
        -11   -1    0    0    0    0  0.00000000000E+00  0.00000000000E+00  0.45593999997E+02  0.45594000000E+02  0.51100000000E-03 0. -1.
         11   -1    0    0    0    0 -0.00000000000E+00 -0.00000000000E+00 -0.45593999997E+02  0.45594000000E+02  0.51100000000E-03 0.  1.
    9900012    2    1    2    0    0  0.17651402651E+02 -0.14893164950E+02 -0.36745679472E+02  0.47787270310E+02  0.19999996653E+02 0.  0.
         12    1    1    2    0    0 -0.17651402651E+02  0.14893164950E+02  0.36745679472E+02  0.43400729690E+02  0.00000000000E+00 0. -1.
         11    1    3    3    0    0  0.48206569577E+01 -0.10007241957E+02 -0.26641104296E+02  0.28864027153E+02  0.51100000000E-03 0. -1.
        -11    1    3    3    0    0  0.99089133078E+00  0.16136343390E+01  0.24227071324E+00  0.19090250834E+01  0.51100000000E-03 0.  1.
        -12    1    3    3    0    0  0.11839854363E+02 -0.64995573314E+01 -0.10346845889E+02  0.17014218074E+02  0.00000000000E+00 0.  1.
</event>
<event>
 7    1  0.3807360E-011  0.4778727E+02  0.7816164E-02  0.1312668E+00
        -11   -1    0    0    0    0  0.00000000000E+00  0.00000000000E+00  0.45593999997E+02  0.45594000000E+02  0.51100000000E-03 0. -1.
         11   -1    0    0    0    0 -0.00000000000E+00 -0.00000000000E+00 -0.45593999997E+02  0.45594000000E+02  0.51100000000E-03 0.  1.
    9900012    2    1    2    0    0 -0.10207277663E+02  0.64762458905E+01  0.41683247099E+02  0.47787269973E+02  0.19999995115E+02 0.  0.
        -12    1    1    2    0    0  0.10207277663E+02 -0.64762458905E+01 -0.41683247099E+02  0.43400730027E+02  0.00000000000E+00 0.  1.
         11    1    3    3    0    0 -0.11189987322E+02 -0.93592605616E+00  0.32776275175E+02  0.34646442653E+02  0.51100000000E-03 0. -1.
        -11    1    3    3    0    0  0.32164053370E+01  0.28330207852E+01  0.25251630414E+01  0.49747079017E+01  0.51100000000E-03 0.  1.
         12    1    3    3    0    0 -0.22336956779E+01  0.45791511615E+01  0.63818088827E+01  0.81661194185E+01  0.00000000000E+00 0. -1.
</event>
<event>
 7    1  0.3807360E-011  0.4778727E+02  0.7816164E-02  0.1312668E+00
        -11   -1    0    0    0    0  0.00000000000E+00  0.00000000000E+00  0.45593999997E+02  0.45594000000E+02  0.51100000000E-03 0. -1.
         11   -1    0    0    0    0 -0.00000000000E+00 -0.00000000000E+00 -0.45593999997E+02  0.45594000000E+02  0.51100000000E-03 0.  1.
    9900012    2    1    2    0    0 -0.42233104756E+02  0.69961926672E+01 -0.71443054333E+01  0.47787274783E+02  0.20000017047E+02 0.  0.
        -12    1    1    2    0    0  0.42233104756E+02 -0.69961926672E+01  0.71443054333E+01  0.43400725217E+02  0.00000000000E+00 0.  1.
         11    1    3    3    0    0 -0.41129055361E+02  0.32394386560E+01 -0.88872515435E+01  0.42202800830E+02  0.51100000000E-03 0. -1.
        -11    1    3    3    0    0 -0.15654326436E+01  0.32712098163E+01 -0.95576018240E-01  0.36277442110E+01  0.51100000000E-03 0.  1.
         12    1    3    3    0    0  0.46138324786E+00  0.48554419497E+00  0.18385221284E+01  0.19567297420E+01  0.00000000000E+00 0. -1.
</event>
<event>
 7    1  0.3807360E-011  0.4778727E+02  0.7816164E-02  0.1312668E+00
        -11   -1    0    0    0    0  0.00000000000E+00  0.00000000000E+00  0.45593999997E+02  0.45594000000E+02  0.51100000000E-03 0. -1.
         11   -1    0    0    0    0 -0.00000000000E+00 -0.00000000000E+00 -0.45593999997E+02  0.45594000000E+02  0.51100000000E-03 0.  1.
    9900012    2    1    2    0    0 -0.39471864918E+02  0.12909356773E+02 -0.12607304680E+02  0.47787265632E+02  0.19999975323E+02 0.  0.
         12    1    1    2    0    0  0.39471864918E+02 -0.12909356773E+02  0.12607304680E+02  0.43400734368E+02  0.00000000000E+00 0. -1.
         11    1    3    3    0    0 -0.24231405723E+02  0.35217790798E+01 -0.44439953961E+01  0.24886001015E+02  0.51100000000E-03 0. -1.
        -11    1    3    3    0    0 -0.16076217264E+02  0.99758396547E+01 -0.49891865935E+01  0.19566658413E+02  0.51100000000E-03 0.  1.
         12    1    3    3    0    0  0.83575806816E+00 -0.58826196140E+00 -0.31741226903E+01  0.33346062041E+01  0.00000000000E+00 0. -1.
</event>
<event>
 7    1  0.3807360E-011  0.4778727E+02  0.7816164E-02  0.1312668E+00
        -11   -1    0    0    0    0  0.00000000000E+00  0.00000000000E+00  0.45593999997E+02  0.45594000000E+02  0.51100000000E-03 0. -1.
         11   -1    0    0    0    0 -0.00000000000E+00 -0.00000000000E+00 -0.45593999997E+02  0.45594000000E+02  0.51100000000E-03 0.  1.
    9900012    2    1    2    0    0 -0.12835698814E+02 -0.53002170155E+01 -0.41119045962E+02  0.47787269530E+02  0.19999993096E+02 0.  0.
         12    1    1    2    0    0  0.12835698814E+02  0.53002170155E+01  0.41119045962E+02  0.43400730470E+02  0.00000000000E+00 0. -1.
         11    1    3    3    0    0  0.40770694729E+01 -0.31481692836E+01 -0.19788711923E+02  0.20448143807E+02  0.51100000000E-03 0. -1.
        -11    1    3    3    0    0 -0.62891031087E+01 -0.17059147134E+00 -0.76140748872E+01  0.98770469276E+01  0.51100000000E-03 0.  1.
         12    1    3    3    0    0 -0.10623665178E+02 -0.19814562605E+01 -0.13716259152E+02  0.17462078795E+02  0.00000000000E+00 0. -1.
</event>
<event>
 7    1  0.3807360E-011  0.4778730E+02  0.7816164E-02  0.1312668E+00
        -11   -1    0    0    0    0  0.00000000000E+00  0.00000000000E+00  0.45593999997E+02  0.45594000000E+02  0.51100000000E-03 0. -1.
         11   -1    0    0    0    0 -0.00000000000E+00 -0.00000000000E+00 -0.45593999997E+02  0.45594000000E+02  0.51100000000E-03 0.  1.
    9900012    2    1    2    0    0  0.13009811133E+02  0.49912144900E+01 -0.41102963716E+02  0.47787296849E+02  0.20000117653E+02 0.  0.
         12    1    1    2    0    0 -0.13009811133E+02 -0.49912144900E+01  0.41102963716E+02  0.43400703151E+02  0.00000000000E+00 0. -1.
         11    1    3    3    0    0  0.97349426492E+01 -0.18399146070E+01 -0.11799343822E+02  0.15407105797E+02  0.51100000000E-03 0. -1.
        -11    1    3    3    0    0 -0.27794652922E+01  0.15211789720E+01 -0.16389957337E+01  0.35673127213E+01  0.51100000000E-03 0.  1.
        -12    1    3    3    0    0  0.60543337755E+01  0.53099501251E+01 -0.27664624160E+02  0.28812878331E+02  0.00000000000E+00 0.  1.
</event>
<event>
 7    1  0.3807360E-011  0.4778727E+02  0.7816164E-02  0.1312668E+00
        -11   -1    0    0    0    0  0.00000000000E+00  0.00000000000E+00  0.45593999997E+02  0.45594000000E+02  0.51100000000E-03 0.  1.
         11   -1    0    0    0    0 -0.00000000000E+00 -0.00000000000E+00 -0.45593999997E+02  0.45594000000E+02  0.51100000000E-03 0. -1.
    9900012    2    1    2    0    0  0.43039209288E+02  0.31082198840E+01  0.46463764866E+01  0.47787269805E+02  0.19999994351E+02 0.  0.
        -12    1    1    2    0    0 -0.43039209288E+02 -0.31082198840E+01 -0.46463764866E+01  0.43400730195E+02  0.00000000000E+00 0.  1.
         11    1    3    3    0    0  0.11711223053E+01 -0.20178145657E+01  0.24895510269E+01  0.34118862309E+01  0.51100000000E-03 0. -1.
        -11    1    3    3    0    0  0.15445550609E+01 -0.13949411783E+01  0.28415963711E+01  0.35222409662E+01  0.51100000000E-03 0.  1.
         12    1    3    3    0    0  0.40323531922E+02  0.65209756280E+01 -0.68477091138E+00  0.40853142608E+02  0.00000000000E+00 0. -1.
</event>
<event>
 7    1  0.3807360E-011  0.4778727E+02  0.7816164E-02  0.1312668E+00
        -11   -1    0    0    0    0  0.00000000000E+00  0.00000000000E+00  0.45593999997E+02  0.45594000000E+02  0.51100000000E-03 0. -1.
         11   -1    0    0    0    0 -0.00000000000E+00 -0.00000000000E+00 -0.45593999997E+02  0.45594000000E+02  0.51100000000E-03 0.  1.
    9900012    2    1    2    0    0  0.10803448045E+02 -0.13591417512E+01 -0.42012638024E+02  0.47787268328E+02  0.19999987614E+02 0.  0.
         12    1    1    2    0    0 -0.10803448045E+02  0.13591417512E+01  0.42012638024E+02  0.43400731672E+02  0.00000000000E+00 0. -1.
         11    1    3    3    0    0  0.38414285474E+01 -0.48507908877E+01 -0.77675235056E+01  0.99308190594E+01  0.51100000000E-03 0. -1.
        -11    1    3    3    0    0 -0.42371103602E+01  0.24059625215E+01 -0.11034694532E+02  0.12062596882E+02  0.51100000000E-03 0.  1.
        -12    1    3    3    0    0  0.11199129858E+02  0.10856866150E+01 -0.23210419986E+02  0.25793852387E+02  0.00000000000E+00 0.  1.
</event>
<event>
 7    1  0.3807360E-011  0.4778727E+02  0.7816164E-02  0.1312668E+00
        -11   -1    0    0    0    0  0.00000000000E+00  0.00000000000E+00  0.45593999997E+02  0.45594000000E+02  0.51100000000E-03 0. -1.
         11   -1    0    0    0    0 -0.00000000000E+00 -0.00000000000E+00 -0.45593999997E+02  0.45594000000E+02  0.51100000000E-03 0.  1.
    9900012    2    1    2    0    0 -0.20497398842E+02 -0.14922214347E+02 -0.35225095028E+02  0.47787272356E+02  0.20000005980E+02 0.  0.
         12    1    1    2    0    0  0.20497398842E+02  0.14922214347E+02  0.35225095028E+02  0.43400727644E+02  0.00000000000E+00 0. -1.
         11    1    3    3    0    0  0.24704894681E+01 -0.66490735862E+01 -0.61597334631E+01  0.93944565763E+01  0.51100000000E-03 0. -1.
        -11    1    3    3    0    0 -0.18104170153E+01 -0.20189113165E+01 -0.15461564825E+01  0.31215721684E+01  0.51100000000E-03 0.  1.
        -12    1    3    3    0    0 -0.21157471295E+02 -0.62542294441E+01 -0.27519205082E+02  0.35271243611E+02  0.00000000000E+00 0.  1.
</event>
<event>
 7    1  0.3807360E-011  0.4778727E+02  0.7816164E-02  0.1312668E+00
        -11   -1    0    0    0    0  0.00000000000E+00  0.00000000000E+00  0.45593999997E+02  0.45594000000E+02  0.51100000000E-03 0. -1.
         11   -1    0    0    0    0 -0.00000000000E+00 -0.00000000000E+00 -0.45593999997E+02  0.45594000000E+02  0.51100000000E-03 0.  1.
    9900012    2    1    2    0    0 -0.37719062208E+02 -0.19170262257E+02  0.96641966831E+01  0.47787270670E+02  0.19999998293E+02 0.  0.
         12    1    1    2    0    0  0.37719062208E+02  0.19170262257E+02 -0.96641966831E+01  0.43400729330E+02  0.00000000000E+00 0. -1.
         11    1    3    3    0    0 -0.65386310628E+01  0.36381716761E+01 -0.75286481571E+00  0.75204251883E+01  0.51100000000E-03 0. -1.
        -11    1    3    3    0    0 -0.82468524897E+01 -0.79559443656E+01  0.16832723824E+01  0.11581926995E+02  0.51100000000E-03 0.  1.
         12    1    3    3    0    0 -0.22933578655E+02 -0.14852489567E+02  0.87337891164E+01  0.28684918487E+02  0.00000000000E+00 0. -1.
</event>
<event>
 7    1  0.3807360E-011  0.4778727E+02  0.7816164E-02  0.1312668E+00
        -11   -1    0    0    0    0  0.00000000000E+00  0.00000000000E+00  0.45593999997E+02  0.45594000000E+02  0.51100000000E-03 0. -1.
         11   -1    0    0    0    0 -0.00000000000E+00 -0.00000000000E+00 -0.45593999997E+02  0.45594000000E+02  0.51100000000E-03 0.  1.
    9900012    2    1    2    0    0  0.22448027115E+01 -0.25915968936E+02 -0.34741136931E+02  0.47787272121E+02  0.20000004910E+02 0.  0.
         12    1    1    2    0    0 -0.22448027115E+01  0.25915968936E+02  0.34741136931E+02  0.43400727879E+02  0.00000000000E+00 0. -1.
         11    1    3    3    0    0  0.46787130697E+01 -0.11680786070E+02 -0.11074828375E+02  0.16762545839E+02  0.51100000000E-03 0. -1.
        -11    1    3    3    0    0 -0.52184561536E+01 -0.14583021706E+02 -0.23586546476E+02  0.28217405650E+02  0.51100000000E-03 0.  1.
         12    1    3    3    0    0  0.27845457954E+01  0.34783883919E+00 -0.79762080267E-01  0.28073206326E+01  0.00000000000E+00 0. -1.
</event>
<event>
 7    1  0.3807360E-011  0.4778728E+02  0.7816164E-02  0.1312668E+00
        -11   -1    0    0    0    0  0.00000000000E+00  0.00000000000E+00  0.45593999997E+02  0.45594000000E+02  0.51100000000E-03 0. -1.
         11   -1    0    0    0    0 -0.00000000000E+00 -0.00000000000E+00 -0.45593999997E+02  0.45594000000E+02  0.51100000000E-03 0.  1.
    9900012    2    1    2    0    0 -0.44891501558E+01  0.89030999622E+01 -0.42239852747E+02  0.47787276295E+02  0.20000023938E+02 0.  0.
         12    1    1    2    0    0  0.44891501558E+01 -0.89030999622E+01  0.42239852747E+02  0.43400723705E+02  0.00000000000E+00 0. -1.
         11    1    3    3    0    0  0.17520582635E+01 -0.28119754906E+01 -0.16331947364E+02  0.16664615786E+02  0.51100000000E-03 0. -1.
        -11    1    3    3    0    0 -0.43804303325E+01  0.11021768194E+02 -0.26514547571E+02  0.29046321233E+02  0.51100000000E-03 0.  1.
         12    1    3    3    0    0 -0.18607780868E+01  0.69330725910E+00  0.60664218846E+00  0.20763392759E+01  0.00000000000E+00 0. -1.
</event>
<event>
 7    1  0.3807360E-011  0.4778727E+02  0.7816164E-02  0.1312668E+00
        -11   -1    0    0    0    0  0.00000000000E+00  0.00000000000E+00  0.45593999997E+02  0.45594000000E+02  0.51100000000E-03 0. -1.
         11   -1    0    0    0    0 -0.00000000000E+00 -0.00000000000E+00 -0.45593999997E+02  0.45594000000E+02  0.51100000000E-03 0.  1.
    9900012    2    1    2    0    0 -0.43023073691E+01  0.32423979117E+02  0.28527162926E+02  0.47787270801E+02  0.19999998888E+02 0.  0.
        -12    1    1    2    0    0  0.43023073691E+01 -0.32423979117E+02 -0.28527162926E+02  0.43400729199E+02  0.00000000000E+00 0.  1.
         11    1    3    3    0    0 -0.11329587197E+01  0.18332353750E+01  0.55494594393E+00  0.22253792177E+01  0.51100000000E-03 0. -1.
        -11    1    3    3    0    0 -0.67129023094E+01  0.30233847227E+02  0.20098508979E+02  0.36920165750E+02  0.51100000000E-03 0.  1.
         12    1    3    3    0    0  0.35435536600E+01  0.35689651472E+00  0.78737080026E+01  0.86417258331E+01  0.00000000000E+00 0. -1.
</event>
<event>
 7    1  0.3807360E-011  0.4778727E+02  0.7816164E-02  0.1312668E+00
        -11   -1    0    0    0    0  0.00000000000E+00  0.00000000000E+00  0.45593999997E+02  0.45594000000E+02  0.51100000000E-03 0. -1.
         11   -1    0    0    0    0 -0.00000000000E+00 -0.00000000000E+00 -0.45593999997E+02  0.45594000000E+02  0.51100000000E-03 0.  1.
    9900012    2    1    2    0    0  0.30434155842E+02  0.11750641506E+02  0.28623554143E+02  0.47787271096E+02  0.20000000235E+02 0.  0.
        -12    1    1    2    0    0 -0.30434155842E+02 -0.11750641506E+02 -0.28623554143E+02  0.43400728904E+02  0.00000000000E+00 0.  1.
         11    1    3    3    0    0  0.11474306309E+02 -0.25971844407E+01  0.11037912260E+02  0.16131973829E+02  0.51100000000E-03 0. -1.
        -11    1    3    3    0    0  0.48236847258E+01  0.61820528963E+01  0.12127860291E+02  0.14441977283E+02  0.51100000000E-03 0.  1.
         12    1    3    3    0    0  0.14136164807E+02  0.81657730502E+01  0.54577815922E+01  0.17213319984E+02  0.00000000000E+00 0. -1.
</event>
<event>
 7    1  0.3807360E-011  0.4778727E+02  0.7816164E-02  0.1312668E+00
        -11   -1    0    0    0    0  0.00000000000E+00  0.00000000000E+00  0.45593999997E+02  0.45594000000E+02  0.51100000000E-03 0.  1.
         11   -1    0    0    0    0 -0.00000000000E+00 -0.00000000000E+00 -0.45593999997E+02  0.45594000000E+02  0.51100000000E-03 0. -1.
    9900012    2    1    2    0    0 -0.26361382371E+02  0.18851750631E+02  0.28867152844E+02  0.47787268489E+02  0.19999988350E+02 0.  0.
        -12    1    1    2    0    0  0.26361382371E+02 -0.18851750631E+02 -0.28867152844E+02  0.43400731511E+02  0.00000000000E+00 0.  1.
         11    1    3    3    0    0 -0.39496750957E+01  0.86665656709E+01  0.14866323301E+02  0.17655505165E+02  0.51100000000E-03 0. -1.
        -11    1    3    3    0    0 -0.62946524150E+01  0.60734750118E+01  0.59237717782E+00  0.87670210862E+01  0.51100000000E-03 0.  1.
        -12    1    3    3    0    0 -0.16117054860E+02  0.41117099486E+01  0.13408452365E+02  0.21364742238E+02  0.00000000000E+00 0.  1.
</event>
<event>
 7    1  0.3807360E-011  0.4778727E+02  0.7816164E-02  0.1312668E+00
        -11   -1    0    0    0    0  0.00000000000E+00  0.00000000000E+00  0.45593999997E+02  0.45594000000E+02  0.51100000000E-03 0. -1.
         11   -1    0    0    0    0 -0.00000000000E+00 -0.00000000000E+00 -0.45593999997E+02  0.45594000000E+02  0.51100000000E-03 0.  1.
    9900012    2    1    2    0    0 -0.15024826683E+02  0.20531667123E+02 -0.35161460726E+02  0.47787273139E+02  0.20000009548E+02 0.  0.
         12    1    1    2    0    0  0.15024826683E+02 -0.20531667123E+02  0.35161460726E+02  0.43400726861E+02  0.00000000000E+00 0. -1.
         11    1    3    3    0    0 -0.12613174279E+02  0.12205177263E+02 -0.11699719624E+02  0.21093647313E+02  0.51100000000E-03 0. -1.
        -11    1    3    3    0    0  0.25709391916E+01  0.12514496033E+01 -0.18288955601E+01  0.33942176812E+01  0.51100000000E-03 0.  1.
        -12    1    3    3    0    0 -0.49825915958E+01  0.70750402566E+01 -0.21632845542E+02  0.23299408144E+02  0.00000000000E+00 0.  1.
</event>
<event>
 7    1  0.3807360E-011  0.4778727E+02  0.7816164E-02  0.1312668E+00
        -11   -1    0    0    0    0  0.00000000000E+00  0.00000000000E+00  0.45593999997E+02  0.45594000000E+02  0.51100000000E-03 0. -1.
         11   -1    0    0    0    0 -0.00000000000E+00 -0.00000000000E+00 -0.45593999997E+02  0.45594000000E+02  0.51100000000E-03 0.  1.
    9900012    2    1    2    0    0 -0.26865687852E+02 -0.41191721281E+01  0.33836229285E+02  0.47787272183E+02  0.20000005193E+02 0.  0.
        -12    1    1    2    0    0  0.26865687852E+02  0.41191721281E+01 -0.33836229285E+02  0.43400727817E+02  0.00000000000E+00 0.  1.
         11    1    3    3    0    0 -0.42256796440E+01 -0.72570146796E+00  0.16570921112E+02  0.17116612920E+02  0.51100000000E-03 0. -1.
        -11    1    3    3    0    0 -0.53821083562E+00  0.23283318752E+01  0.26223447695E+01  0.35478856487E+01  0.51100000000E-03 0.  1.
         12    1    3    3    0    0 -0.22101797372E+02 -0.57218025354E+01  0.14642963403E+02  0.27122773615E+02  0.00000000000E+00 0. -1.
</event>
<event>
 7    1  0.3807360E-011  0.4778727E+02  0.7816164E-02  0.1312668E+00
        -11   -1    0    0    0    0  0.00000000000E+00  0.00000000000E+00  0.45593999997E+02  0.45594000000E+02  0.51100000000E-03 0. -1.
         11   -1    0    0    0    0 -0.00000000000E+00 -0.00000000000E+00 -0.45593999997E+02  0.45594000000E+02  0.51100000000E-03 0.  1.
    9900012    2    1    2    0    0 -0.27285747894E+02  0.59501028734E+01  0.33222089169E+02  0.47787274533E+02  0.20000015906E+02 0.  0.
        -12    1    1    2    0    0  0.27285747894E+02 -0.59501028734E+01 -0.33222089169E+02  0.43400725467E+02  0.00000000000E+00 0.  1.
         11    1    3    3    0    0 -0.38908660928E+01 -0.36812383751E+01  0.45541413223E+01  0.70306869061E+01  0.51100000000E-03 0. -1.
        -11    1    3    3    0    0  0.43476820678E+00 -0.21315287942E+01  0.10027443071E+01  0.23953986726E+01  0.51100000000E-03 0.  1.
         12    1    3    3    0    0 -0.23829650008E+02  0.11762870043E+02  0.27665203539E+02  0.38361188954E+02  0.00000000000E+00 0. -1.
</event>
<event>
 7    1  0.3807360E-011  0.4778728E+02  0.7816164E-02  0.1312668E+00
        -11   -1    0    0    0    0  0.00000000000E+00  0.00000000000E+00  0.45593999997E+02  0.45594000000E+02  0.51100000000E-03 0. -1.
         11   -1    0    0    0    0 -0.00000000000E+00 -0.00000000000E+00 -0.45593999997E+02  0.45594000000E+02  0.51100000000E-03 0.  1.
    9900012    2    1    2    0    0  0.76314928766E+01 -0.38853176096E+02 -0.17771133200E+02  0.47787283975E+02  0.20000058956E+02 0.  0.
         12    1    1    2    0    0 -0.76314928766E+01  0.38853176096E+02  0.17771133200E+02  0.43400716025E+02  0.00000000000E+00 0. -1.
         11    1    3    3    0    0 -0.21234469104E+01 -0.11607394627E+02  0.27640599584E+01  0.12119433342E+02  0.51100000000E-03 0.  1.
        -11    1    3    3    0    0  0.64306849854E+01 -0.17037859878E+02 -0.10782219917E+02  0.21163616071E+02  0.51100000000E-03 0. -1.
        -12    1    3    3    0    0  0.33242548016E+01 -0.10207921591E+02 -0.97529732421E+01  0.14504234563E+02  0.00000000000E+00 0.  1.
</event>
<event>
 7    1  0.3807360E-011  0.4778727E+02  0.7816164E-02  0.1312668E+00
        -11   -1    0    0    0    0  0.00000000000E+00  0.00000000000E+00  0.45593999997E+02  0.45594000000E+02  0.51100000000E-03 0. -1.
         11   -1    0    0    0    0 -0.00000000000E+00 -0.00000000000E+00 -0.45593999997E+02  0.45594000000E+02  0.51100000000E-03 0.  1.
    9900012    2    1    2    0    0 -0.14169908200E+02  0.66499816085E+01  0.40479803475E+02  0.47787273702E+02  0.20000012118E+02 0.  0.
        -12    1    1    2    0    0  0.14169908200E+02 -0.66499816085E+01 -0.40479803475E+02  0.43400726298E+02  0.00000000000E+00 0.  1.
         11    1    3    3    0    0 -0.11080177597E+02  0.61737761853E+01  0.17527132715E+02  0.21635300540E+02  0.51100000000E-03 0. -1.
        -11    1    3    3    0    0 -0.52947948791E+00 -0.93144346490E+00 -0.13222565313E+01  0.17018513601E+01  0.51100000000E-03 0.  1.
         12    1    3    3    0    0 -0.25602511151E+01  0.14076488881E+01  0.24274927291E+02  0.24450121802E+02  0.00000000000E+00 0. -1.
</event>
<event>
 7    1  0.3807360E-011  0.4778726E+02  0.7816164E-02  0.1312668E+00
        -11   -1    0    0    0    0  0.00000000000E+00  0.00000000000E+00  0.45593999997E+02  0.45594000000E+02  0.51100000000E-03 0. -1.
         11   -1    0    0    0    0 -0.00000000000E+00 -0.00000000000E+00 -0.45593999997E+02  0.45594000000E+02  0.51100000000E-03 0.  1.
    9900012    2    1    2    0    0 -0.16256114681E+02  0.20586129783E+02 -0.34577072304E+02  0.47787263450E+02  0.19999965375E+02 0.  0.
         12    1    1    2    0    0  0.16256114681E+02 -0.20586129783E+02  0.34577072304E+02  0.43400736550E+02  0.00000000000E+00 0. -1.
         11    1    3    3    0    0 -0.10024386112E+02  0.15983101657E+02 -0.25542903197E+02  0.31755121783E+02  0.51100000000E-03 0.  1.
        -11    1    3    3    0    0  0.23616766152E+01  0.39190924375E+01 -0.37926124717E+01  0.59431230502E+01  0.51100000000E-03 0. -1.
         12    1    3    3    0    0 -0.85934051846E+01  0.68393568860E+00 -0.52415566354E+01  0.10089018617E+02  0.00000000000E+00 0. -1.
</event>
<event>
 7    1  0.3807360E-011  0.4778727E+02  0.7816164E-02  0.1312668E+00
        -11   -1    0    0    0    0  0.00000000000E+00  0.00000000000E+00  0.45593999997E+02  0.45594000000E+02  0.51100000000E-03 0. -1.
         11   -1    0    0    0    0 -0.00000000000E+00 -0.00000000000E+00 -0.45593999997E+02  0.45594000000E+02  0.51100000000E-03 0.  1.
    9900012    2    1    2    0    0  0.33759238928E+02 -0.12222397256E+02 -0.24383398953E+02  0.47787270143E+02  0.19999995889E+02 0.  0.
         12    1    1    2    0    0 -0.33759238928E+02  0.12222397256E+02  0.24383398953E+02  0.43400729857E+02  0.00000000000E+00 0. -1.
         11    1    3    3    0    0  0.18247845495E+02 -0.11009416863E+02 -0.12118555064E+02  0.24516331331E+02  0.51100000000E-03 0.  1.
        -11    1    3    3    0    0  0.27541143745E+01 -0.24313131353E+00  0.25046017086E+01  0.37305882650E+01  0.51100000000E-03 0. -1.
         12    1    3    3    0    0  0.12757279058E+02 -0.96984907959E+00 -0.14769445598E+02  0.19540350546E+02  0.00000000000E+00 0. -1.
</event>
<event>
 7    1  0.3807360E-011  0.4778727E+02  0.7816164E-02  0.1312668E+00
        -11   -1    0    0    0    0  0.00000000000E+00  0.00000000000E+00  0.45593999997E+02  0.45594000000E+02  0.51100000000E-03 0.  1.
         11   -1    0    0    0    0 -0.00000000000E+00 -0.00000000000E+00 -0.45593999997E+02  0.45594000000E+02  0.51100000000E-03 0. -1.
    9900012    2    1    2    0    0  0.19634723004E+02 -0.37954257390E+02  0.75878375890E+01  0.47787270965E+02  0.19999999640E+02 0.  0.
        -12    1    1    2    0    0 -0.19634723004E+02  0.37954257390E+02 -0.75878375890E+01  0.43400729035E+02  0.00000000000E+00 0.  1.
         11    1    3    3    0    0  0.11048634939E+02 -0.14711808686E+02  0.43201997010E+01  0.18899041630E+02  0.51100000000E-03 0. -1.
        -11    1    3    3    0    0  0.45755545635E+01 -0.12662483486E+02 -0.55305627994E+01  0.14555456459E+02  0.51100000000E-03 0.  1.
         12    1    3    3    0    0  0.40105335018E+01 -0.10579965218E+02  0.87982006875E+01  0.14332772876E+02  0.00000000000E+00 0. -1.
</event>
<event>
 7    1  0.3807360E-011  0.4778722E+02  0.7816164E-02  0.1312668E+00
        -11   -1    0    0    0    0  0.00000000000E+00  0.00000000000E+00  0.45593999997E+02  0.45594000000E+02  0.51100000000E-03 0.  1.
         11   -1    0    0    0    0 -0.00000000000E+00 -0.00000000000E+00 -0.45593999997E+02  0.45594000000E+02  0.51100000000E-03 0. -1.
    9900012    2    1    2    0    0  0.28700092784E+01 -0.43285127586E+02  0.13374119805E+01  0.47787217816E+02  0.19999757308E+02 0.  0.
         12    1    1    2    0    0 -0.28700092784E+01  0.43285127586E+02 -0.13374119805E+01  0.43400782184E+02  0.00000000000E+00 0. -1.
         11    1    3    3    0    0 -0.17676789685E+01 -0.38940817669E+01 -0.56194945350E-01  0.42768820274E+01  0.51100000000E-03 0. -1.
        -11    1    3    3    0    0 -0.59919446763E+01 -0.21289535399E+02  0.35817858288E+01  0.22404841184E+02  0.51100000000E-03 0.  1.
         12    1    3    3    0    0  0.10629632923E+02 -0.18101510420E+02 -0.21881789029E+01  0.21105494604E+02  0.00000000000E+00 0. -1.
</event>
<event>
 7    1  0.3807360E-011  0.4778727E+02  0.7816164E-02  0.1312668E+00
        -11   -1    0    0    0    0  0.00000000000E+00  0.00000000000E+00  0.45593999997E+02  0.45594000000E+02  0.51100000000E-03 0. -1.
         11   -1    0    0    0    0 -0.00000000000E+00 -0.00000000000E+00 -0.45593999997E+02  0.45594000000E+02  0.51100000000E-03 0.  1.
    9900012    2    1    2    0    0  0.49961852574E+01 -0.32830909431E+02 -0.27942675308E+02  0.47787267465E+02  0.19999983681E+02 0.  0.
         12    1    1    2    0    0 -0.49961852574E+01  0.32830909431E+02  0.27942675308E+02  0.43400732535E+02  0.00000000000E+00 0. -1.
         11    1    3    3    0    0  0.14857953986E+01  0.11521389940E+01 -0.55082806453E+00  0.19591896401E+01  0.51100000000E-03 0. -1.
        -11    1    3    3    0    0  0.49281222959E+00 -0.21678567626E+02 -0.89608083896E+01  0.23462720334E+02  0.51100000000E-03 0.  1.
        -12    1    3    3    0    0  0.30175776292E+01 -0.12304480799E+02 -0.18431038854E+02  0.22365357491E+02  0.00000000000E+00 0.  1.
</event>
<event>
 7    1  0.3807360E-011  0.4778727E+02  0.7816164E-02  0.1312668E+00
        -11   -1    0    0    0    0  0.00000000000E+00  0.00000000000E+00  0.45593999997E+02  0.45594000000E+02  0.51100000000E-03 0. -1.
         11   -1    0    0    0    0 -0.00000000000E+00 -0.00000000000E+00 -0.45593999997E+02  0.45594000000E+02  0.51100000000E-03 0.  1.
    9900012    2    1    2    0    0 -0.14191222152E+02 -0.36171635148E+02  0.19335084670E+02  0.47787268732E+02  0.19999989456E+02 0.  0.
        -12    1    1    2    0    0  0.14191222152E+02  0.36171635148E+02 -0.19335084670E+02  0.43400731268E+02  0.00000000000E+00 0.  1.
         11    1    3    3    0    0  0.23363745196E+01 -0.79831383696E+00 -0.62526719779E-01  0.24697896125E+01  0.51100000000E-03 0.  1.
        -11    1    3    3    0    0 -0.44559892256E+01 -0.89468921758E+01 -0.65425870452E+00  0.10016525061E+02  0.51100000000E-03 0. -1.
         12    1    3    3    0    0 -0.12071607446E+02 -0.26426429135E+02  0.20051870094E+02  0.35300954058E+02  0.00000000000E+00 0. -1.
</event>
<event>
 7    1  0.3807360E-011  0.4778727E+02  0.7816164E-02  0.1312668E+00
        -11   -1    0    0    0    0  0.00000000000E+00  0.00000000000E+00  0.45593999997E+02  0.45594000000E+02  0.51100000000E-03 0. -1.
         11   -1    0    0    0    0 -0.00000000000E+00 -0.00000000000E+00 -0.45593999997E+02  0.45594000000E+02  0.51100000000E-03 0.  1.
    9900012    2    1    2    0    0 -0.17355462652E+02 -0.35159818225E+02 -0.18606409361E+02  0.47787269928E+02  0.19999994911E+02 0.  0.
         12    1    1    2    0    0  0.17355462652E+02  0.35159818225E+02  0.18606409361E+02  0.43400730072E+02  0.00000000000E+00 0. -1.
         11    1    3    3    0    0  0.16998214222E+01 -0.13439008102E+02 -0.15635268528E+01  0.13636016578E+02  0.51100000000E-03 0. -1.
        -11    1    3    3    0    0 -0.46755500887E+01 -0.17918553113E+01 -0.32601688032E+01  0.59749656882E+01  0.51100000000E-03 0.  1.
         12    1    3    3    0    0 -0.14379733985E+02 -0.19928954812E+02 -0.13782713705E+02  0.28176287662E+02  0.00000000000E+00 0. -1.
</event>
<event>
 7    1  0.3807360E-011  0.4778727E+02  0.7816164E-02  0.1312668E+00
        -11   -1    0    0    0    0  0.00000000000E+00  0.00000000000E+00  0.45593999997E+02  0.45594000000E+02  0.51100000000E-03 0. -1.
         11   -1    0    0    0    0 -0.00000000000E+00 -0.00000000000E+00 -0.45593999997E+02  0.45594000000E+02  0.51100000000E-03 0.  1.
    9900012    2    1    2    0    0  0.56795097034E+01 -0.49247398664E+01 -0.42744749158E+02  0.47787268741E+02  0.19999989499E+02 0.  0.
         12    1    1    2    0    0 -0.56795097034E+01  0.49247398664E+01  0.42744749158E+02  0.43400731259E+02  0.00000000000E+00 0. -1.
         11    1    3    3    0    0 -0.12972054156E-01 -0.41593983923E+01 -0.36589581575E+02  0.36825239217E+02  0.51100000000E-03 0.  1.
        -11    1    3    3    0    0  0.49753857845E+01 -0.56174990677E+00 -0.77355898258E+01  0.92146284177E+01  0.51100000000E-03 0. -1.
        -12    1    3    3    0    0  0.71709597304E+00 -0.20359156736E+00  0.15804222433E+01  0.17474011068E+01  0.00000000000E+00 0.  1.
</event>
<event>
 7    1  0.5077252E-011  0.4778729E+02  0.7816164E-02  0.1312668E+00
        -11   -1    0    0    0    0  0.00000000000E+00  0.00000000000E+00  0.45593999997E+02  0.45594000000E+02  0.51100000000E-03 0. -1.
         11   -1    0    0    0    0 -0.00000000000E+00 -0.00000000000E+00 -0.45593999997E+02  0.45594000000E+02  0.51100000000E-03 0.  1.
    9900012    2    1    2    0    0 -0.23525658486E+01  0.17712442554E+02 -0.39551948823E+02  0.47787287529E+02  0.20000075158E+02 0.  0.
         12    1    1    2    0    0  0.23525658486E+01 -0.17712442554E+02  0.39551948823E+02  0.43400712471E+02  0.00000000000E+00 0. -1.
         11    1    3    3    0    0 -0.34244715913E+01 -0.16482940128E+01 -0.77565381624E+01  0.86375785587E+01  0.51100000000E-03 0. -1.
        -11    1    3    3    0    0  0.45771033899E+01  0.93195747867E+01 -0.23399755651E+02  0.25599861610E+02  0.51100000000E-03 0.  1.
         12    1    3    3    0    0 -0.35051976473E+01  0.10041161780E+02 -0.83956550099E+01  0.13549847360E+02  0.00000000000E+00 0. -1.
</event>
<event>
 7    1  0.3807360E-011  0.4778727E+02  0.7816164E-02  0.1312668E+00
        -11   -1    0    0    0    0  0.00000000000E+00  0.00000000000E+00  0.45593999997E+02  0.45594000000E+02  0.51100000000E-03 0. -1.
         11   -1    0    0    0    0 -0.00000000000E+00 -0.00000000000E+00 -0.45593999997E+02  0.45594000000E+02  0.51100000000E-03 0.  1.
    9900012    2    1    2    0    0 -0.34413665161E+01 -0.21888597010E+02 -0.37318488525E+02  0.47787271108E+02  0.20000000291E+02 0.  0.
         12    1    1    2    0    0  0.34413665161E+01  0.21888597010E+02  0.37318488525E+02  0.43400728892E+02  0.00000000000E+00 0. -1.
         11    1    3    3    0    0 -0.25333881990E+01 -0.11281017378E+01 -0.29251495262E+00  0.27885900660E+01  0.51100000000E-03 0. -1.
        -11    1    3    3    0    0  0.63580479530E+01 -0.85364325392E+01 -0.21201712552E+02  0.23723576241E+02  0.51100000000E-03 0.  1.
        -12    1    3    3    0    0 -0.72660262701E+01 -0.12224062733E+02 -0.15824261020E+02  0.21275104801E+02  0.00000000000E+00 0.  1.
</event>
<event>
 7    1  0.3807360E-011  0.4778727E+02  0.7816164E-02  0.1312668E+00
        -11   -1    0    0    0    0  0.00000000000E+00  0.00000000000E+00  0.45593999997E+02  0.45594000000E+02  0.51100000000E-03 0. -1.
         11   -1    0    0    0    0 -0.00000000000E+00 -0.00000000000E+00 -0.45593999997E+02  0.45594000000E+02  0.51100000000E-03 0.  1.
    9900012    2    1    2    0    0 -0.11724891031E+02  0.16302702240E+02  0.38475601880E+02  0.47787272932E+02  0.20000008604E+02 0.  0.
        -12    1    1    2    0    0  0.11724891031E+02 -0.16302702240E+02 -0.38475601880E+02  0.43400727068E+02  0.00000000000E+00 0.  1.
         11    1    3    3    0    0 -0.13464584278E+02  0.55807617249E+01  0.16080015468E+02  0.21702691744E+02  0.51100000000E-03 0. -1.
        -11    1    3    3    0    0 -0.15495058718E+01  0.71094165292E+01  0.18354827062E+02  0.19744478939E+02  0.51100000000E-03 0.  1.
        -12    1    3    3    0    0  0.32891991192E+01  0.36125239861E+01  0.40407593502E+01  0.63401022486E+01  0.00000000000E+00 0.  1.
</event>
<event>
 7    1  0.3807360E-011  0.4778727E+02  0.7816164E-02  0.1312668E+00
        -11   -1    0    0    0    0  0.00000000000E+00  0.00000000000E+00  0.45593999997E+02  0.45594000000E+02  0.51100000000E-03 0. -1.
         11   -1    0    0    0    0 -0.00000000000E+00 -0.00000000000E+00 -0.45593999997E+02  0.45594000000E+02  0.51100000000E-03 0.  1.
    9900012    2    1    2    0    0 -0.30202429649E+02  0.14252361755E+02 -0.27718346006E+02  0.47787271002E+02  0.19999999805E+02 0.  0.
         12    1    1    2    0    0  0.30202429649E+02 -0.14252361755E+02  0.27718346006E+02  0.43400728998E+02  0.00000000000E+00 0. -1.
         11    1    3    3    0    0 -0.19480922300E+02  0.95191061589E+01 -0.22185633886E+02  0.31021316332E+02  0.51100000000E-03 0.  1.
        -11    1    3    3    0    0 -0.11445051142E+02  0.67675957145E+01 -0.33846289014E+01  0.13720250015E+02  0.51100000000E-03 0. -1.
        -12    1    3    3    0    0  0.72354379367E+00 -0.20343401181E+01 -0.21480832178E+01  0.30457046555E+01  0.00000000000E+00 0.  1.
</event>
<event>
 7    1  0.3807360E-011  0.4778725E+02  0.7816164E-02  0.1312668E+00
        -11   -1    0    0    0    0  0.00000000000E+00  0.00000000000E+00  0.45593999997E+02  0.45594000000E+02  0.51100000000E-03 0. -1.
         11   -1    0    0    0    0 -0.00000000000E+00 -0.00000000000E+00 -0.45593999997E+02  0.45594000000E+02  0.51100000000E-03 0.  1.
    9900012    2    1    2    0    0 -0.22585347927E+02 -0.92199452802E+01  0.35895955362E+02  0.47787251812E+02  0.19999912310E+02 0.  0.
        -12    1    1    2    0    0  0.22585347927E+02  0.92199452802E+01 -0.35895955362E+02  0.43400748188E+02  0.00000000000E+00 0.  1.
         11    1    3    3    0    0 -0.32514270397E+01 -0.41401191521E+01  0.64537360119E+01  0.83284496252E+01  0.51100000000E-03 0. -1.
        -11    1    3    3    0    0 -0.60085751853E+01 -0.10268344638E+02  0.11907130219E+02  0.16832160517E+02  0.51100000000E-03 0.  1.
        -12    1    3    3    0    0 -0.13325345702E+02  0.51885185098E+01  0.17535089131E+02  0.22626641669E+02  0.00000000000E+00 0.  1.
</event>
<event>
 7    1  0.3807360E-011  0.4778726E+02  0.7816164E-02  0.1312668E+00
        -11   -1    0    0    0    0  0.00000000000E+00  0.00000000000E+00  0.45593999997E+02  0.45594000000E+02  0.51100000000E-03 0. -1.
         11   -1    0    0    0    0 -0.00000000000E+00 -0.00000000000E+00 -0.45593999997E+02  0.45594000000E+02  0.51100000000E-03 0.  1.
    9900012    2    1    2    0    0  0.20019429238E+01 -0.19488711777E+02  0.38727332919E+02  0.47787262941E+02  0.19999963053E+02 0.  0.
        -12    1    1    2    0    0 -0.20019429238E+01  0.19488711777E+02 -0.38727332919E+02  0.43400737059E+02  0.00000000000E+00 0.  1.
         11    1    3    3    0    0  0.45630440658E+01 -0.21720007088E+02  0.24334438956E+02  0.32935467183E+02  0.51100000000E-03 0. -1.
        -11    1    3    3    0    0 -0.14719746528E+01  0.81476444944E+00  0.46178647654E+01  0.49147966122E+01  0.51100000000E-03 0.  1.
         12    1    3    3    0    0 -0.10891264892E+01  0.14165308607E+01  0.97750291983E+01  0.99369991454E+01  0.00000000000E+00 0. -1.
</event>
<event>
 7    1  0.3807360E-011  0.4778728E+02  0.7816164E-02  0.1312668E+00
        -11   -1    0    0    0    0  0.00000000000E+00  0.00000000000E+00  0.45593999997E+02  0.45594000000E+02  0.51100000000E-03 0. -1.
         11   -1    0    0    0    0 -0.00000000000E+00 -0.00000000000E+00 -0.45593999997E+02  0.45594000000E+02  0.51100000000E-03 0.  1.
    9900012    2    1    2    0    0 -0.51247794833E+01  0.43136455677E+01  0.42880671697E+02  0.47787275259E+02  0.20000019216E+02 0.  0.
        -12    1    1    2    0    0  0.51247794833E+01 -0.43136455677E+01 -0.42880671697E+02  0.43400724741E+02  0.00000000000E+00 0.  1.
         11    1    3    3    0    0 -0.85389292683E+01  0.24400123654E+01  0.62236760040E+01  0.10844404855E+02  0.51100000000E-03 0. -1.
        -11    1    3    3    0    0  0.35490024695E+00  0.14535213481E+01  0.12576576598E+02  0.12665265796E+02  0.51100000000E-03 0.  1.
         12    1    3    3    0    0  0.30592495380E+01  0.42011185424E+00  0.24080419095E+02  0.24277604608E+02  0.00000000000E+00 0. -1.
</event>
<event>
 7    1  0.3807360E-011  0.4778727E+02  0.7816164E-02  0.1312668E+00
        -11   -1    0    0    0    0  0.00000000000E+00  0.00000000000E+00  0.45593999997E+02  0.45594000000E+02  0.51100000000E-03 0. -1.
         11   -1    0    0    0    0 -0.00000000000E+00 -0.00000000000E+00 -0.45593999997E+02  0.45594000000E+02  0.51100000000E-03 0.  1.
    9900012    2    1    2    0    0  0.28679013027E+02  0.24987413094E+02  0.20898963877E+02  0.47787270831E+02  0.19999999025E+02 0.  0.
        -12    1    1    2    0    0 -0.28679013027E+02 -0.24987413094E+02 -0.20898963877E+02  0.43400729169E+02  0.00000000000E+00 0.  1.
         11    1    3    3    0    0  0.18933606659E+01  0.26069168607E+01  0.98241709837E+01  0.10339011844E+02  0.51100000000E-03 0. -1.
        -11    1    3    3    0    0  0.13182234593E+02  0.16034645414E+02  0.67281983922E+01  0.21820857368E+02  0.51100000000E-03 0.  1.
        -12    1    3    3    0    0  0.13603417768E+02  0.63458508194E+01  0.43465945007E+01  0.15627401619E+02  0.00000000000E+00 0.  1.
</event>
<event>
 7    1  0.3807360E-011  0.4778727E+02  0.7816164E-02  0.1312668E+00
        -11   -1    0    0    0    0  0.00000000000E+00  0.00000000000E+00  0.45593999997E+02  0.45594000000E+02  0.51100000000E-03 0. -1.
         11   -1    0    0    0    0 -0.00000000000E+00 -0.00000000000E+00 -0.45593999997E+02  0.45594000000E+02  0.51100000000E-03 0.  1.
    9900012    2    1    2    0    0  0.18352775777E+02 -0.24269232756E+02  0.30948396059E+02  0.47787271251E+02  0.20000000943E+02 0.  0.
        -12    1    1    2    0    0 -0.18352775777E+02  0.24269232756E+02 -0.30948396059E+02  0.43400728749E+02  0.00000000000E+00 0.  1.
         11    1    3    3    0    0  0.11060716298E+02 -0.15269831910E+02  0.22368294329E+02  0.29254876568E+02  0.51100000000E-03 0. -1.
        -11    1    3    3    0    0  0.86810253109E+01 -0.92940394206E+01  0.34043903628E+01  0.13165456437E+02  0.51100000000E-03 0.  1.
         12    1    3    3    0    0 -0.13889658320E+01  0.29463857436E+00  0.51757113676E+01  0.53669382457E+01  0.00000000000E+00 0. -1.
</event>
<event>
 7    1  0.5695462E-011  0.4778727E+02  0.7816164E-02  0.1312668E+00
        -11   -1    0    0    0    0  0.00000000000E+00  0.00000000000E+00  0.45593999997E+02  0.45594000000E+02  0.51100000000E-03 0. -1.
         11   -1    0    0    0    0 -0.00000000000E+00 -0.00000000000E+00 -0.45593999997E+02  0.45594000000E+02  0.51100000000E-03 0.  1.
    9900012    2    1    2    0    0 -0.21442090260E+02  0.23625298490E+02 -0.29422876069E+02  0.47787267292E+02  0.19999982890E+02 0.  0.
         12    1    1    2    0    0  0.21442090260E+02 -0.23625298490E+02  0.29422876069E+02  0.43400732708E+02  0.00000000000E+00 0. -1.
         11    1    3    3    0    0 -0.43423689824E+00  0.10299213789E+02 -0.12758914449E+02  0.16402812702E+02  0.51100000000E-03 0. -1.
        -11    1    3    3    0    0 -0.12723388716E+02  0.98855845442E+01 -0.15466653371E+02  0.22334430124E+02  0.51100000000E-03 0.  1.
         12    1    3    3    0    0 -0.82844646459E+01  0.34405001566E+01 -0.11973082489E+01  0.90500244662E+01  0.00000000000E+00 0. -1.
</event>
<event>
 7    1  0.3807360E-011  0.4778727E+02  0.7816164E-02  0.1312668E+00
        -11   -1    0    0    0    0  0.00000000000E+00  0.00000000000E+00  0.45593999997E+02  0.45594000000E+02  0.51100000000E-03 0.  1.
         11   -1    0    0    0    0 -0.00000000000E+00 -0.00000000000E+00 -0.45593999997E+02  0.45594000000E+02  0.51100000000E-03 0. -1.
    9900012    2    1    2    0    0  0.30560733995E+02  0.24313949895E+02  0.18934007430E+02  0.47787271214E+02  0.20000000772E+02 0.  0.
        -12    1    1    2    0    0 -0.30560733995E+02 -0.24313949895E+02 -0.18934007430E+02  0.43400728786E+02  0.00000000000E+00 0.  1.
         11    1    3    3    0    0  0.14898348008E+02  0.17995506483E+02  0.11254132194E+02  0.25931728030E+02  0.51100000000E-03 0. -1.
        -11    1    3    3    0    0 -0.77070425399E+00  0.18103927789E+01 -0.15237809971E+01  0.24886574391E+01  0.51100000000E-03 0.  1.
         12    1    3    3    0    0  0.16433090241E+02  0.45080506337E+01  0.92036562329E+01  0.19366885744E+02  0.00000000000E+00 0. -1.
</event>
<event>
 7    1  0.3807360E-011  0.4778727E+02  0.7816164E-02  0.1312668E+00
        -11   -1    0    0    0    0  0.00000000000E+00  0.00000000000E+00  0.45593999997E+02  0.45594000000E+02  0.51100000000E-03 0. -1.
         11   -1    0    0    0    0 -0.00000000000E+00 -0.00000000000E+00 -0.45593999997E+02  0.45594000000E+02  0.51100000000E-03 0.  1.
    9900012    2    1    2    0    0  0.15821120707E+02  0.95736720239E+00 -0.40402955337E+02  0.47787271754E+02  0.20000003233E+02 0.  0.
         12    1    1    2    0    0 -0.15821120707E+02 -0.95736720239E+00  0.40402955337E+02  0.43400728246E+02  0.00000000000E+00 0. -1.
         11    1    3    3    0    0 -0.19522902226E+01  0.17730118745E+00 -0.34033975757E+01  0.39275931744E+01  0.51100000000E-03 0. -1.
        -11    1    3    3    0    0 -0.15055361206E+01 -0.32129707120E+01 -0.33854789189E+01  0.49042112085E+01  0.51100000000E-03 0.  1.
        -12    1    3    3    0    0  0.19278947050E+02  0.39930367269E+01 -0.33614078842E+02  0.38955467371E+02  0.00000000000E+00 0.  1.
</event>
<event>
 7    1  0.3807360E-011  0.4778727E+02  0.7816164E-02  0.1312668E+00
        -11   -1    0    0    0    0  0.00000000000E+00  0.00000000000E+00  0.45593999997E+02  0.45594000000E+02  0.51100000000E-03 0. -1.
         11   -1    0    0    0    0 -0.00000000000E+00 -0.00000000000E+00 -0.45593999997E+02  0.45594000000E+02  0.51100000000E-03 0.  1.
    9900012    2    1    2    0    0 -0.32437190447E+02  0.26726457036E+02  0.10823511316E+02  0.47787271584E+02  0.20000002462E+02 0.  0.
        -12    1    1    2    0    0  0.32437190447E+02 -0.26726457036E+02 -0.10823511316E+02  0.43400728416E+02  0.00000000000E+00 0.  1.
         11    1    3    3    0    0 -0.13215158361E+02  0.19167057693E+02  0.54771176191E+01  0.23916841949E+02  0.51100000000E-03 0. -1.
        -11    1    3    3    0    0 -0.52391560301E+01  0.17269988253E+01  0.66776628233E+01  0.86615507788E+01  0.51100000000E-03 0.  1.
        -12    1    3    3    0    0 -0.13982876056E+02  0.58324005171E+01 -0.13312691262E+01  0.15208878857E+02  0.00000000000E+00 0.  1.
</event>
<event>
 7    1  0.3807360E-011  0.4778727E+02  0.7816164E-02  0.1312668E+00
        -11   -1    0    0    0    0  0.00000000000E+00  0.00000000000E+00  0.45593999997E+02  0.45594000000E+02  0.51100000000E-03 0. -1.
         11   -1    0    0    0    0 -0.00000000000E+00 -0.00000000000E+00 -0.45593999997E+02  0.45594000000E+02  0.51100000000E-03 0.  1.
    9900012    2    1    2    0    0  0.25135059514E+02 -0.23533046816E+02  0.26420591732E+02  0.47787272164E+02  0.20000005105E+02 0.  0.
        -12    1    1    2    0    0 -0.25135059514E+02  0.23533046816E+02 -0.26420591732E+02  0.43400727836E+02  0.00000000000E+00 0.  1.
         11    1    3    3    0    0  0.87244450724E+01 -0.21043256545E+02  0.13638072647E+02  0.26550548273E+02  0.51100000000E-03 0. -1.
        -11    1    3    3    0    0  0.31788576438E+01  0.50345652815E+00  0.37349592849E+01  0.49303676857E+01  0.51100000000E-03 0.  1.
         12    1    3    3    0    0  0.13231756798E+02 -0.29932467998E+01  0.90475598005E+01  0.16306356205E+02  0.00000000000E+00 0. -1.
</event>
<event>
 7    1  0.3807360E-011  0.4778727E+02  0.7816164E-02  0.1312668E+00
        -11   -1    0    0    0    0  0.00000000000E+00  0.00000000000E+00  0.45593999997E+02  0.45594000000E+02  0.51100000000E-03 0. -1.
         11   -1    0    0    0    0 -0.00000000000E+00 -0.00000000000E+00 -0.45593999997E+02  0.45594000000E+02  0.51100000000E-03 0.  1.
    9900012    2    1    2    0    0 -0.21132959903E+01 -0.34395923436E+00 -0.43347881646E+02  0.47787272228E+02  0.20000005398E+02 0.  0.
         12    1    1    2    0    0  0.21132959903E+01  0.34395923436E+00  0.43347881646E+02  0.43400727772E+02  0.00000000000E+00 0. -1.
         11    1    3    3    0    0 -0.62282941436E+01 -0.29538189977E+01 -0.10533908190E+02  0.12588880674E+02  0.51100000000E-03 0. -1.
        -11    1    3    3    0    0  0.55792078914E+01 -0.26730755572E+01 -0.10200671043E+02  0.11930070562E+02  0.51100000000E-03 0.  1.
         12    1    3    3    0    0 -0.14642097380E+01  0.52829353205E+01 -0.22613302414E+02  0.23268320993E+02  0.00000000000E+00 0. -1.
</event>
<event>
 7    1  0.3807360E-011  0.4778727E+02  0.7816164E-02  0.1312668E+00
        -11   -1    0    0    0    0  0.00000000000E+00  0.00000000000E+00  0.45593999997E+02  0.45594000000E+02  0.51100000000E-03 0. -1.
         11   -1    0    0    0    0 -0.00000000000E+00 -0.00000000000E+00 -0.45593999997E+02  0.45594000000E+02  0.51100000000E-03 0.  1.
    9900012    2    1    2    0    0  0.36393871252E+02  0.11644982966E+02 -0.20579214171E+02  0.47787267876E+02  0.19999985556E+02 0.  0.
         12    1    1    2    0    0 -0.36393871252E+02 -0.11644982966E+02  0.20579214171E+02  0.43400732124E+02  0.00000000000E+00 0. -1.
         11    1    3    3    0    0  0.15569117758E+02 -0.10101394389E+01 -0.11951807581E+01  0.15647564244E+02  0.51100000000E-03 0. -1.
        -11    1    3    3    0    0  0.14668976964E+01  0.26375934763E+01 -0.55684329027E+01  0.63337298214E+01  0.51100000000E-03 0.  1.
        -12    1    3    3    0    0  0.19357855797E+02  0.10017528928E+02 -0.13815600510E+02  0.25805973811E+02  0.00000000000E+00 0.  1.
</event>
<event>
 7    1  0.3807360E-011  0.4778727E+02  0.7816164E-02  0.1312668E+00
        -11   -1    0    0    0    0  0.00000000000E+00  0.00000000000E+00  0.45593999997E+02  0.45594000000E+02  0.51100000000E-03 0. -1.
         11   -1    0    0    0    0 -0.00000000000E+00 -0.00000000000E+00 -0.45593999997E+02  0.45594000000E+02  0.51100000000E-03 0.  1.
    9900012    2    1    2    0    0 -0.11614409699E+02 -0.15770755102E+02 -0.38729988268E+02  0.47787271661E+02  0.20000002811E+02 0.  0.
         12    1    1    2    0    0  0.11614409699E+02  0.15770755102E+02  0.38729988268E+02  0.43400728339E+02  0.00000000000E+00 0. -1.
         11    1    3    3    0    0 -0.40359386953E+01 -0.16314299109E+02 -0.19905848343E+02  0.26051640161E+02  0.51100000000E-03 0. -1.
        -11    1    3    3    0    0  0.86192169263E+00  0.12571532664E+01 -0.59805163945E+00  0.16373788089E+01  0.51100000000E-03 0.  1.
        -12    1    3    3    0    0 -0.84403926959E+01 -0.71360925903E+00 -0.18226088285E+02  0.20098252691E+02  0.00000000000E+00 0.  1.
</event>
<event>
 7    1  0.3807360E-011  0.4778727E+02  0.7816164E-02  0.1312668E+00
        -11   -1    0    0    0    0  0.00000000000E+00  0.00000000000E+00  0.45593999997E+02  0.45594000000E+02  0.51100000000E-03 0. -1.
         11   -1    0    0    0    0 -0.00000000000E+00 -0.00000000000E+00 -0.45593999997E+02  0.45594000000E+02  0.51100000000E-03 0.  1.
    9900012    2    1    2    0    0  0.21138017467E+02 -0.23416253592E+02 -0.29807486814E+02  0.47787274374E+02  0.20000015181E+02 0.  0.
         12    1    1    2    0    0 -0.21138017467E+02  0.23416253592E+02  0.29807486814E+02  0.43400725626E+02  0.00000000000E+00 0. -1.
         11    1    3    3    0    0  0.70254051827E+01 -0.73213369707E+01 -0.45490361438E+00  0.10157028629E+02  0.51100000000E-03 0. -1.
        -11    1    3    3    0    0  0.11815612782E+02 -0.63026710250E+01 -0.15052567579E+02  0.20147261810E+02  0.51100000000E-03 0.  1.
        -12    1    3    3    0    0  0.22969995029E+01 -0.97922455960E+01 -0.14300015620E+02  0.17482983935E+02  0.00000000000E+00 0.  1.
</event>
<event>
 7    1  0.3807360E-011  0.4778726E+02  0.7816164E-02  0.1312668E+00
        -11   -1    0    0    0    0  0.00000000000E+00  0.00000000000E+00  0.45593999997E+02  0.45594000000E+02  0.51100000000E-03 0. -1.
         11   -1    0    0    0    0 -0.00000000000E+00 -0.00000000000E+00 -0.45593999997E+02  0.45594000000E+02  0.51100000000E-03 0.  1.
    9900012    2    1    2    0    0 -0.20171369796E+02 -0.32393127597E+02  0.20674261560E+02  0.47787263070E+02  0.19999963643E+02 0.  0.
        -12    1    1    2    0    0  0.20171369796E+02  0.32393127597E+02 -0.20674261560E+02  0.43400736930E+02  0.00000000000E+00 0.  1.
         11    1    3    3    0    0 -0.62493642237E+01 -0.38510871118E+01  0.86206860077E+00  0.73911154555E+01  0.51100000000E-03 0. -1.
        -11    1    3    3    0    0  0.30441557244E+01 -0.51005082426E+01  0.55748088223E+01  0.81461992410E+01  0.51100000000E-03 0.  1.
        -12    1    3    3    0    0 -0.16966161297E+02 -0.23441532243E+02  0.14237384137E+02  0.32249948374E+02  0.00000000000E+00 0.  1.
</event>
<event>
 7    1  0.3807360E-011  0.4778727E+02  0.7816164E-02  0.1312668E+00
        -11   -1    0    0    0    0  0.00000000000E+00  0.00000000000E+00  0.45593999997E+02  0.45594000000E+02  0.51100000000E-03 0. -1.
         11   -1    0    0    0    0 -0.00000000000E+00 -0.00000000000E+00 -0.45593999997E+02  0.45594000000E+02  0.51100000000E-03 0.  1.
    9900012    2    1    2    0    0 -0.21949048999E+02 -0.21244935089E+02  0.30830424555E+02  0.47787273081E+02  0.20000009284E+02 0.  0.
        -12    1    1    2    0    0  0.21949048999E+02  0.21244935089E+02 -0.30830424555E+02  0.43400726919E+02  0.00000000000E+00 0.  1.
         11    1    3    3    0    0 -0.11118201382E+01 -0.30299149409E+01  0.56837885792E-01  0.32279652067E+01  0.51100000000E-03 0. -1.
        -11    1    3    3    0    0 -0.21603090906E+01 -0.63397287495E+01  0.17532583002E+02  0.18768339377E+02  0.51100000000E-03 0.  1.
         12    1    3    3    0    0 -0.18676919770E+02 -0.11875291398E+02  0.13241003667E+02  0.25790968497E+02  0.00000000000E+00 0. -1.
</event>
<event>
 7    1  0.3807360E-011  0.4778727E+02  0.7816164E-02  0.1312668E+00
        -11   -1    0    0    0    0  0.00000000000E+00  0.00000000000E+00  0.45593999997E+02  0.45594000000E+02  0.51100000000E-03 0. -1.
         11   -1    0    0    0    0 -0.00000000000E+00 -0.00000000000E+00 -0.45593999997E+02  0.45594000000E+02  0.51100000000E-03 0.  1.
    9900012    2    1    2    0    0 -0.32735887005E+02 -0.12009303834E+02 -0.25841081209E+02  0.47787272418E+02  0.20000006263E+02 0.  0.
         12    1    1    2    0    0  0.32735887005E+02  0.12009303834E+02  0.25841081209E+02  0.43400727582E+02  0.00000000000E+00 0. -1.
         11    1    3    3    0    0  0.33225285280E+00  0.75668473539E+00  0.66317763614E+00  0.10596077506E+01  0.51100000000E-03 0. -1.
        -11    1    3    3    0    0 -0.33513326620E+02 -0.92533866373E+01 -0.22652763754E+02  0.41495974881E+02  0.51100000000E-03 0.  1.
        -12    1    3    3    0    0  0.44518676165E+00 -0.35126019316E+01 -0.38514950914E+01  0.52316897864E+01  0.00000000000E+00 0.  1.
</event>
<event>
 7    1  0.3807360E-011  0.4778727E+02  0.7816164E-02  0.1312668E+00
        -11   -1    0    0    0    0  0.00000000000E+00  0.00000000000E+00  0.45593999997E+02  0.45594000000E+02  0.51100000000E-03 0. -1.
         11   -1    0    0    0    0 -0.00000000000E+00 -0.00000000000E+00 -0.45593999997E+02  0.45594000000E+02  0.51100000000E-03 0.  1.
    9900012    2    1    2    0    0 -0.27314422346E+02 -0.32734154645E+02 -0.81253176179E+01  0.47787270343E+02  0.19999996801E+02 0.  0.
         12    1    1    2    0    0  0.27314422346E+02  0.32734154645E+02  0.81253176179E+01  0.43400729657E+02  0.00000000000E+00 0. -1.
         11    1    3    3    0    0 -0.16245130051E+02 -0.15008535962E+02 -0.16636818320E+01  0.22179455349E+02  0.51100000000E-03 0. -1.
        -11    1    3    3    0    0 -0.57516449775E+01 -0.11580029471E+01  0.20792149367E+01  0.62245904112E+01  0.51100000000E-03 0.  1.
        -12    1    3    3    0    0 -0.53176473175E+01 -0.16567615735E+02 -0.85408507226E+01  0.19383224582E+02  0.00000000000E+00 0.  1.
</event>
<event>
 7    1  0.3807360E-011  0.4778727E+02  0.7816164E-02  0.1312668E+00
        -11   -1    0    0    0    0  0.00000000000E+00  0.00000000000E+00  0.45593999997E+02  0.45594000000E+02  0.51100000000E-03 0. -1.
         11   -1    0    0    0    0 -0.00000000000E+00 -0.00000000000E+00 -0.45593999997E+02  0.45594000000E+02  0.51100000000E-03 0.  1.
    9900012    2    1    2    0    0 -0.14463943243E+02  0.66154860462E+01 -0.40381343841E+02  0.47787271433E+02  0.20000001771E+02 0.  0.
         12    1    1    2    0    0  0.14463943243E+02 -0.66154860462E+01  0.40381343841E+02  0.43400728567E+02  0.00000000000E+00 0. -1.
         11    1    3    3    0    0  0.25182060943E+01  0.26158513569E+01 -0.21054555682E+01  0.41972590658E+01  0.51100000000E-03 0. -1.
        -11    1    3    3    0    0 -0.62224469091E+01 -0.32214173185E+01 -0.19956751024E+02  0.21151082402E+02  0.51100000000E-03 0.  1.
        -12    1    3    3    0    0 -0.10759702428E+02  0.72210520078E+01 -0.18319137248E+02  0.22438929965E+02  0.00000000000E+00 0.  1.
</event>
<event>
 7    1  0.3807360E-011  0.4778727E+02  0.7816164E-02  0.1312668E+00
        -11   -1    0    0    0    0  0.00000000000E+00  0.00000000000E+00  0.45593999997E+02  0.45594000000E+02  0.51100000000E-03 0. -1.
         11   -1    0    0    0    0 -0.00000000000E+00 -0.00000000000E+00 -0.45593999997E+02  0.45594000000E+02  0.51100000000E-03 0.  1.
    9900012    2    1    2    0    0  0.30195928634E+01  0.48569302114E+01  0.43022264690E+02  0.47787274531E+02  0.20000015899E+02 0.  0.
        -12    1    1    2    0    0 -0.30195928634E+01 -0.48569302114E+01 -0.43022264690E+02  0.43400725469E+02  0.00000000000E+00 0.  1.
         11    1    3    3    0    0 -0.52025615067E+01  0.43769241033E+01  0.29728293987E+02  0.30495828805E+02  0.51100000000E-03 0. -1.
        -11    1    3    3    0    0 -0.23958103124E+00  0.57921356907E+00  0.62492104861E+01  0.62805668048E+01  0.51100000000E-03 0.  1.
        -12    1    3    3    0    0  0.84617354013E+01 -0.99207460895E-01  0.70447602168E+01  0.11010878922E+02  0.00000000000E+00 0.  1.
</event>
<event>
 7    1  0.3807360E-011  0.4778727E+02  0.7816164E-02  0.1312668E+00
        -11   -1    0    0    0    0  0.00000000000E+00  0.00000000000E+00  0.45593999997E+02  0.45594000000E+02  0.51100000000E-03 0. -1.
         11   -1    0    0    0    0 -0.00000000000E+00 -0.00000000000E+00 -0.45593999997E+02  0.45594000000E+02  0.51100000000E-03 0.  1.
    9900012    2    1    2    0    0  0.41284938802E+02 -0.47062496359E+01 -0.12531100029E+02  0.47787269298E+02  0.19999992039E+02 0.  0.
         12    1    1    2    0    0 -0.41284938802E+02  0.47062496359E+01  0.12531100029E+02  0.43400730702E+02  0.00000000000E+00 0. -1.
         11    1    3    3    0    0  0.14705433073E+02 -0.95826905326E+00 -0.52059579464E-01  0.14736714420E+02  0.51100000000E-03 0. -1.
        -11    1    3    3    0    0  0.22333745541E+02 -0.10377568239E+01 -0.15473988165E+02  0.27190392405E+02  0.51100000000E-03 0.  1.
        -12    1    3    3    0    0  0.42457601874E+01 -0.27102237587E+01  0.29949477157E+01  0.58601624731E+01  0.00000000000E+00 0.  1.
</event>
<event>
 7    1  0.3807360E-011  0.4778728E+02  0.7816164E-02  0.1312668E+00
        -11   -1    0    0    0    0  0.00000000000E+00  0.00000000000E+00  0.45593999997E+02  0.45594000000E+02  0.51100000000E-03 0. -1.
         11   -1    0    0    0    0 -0.00000000000E+00 -0.00000000000E+00 -0.45593999997E+02  0.45594000000E+02  0.51100000000E-03 0.  1.
    9900012    2    1    2    0    0 -0.12862583165E+02  0.17879110595E+02 -0.37396713779E+02  0.47787276010E+02  0.20000022641E+02 0.  0.
         12    1    1    2    0    0  0.12862583165E+02 -0.17879110595E+02  0.37396713779E+02  0.43400723990E+02  0.00000000000E+00 0. -1.
         11    1    3    3    0    0 -0.70982792125E+01  0.62561193225E+01 -0.96432836931E+01  0.13509904419E+02  0.51100000000E-03 0. -1.
        -11    1    3    3    0    0  0.18104440967E+01 -0.55062753212E+00 -0.14905925114E+02  0.15025561629E+02  0.51100000000E-03 0.  1.
        -12    1    3    3    0    0 -0.75747480494E+01  0.12173618805E+02 -0.12847504972E+02  0.19251809962E+02  0.00000000000E+00 0.  1.
</event>
<event>
 7    1  0.3807360E-011  0.4778727E+02  0.7816164E-02  0.1312668E+00
        -11   -1    0    0    0    0  0.00000000000E+00  0.00000000000E+00  0.45593999997E+02  0.45594000000E+02  0.51100000000E-03 0. -1.
         11   -1    0    0    0    0 -0.00000000000E+00 -0.00000000000E+00 -0.45593999997E+02  0.45594000000E+02  0.51100000000E-03 0.  1.
    9900012    2    1    2    0    0 -0.75470226296E+00  0.37567264840E+02  0.21719904823E+02  0.47787271566E+02  0.20000002380E+02 0.  0.
        -12    1    1    2    0    0  0.75470226296E+00 -0.37567264840E+02 -0.21719904823E+02  0.43400728434E+02  0.00000000000E+00 0.  1.
         11    1    3    3    0    0 -0.56748837011E+01  0.84421966712E+01  0.85784980828E+00  0.10208373828E+02  0.51100000000E-03 0.  1.
        -11    1    3    3    0    0  0.18447293806E+01  0.18659370049E+01 -0.66712246605E+00  0.27073603454E+01  0.51100000000E-03 0. -1.
         12    1    3    3    0    0  0.30754520575E+01  0.27259131163E+02  0.21529177481E+02  0.34871537393E+02  0.00000000000E+00 0. -1.
</event>
<event>
 7    1  0.3807360E-011  0.4778727E+02  0.7816164E-02  0.1312668E+00
        -11   -1    0    0    0    0  0.00000000000E+00  0.00000000000E+00  0.45593999997E+02  0.45594000000E+02  0.51100000000E-03 0. -1.
         11   -1    0    0    0    0 -0.00000000000E+00 -0.00000000000E+00 -0.45593999997E+02  0.45594000000E+02  0.51100000000E-03 0.  1.
    9900012    2    1    2    0    0  0.33391716911E+02 -0.22969335748E+02  0.15525014089E+02  0.47787271833E+02  0.20000003595E+02 0.  0.
        -12    1    1    2    0    0 -0.33391716911E+02  0.22969335748E+02 -0.15525014089E+02  0.43400728167E+02  0.00000000000E+00 0.  1.
         11    1    3    3    0    0  0.14220840002E+02 -0.17331788074E+02  0.37982675135E+01  0.22738733574E+02  0.51100000000E-03 0. -1.
        -11    1    3    3    0    0  0.52096620085E+01  0.93831984740E+00 -0.55909730416E+00  0.53229326912E+01  0.51100000000E-03 0.  1.
         12    1    3    3    0    0  0.13961214901E+02 -0.65758675214E+01  0.12285843880E+02  0.19725605567E+02  0.00000000000E+00 0. -1.
</event>
<event>
 7    1  0.3807360E-011  0.4778727E+02  0.7816164E-02  0.1312668E+00
        -11   -1    0    0    0    0  0.00000000000E+00  0.00000000000E+00  0.45593999997E+02  0.45594000000E+02  0.51100000000E-03 0. -1.
         11   -1    0    0    0    0 -0.00000000000E+00 -0.00000000000E+00 -0.45593999997E+02  0.45594000000E+02  0.51100000000E-03 0.  1.
    9900012    2    1    2    0    0 -0.42671965789E+02  0.68821001291E+01  0.39195937289E+01  0.47787272109E+02  0.20000004854E+02 0.  0.
         12    1    1    2    0    0  0.42671965789E+02 -0.68821001291E+01 -0.39195937289E+01  0.43400727891E+02  0.00000000000E+00 0. -1.
         11    1    3    3    0    0  0.76296672995E+00 -0.71091260270E+00 -0.15376225854E+01  0.18579016217E+01  0.51100000000E-03 0. -1.
        -11    1    3    3    0    0 -0.19864761658E+02  0.76983193574E+01 -0.14903632276E+01  0.21356358759E+02  0.51100000000E-03 0.  1.
        -12    1    3    3    0    0 -0.23570170861E+02 -0.10530662554E+00  0.69475795418E+01  0.24573011728E+02  0.00000000000E+00 0.  1.
</event>
<event>
 7    1  0.3807360E-011  0.4778727E+02  0.7816164E-02  0.1312668E+00
        -11   -1    0    0    0    0  0.00000000000E+00  0.00000000000E+00  0.45593999997E+02  0.45594000000E+02  0.51100000000E-03 0. -1.
         11   -1    0    0    0    0 -0.00000000000E+00 -0.00000000000E+00 -0.45593999997E+02  0.45594000000E+02  0.51100000000E-03 0.  1.
    9900012    2    1    2    0    0  0.92341486122E+01 -0.42403140817E+02 -0.57205575429E+00  0.47787273053E+02  0.20000009157E+02 0.  0.
        -12    1    1    2    0    0 -0.92341486122E+01  0.42403140817E+02  0.57205575429E+00  0.43400726947E+02  0.00000000000E+00 0.  1.
         11    1    3    3    0    0  0.65509797176E+01 -0.32441081267E+02  0.21444333577E+01  0.33165308437E+02  0.51100000000E-03 0. -1.
        -11    1    3    3    0    0 -0.21542145970E+01 -0.28229325453E+01  0.26801469453E+01  0.44489073484E+01  0.51100000000E-03 0.  1.
         12    1    3    3    0    0  0.48373834916E+01 -0.71391270049E+01 -0.53966360572E+01  0.10173057268E+02  0.00000000000E+00 0. -1.
</event>
<event>
 7    1  0.3807360E-011  0.4778727E+02  0.7816164E-02  0.1312668E+00
        -11   -1    0    0    0    0  0.00000000000E+00  0.00000000000E+00  0.45593999997E+02  0.45594000000E+02  0.51100000000E-03 0. -1.
         11   -1    0    0    0    0 -0.00000000000E+00 -0.00000000000E+00 -0.45593999997E+02  0.45594000000E+02  0.51100000000E-03 0.  1.
    9900012    2    1    2    0    0 -0.12928692602E+02 -0.21142269030E+01 -0.41376348166E+02  0.47787271489E+02  0.20000002026E+02 0.  0.
         12    1    1    2    0    0  0.12928692602E+02  0.21142269030E+01  0.41376348166E+02  0.43400728511E+02  0.00000000000E+00 0. -1.
         11    1    3    3    0    0 -0.76242226088E+01 -0.61945868839E+01 -0.16867743837E+02  0.19519796604E+02  0.51100000000E-03 0. -1.
        -11    1    3    3    0    0 -0.11983704118E+01 -0.43302990189E+01 -0.10488468933E+02  0.11410326992E+02  0.51100000000E-03 0.  1.
        -12    1    3    3    0    0 -0.41060995809E+01  0.84106589998E+01 -0.14020135395E+02  0.16857147893E+02  0.00000000000E+00 0.  1.
</event>
<event>
 7    1  0.3807360E-011  0.4778727E+02  0.7816164E-02  0.1312668E+00
        -11   -1    0    0    0    0  0.00000000000E+00  0.00000000000E+00  0.45593999997E+02  0.45594000000E+02  0.51100000000E-03 0. -1.
         11   -1    0    0    0    0 -0.00000000000E+00 -0.00000000000E+00 -0.45593999997E+02  0.45594000000E+02  0.51100000000E-03 0.  1.
    9900012    2    1    2    0    0 -0.26410081871E+02  0.32263314195E+01  0.34288795221E+02  0.47787272857E+02  0.20000008264E+02 0.  0.
        -12    1    1    2    0    0  0.26410081871E+02 -0.32263314195E+01 -0.34288795221E+02  0.43400727143E+02  0.00000000000E+00 0.  1.
         11    1    3    3    0    0 -0.31459599193E+01 -0.37851553121E+01  0.52339527919E+01  0.71846173621E+01  0.51100000000E-03 0. -1.
        -11    1    3    3    0    0  0.15908956532E+01 -0.33717944332E+00  0.49395535296E+01  0.52003680917E+01  0.51100000000E-03 0.  1.
        -12    1    3    3    0    0 -0.24855017605E+02  0.73486661749E+01  0.24115288899E+02  0.35402287403E+02  0.00000000000E+00 0.  1.
</event>
<event>
 7    1  0.3807360E-011  0.4778727E+02  0.7816164E-02  0.1312668E+00
        -11   -1    0    0    0    0  0.00000000000E+00  0.00000000000E+00  0.45593999997E+02  0.45594000000E+02  0.51100000000E-03 0. -1.
         11   -1    0    0    0    0 -0.00000000000E+00 -0.00000000000E+00 -0.45593999997E+02  0.45594000000E+02  0.51100000000E-03 0.  1.
    9900012    2    1    2    0    0  0.48665875679E+01  0.37621979602E+02 -0.21083787919E+02  0.47787272624E+02  0.20000007201E+02 0.  0.
         12    1    1    2    0    0 -0.48665875679E+01 -0.37621979602E+02  0.21083787919E+02  0.43400727376E+02  0.00000000000E+00 0. -1.
         11    1    3    3    0    0  0.17543419318E+01  0.55517111357E+01 -0.12463913759E+02  0.13756756834E+02  0.51100000000E-03 0. -1.
        -11    1    3    3    0    0  0.14118317943E+00 -0.32742236172E+00 -0.25606805633E+00  0.43898656438E+00  0.51100000000E-03 0.  1.
         12    1    3    3    0    0  0.29710624566E+01  0.32397690828E+02 -0.83638061040E+01  0.33591529225E+02  0.00000000000E+00 0. -1.
</event>
<event>
 7    1  0.3807360E-011  0.4778727E+02  0.7816164E-02  0.1312668E+00
        -11   -1    0    0    0    0  0.00000000000E+00  0.00000000000E+00  0.45593999997E+02  0.45594000000E+02  0.51100000000E-03 0. -1.
         11   -1    0    0    0    0 -0.00000000000E+00 -0.00000000000E+00 -0.45593999997E+02  0.45594000000E+02  0.51100000000E-03 0.  1.
    9900012    2    1    2    0    0 -0.54366151797E+01  0.40951711431E+02  0.13305031996E+02  0.47787270396E+02  0.19999997043E+02 0.  0.
        -12    1    1    2    0    0  0.54366151797E+01 -0.40951711431E+02 -0.13305031996E+02  0.43400729604E+02  0.00000000000E+00 0.  1.
         11    1    3    3    0    0 -0.65353162101E+01  0.24065154200E+02  0.43808817693E+01  0.25318651820E+02  0.51100000000E-03 0. -1.
        -11    1    3    3    0    0 -0.28901127257E+01 -0.14650885505E+00  0.15007607522E+00  0.28977128052E+01  0.51100000000E-03 0.  1.
        -12    1    3    3    0    0  0.39888137560E+01  0.17033066086E+02  0.87740741520E+01  0.19570905771E+02  0.00000000000E+00 0.  1.
</event>
<event>
 7    1  0.3807360E-011  0.4778726E+02  0.7816164E-02  0.1312668E+00
        -11   -1    0    0    0    0  0.00000000000E+00  0.00000000000E+00  0.45593999997E+02  0.45594000000E+02  0.51100000000E-03 0. -1.
         11   -1    0    0    0    0 -0.00000000000E+00 -0.00000000000E+00 -0.45593999997E+02  0.45594000000E+02  0.51100000000E-03 0.  1.
    9900012    2    1    2    0    0 -0.34436566831E+02  0.22282145324E+02 -0.14186361111E+02  0.47787262945E+02  0.19999963070E+02 0.  0.
         12    1    1    2    0    0  0.34436566831E+02 -0.22282145324E+02  0.14186361111E+02  0.43400737055E+02  0.00000000000E+00 0. -1.
         11    1    3    3    0    0 -0.28774901964E+01 -0.14726272999E+01 -0.22017115627E+01  0.39110248096E+01  0.51100000000E-03 0. -1.
        -11    1    3    3    0    0 -0.23936125789E+02  0.20791667251E+02 -0.15108715581E+02  0.35121287442E+02  0.51100000000E-03 0.  1.
         12    1    3    3    0    0 -0.76229508464E+01  0.29631053734E+01  0.31240660327E+01  0.87549506930E+01  0.00000000000E+00 0. -1.
</event>
<event>
 7    1  0.3807360E-011  0.4778727E+02  0.7816164E-02  0.1312668E+00
        -11   -1    0    0    0    0  0.00000000000E+00  0.00000000000E+00  0.45593999997E+02  0.45594000000E+02  0.51100000000E-03 0. -1.
         11   -1    0    0    0    0 -0.00000000000E+00 -0.00000000000E+00 -0.45593999997E+02  0.45594000000E+02  0.51100000000E-03 0.  1.
    9900012    2    1    2    0    0  0.12229483514E+02 -0.26669201618E+02  0.31981500992E+02  0.47787274342E+02  0.20000015035E+02 0.  0.
        -12    1    1    2    0    0 -0.12229483514E+02  0.26669201618E+02 -0.31981500992E+02  0.43400725658E+02  0.00000000000E+00 0.  1.
         11    1    3    3    0    0  0.14642375090E+02 -0.13114367447E+02  0.12932315433E+02  0.23529355378E+02  0.51100000000E-03 0. -1.
        -11    1    3    3    0    0 -0.18694211312E+01 -0.59695713704E+00  0.34744525858E+01  0.39903526437E+01  0.51100000000E-03 0.  1.
         12    1    3    3    0    0 -0.54347044466E+00 -0.12957877034E+02  0.15574732973E+02  0.20267566320E+02  0.00000000000E+00 0. -1.
</event>
<event>
 7    1  0.3807360E-011  0.4778727E+02  0.7816164E-02  0.1312668E+00
        -11   -1    0    0    0    0  0.00000000000E+00  0.00000000000E+00  0.45593999997E+02  0.45594000000E+02  0.51100000000E-03 0. -1.
         11   -1    0    0    0    0 -0.00000000000E+00 -0.00000000000E+00 -0.45593999997E+02  0.45594000000E+02  0.51100000000E-03 0.  1.
    9900012    2    1    2    0    0  0.20742907637E+02  0.23244253944E+02  0.30216880852E+02  0.47787269049E+02  0.19999990901E+02 0.  0.
        -12    1    1    2    0    0 -0.20742907637E+02 -0.23244253944E+02 -0.30216880852E+02  0.43400730951E+02  0.00000000000E+00 0.  1.
         11    1    3    3    0    0  0.11222635294E+02  0.86013907800E+01  0.20369254218E+02  0.24795926761E+02  0.51100000000E-03 0. -1.
        -11    1    3    3    0    0 -0.12842036887E+01 -0.95802594069E+00 -0.19815481717E-01  0.16023063788E+01  0.51100000000E-03 0.  1.
         12    1    3    3    0    0  0.10804476032E+02  0.15600889105E+02  0.98674421158E+01  0.21389035909E+02  0.00000000000E+00 0. -1.
</event>
<event>
 7    1  0.3807360E-011  0.4778727E+02  0.7816164E-02  0.1312668E+00
        -11   -1    0    0    0    0  0.00000000000E+00  0.00000000000E+00  0.45593999997E+02  0.45594000000E+02  0.51100000000E-03 0. -1.
         11   -1    0    0    0    0 -0.00000000000E+00 -0.00000000000E+00 -0.45593999997E+02  0.45594000000E+02  0.51100000000E-03 0.  1.
    9900012    2    1    2    0    0 -0.85695485071E+01  0.15500994743E+02  0.39622030815E+02  0.47787270449E+02  0.19999997286E+02 0.  0.
        -12    1    1    2    0    0  0.85695485071E+01 -0.15500994743E+02 -0.39622030815E+02  0.43400729551E+02  0.00000000000E+00 0.  1.
         11    1    3    3    0    0 -0.75954979769E+01  0.37969024045E+01  0.91187465571E+01  0.12460320880E+02  0.51100000000E-03 0. -1.
        -11    1    3    3    0    0 -0.91712402246E+00  0.13016243931E+02  0.15477745556E+02  0.20244118413E+02  0.51100000000E-03 0.  1.
        -12    1    3    3    0    0 -0.56926507794E-01 -0.13121515925E+01  0.15025538702E+02  0.15082831157E+02  0.00000000000E+00 0.  1.
</event>
<event>
 7    1  0.3807360E-011  0.4778726E+02  0.7816164E-02  0.1312668E+00
        -11   -1    0    0    0    0  0.00000000000E+00  0.00000000000E+00  0.45593999997E+02  0.45594000000E+02  0.51100000000E-03 0. -1.
         11   -1    0    0    0    0 -0.00000000000E+00 -0.00000000000E+00 -0.45593999997E+02  0.45594000000E+02  0.51100000000E-03 0.  1.
    9900012    2    1    2    0    0  0.24891144021E+01 -0.13416698916E+02 -0.41199763963E+02  0.47787262092E+02  0.19999959183E+02 0.  0.
         12    1    1    2    0    0 -0.24891144021E+01  0.13416698916E+02  0.41199763963E+02  0.43400737908E+02  0.00000000000E+00 0. -1.
         11    1    3    3    0    0  0.28808773775E+01 -0.49935259914E+01 -0.44815351637E+01  0.73019801408E+01  0.51100000000E-03 0. -1.
        -11    1    3    3    0    0 -0.28609862910E+01  0.35260573728E+01 -0.68225450408E+01  0.81954526567E+01  0.51100000000E-03 0.  1.
         12    1    3    3    0    0  0.24692233155E+01 -0.11949230297E+02 -0.29895683759E+02  0.32289829295E+02  0.00000000000E+00 0. -1.
</event>
<event>
 7    1  0.3807360E-011  0.4778728E+02  0.7816164E-02  0.1312668E+00
        -11   -1    0    0    0    0  0.00000000000E+00  0.00000000000E+00  0.45593999997E+02  0.45594000000E+02  0.51100000000E-03 0. -1.
         11   -1    0    0    0    0 -0.00000000000E+00 -0.00000000000E+00 -0.45593999997E+02  0.45594000000E+02  0.51100000000E-03 0.  1.
    9900012    2    1    2    0    0 -0.17185105413E+02  0.23150691843E+02 -0.32439793707E+02  0.47787278847E+02  0.20000035574E+02 0.  0.
         12    1    1    2    0    0  0.17185105413E+02 -0.23150691843E+02  0.32439793707E+02  0.43400721153E+02  0.00000000000E+00 0. -1.
         11    1    3    3    0    0 -0.66998575233E+01 -0.91490057677E+00 -0.65312402570E+01  0.94011825561E+01  0.51100000000E-03 0. -1.
        -11    1    3    3    0    0  0.15850646481E+01  0.65366767099E+01 -0.88191819965E+01  0.11091372489E+02  0.51100000000E-03 0.  1.
        -12    1    3    3    0    0 -0.12070312537E+02  0.17528915710E+02 -0.17089371453E+02  0.27294723801E+02  0.00000000000E+00 0.  1.
</event>
<event>
 7    1  0.3807360E-011  0.4778727E+02  0.7816164E-02  0.1312668E+00
        -11   -1    0    0    0    0  0.00000000000E+00  0.00000000000E+00  0.45593999997E+02  0.45594000000E+02  0.51100000000E-03 0.  1.
         11   -1    0    0    0    0 -0.00000000000E+00 -0.00000000000E+00 -0.45593999997E+02  0.45594000000E+02  0.51100000000E-03 0. -1.
    9900012    2    1    2    0    0  0.33411813071E+02 -0.27199348918E+02 -0.52411199903E+01  0.47787272206E+02  0.20000005298E+02 0.  0.
        -12    1    1    2    0    0 -0.33411813071E+02  0.27199348918E+02  0.52411199903E+01  0.43400727794E+02  0.00000000000E+00 0.  1.
         11    1    3    3    0    0  0.12460828664E+02 -0.16674065844E+02 -0.63185698823E+01  0.21753644485E+02  0.51100000000E-03 0. -1.
        -11    1    3    3    0    0  0.21361692902E+02 -0.11976990102E+02  0.82601268207E+00  0.24504132565E+02  0.51100000000E-03 0.  1.
         12    1    3    3    0    0 -0.41070849467E+00  0.14517070282E+01  0.25143720996E+00  0.15294951565E+01  0.00000000000E+00 0. -1.
</event>
<event>
 7    1  0.3811150E-011  0.4778727E+02  0.7816164E-02  0.1312668E+00
        -11   -1    0    0    0    0  0.00000000000E+00  0.00000000000E+00  0.45593999997E+02  0.45594000000E+02  0.51100000000E-03 0. -1.
         11   -1    0    0    0    0 -0.00000000000E+00 -0.00000000000E+00 -0.45593999997E+02  0.45594000000E+02  0.51100000000E-03 0.  1.
    9900012    2    1    2    0    0  0.30638231335E+01 -0.33651098940E+01 -0.43161470355E+02  0.47787268440E+02  0.19999988124E+02 0.  0.
         12    1    1    2    0    0 -0.30638231335E+01  0.33651098940E+01  0.43161470355E+02  0.43400731560E+02  0.00000000000E+00 0. -1.
         11    1    3    3    0    0 -0.10763959246E+01 -0.33089765034E+01 -0.97144783730E+00  0.36127087965E+01  0.51100000000E-03 0. -1.
        -11    1    3    3    0    0 -0.35648004612E+01  0.16574574531E+00 -0.25993635018E+02  0.26237460542E+02  0.51100000000E-03 0.  1.
         12    1    3    3    0    0  0.77050195193E+01 -0.22187913598E+00 -0.16196387500E+02  0.17937099102E+02  0.00000000000E+00 0. -1.
</event>
<event>
 7    1  0.3807360E-011  0.4778727E+02  0.7816164E-02  0.1312668E+00
        -11   -1    0    0    0    0  0.00000000000E+00  0.00000000000E+00  0.45593999997E+02  0.45594000000E+02  0.51100000000E-03 0. -1.
         11   -1    0    0    0    0 -0.00000000000E+00 -0.00000000000E+00 -0.45593999997E+02  0.45594000000E+02  0.51100000000E-03 0.  1.
    9900012    2    1    2    0    0  0.27137266687E+02  0.20713207474E+02  0.26798413721E+02  0.47787272067E+02  0.20000004663E+02 0.  0.
        -12    1    1    2    0    0 -0.27137266687E+02 -0.20713207474E+02 -0.26798413721E+02  0.43400727933E+02  0.00000000000E+00 0.  1.
         11    1    3    3    0    0 -0.34343757539E+00 -0.11445171659E+01 -0.15847894258E+00  0.12053981697E+01  0.51100000000E-03 0. -1.
        -11    1    3    3    0    0  0.80337782769E+00  0.28479828172E+01 -0.13833657655E+01  0.32665154467E+01  0.51100000000E-03 0.  1.
         12    1    3    3    0    0  0.26677326435E+02  0.19009741823E+02  0.28340258430E+02  0.43315358451E+02  0.00000000000E+00 0. -1.
</event>
<event>
 7    1  0.3807360E-011  0.4778727E+02  0.7816164E-02  0.1312668E+00
        -11   -1    0    0    0    0  0.00000000000E+00  0.00000000000E+00  0.45593999997E+02  0.45594000000E+02  0.51100000000E-03 0. -1.
         11   -1    0    0    0    0 -0.00000000000E+00 -0.00000000000E+00 -0.45593999997E+02  0.45594000000E+02  0.51100000000E-03 0.  1.
    9900012    2    1    2    0    0 -0.52561799450E+01  0.31799682073E+02  0.29065030682E+02  0.47787271710E+02  0.20000003034E+02 0.  0.
        -12    1    1    2    0    0  0.52561799450E+01 -0.31799682073E+02 -0.29065030682E+02  0.43400728290E+02  0.00000000000E+00 0.  1.
         11    1    3    3    0    0  0.13480049694E+01  0.79644944472E+01  0.66848870958E+01  0.10485132567E+02  0.51100000000E-03 0. -1.
        -11    1    3    3    0    0 -0.92830618336E+01  0.48186404724E+01  0.59799912034E+01  0.12048021749E+02  0.51100000000E-03 0.  1.
        -12    1    3    3    0    0  0.26788769192E+01  0.19016547153E+02  0.16400152383E+02  0.25254117394E+02  0.00000000000E+00 0.  1.
</event>
<event>
 7    1  0.3807360E-011  0.4778727E+02  0.7816164E-02  0.1312668E+00
        -11   -1    0    0    0    0  0.00000000000E+00  0.00000000000E+00  0.45593999997E+02  0.45594000000E+02  0.51100000000E-03 0. -1.
         11   -1    0    0    0    0 -0.00000000000E+00 -0.00000000000E+00 -0.45593999997E+02  0.45594000000E+02  0.51100000000E-03 0.  1.
    9900012    2    1    2    0    0 -0.53504541681E+01 -0.26954288817E+02  0.33592594722E+02  0.47787268836E+02  0.19999989932E+02 0.  0.
        -12    1    1    2    0    0  0.53504541681E+01  0.26954288817E+02 -0.33592594722E+02  0.43400731164E+02  0.00000000000E+00 0.  1.
         11    1    3    3    0    0  0.12719490513E+01 -0.11482034910E+02  0.15113437838E+02  0.19022906812E+02  0.51100000000E-03 0. -1.
        -11    1    3    3    0    0 -0.78037820443E+01 -0.15596477888E+02  0.98008730714E+01  0.20005155584E+02  0.51100000000E-03 0.  1.
         12    1    3    3    0    0  0.11813788249E+01  0.12422398154E+00  0.86782838125E+01  0.87592064399E+01  0.00000000000E+00 0. -1.
</event>
<event>
 7    1  0.3807360E-011  0.4778728E+02  0.7816164E-02  0.1312668E+00
        -11   -1    0    0    0    0  0.00000000000E+00  0.00000000000E+00  0.45593999997E+02  0.45594000000E+02  0.51100000000E-03 0.  1.
         11   -1    0    0    0    0 -0.00000000000E+00 -0.00000000000E+00 -0.45593999997E+02  0.45594000000E+02  0.51100000000E-03 0. -1.
    9900012    2    1    2    0    0  0.28848082306E+02  0.15681103264E+02  0.28381579540E+02  0.47787275242E+02  0.20000019138E+02 0.  0.
        -12    1    1    2    0    0 -0.28848082306E+02 -0.15681103264E+02 -0.28381579540E+02  0.43400724758E+02  0.00000000000E+00 0.  1.
         11    1    3    3    0    0  0.98093238497E+01  0.13549475240E+01  0.38801100976E+01  0.10635505245E+02  0.51100000000E-03 0. -1.
        -11    1    3    3    0    0  0.17740072514E+02  0.94864002664E+01  0.25030742274E+02  0.32112926087E+02  0.51100000000E-03 0.  1.
         12    1    3    3    0    0  0.12986859429E+01  0.48397554736E+01 -0.52927283141E+00  0.50388439103E+01  0.00000000000E+00 0. -1.
</event>
<event>
 7    1  0.3807360E-011  0.4778728E+02  0.7816164E-02  0.1312668E+00
        -11   -1    0    0    0    0  0.00000000000E+00  0.00000000000E+00  0.45593999997E+02  0.45594000000E+02  0.51100000000E-03 0. -1.
         11   -1    0    0    0    0 -0.00000000000E+00 -0.00000000000E+00 -0.45593999997E+02  0.45594000000E+02  0.51100000000E-03 0.  1.
    9900012    2    1    2    0    0 -0.17540220467E+02  0.19412111372E+02 -0.34628504507E+02  0.47787277353E+02  0.20000028762E+02 0.  0.
         12    1    1    2    0    0  0.17540220467E+02 -0.19412111372E+02  0.34628504507E+02  0.43400722647E+02  0.00000000000E+00 0. -1.
         11    1    3    3    0    0 -0.70334952374E+01  0.13512939463E+02 -0.66999230243E+01  0.16642071895E+02  0.51100000000E-03 0. -1.
        -11    1    3    3    0    0 -0.95885713618E+01  0.70886590465E+01 -0.21940719365E+02  0.24971683050E+02  0.51100000000E-03 0.  1.
         12    1    3    3    0    0 -0.91815386747E+00 -0.11894871372E+01 -0.59878621180E+01  0.61735224077E+01  0.00000000000E+00 0. -1.
</event>
<event>
 7    1  0.3807360E-011  0.4778727E+02  0.7816164E-02  0.1312668E+00
        -11   -1    0    0    0    0  0.00000000000E+00  0.00000000000E+00  0.45593999997E+02  0.45594000000E+02  0.51100000000E-03 0. -1.
         11   -1    0    0    0    0 -0.00000000000E+00 -0.00000000000E+00 -0.45593999997E+02  0.45594000000E+02  0.51100000000E-03 0.  1.
    9900012    2    1    2    0    0 -0.42491123445E+01  0.36700749983E+02  0.22773299707E+02  0.47787272073E+02  0.20000004692E+02 0.  0.
        -12    1    1    2    0    0  0.42491123445E+01 -0.36700749983E+02 -0.22773299707E+02  0.43400727927E+02  0.00000000000E+00 0.  1.
         11    1    3    3    0    0 -0.50519140997E+00  0.21953613692E+02  0.17077518707E+02  0.27818303649E+02  0.51100000000E-03 0. -1.
        -11    1    3    3    0    0  0.33672073180E+01  0.78044393528E+00  0.12815271486E+01  0.36863925391E+01  0.51100000000E-03 0.  1.
        -12    1    3    3    0    0 -0.71111282525E+01  0.13966692356E+02  0.44142538516E+01  0.16282575885E+02  0.00000000000E+00 0.  1.
</event>
<event>
 7    1  0.3807360E-011  0.4778728E+02  0.7816164E-02  0.1312668E+00
        -11   -1    0    0    0    0  0.00000000000E+00  0.00000000000E+00  0.45593999997E+02  0.45594000000E+02  0.51100000000E-03 0. -1.
         11   -1    0    0    0    0 -0.00000000000E+00 -0.00000000000E+00 -0.45593999997E+02  0.45594000000E+02  0.51100000000E-03 0.  1.
    9900012    2    1    2    0    0  0.48259262502E+01  0.12623324388E+02  0.41242994995E+02  0.47787279742E+02  0.20000039654E+02 0.  0.
        -12    1    1    2    0    0 -0.48259262502E+01 -0.12623324388E+02 -0.41242994995E+02  0.43400720258E+02  0.00000000000E+00 0.  1.
         11    1    3    3    0    0  0.21065456438E+01  0.13407609675E+01  0.71505946750E+00  0.25973996274E+01  0.51100000000E-03 0. -1.
        -11    1    3    3    0    0  0.89810048798E+01  0.27277226802E+01  0.19397159940E+02  0.21548752486E+02  0.51100000000E-03 0.  1.
         12    1    3    3    0    0 -0.62616242734E+01  0.85548407406E+01  0.21130775587E+02  0.23641127629E+02  0.00000000000E+00 0. -1.
</event>
<event>
 7    1  0.3807360E-011  0.4778728E+02  0.7816164E-02  0.1312668E+00
        -11   -1    0    0    0    0  0.00000000000E+00  0.00000000000E+00  0.45593999997E+02  0.45594000000E+02  0.51100000000E-03 0. -1.
         11   -1    0    0    0    0 -0.00000000000E+00 -0.00000000000E+00 -0.45593999997E+02  0.45594000000E+02  0.51100000000E-03 0.  1.
    9900012    2    1    2    0    0  0.77762455276E+01 -0.23326339098E+02  0.35763593177E+02  0.47787277803E+02  0.20000030817E+02 0.  0.
        -12    1    1    2    0    0 -0.77762455276E+01  0.23326339098E+02 -0.35763593177E+02  0.43400722197E+02  0.00000000000E+00 0.  1.
         11    1    3    3    0    0  0.42136680887E+01 -0.13079712372E+02  0.29192832484E+02  0.32265389246E+02  0.51100000000E-03 0. -1.
        -11    1    3    3    0    0  0.53060150763E+01 -0.20666674738E+01  0.28553414369E+01  0.63700773480E+01  0.51100000000E-03 0.  1.
        -12    1    3    3    0    0 -0.17434376373E+01 -0.81799592520E+01  0.37154192566E+01  0.91518112094E+01  0.00000000000E+00 0.  1.
</event>
<event>
 7    1  0.3807360E-011  0.4778727E+02  0.7816164E-02  0.1312668E+00
        -11   -1    0    0    0    0  0.00000000000E+00  0.00000000000E+00  0.45593999997E+02  0.45594000000E+02  0.51100000000E-03 0. -1.
         11   -1    0    0    0    0 -0.00000000000E+00 -0.00000000000E+00 -0.45593999997E+02  0.45594000000E+02  0.51100000000E-03 0.  1.
    9900012    2    1    2    0    0 -0.18506968617E+02  0.31917611250E+02  0.22855665065E+02  0.47787271655E+02  0.20000002786E+02 0.  0.
        -12    1    1    2    0    0  0.18506968617E+02 -0.31917611250E+02 -0.22855665065E+02  0.43400728345E+02  0.00000000000E+00 0.  1.
         11    1    3    3    0    0 -0.16243124511E+02  0.16565290369E+02  0.12649429964E+02  0.26424534387E+02  0.51100000000E-03 0. -1.
        -11    1    3    3    0    0 -0.34626210196E+01  0.16243244483E+02  0.73966989656E+01  0.18180866082E+02  0.51100000000E-03 0.  1.
         12    1    3    3    0    0  0.11987769141E+01 -0.89092360137E+00  0.28095361348E+01  0.31818711863E+01  0.00000000000E+00 0. -1.
</event>
<event>
 7    1  0.3807360E-011  0.4778727E+02  0.7816164E-02  0.1312668E+00
        -11   -1    0    0    0    0  0.00000000000E+00  0.00000000000E+00  0.45593999997E+02  0.45594000000E+02  0.51100000000E-03 0. -1.
         11   -1    0    0    0    0 -0.00000000000E+00 -0.00000000000E+00 -0.45593999997E+02  0.45594000000E+02  0.51100000000E-03 0.  1.
    9900012    2    1    2    0    0 -0.29559023718E+02 -0.20748697980E+02 -0.24070292525E+02  0.47787270361E+02  0.19999996883E+02 0.  0.
         12    1    1    2    0    0  0.29559023718E+02  0.20748697980E+02  0.24070292525E+02  0.43400729639E+02  0.00000000000E+00 0. -1.
         11    1    3    3    0    0 -0.14833283283E+02 -0.93121162403E+01 -0.19879968037E+02  0.26494432080E+02  0.51100000000E-03 0. -1.
        -11    1    3    3    0    0 -0.42998749421E+01 -0.19944721593E+01  0.28836860990E+01  0.55481969585E+01  0.51100000000E-03 0.  1.
         12    1    3    3    0    0 -0.10425865493E+02 -0.94421095802E+01 -0.70740105872E+01  0.15744641323E+02  0.00000000000E+00 0. -1.
</event>
<event>
 7    1  0.3807360E-011  0.4778727E+02  0.7816164E-02  0.1312668E+00
        -11   -1    0    0    0    0  0.00000000000E+00  0.00000000000E+00  0.45593999997E+02  0.45594000000E+02  0.51100000000E-03 0. -1.
         11   -1    0    0    0    0 -0.00000000000E+00 -0.00000000000E+00 -0.45593999997E+02  0.45594000000E+02  0.51100000000E-03 0.  1.
    9900012    2    1    2    0    0 -0.49855738902E+01 -0.93567331653E+01 -0.42085849071E+02  0.47787273110E+02  0.20000009419E+02 0.  0.
         12    1    1    2    0    0  0.49855738902E+01  0.93567331653E+01  0.42085849071E+02  0.43400726890E+02  0.00000000000E+00 0. -1.
         11    1    3    3    0    0  0.16664245010E+01  0.94504319767E-01 -0.25580104987E+02  0.25634501616E+02  0.51100000000E-03 0. -1.
        -11    1    3    3    0    0  0.35017465967E+00 -0.40194775693E+01 -0.79101879601E+00  0.41115122788E+01  0.51100000000E-03 0.  1.
        -12    1    3    3    0    0 -0.70021730509E+01 -0.54317599158E+01 -0.15714725288E+02  0.18041259216E+02  0.00000000000E+00 0.  1.
</event>
<event>
 7    1  0.3807360E-011  0.4778727E+02  0.7816164E-02  0.1312668E+00
        -11   -1    0    0    0    0  0.00000000000E+00  0.00000000000E+00  0.45593999997E+02  0.45594000000E+02  0.51100000000E-03 0. -1.
         11   -1    0    0    0    0 -0.00000000000E+00 -0.00000000000E+00 -0.45593999997E+02  0.45594000000E+02  0.51100000000E-03 0.  1.
    9900012    2    1    2    0    0  0.13685286360E+02  0.20425891642E+02  0.35764775567E+02  0.47787270934E+02  0.19999999497E+02 0.  0.
        -12    1    1    2    0    0 -0.13685286360E+02 -0.20425891642E+02 -0.35764775567E+02  0.43400729066E+02  0.00000000000E+00 0.  1.
         11    1    3    3    0    0  0.12825116945E+02  0.21742681285E+02  0.30692686371E+02  0.39740015237E+02  0.51100000000E-03 0. -1.
        -11    1    3    3    0    0 -0.19519698867E+01  0.80074985692E+00  0.37192673280E+01  0.42760187663E+01  0.51100000000E-03 0.  1.
         12    1    3    3    0    0  0.28121393013E+01 -0.21175394998E+01  0.13528218683E+01  0.37712369311E+01  0.00000000000E+00 0. -1.
</event>
<event>
 7    1  0.3807360E-011  0.4778726E+02  0.7816164E-02  0.1312668E+00
        -11   -1    0    0    0    0  0.00000000000E+00  0.00000000000E+00  0.45593999997E+02  0.45594000000E+02  0.51100000000E-03 0. -1.
         11   -1    0    0    0    0 -0.00000000000E+00 -0.00000000000E+00 -0.45593999997E+02  0.45594000000E+02  0.51100000000E-03 0.  1.
    9900012    2    1    2    0    0  0.92667766574E+01  0.25990759832E+02  0.33499718282E+02  0.47787264162E+02  0.19999968621E+02 0.  0.
        -12    1    1    2    0    0 -0.92667766574E+01 -0.25990759832E+02 -0.33499718282E+02  0.43400735838E+02  0.00000000000E+00 0.  1.
         11    1    3    3    0    0  0.11721973993E+02  0.12511200866E+02  0.21288433570E+02  0.27333719570E+02  0.51100000000E-03 0. -1.
        -11    1    3    3    0    0  0.20490561066E+01  0.10085705929E+02  0.54393420884E+01  0.11640727539E+02  0.51100000000E-03 0.  1.
        -12    1    3    3    0    0 -0.45042534424E+01  0.33938530368E+01  0.67719426243E+01  0.88128170534E+01  0.00000000000E+00 0.  1.
</event>
<event>
 7    1  0.3807360E-011  0.4778727E+02  0.7816164E-02  0.1312668E+00
        -11   -1    0    0    0    0  0.00000000000E+00  0.00000000000E+00  0.45593999997E+02  0.45594000000E+02  0.51100000000E-03 0. -1.
         11   -1    0    0    0    0 -0.00000000000E+00 -0.00000000000E+00 -0.45593999997E+02  0.45594000000E+02  0.51100000000E-03 0.  1.
    9900012    2    1    2    0    0  0.64171097824E+01  0.92331966879E+01  0.41918872219E+02  0.47787273426E+02  0.20000010857E+02 0.  0.
        -12    1    1    2    0    0 -0.64171097824E+01 -0.92331966879E+01 -0.41918872219E+02  0.43400726574E+02  0.00000000000E+00 0.  1.
         11    1    3    3    0    0 -0.88643795602E+00  0.38236811430E+01  0.19424384468E+01  0.43794265736E+01  0.51100000000E-03 0. -1.
        -11    1    3    3    0    0 -0.33432746351E-01 -0.47437385163E+00 -0.11369922174E+01  0.12324365555E+01  0.51100000000E-03 0.  1.
         12    1    3    3    0    0  0.73369804847E+01  0.58838893966E+01  0.41113425990E+02  0.42175410297E+02  0.00000000000E+00 0. -1.
</event>
<event>
 7    1  0.3807360E-011  0.4778725E+02  0.7816164E-02  0.1312668E+00
        -11   -1    0    0    0    0  0.00000000000E+00  0.00000000000E+00  0.45593999997E+02  0.45594000000E+02  0.51100000000E-03 0.  1.
         11   -1    0    0    0    0 -0.00000000000E+00 -0.00000000000E+00 -0.45593999997E+02  0.45594000000E+02  0.51100000000E-03 0. -1.
    9900012    2    1    2    0    0 -0.28769570443E+02  0.31963099702E+02  0.58563807115E+01  0.47787249764E+02  0.19999902973E+02 0.  0.
        -12    1    1    2    0    0  0.28769570443E+02 -0.31963099702E+02 -0.58563807115E+01  0.43400750236E+02  0.00000000000E+00 0.  1.
         11    1    3    3    0    0 -0.21471689236E+02  0.19410841972E+02 -0.31031536450E+01  0.29110887783E+02  0.51100000000E-03 0. -1.
        -11    1    3    3    0    0 -0.88989198599E+01  0.10391430982E+02  0.77927796004E+01  0.15744841272E+02  0.51100000000E-03 0.  1.
        -12    1    3    3    0    0  0.16010386531E+01  0.21608267483E+01  0.11667547562E+01  0.29315207088E+01  0.00000000000E+00 0.  1.
</event>
<event>
 7    1  0.3807360E-011  0.4778728E+02  0.7816164E-02  0.1312668E+00
        -11   -1    0    0    0    0  0.00000000000E+00  0.00000000000E+00  0.45593999997E+02  0.45594000000E+02  0.51100000000E-03 0.  1.
         11   -1    0    0    0    0 -0.00000000000E+00 -0.00000000000E+00 -0.45593999997E+02  0.45594000000E+02  0.51100000000E-03 0. -1.
    9900012    2    1    2    0    0  0.57479965373E+01 -0.41079514149E+02  0.12769371594E+02  0.47787276529E+02  0.20000025005E+02 0.  0.
        -12    1    1    2    0    0 -0.57479965373E+01  0.41079514149E+02 -0.12769371594E+02  0.43400723471E+02  0.00000000000E+00 0.  1.
         11    1    3    3    0    0  0.61130705627E+01 -0.10896657248E+02  0.49862596630E+00  0.12504215249E+02  0.51100000000E-03 0. -1.
        -11    1    3    3    0    0  0.50664251398E+00 -0.34955104445E+01  0.73183471042E+01  0.81260989720E+01  0.51100000000E-03 0.  1.
         12    1    3    3    0    0 -0.87171653935E+00 -0.26687346457E+02  0.49523985238E+01  0.27156962307E+02  0.00000000000E+00 0. -1.
</event>
<event>
 7    1  0.3807360E-011  0.4778727E+02  0.7816164E-02  0.1312668E+00
        -11   -1    0    0    0    0  0.00000000000E+00  0.00000000000E+00  0.45593999997E+02  0.45594000000E+02  0.51100000000E-03 0. -1.
         11   -1    0    0    0    0 -0.00000000000E+00 -0.00000000000E+00 -0.45593999997E+02  0.45594000000E+02  0.51100000000E-03 0.  1.
    9900012    2    1    2    0    0  0.27250384156E+02  0.12244810359E+02 -0.31481810406E+02  0.47787271852E+02  0.20000003680E+02 0.  0.
         12    1    1    2    0    0 -0.27250384156E+02 -0.12244810359E+02  0.31481810406E+02  0.43400728148E+02  0.00000000000E+00 0. -1.
         11    1    3    3    0    0  0.16059046162E+02 -0.11323706634E+01 -0.14144055608E+02  0.21429641534E+02  0.51100000000E-03 0. -1.
        -11    1    3    3    0    0  0.12425451725E+02  0.91011092810E+01 -0.13436205760E+02  0.20439023122E+02  0.51100000000E-03 0.  1.
         12    1    3    3    0    0 -0.12341137312E+01  0.42760717413E+01 -0.39015490380E+01  0.59186071955E+01  0.00000000000E+00 0. -1.
</event>
<event>
 7    1  0.3807360E-011  0.4778727E+02  0.7816164E-02  0.1312668E+00
        -11   -1    0    0    0    0  0.00000000000E+00  0.00000000000E+00  0.45593999997E+02  0.45594000000E+02  0.51100000000E-03 0. -1.
         11   -1    0    0    0    0 -0.00000000000E+00 -0.00000000000E+00 -0.45593999997E+02  0.45594000000E+02  0.51100000000E-03 0.  1.
    9900012    2    1    2    0    0 -0.14621747818E+02  0.11329533867E+02 -0.39261551412E+02  0.47787271134E+02  0.20000000406E+02 0.  0.
         12    1    1    2    0    0  0.14621747818E+02 -0.11329533867E+02  0.39261551412E+02  0.43400728866E+02  0.00000000000E+00 0. -1.
         11    1    3    3    0    0 -0.13289236115E+02  0.40591603892E+01 -0.97291296079E+01  0.16962798789E+02  0.51100000000E-03 0. -1.
        -11    1    3    3    0    0  0.69914535730E+00 -0.89789426388E-01 -0.69605028727E+01  0.69961036923E+01  0.51100000000E-03 0.  1.
        -12    1    3    3    0    0 -0.20316570604E+01  0.73601629037E+01 -0.22571918931E+02  0.23828368652E+02  0.00000000000E+00 0.  1.
</event>
<event>
 7    1  0.3807360E-011  0.4778727E+02  0.7816164E-02  0.1312668E+00
        -11   -1    0    0    0    0  0.00000000000E+00  0.00000000000E+00  0.45593999997E+02  0.45594000000E+02  0.51100000000E-03 0. -1.
         11   -1    0    0    0    0 -0.00000000000E+00 -0.00000000000E+00 -0.45593999997E+02  0.45594000000E+02  0.51100000000E-03 0.  1.
    9900012    2    1    2    0    0  0.28387557643E+01 -0.42776758861E+02 -0.67611778091E+01  0.47787272376E+02  0.20000006070E+02 0.  0.
         12    1    1    2    0    0 -0.28387557643E+01  0.42776758861E+02  0.67611778091E+01  0.43400727624E+02  0.00000000000E+00 0. -1.
         11    1    3    3    0    0 -0.16425300604E+01 -0.12125826123E+02  0.24450074378E+01  0.12478446449E+02  0.51100000000E-03 0. -1.
        -11    1    3    3    0    0  0.33402487952E+01 -0.23228365793E+02 -0.50643700821E-01  0.23467356146E+02  0.51100000000E-03 0.  1.
        -12    1    3    3    0    0  0.11410370295E+01 -0.74225669453E+01 -0.91555415460E+01  0.11841469780E+02  0.00000000000E+00 0.  1.
</event>
<event>
 7    1  0.3807360E-011  0.4778727E+02  0.7816164E-02  0.1312668E+00
        -11   -1    0    0    0    0  0.00000000000E+00  0.00000000000E+00  0.45593999997E+02  0.45594000000E+02  0.51100000000E-03 0. -1.
         11   -1    0    0    0    0 -0.00000000000E+00 -0.00000000000E+00 -0.45593999997E+02  0.45594000000E+02  0.51100000000E-03 0.  1.
    9900012    2    1    2    0    0 -0.30873537619E+01  0.39154906637E+02  0.18465772955E+02  0.47787271460E+02  0.20000001894E+02 0.  0.
        -12    1    1    2    0    0  0.30873537619E+01 -0.39154906637E+02 -0.18465772955E+02  0.43400728540E+02  0.00000000000E+00 0.  1.
         11    1    3    3    0    0 -0.16174823092E+01  0.31989053448E+02  0.18531295624E+02  0.37004387676E+02  0.51100000000E-03 0. -1.
        -11    1    3    3    0    0  0.15398657040E+00 -0.80265662875E+00  0.21950382394E+01  0.23422558914E+01  0.51100000000E-03 0.  1.
        -12    1    3    3    0    0 -0.16238580231E+01  0.79685098176E+01 -0.22605609088E+01  0.84406278922E+01  0.00000000000E+00 0.  1.
</event>
<event>
 7    1  0.3807360E-011  0.4778730E+02  0.7816164E-02  0.1312668E+00
        -11   -1    0    0    0    0  0.00000000000E+00  0.00000000000E+00  0.45593999997E+02  0.45594000000E+02  0.51100000000E-03 0. -1.
         11   -1    0    0    0    0 -0.00000000000E+00 -0.00000000000E+00 -0.45593999997E+02  0.45594000000E+02  0.51100000000E-03 0.  1.
    9900012    2    1    2    0    0  0.14727459450E+02  0.26180452357E+02 -0.31325819939E+02  0.47787295601E+02  0.20000111965E+02 0.  0.
         12    1    1    2    0    0 -0.14727459450E+02 -0.26180452357E+02  0.31325819939E+02  0.43400704399E+02  0.00000000000E+00 0. -1.
         11    1    3    3    0    0  0.41731084255E+01  0.51743141933E+01  0.13616730794E+01  0.67854635168E+01  0.51100000000E-03 0. -1.
        -11    1    3    3    0    0  0.94962687444E+00  0.99871944471E+01 -0.15162183454E+02  0.18180694471E+02  0.51100000000E-03 0.  1.
        -12    1    3    3    0    0  0.96047241496E+01  0.11018943716E+02 -0.17525309565E+02  0.22821137613E+02  0.00000000000E+00 0.  1.
</event>
<event>
 7    1  0.3807360E-011  0.4778727E+02  0.7816164E-02  0.1312668E+00
        -11   -1    0    0    0    0  0.00000000000E+00  0.00000000000E+00  0.45593999997E+02  0.45594000000E+02  0.51100000000E-03 0. -1.
         11   -1    0    0    0    0 -0.00000000000E+00 -0.00000000000E+00 -0.45593999997E+02  0.45594000000E+02  0.51100000000E-03 0.  1.
    9900012    2    1    2    0    0  0.25300332324E+02 -0.21275890978E+02 -0.28122109914E+02  0.47787269377E+02  0.19999992396E+02 0.  0.
         12    1    1    2    0    0 -0.25300332324E+02  0.21275890978E+02  0.28122109914E+02  0.43400730623E+02  0.00000000000E+00 0. -1.
         11    1    3    3    0    0  0.10505507811E+01  0.11561848427E+01  0.49939462637E+00  0.16400657267E+01  0.51100000000E-03 0. -1.
        -11    1    3    3    0    0  0.20643359199E+02 -0.13696439244E+02 -0.26847754827E+02  0.36531392890E+02  0.51100000000E-03 0.  1.
         12    1    3    3    0    0  0.36064223446E+01 -0.87356365762E+01 -0.17737497131E+01  0.96158107596E+01  0.00000000000E+00 0. -1.
</event>
<event>
 7    1  0.3807360E-011  0.4778727E+02  0.7816164E-02  0.1312668E+00
        -11   -1    0    0    0    0  0.00000000000E+00  0.00000000000E+00  0.45593999997E+02  0.45594000000E+02  0.51100000000E-03 0. -1.
         11   -1    0    0    0    0 -0.00000000000E+00 -0.00000000000E+00 -0.45593999997E+02  0.45594000000E+02  0.51100000000E-03 0.  1.
    9900012    2    1    2    0    0  0.21264132312E+02 -0.93076259615E+01  0.36671898149E+02  0.47787270307E+02  0.19999996638E+02 0.  0.
        -12    1    1    2    0    0 -0.21264132312E+02  0.93076259615E+01 -0.36671898149E+02  0.43400729693E+02  0.00000000000E+00 0.  1.
         11    1    3    3    0    0  0.10029697223E+02 -0.64858561111E+01  0.14398258603E+02  0.18707512046E+02  0.51100000000E-03 0. -1.
        -11    1    3    3    0    0  0.14640259123E+02 -0.12456769479E+01  0.19486432803E+02  0.24405121632E+02  0.51100000000E-03 0.  1.
        -12    1    3    3    0    0 -0.34058240336E+01 -0.15760929025E+01  0.27872067430E+01  0.46746366291E+01  0.00000000000E+00 0.  1.
</event>
<event>
 7    1  0.3807360E-011  0.4778725E+02  0.7816164E-02  0.1312668E+00
        -11   -1    0    0    0    0  0.00000000000E+00  0.00000000000E+00  0.45593999997E+02  0.45594000000E+02  0.51100000000E-03 0. -1.
         11   -1    0    0    0    0 -0.00000000000E+00 -0.00000000000E+00 -0.45593999997E+02  0.45594000000E+02  0.51100000000E-03 0.  1.
    9900012    2    1    2    0    0 -0.12696303338E+02 -0.31612527143E+02 -0.26890085528E+02  0.47787254724E+02  0.19999925587E+02 0.  0.
         12    1    1    2    0    0  0.12696303338E+02  0.31612527143E+02  0.26890085528E+02  0.43400745276E+02  0.00000000000E+00 0. -1.
         11    1    3    3    0    0 -0.18066096290E+01  0.86312408048E+00 -0.32809847828E+01  0.38436548929E+01  0.51100000000E-03 0. -1.
        -11    1    3    3    0    0 -0.10805386847E+02 -0.20639471711E+02 -0.86107698546E+01  0.24837261024E+02  0.51100000000E-03 0.  1.
        -12    1    3    3    0    0 -0.84306862681E-01 -0.11836179512E+02 -0.14998330890E+02  0.19106338807E+02  0.00000000000E+00 0.  1.
</event>
<event>
 7    1  0.3807360E-011  0.4778727E+02  0.7816164E-02  0.1312668E+00
        -11   -1    0    0    0    0  0.00000000000E+00  0.00000000000E+00  0.45593999997E+02  0.45594000000E+02  0.51100000000E-03 0. -1.
         11   -1    0    0    0    0 -0.00000000000E+00 -0.00000000000E+00 -0.45593999997E+02  0.45594000000E+02  0.51100000000E-03 0.  1.
    9900012    2    1    2    0    0 -0.73252028338E+01  0.60737705835E+01  0.42344702271E+02  0.47787273092E+02  0.20000009337E+02 0.  0.
        -12    1    1    2    0    0  0.73252028338E+01 -0.60737705835E+01 -0.42344702271E+02  0.43400726908E+02  0.00000000000E+00 0.  1.
         11    1    3    3    0    0 -0.15480327055E+01 -0.41907116353E+01  0.15252927589E+02  0.15893717927E+02  0.51100000000E-03 0. -1.
        -11    1    3    3    0    0  0.29201540440E+01  0.61578099726E+01  0.79505803812E+01  0.10471754961E+02  0.51100000000E-03 0.  1.
         12    1    3    3    0    0 -0.86973241724E+01  0.41066722462E+01  0.19141194302E+02  0.21421800204E+02  0.00000000000E+00 0. -1.
</event>
<event>
 7    1  0.3807360E-011  0.4778728E+02  0.7816164E-02  0.1312668E+00
        -11   -1    0    0    0    0  0.00000000000E+00  0.00000000000E+00  0.45593999997E+02  0.45594000000E+02  0.51100000000E-03 0. -1.
         11   -1    0    0    0    0 -0.00000000000E+00 -0.00000000000E+00 -0.45593999997E+02  0.45594000000E+02  0.51100000000E-03 0.  1.
    9900012    2    1    2    0    0 -0.15691304308E+02 -0.10453731344E+02 -0.39091241980E+02  0.47787277317E+02  0.20000028598E+02 0.  0.
         12    1    1    2    0    0  0.15691304308E+02  0.10453731344E+02  0.39091241980E+02  0.43400722683E+02  0.00000000000E+00 0. -1.
         11    1    3    3    0    0  0.15035652945E+01  0.14899342921E+01 -0.43916459121E+01  0.48751581377E+01  0.51100000000E-03 0. -1.
        -11    1    3    3    0    0 -0.16053118737E+02 -0.37082873620E+01 -0.19013437538E+02  0.25158792174E+02  0.51100000000E-03 0.  1.
         12    1    3    3    0    0 -0.11417508653E+01 -0.82353782736E+01 -0.15686158529E+02  0.17753327005E+02  0.00000000000E+00 0. -1.
</event>
<event>
 7    1  0.3807360E-011  0.4778725E+02  0.7816164E-02  0.1312668E+00
        -11   -1    0    0    0    0  0.00000000000E+00  0.00000000000E+00  0.45593999997E+02  0.45594000000E+02  0.51100000000E-03 0. -1.
         11   -1    0    0    0    0 -0.00000000000E+00 -0.00000000000E+00 -0.45593999997E+02  0.45594000000E+02  0.51100000000E-03 0.  1.
    9900012    2    1    2    0    0  0.51202982447E+01 -0.24317316528E+02 -0.35581956965E+02  0.47787251174E+02  0.19999909401E+02 0.  0.
         12    1    1    2    0    0 -0.51202982447E+01  0.24317316528E+02  0.35581956965E+02  0.43400748826E+02  0.00000000000E+00 0. -1.
         11    1    3    3    0    0  0.37408552362E+01 -0.34901042768E+01 -0.83314765139E+00  0.51835278557E+01  0.51100000000E-03 0. -1.
        -11    1    3    3    0    0  0.50796309231E+01 -0.20218115213E+02 -0.28392845854E+02  0.35223976621E+02  0.51100000000E-03 0.  1.
        -12    1    3    3    0    0 -0.37001879146E+01 -0.60909703837E+00 -0.63559634596E+01  0.73797466966E+01  0.00000000000E+00 0.  1.
</event>
<event>
 7    1  0.3807360E-011  0.4778727E+02  0.7816164E-02  0.1312668E+00
        -11   -1    0    0    0    0  0.00000000000E+00  0.00000000000E+00  0.45593999997E+02  0.45594000000E+02  0.51100000000E-03 0. -1.
         11   -1    0    0    0    0 -0.00000000000E+00 -0.00000000000E+00 -0.45593999997E+02  0.45594000000E+02  0.51100000000E-03 0.  1.
    9900012    2    1    2    0    0  0.30311866438E+02 -0.57097213293E+01 -0.30532166741E+02  0.47787269931E+02  0.19999994924E+02 0.  0.
         12    1    1    2    0    0 -0.30311866438E+02  0.57097213293E+01  0.30532166741E+02  0.43400730069E+02  0.00000000000E+00 0. -1.
         11    1    3    3    0    0  0.16583655972E+02 -0.11234272677E+02 -0.21635471476E+02  0.29484235691E+02  0.51100000000E-03 0. -1.
        -11    1    3    3    0    0  0.11475079152E+02  0.17621152394E+01 -0.64134530425E+01  0.13263290385E+02  0.51100000000E-03 0.  1.
         12    1    3    3    0    0  0.22531313140E+01  0.37624361087E+01 -0.24832422222E+01  0.50397438550E+01  0.00000000000E+00 0. -1.
</event>
<event>
 7    1  0.3807360E-011  0.4778727E+02  0.7816164E-02  0.1312668E+00
        -11   -1    0    0    0    0  0.00000000000E+00  0.00000000000E+00  0.45593999997E+02  0.45594000000E+02  0.51100000000E-03 0. -1.
         11   -1    0    0    0    0 -0.00000000000E+00 -0.00000000000E+00 -0.45593999997E+02  0.45594000000E+02  0.51100000000E-03 0.  1.
    9900012    2    1    2    0    0 -0.70000879593E+01  0.32038173877E+02 -0.28428467268E+02  0.47787267656E+02  0.19999984552E+02 0.  0.
         12    1    1    2    0    0  0.70000879593E+01 -0.32038173877E+02  0.28428467268E+02  0.43400732344E+02  0.00000000000E+00 0. -1.
         11    1    3    3    0    0 -0.23152520743E+00  0.46174976848E+01  0.54346962219E+00  0.46551313926E+01  0.51100000000E-03 0. -1.
        -11    1    3    3    0    0 -0.96452674671E+01  0.26752580569E+02 -0.23407817285E+02  0.36832834020E+02  0.51100000000E-03 0.  1.
         12    1    3    3    0    0  0.28767047153E+01  0.66809562251E+00 -0.55641196051E+01  0.62993022439E+01  0.00000000000E+00 0. -1.
</event>
<event>
 7    1  0.3807360E-011  0.4778728E+02  0.7816164E-02  0.1312668E+00
        -11   -1    0    0    0    0  0.00000000000E+00  0.00000000000E+00  0.45593999997E+02  0.45594000000E+02  0.51100000000E-03 0. -1.
         11   -1    0    0    0    0 -0.00000000000E+00 -0.00000000000E+00 -0.45593999997E+02  0.45594000000E+02  0.51100000000E-03 0.  1.
    9900012    2    1    2    0    0 -0.13273145897E+02 -0.37027757634E+01 -0.41155018706E+02  0.47787279786E+02  0.20000039857E+02 0.  0.
         12    1    1    2    0    0  0.13273145897E+02  0.37027757634E+01  0.41155018706E+02  0.43400720214E+02  0.00000000000E+00 0. -1.
         11    1    3    3    0    0 -0.21721663463E+01  0.47038939457E+01 -0.43024648999E+01  0.67346959370E+01  0.51100000000E-03 0. -1.
        -11    1    3    3    0    0  0.11150846921E+01 -0.53907500565E+01 -0.11421436187E+02  0.12678832946E+02  0.51100000000E-03 0.  1.
         12    1    3    3    0    0 -0.12216064243E+02 -0.30159196526E+01 -0.25431117619E+02  0.28373750903E+02  0.00000000000E+00 0. -1.
</event>
<event>
 7    1  0.3807360E-011  0.4778728E+02  0.7816164E-02  0.1312668E+00
        -11   -1    0    0    0    0  0.00000000000E+00  0.00000000000E+00  0.45593999997E+02  0.45594000000E+02  0.51100000000E-03 0. -1.
         11   -1    0    0    0    0 -0.00000000000E+00 -0.00000000000E+00 -0.45593999997E+02  0.45594000000E+02  0.51100000000E-03 0.  1.
    9900012    2    1    2    0    0 -0.40476530702E+02  0.11890213774E+02 -0.10192948852E+02  0.47787275035E+02  0.20000018193E+02 0.  0.
         12    1    1    2    0    0  0.40476530702E+02 -0.11890213774E+02  0.10192948852E+02  0.43400724965E+02  0.00000000000E+00 0. -1.
         11    1    3    3    0    0 -0.21852742310E+02  0.32056340135E+01 -0.74394056745E+01  0.23305861772E+02  0.51100000000E-03 0. -1.
        -11    1    3    3    0    0 -0.16410693431E+02  0.10614021130E+02  0.11722452840E+01  0.19579133349E+02  0.51100000000E-03 0.  1.
         12    1    3    3    0    0 -0.22130949605E+01 -0.19294413699E+01 -0.39257884610E+01  0.49022799130E+01  0.00000000000E+00 0. -1.
</event>
<event>
 7    1  0.3807360E-011  0.4778727E+02  0.7816164E-02  0.1312668E+00
        -11   -1    0    0    0    0  0.00000000000E+00  0.00000000000E+00  0.45593999997E+02  0.45594000000E+02  0.51100000000E-03 0. -1.
         11   -1    0    0    0    0 -0.00000000000E+00 -0.00000000000E+00 -0.45593999997E+02  0.45594000000E+02  0.51100000000E-03 0.  1.
    9900012    2    1    2    0    0 -0.27097460750E+02  0.88877483072E+01 -0.32716338968E+02  0.47787270922E+02  0.19999999440E+02 0.  0.
         12    1    1    2    0    0  0.27097460750E+02 -0.88877483072E+01  0.32716338968E+02  0.43400729078E+02  0.00000000000E+00 0. -1.
         11    1    3    3    0    0 -0.22725714397E+02 -0.29206568840E+00 -0.25322254781E+02  0.34025872284E+02  0.51100000000E-03 0. -1.
        -11    1    3    3    0    0  0.12592264887E+01  0.24446619010E+01 -0.11118245967E+01  0.29661721722E+01  0.51100000000E-03 0.  1.
        -12    1    3    3    0    0 -0.56309728420E+01  0.67351520946E+01 -0.62822595900E+01  0.10795226465E+02  0.00000000000E+00 0.  1.
</event>
<event>
 7    1  0.3807360E-011  0.4778727E+02  0.7816164E-02  0.1312668E+00
        -11   -1    0    0    0    0  0.00000000000E+00  0.00000000000E+00  0.45593999997E+02  0.45594000000E+02  0.51100000000E-03 0. -1.
         11   -1    0    0    0    0 -0.00000000000E+00 -0.00000000000E+00 -0.45593999997E+02  0.45594000000E+02  0.51100000000E-03 0.  1.
    9900012    2    1    2    0    0  0.89086330729E+01 -0.55698078977E+01 -0.42109821399E+02  0.47787267731E+02  0.19999984891E+02 0.  0.
         12    1    1    2    0    0 -0.89086330729E+01  0.55698078977E+01  0.42109821399E+02  0.43400732269E+02  0.00000000000E+00 0. -1.
         11    1    3    3    0    0 -0.28244434876E+01  0.73212454657E+00 -0.38107261766E+01  0.47994918085E+01  0.51100000000E-03 0. -1.
        -11    1    3    3    0    0  0.14270031917E+02 -0.19022283498E+01 -0.29583763846E+02  0.32900628674E+02  0.51100000000E-03 0.  1.
         12    1    3    3    0    0 -0.25369553561E+01 -0.43997040945E+01 -0.87153313764E+01  0.10087147248E+02  0.00000000000E+00 0. -1.
</event>
<event>
 7    1  0.3807360E-011  0.4778727E+02  0.7816164E-02  0.1312668E+00
        -11   -1    0    0    0    0  0.00000000000E+00  0.00000000000E+00  0.45593999997E+02  0.45594000000E+02  0.51100000000E-03 0. -1.
         11   -1    0    0    0    0 -0.00000000000E+00 -0.00000000000E+00 -0.45593999997E+02  0.45594000000E+02  0.51100000000E-03 0.  1.
    9900012    2    1    2    0    0  0.26120967000E+02  0.15072164167E+02 -0.31211346137E+02  0.47787272156E+02  0.20000005069E+02 0.  0.
         12    1    1    2    0    0 -0.26120967000E+02 -0.15072164167E+02  0.31211346137E+02  0.43400727844E+02  0.00000000000E+00 0. -1.
         11    1    3    3    0    0 -0.18965560131E+00 -0.89704289458E+00  0.34271232938E+00  0.97882950694E+00  0.51100000000E-03 0. -1.
        -11    1    3    3    0    0  0.27038816106E+02  0.11954438485E+02 -0.30737256818E+02  0.42647217176E+02  0.51100000000E-03 0.  1.
        -12    1    3    3    0    0 -0.72819350453E+00  0.40147685769E+01 -0.81680164797E+00  0.41612254731E+01  0.00000000000E+00 0.  1.
</event>
<event>
 7    1  0.3807360E-011  0.4778727E+02  0.7816164E-02  0.1312668E+00
        -11   -1    0    0    0    0  0.00000000000E+00  0.00000000000E+00  0.45593999997E+02  0.45594000000E+02  0.51100000000E-03 0. -1.
         11   -1    0    0    0    0 -0.00000000000E+00 -0.00000000000E+00 -0.45593999997E+02  0.45594000000E+02  0.51100000000E-03 0.  1.
    9900012    2    1    2    0    0  0.40766284723E+02 -0.14430869818E+02  0.36720273680E+01  0.47787265457E+02  0.19999974526E+02 0.  0.
        -12    1    1    2    0    0 -0.40766284723E+02  0.14430869818E+02 -0.36720273680E+01  0.43400734543E+02  0.00000000000E+00 0.  1.
         11    1    3    3    0    0  0.76607617906E+01 -0.71415652048E+01  0.40431265205E+01  0.11226579938E+02  0.51100000000E-03 0.  1.
        -11    1    3    3    0    0  0.92299514553E+01 -0.86410017338E+01 -0.28408697343E+00  0.12646723706E+02  0.51100000000E-03 0. -1.
        -12    1    3    3    0    0  0.23875571477E+02  0.13516971203E+01 -0.87012179018E-01  0.23913961813E+02  0.00000000000E+00 0.  1.
</event>
<event>
 7    1  0.3807360E-011  0.4778728E+02  0.7816164E-02  0.1312668E+00
        -11   -1    0    0    0    0  0.00000000000E+00  0.00000000000E+00  0.45593999997E+02  0.45594000000E+02  0.51100000000E-03 0.  1.
         11   -1    0    0    0    0 -0.00000000000E+00 -0.00000000000E+00 -0.45593999997E+02  0.45594000000E+02  0.51100000000E-03 0. -1.
    9900012    2    1    2    0    0  0.17944980588E+01 -0.21730135233E+02  0.37526038927E+02  0.47787278830E+02  0.20000035497E+02 0.  0.
        -12    1    1    2    0    0 -0.17944980588E+01  0.21730135233E+02 -0.37526038927E+02  0.43400721170E+02  0.00000000000E+00 0.  1.
         11    1    3    3    0    0 -0.56045829888E+01 -0.59084899459E+01  0.86160313850E+01  0.11855699094E+02  0.51100000000E-03 0. -1.
        -11    1    3    3    0    0  0.90068876359E+01 -0.12014619251E+02  0.14253391301E+02  0.20703484356E+02  0.51100000000E-03 0.  1.
        -12    1    3    3    0    0 -0.16078065883E+01 -0.38070260355E+01  0.14656616241E+02  0.15228095379E+02  0.00000000000E+00 0.  1.
</event>
<event>
 7    1  0.3807360E-011  0.4778728E+02  0.7816164E-02  0.1312668E+00
        -11   -1    0    0    0    0  0.00000000000E+00  0.00000000000E+00  0.45593999997E+02  0.45594000000E+02  0.51100000000E-03 0. -1.
         11   -1    0    0    0    0 -0.00000000000E+00 -0.00000000000E+00 -0.45593999997E+02  0.45594000000E+02  0.51100000000E-03 0.  1.
    9900012    2    1    2    0    0 -0.88992351478E+01  0.25614598517E+02 -0.33886851928E+02  0.47787276769E+02  0.20000026100E+02 0.  0.
         12    1    1    2    0    0  0.88992351478E+01 -0.25614598517E+02  0.33886851928E+02  0.43400723231E+02  0.00000000000E+00 0. -1.
         11    1    3    3    0    0 -0.11523895220E+01  0.75866202177E-01 -0.80797762416E+01  0.81618957152E+01  0.51100000000E-03 0. -1.
        -11    1    3    3    0    0 -0.40689056485E+01  0.14528422494E+01 -0.91263056322E+01  0.10097336210E+02  0.51100000000E-03 0.  1.
         12    1    3    3    0    0 -0.36779399774E+01  0.24085890065E+02 -0.16680770054E+02  0.29528044844E+02  0.00000000000E+00 0. -1.
</event>
<event>
 7    1  0.3807360E-011  0.4778727E+02  0.7816164E-02  0.1312668E+00
        -11   -1    0    0    0    0  0.00000000000E+00  0.00000000000E+00  0.45593999997E+02  0.45594000000E+02  0.51100000000E-03 0. -1.
         11   -1    0    0    0    0 -0.00000000000E+00 -0.00000000000E+00 -0.45593999997E+02  0.45594000000E+02  0.51100000000E-03 0.  1.
    9900012    2    1    2    0    0 -0.63676303150E+01  0.83456492980E+01  0.42112069098E+02  0.47787274871E+02  0.20000017446E+02 0.  0.
        -12    1    1    2    0    0  0.63676303150E+01 -0.83456492980E+01 -0.42112069098E+02  0.43400725129E+02  0.00000000000E+00 0.  1.
         11    1    3    3    0    0  0.95560120009E+00  0.40718790168E+00  0.24785955485E+02  0.24807711809E+02  0.51100000000E-03 0. -1.
        -11    1    3    3    0    0  0.13495208322E+00  0.76194823644E+01  0.83436075511E+01  0.11300022602E+02  0.51100000000E-03 0.  1.
        -12    1    3    3    0    0 -0.74581835983E+01  0.31897903188E+00  0.89825060619E+01  0.11679540460E+02  0.00000000000E+00 0.  1.
</event>
<event>
 7    1  0.3807360E-011  0.4778727E+02  0.7816164E-02  0.1312668E+00
        -11   -1    0    0    0    0  0.00000000000E+00  0.00000000000E+00  0.45593999997E+02  0.45594000000E+02  0.51100000000E-03 0. -1.
         11   -1    0    0    0    0 -0.00000000000E+00 -0.00000000000E+00 -0.45593999997E+02  0.45594000000E+02  0.51100000000E-03 0.  1.
    9900012    2    1    2    0    0  0.29377228981E+02 -0.23830341091E+02 -0.21277130398E+02  0.47787274003E+02  0.20000013491E+02 0.  0.
         12    1    1    2    0    0 -0.29377228981E+02  0.23830341091E+02  0.21277130398E+02  0.43400725997E+02  0.00000000000E+00 0. -1.
         11    1    3    3    0    0  0.99746679381E+01 -0.47896273194E+01 -0.26778004284E+01  0.11384425577E+02  0.51100000000E-03 0. -1.
        -11    1    3    3    0    0  0.14360824630E+02 -0.11201466883E+02 -0.19917965179E+02  0.26989469827E+02  0.51100000000E-03 0.  1.
        -12    1    3    3    0    0  0.50417364128E+01 -0.78392468886E+01  0.13186352102E+01  0.94133785993E+01  0.00000000000E+00 0.  1.
</event>
<event>
 7    1  0.3807360E-011  0.4778727E+02  0.7816164E-02  0.1312668E+00
        -11   -1    0    0    0    0  0.00000000000E+00  0.00000000000E+00  0.45593999997E+02  0.45594000000E+02  0.51100000000E-03 0. -1.
         11   -1    0    0    0    0 -0.00000000000E+00 -0.00000000000E+00 -0.45593999997E+02  0.45594000000E+02  0.51100000000E-03 0.  1.
    9900012    2    1    2    0    0 -0.24594501847E+02  0.27746134302E+02 -0.22558492538E+02  0.47787273331E+02  0.20000010423E+02 0.  0.
         12    1    1    2    0    0  0.24594501847E+02 -0.27746134302E+02  0.22558492538E+02  0.43400726669E+02  0.00000000000E+00 0. -1.
         11    1    3    3    0    0 -0.23357969753E+01  0.90762253612E+01 -0.11730982761E+00  0.93727037813E+01  0.51100000000E-03 0. -1.
        -11    1    3    3    0    0 -0.75721794754E+01  0.12217807418E+02 -0.64187643375E+01  0.15742085503E+02  0.51100000000E-03 0.  1.
         12    1    3    3    0    0 -0.14686525397E+02  0.64521015232E+01 -0.16022418373E+02  0.22672484046E+02  0.00000000000E+00 0. -1.
</event>
<event>
 7    1  0.3807360E-011  0.4778727E+02  0.7816164E-02  0.1312668E+00
        -11   -1    0    0    0    0  0.00000000000E+00  0.00000000000E+00  0.45593999997E+02  0.45594000000E+02  0.51100000000E-03 0. -1.
         11   -1    0    0    0    0 -0.00000000000E+00 -0.00000000000E+00 -0.45593999997E+02  0.45594000000E+02  0.51100000000E-03 0.  1.
    9900012    2    1    2    0    0 -0.10868621195E+02 -0.16253383047E+02 -0.38746920045E+02  0.47787271894E+02  0.20000003872E+02 0.  0.
         12    1    1    2    0    0  0.10868621195E+02  0.16253383047E+02  0.38746920045E+02  0.43400728106E+02  0.00000000000E+00 0. -1.
         11    1    3    3    0    0  0.12988971596E+01  0.10455338171E+01  0.44173151581E+00  0.17249352994E+01  0.51100000000E-03 0. -1.
        -11    1    3    3    0    0  0.25712353572E+00 -0.10707778595E+01 -0.11989770474E+02  0.12040235630E+02  0.51100000000E-03 0.  1.
         12    1    3    3    0    0 -0.12424641891E+02 -0.16228139005E+02 -0.27198881087E+02  0.34022100965E+02  0.00000000000E+00 0. -1.
</event>
<event>
 7    1  0.3807360E-011  0.4778727E+02  0.7816164E-02  0.1312668E+00
        -11   -1    0    0    0    0  0.00000000000E+00  0.00000000000E+00  0.45593999997E+02  0.45594000000E+02  0.51100000000E-03 0.  1.
         11   -1    0    0    0    0 -0.00000000000E+00 -0.00000000000E+00 -0.45593999997E+02  0.45594000000E+02  0.51100000000E-03 0. -1.
    9900012    2    1    2    0    0 -0.36890490213E+02 -0.22716571069E+02  0.25831125194E+01  0.47787270287E+02  0.19999996548E+02 0.  0.
        -12    1    1    2    0    0  0.36890490213E+02  0.22716571069E+02 -0.25831125194E+01  0.43400729713E+02  0.00000000000E+00 0.  1.
         11    1    3    3    0    0 -0.19493371266E+02 -0.59746488529E+01 -0.60900030470E+01  0.21278535889E+02  0.51100000000E-03 0. -1.
        -11    1    3    3    0    0 -0.14258809406E+02 -0.13024158837E+02  0.39169957993E+01  0.19704954084E+02  0.51100000000E-03 0.  1.
         12    1    3    3    0    0 -0.31383095409E+01 -0.37177633789E+01  0.47561197671E+01  0.68037803136E+01  0.00000000000E+00 0. -1.
</event>
<event>
 7    1  0.3807360E-011  0.4778728E+02  0.7816164E-02  0.1312668E+00
        -11   -1    0    0    0    0  0.00000000000E+00  0.00000000000E+00  0.45593999997E+02  0.45594000000E+02  0.51100000000E-03 0. -1.
         11   -1    0    0    0    0 -0.00000000000E+00 -0.00000000000E+00 -0.45593999997E+02  0.45594000000E+02  0.51100000000E-03 0.  1.
    9900012    2    1    2    0    0 -0.46907355858E+01  0.41404537667E+00  0.43144505587E+02  0.47787276547E+02  0.20000025089E+02 0.  0.
        -12    1    1    2    0    0  0.46907355858E+01 -0.41404537667E+00 -0.43144505587E+02  0.43400723453E+02  0.00000000000E+00 0.  1.
         11    1    3    3    0    0 -0.46070787386E+01 -0.91420063748E+00  0.35253373095E+02  0.35564887911E+02  0.51100000000E-03 0. -1.
        -11    1    3    3    0    0  0.32372939089E+01  0.30875236564E+01  0.70843630225E+01  0.83786081110E+01  0.51100000000E-03 0.  1.
        -12    1    3    3    0    0 -0.33209507561E+01 -0.17592776422E+01  0.80676946954E+00  0.38437805249E+01  0.00000000000E+00 0.  1.
</event>
<event>
 7    1  0.3807360E-011  0.4778727E+02  0.7816164E-02  0.1312668E+00
        -11   -1    0    0    0    0  0.00000000000E+00  0.00000000000E+00  0.45593999997E+02  0.45594000000E+02  0.51100000000E-03 0.  1.
         11   -1    0    0    0    0 -0.00000000000E+00 -0.00000000000E+00 -0.45593999997E+02  0.45594000000E+02  0.51100000000E-03 0. -1.
    9900012    2    1    2    0    0  0.26155606280E+02 -0.27841951725E+02 -0.20599351262E+02  0.47787270880E+02  0.19999999250E+02 0.  0.
         12    1    1    2    0    0 -0.26155606280E+02  0.27841951725E+02  0.20599351262E+02  0.43400729120E+02  0.00000000000E+00 0. -1.
         11    1    3    3    0    0  0.37450202101E+01 -0.52508047140E+00 -0.35598035301E+01  0.51935621022E+01  0.51100000000E-03 0. -1.
        -11    1    3    3    0    0  0.17497581141E+02 -0.28704348553E+02 -0.16535603366E+02  0.37463731135E+02  0.51100000000E-03 0.  1.
         12    1    3    3    0    0  0.49130049290E+01  0.13874772991E+01 -0.50394436563E+00  0.51299776424E+01  0.00000000000E+00 0. -1.
</event>
<event>
 7    1  0.3807360E-011  0.4778727E+02  0.7816164E-02  0.1312668E+00
        -11   -1    0    0    0    0  0.00000000000E+00  0.00000000000E+00  0.45593999997E+02  0.45594000000E+02  0.51100000000E-03 0. -1.
         11   -1    0    0    0    0 -0.00000000000E+00 -0.00000000000E+00 -0.45593999997E+02  0.45594000000E+02  0.51100000000E-03 0.  1.
    9900012    2    1    2    0    0 -0.63200380085E+01  0.19851776832E+02 -0.38073446740E+02  0.47787271083E+02  0.20000000177E+02 0.  0.
         12    1    1    2    0    0  0.63200380085E+01 -0.19851776832E+02  0.38073446740E+02  0.43400728917E+02  0.00000000000E+00 0. -1.
         11    1    3    3    0    0 -0.39375513946E+01  0.13012590024E+02 -0.10400926280E+02  0.17117566353E+02  0.51100000000E-03 0. -1.
        -11    1    3    3    0    0 -0.15617317833E+01 -0.29565549851E+01 -0.59161755422E+01  0.67956866357E+01  0.51100000000E-03 0.  1.
        -12    1    3    3    0    0 -0.82075483060E+00  0.97957417927E+01 -0.21756344918E+02  0.23874018094E+02  0.00000000000E+00 0.  1.
</event>
<event>
 7    1  0.3807360E-011  0.4778727E+02  0.7816164E-02  0.1312668E+00
        -11   -1    0    0    0    0  0.00000000000E+00  0.00000000000E+00  0.45593999997E+02  0.45594000000E+02  0.51100000000E-03 0. -1.
         11   -1    0    0    0    0 -0.00000000000E+00 -0.00000000000E+00 -0.45593999997E+02  0.45594000000E+02  0.51100000000E-03 0.  1.
    9900012    2    1    2    0    0  0.28075185591E+01 -0.22238307145E+02  0.37164484228E+02  0.47787270132E+02  0.19999995839E+02 0.  0.
        -12    1    1    2    0    0 -0.28075185591E+01  0.22238307145E+02 -0.37164484228E+02  0.43400729868E+02  0.00000000000E+00 0.  1.
         11    1    3    3    0    0  0.91614197146E+01 -0.42260240408E+01  0.16125104528E+02  0.19021300868E+02  0.51100000000E-03 0.  1.
        -11    1    3    3    0    0 -0.39955342591E+01 -0.50380509897E+01  0.69200623218E+01  0.94463492731E+01  0.51100000000E-03 0. -1.
         12    1    3    3    0    0 -0.23583668964E+01 -0.12974232114E+02  0.14119317378E+02  0.19319619991E+02  0.00000000000E+00 0. -1.
</event>
<event>
 7    1  0.3807360E-011  0.4778727E+02  0.7816164E-02  0.1312668E+00
        -11   -1    0    0    0    0  0.00000000000E+00  0.00000000000E+00  0.45593999997E+02  0.45594000000E+02  0.51100000000E-03 0. -1.
         11   -1    0    0    0    0 -0.00000000000E+00 -0.00000000000E+00 -0.45593999997E+02  0.45594000000E+02  0.51100000000E-03 0.  1.
    9900012    2    1    2    0    0 -0.30631645086E+00 -0.23748545942E+02 -0.36325413563E+02  0.47787274952E+02  0.20000017818E+02 0.  0.
         12    1    1    2    0    0  0.30631645086E+00  0.23748545942E+02  0.36325413563E+02  0.43400725048E+02  0.00000000000E+00 0. -1.
         11    1    3    3    0    0  0.67010345066E+01 -0.19290890113E+01 -0.11501063283E+02  0.13449896088E+02  0.51100000000E-03 0.  1.
        -11    1    3    3    0    0 -0.68064871495E+00 -0.76584057493E+01 -0.50197897074E+01  0.91821974637E+01  0.51100000000E-03 0. -1.
        -12    1    3    3    0    0 -0.63267022426E+01 -0.14161051181E+02 -0.19804560572E+02  0.25155181400E+02  0.00000000000E+00 0.  1.
</event>
<event>
 7    1  0.3807360E-011  0.4778727E+02  0.7816164E-02  0.1312668E+00
        -11   -1    0    0    0    0  0.00000000000E+00  0.00000000000E+00  0.45593999997E+02  0.45594000000E+02  0.51100000000E-03 0. -1.
         11   -1    0    0    0    0 -0.00000000000E+00 -0.00000000000E+00 -0.45593999997E+02  0.45594000000E+02  0.51100000000E-03 0.  1.
    9900012    2    1    2    0    0  0.13257212621E+02  0.31335435942E+02  0.26943647349E+02  0.47787269999E+02  0.19999995232E+02 0.  0.
        -12    1    1    2    0    0 -0.13257212621E+02 -0.31335435942E+02 -0.26943647349E+02  0.43400730001E+02  0.00000000000E+00 0.  1.
         11    1    3    3    0    0  0.96858747062E+01  0.28619206054E+02  0.26301640389E+02  0.40058100447E+02  0.51100000000E-03 0. -1.
        -11    1    3    3    0    0  0.39833279829E+00 -0.10688619034E+01  0.22601987363E+01  0.25317253752E+01  0.51100000000E-03 0.  1.
        -12    1    3    3    0    0  0.31730051170E+01  0.37850917917E+01 -0.16181917765E+01  0.51974441766E+01  0.00000000000E+00 0.  1.
</event>
<event>
 7    1  0.3807360E-011  0.4778727E+02  0.7816164E-02  0.1312668E+00
        -11   -1    0    0    0    0  0.00000000000E+00  0.00000000000E+00  0.45593999997E+02  0.45594000000E+02  0.51100000000E-03 0. -1.
         11   -1    0    0    0    0 -0.00000000000E+00 -0.00000000000E+00 -0.45593999997E+02  0.45594000000E+02  0.51100000000E-03 0.  1.
    9900012    2    1    2    0    0 -0.14170168456E+01  0.10415488263E+02 -0.42108588119E+02  0.47787268141E+02  0.19999986763E+02 0.  0.
         12    1    1    2    0    0  0.14170168456E+01 -0.10415488263E+02  0.42108588119E+02  0.43400731859E+02  0.00000000000E+00 0. -1.
         11    1    3    3    0    0  0.12227130517E+01  0.10135046974E+02 -0.34312372679E+02  0.35798786620E+02  0.51100000000E-03 0.  1.
        -11    1    3    3    0    0 -0.17812132073E+00 -0.33210153994E+01 -0.67160337363E+01  0.74943965665E+01  0.51100000000E-03 0. -1.
        -12    1    3    3    0    0 -0.24616085766E+01  0.36014566885E+01 -0.10801817038E+01  0.44940849543E+01  0.00000000000E+00 0.  1.
</event>
<event>
 7    1  0.3807360E-011  0.4778729E+02  0.7816164E-02  0.1312668E+00
        -11   -1    0    0    0    0  0.00000000000E+00  0.00000000000E+00  0.45593999997E+02  0.45594000000E+02  0.51100000000E-03 0.  1.
         11   -1    0    0    0    0 -0.00000000000E+00 -0.00000000000E+00 -0.45593999997E+02  0.45594000000E+02  0.51100000000E-03 0. -1.
    9900012    2    1    2    0    0 -0.37374257132E+02  0.21876502990E+02  0.28645126692E+01  0.47787286733E+02  0.20000071532E+02 0.  0.
        -12    1    1    2    0    0  0.37374257132E+02 -0.21876502990E+02 -0.28645126692E+01  0.43400713267E+02  0.00000000000E+00 0.  1.
         11    1    3    3    0    0 -0.93883519162E+01  0.17900881801E+01 -0.79390169261E+00  0.95904039307E+01  0.51100000000E-03 0. -1.
        -11    1    3    3    0    0 -0.80481269178E+01  0.14487082074E+02 -0.20924892011E+01  0.16704083489E+02  0.51100000000E-03 0.  1.
        -12    1    3    3    0    0 -0.19937778298E+02  0.55993327358E+01  0.57509035629E+01  0.21492799313E+02  0.00000000000E+00 0.  1.
</event>
<event>
 7    1  0.3807360E-011  0.4778728E+02  0.7816164E-02  0.1312668E+00
        -11   -1    0    0    0    0  0.00000000000E+00  0.00000000000E+00  0.45593999997E+02  0.45594000000E+02  0.51100000000E-03 0. -1.
         11   -1    0    0    0    0 -0.00000000000E+00 -0.00000000000E+00 -0.45593999997E+02  0.45594000000E+02  0.51100000000E-03 0.  1.
    9900012    2    1    2    0    0  0.28331331976E+02  0.20659581446E+02  0.25576165200E+02  0.47787275312E+02  0.20000019458E+02 0.  0.
        -12    1    1    2    0    0 -0.28331331976E+02 -0.20659581446E+02 -0.25576165200E+02  0.43400724688E+02  0.00000000000E+00 0.  1.
         11    1    3    3    0    0  0.12315401947E+02  0.17899972843E+02  0.80329343529E+01  0.23164761762E+02  0.51100000000E-03 0. -1.
        -11    1    3    3    0    0  0.46078501378E+01 -0.17097470481E+01  0.38138511591E+01  0.62210110742E+01  0.51100000000E-03 0.  1.
         12    1    3    3    0    0  0.11408079891E+02  0.44693556506E+01  0.13729379689E+02  0.18401502476E+02  0.00000000000E+00 0. -1.
</event>
<event>
 7    1  0.3807360E-011  0.4778726E+02  0.7816164E-02  0.1312668E+00
        -11   -1    0    0    0    0  0.00000000000E+00  0.00000000000E+00  0.45593999997E+02  0.45594000000E+02  0.51100000000E-03 0. -1.
         11   -1    0    0    0    0 -0.00000000000E+00 -0.00000000000E+00 -0.45593999997E+02  0.45594000000E+02  0.51100000000E-03 0.  1.
    9900012    2    1    2    0    0  0.19114670099E+01 -0.12266399414E+01  0.43341267983E+02  0.47787264269E+02  0.19999969107E+02 0.  0.
        -12    1    1    2    0    0 -0.19114670099E+01  0.12266399414E+01 -0.43341267983E+02  0.43400735731E+02  0.00000000000E+00 0.  1.
         11    1    3    3    0    0  0.16376305425E+01  0.57141014537E+00  0.27810085514E+02  0.27864120297E+02  0.51100000000E-03 0. -1.
        -11    1    3    3    0    0 -0.51326613313E+01 -0.39266925156E+01  0.99632604463E+01  0.11875592004E+02  0.51100000000E-03 0.  1.
        -12    1    3    3    0    0  0.54064977986E+01  0.21286424288E+01  0.55679220220E+01  0.80475519682E+01  0.00000000000E+00 0.  1.
</event>
<event>
 7    1  0.3807360E-011  0.4778727E+02  0.7816164E-02  0.1312668E+00
        -11   -1    0    0    0    0  0.00000000000E+00  0.00000000000E+00  0.45593999997E+02  0.45594000000E+02  0.51100000000E-03 0. -1.
         11   -1    0    0    0    0 -0.00000000000E+00 -0.00000000000E+00 -0.45593999997E+02  0.45594000000E+02  0.51100000000E-03 0.  1.
    9900012    2    1    2    0    0  0.18766331143E+02 -0.27101476052E+02 -0.28230442662E+02  0.47787273258E+02  0.20000010094E+02 0.  0.
         12    1    1    2    0    0 -0.18766331143E+02  0.27101476052E+02  0.28230442662E+02  0.43400726742E+02  0.00000000000E+00 0. -1.
         11    1    3    3    0    0  0.27249942231E+01 -0.28020901036E+01 -0.63076520035E+01  0.74204970537E+01  0.51100000000E-03 0.  1.
        -11    1    3    3    0    0  0.21447018449E+00 -0.80392440751E+01 -0.14342088300E+02  0.16442960191E+02  0.51100000000E-03 0. -1.
         12    1    3    3    0    0  0.15826866736E+02 -0.16260141874E+02 -0.75807023582E+01  0.23923816014E+02  0.00000000000E+00 0. -1.
</event>
<event>
 7    1  0.3807360E-011  0.4778727E+02  0.7816164E-02  0.1312668E+00
        -11   -1    0    0    0    0  0.00000000000E+00  0.00000000000E+00  0.45593999997E+02  0.45594000000E+02  0.51100000000E-03 0. -1.
         11   -1    0    0    0    0 -0.00000000000E+00 -0.00000000000E+00 -0.45593999997E+02  0.45594000000E+02  0.51100000000E-03 0.  1.
    9900012    2    1    2    0    0 -0.51933617666E+01 -0.10484106239E+02  0.41793970332E+02  0.47787269060E+02  0.19999990950E+02 0.  0.
        -12    1    1    2    0    0  0.51933617666E+01  0.10484106239E+02 -0.41793970332E+02  0.43400730940E+02  0.00000000000E+00 0.  1.
         11    1    3    3    0    0 -0.47259646486E+01 -0.32485740904E+01  0.35161541963E+01  0.67269098459E+01  0.51100000000E-03 0. -1.
        -11    1    3    3    0    0  0.55981634612E+01 -0.28402706536E+01  0.99983563502E+01  0.11805663958E+02  0.51100000000E-03 0.  1.
         12    1    3    3    0    0 -0.60655605792E+01 -0.43952614954E+01  0.28279459785E+02  0.29254695256E+02  0.00000000000E+00 0. -1.
</event>
<event>
 7    1  0.3807360E-011  0.4778726E+02  0.7816164E-02  0.1312668E+00
        -11   -1    0    0    0    0  0.00000000000E+00  0.00000000000E+00  0.45593999997E+02  0.45594000000E+02  0.51100000000E-03 0. -1.
         11   -1    0    0    0    0 -0.00000000000E+00 -0.00000000000E+00 -0.45593999997E+02  0.45594000000E+02  0.51100000000E-03 0.  1.
    9900012    2    1    2    0    0  0.34806208523E+02  0.25824469581E+02  0.22909782265E+01  0.47787263115E+02  0.19999963848E+02 0.  0.
         12    1    1    2    0    0 -0.34806208523E+02 -0.25824469581E+02 -0.22909782265E+01  0.43400736885E+02  0.00000000000E+00 0. -1.
         11    1    3    3    0    0  0.76602362683E+01  0.84651949251E+01  0.68963496064E+01  0.13337855261E+02  0.51100000000E-03 0. -1.
        -11    1    3    3    0    0  0.11701514065E+02  0.56057860464E+01  0.34658146125E+01  0.13429897237E+02  0.51100000000E-03 0.  1.
        -12    1    3    3    0    0  0.15444458190E+02  0.11753488609E+02 -0.80711859925E+01  0.21019510617E+02  0.00000000000E+00 0.  1.
</event>
<event>
 7    1  0.3807360E-011  0.4778726E+02  0.7816164E-02  0.1312668E+00
        -11   -1    0    0    0    0  0.00000000000E+00  0.00000000000E+00  0.45593999997E+02  0.45594000000E+02  0.51100000000E-03 0. -1.
         11   -1    0    0    0    0 -0.00000000000E+00 -0.00000000000E+00 -0.45593999997E+02  0.45594000000E+02  0.51100000000E-03 0.  1.
    9900012    2    1    2    0    0  0.40346700133E+02  0.74177970122E+01 -0.14168426798E+02  0.47787259891E+02  0.19999949146E+02 0.  0.
         12    1    1    2    0    0 -0.40346700133E+02 -0.74177970122E+01  0.14168426798E+02  0.43400740109E+02  0.00000000000E+00 0. -1.
         11    1    3    3    0    0  0.88694836373E+01  0.10176030878E+02 -0.14842515175E+01  0.13580218969E+02  0.51100000000E-03 0. -1.
        -11    1    3    3    0    0  0.15501005542E+02 -0.14805386899E+00 -0.74082045507E+01  0.17180936752E+02  0.51100000000E-03 0.  1.
        -12    1    3    3    0    0  0.15976210954E+02 -0.26101799970E+01 -0.52759707295E+01  0.17026104170E+02  0.00000000000E+00 0.  1.
</event>
<event>
 7    1  0.3807360E-011  0.4778726E+02  0.7816164E-02  0.1312668E+00
        -11   -1    0    0    0    0  0.00000000000E+00  0.00000000000E+00  0.45593999997E+02  0.45594000000E+02  0.51100000000E-03 0. -1.
         11   -1    0    0    0    0 -0.00000000000E+00 -0.00000000000E+00 -0.45593999997E+02  0.45594000000E+02  0.51100000000E-03 0.  1.
    9900012    2    1    2    0    0  0.40087448962E+01 -0.12342324156E+02 -0.41415224807E+02  0.47787264441E+02  0.19999969894E+02 0.  0.
         12    1    1    2    0    0 -0.40087448962E+01  0.12342324156E+02  0.41415224807E+02  0.43400735559E+02  0.00000000000E+00 0. -1.
         11    1    3    3    0    0  0.64984938557E+00 -0.69200136186E+01 -0.20733067425E+01  0.72531023580E+01  0.51100000000E-03 0. -1.
        -11    1    3    3    0    0  0.21559532059E+01 -0.65017895060E+01 -0.20315938398E+02  0.21439653781E+02  0.51100000000E-03 0.  1.
         12    1    3    3    0    0  0.12029423047E+01  0.10794789688E+01 -0.19025979667E+02  0.19094508302E+02  0.00000000000E+00 0. -1.
</event>
<event>
 7    1  0.3807360E-011  0.4778727E+02  0.7816164E-02  0.1312668E+00
        -11   -1    0    0    0    0  0.00000000000E+00  0.00000000000E+00  0.45593999997E+02  0.45594000000E+02  0.51100000000E-03 0. -1.
         11   -1    0    0    0    0 -0.00000000000E+00 -0.00000000000E+00 -0.45593999997E+02  0.45594000000E+02  0.51100000000E-03 0.  1.
    9900012    2    1    2    0    0 -0.10081494807E+02 -0.12691014537E+02  0.40260714301E+02  0.47787268398E+02  0.19999987936E+02 0.  0.
        -12    1    1    2    0    0  0.10081494807E+02  0.12691014537E+02 -0.40260714301E+02  0.43400731602E+02  0.00000000000E+00 0.  1.
         11    1    3    3    0    0 -0.39694085230E+01 -0.50379117107E+01  0.23422062064E+02  0.24284351958E+02  0.51100000000E-03 0. -1.
        -11    1    3    3    0    0 -0.52046293450E+01 -0.11389960231E+02  0.12281325095E+02  0.17539963142E+02  0.51100000000E-03 0.  1.
        -12    1    3    3    0    0 -0.90745693886E+00  0.37368574046E+01  0.45573271428E+01  0.59629532989E+01  0.00000000000E+00 0.  1.
</event>
<event>
 7    1  0.3807360E-011  0.4778730E+02  0.7816164E-02  0.1312668E+00
        -11   -1    0    0    0    0  0.00000000000E+00  0.00000000000E+00  0.45593999997E+02  0.45594000000E+02  0.51100000000E-03 0. -1.
         11   -1    0    0    0    0 -0.00000000000E+00 -0.00000000000E+00 -0.45593999997E+02  0.45594000000E+02  0.51100000000E-03 0.  1.
    9900012    2    1    2    0    0  0.19960262918E+01  0.31883356850E+01  0.43237376763E+02  0.47787304674E+02  0.20000153330E+02 0.  0.
        -12    1    1    2    0    0 -0.19960262918E+01 -0.31883356850E+01 -0.43237376763E+02  0.43400695326E+02  0.00000000000E+00 0.  1.
         11    1    3    3    0    0  0.35539839739E+01 -0.27135277983E+01  0.38819972428E+01  0.59214810692E+01  0.51100000000E-03 0. -1.
        -11    1    3    3    0    0 -0.50358138240E+00  0.12645079738E+01 -0.69901110246E+00  0.15300952281E+01  0.51100000000E-03 0.  1.
         12    1    3    3    0    0 -0.10543762997E+01  0.46373555095E+01  0.40054390623E+02  0.40335728377E+02  0.00000000000E+00 0. -1.
</event>
<event>
 7    1  0.3807360E-011  0.4778727E+02  0.7816164E-02  0.1312668E+00
        -11   -1    0    0    0    0  0.00000000000E+00  0.00000000000E+00  0.45593999997E+02  0.45594000000E+02  0.51100000000E-03 0. -1.
         11   -1    0    0    0    0 -0.00000000000E+00 -0.00000000000E+00 -0.45593999997E+02  0.45594000000E+02  0.51100000000E-03 0.  1.
    9900012    2    1    2    0    0 -0.41236427014E+02  0.10627943712E+02 -0.83801750737E+01  0.47787269192E+02  0.19999991554E+02 0.  0.
         12    1    1    2    0    0  0.41236427014E+02 -0.10627943712E+02  0.83801750737E+01  0.43400730808E+02  0.00000000000E+00 0. -1.
         11    1    3    3    0    0 -0.69834045193E+01  0.69193989697E+01 -0.34161092543E+01  0.10407488817E+02  0.51100000000E-03 0. -1.
        -11    1    3    3    0    0 -0.35096635296E+02  0.40843167296E+01 -0.61624271320E+01  0.35866850442E+02  0.51100000000E-03 0.  1.
         12    1    3    3    0    0  0.84361280131E+00 -0.37577198774E+00  0.11983613126E+01  0.15129299326E+01  0.00000000000E+00 0. -1.
</event>
<event>
 7    1  0.3807360E-011  0.4778726E+02  0.7816164E-02  0.1312668E+00
        -11   -1    0    0    0    0  0.00000000000E+00  0.00000000000E+00  0.45593999997E+02  0.45594000000E+02  0.51100000000E-03 0. -1.
         11   -1    0    0    0    0 -0.00000000000E+00 -0.00000000000E+00 -0.45593999997E+02  0.45594000000E+02  0.51100000000E-03 0.  1.
    9900012    2    1    2    0    0 -0.86184997264E+01 -0.97297266245E+01 -0.41408667411E+02  0.47787264356E+02  0.19999969504E+02 0.  0.
         12    1    1    2    0    0  0.86184997264E+01  0.97297266245E+01  0.41408667411E+02  0.43400735644E+02  0.00000000000E+00 0. -1.
         11    1    3    3    0    0 -0.25463430086E+01  0.40915736077E+00 -0.20471971513E+02  0.20633780322E+02  0.51100000000E-03 0. -1.
        -11    1    3    3    0    0  0.30249346154E+01 -0.70481849641E+01 -0.87733349473E+01  0.11653263366E+02  0.51100000000E-03 0.  1.
        -12    1    3    3    0    0 -0.90970913331E+01 -0.30906990212E+01 -0.12163360950E+02  0.15500220668E+02  0.00000000000E+00 0.  1.
</event>
<event>
 7    1  0.3807360E-011  0.4778727E+02  0.7816164E-02  0.1312668E+00
        -11   -1    0    0    0    0  0.00000000000E+00  0.00000000000E+00  0.45593999997E+02  0.45594000000E+02  0.51100000000E-03 0.  1.
         11   -1    0    0    0    0 -0.00000000000E+00 -0.00000000000E+00 -0.45593999997E+02  0.45594000000E+02  0.51100000000E-03 0. -1.
    9900012    2    1    2    0    0  0.38471885799E+02  0.19738880689E+02  0.37301113840E+01  0.47787272602E+02  0.20000007100E+02 0.  0.
         12    1    1    2    0    0 -0.38471885799E+02 -0.19738880689E+02 -0.37301113840E+01  0.43400727398E+02  0.00000000000E+00 0. -1.
         11    1    3    3    0    0  0.82980853739E+01 -0.11265233441E-01  0.46914951677E+01  0.95324957356E+01  0.51100000000E-03 0. -1.
        -11    1    3    3    0    0  0.28877072682E+01  0.50943219453E+01  0.37090532655E+01  0.69316697655E+01  0.51100000000E-03 0.  1.
        -12    1    3    3    0    0  0.27286093157E+02  0.14655823977E+02 -0.46704370493E+01  0.31323107101E+02  0.00000000000E+00 0.  1.
</event>
<event>
 7    1  0.3807360E-011  0.4778727E+02  0.7816164E-02  0.1312668E+00
        -11   -1    0    0    0    0  0.00000000000E+00  0.00000000000E+00  0.45593999997E+02  0.45594000000E+02  0.51100000000E-03 0.  1.
         11   -1    0    0    0    0 -0.00000000000E+00 -0.00000000000E+00 -0.45593999997E+02  0.45594000000E+02  0.51100000000E-03 0. -1.
    9900012    2    1    2    0    0 -0.40878308684E+02 -0.17070581042E+01  0.14480082358E+02  0.47787274738E+02  0.20000016839E+02 0.  0.
        -12    1    1    2    0    0  0.40878308684E+02  0.17070581042E+01 -0.14480082358E+02  0.43400725262E+02  0.00000000000E+00 0.  1.
         11    1    3    3    0    0 -0.62935519060E+01  0.50811058062E+01  0.23717053899E+01  0.84292003491E+01  0.51100000000E-03 0. -1.
        -11    1    3    3    0    0 -0.12786132620E+02  0.33313746062E+01  0.62746031799E+01  0.14627162728E+02  0.51100000000E-03 0.  1.
        -12    1    3    3    0    0 -0.21798624158E+02 -0.10119538517E+02  0.58337737877E+01  0.24730911660E+02  0.00000000000E+00 0.  1.
</event>
<event>
 7    1  0.3807360E-011  0.4778727E+02  0.7816164E-02  0.1312668E+00
        -11   -1    0    0    0    0  0.00000000000E+00  0.00000000000E+00  0.45593999997E+02  0.45594000000E+02  0.51100000000E-03 0. -1.
         11   -1    0    0    0    0 -0.00000000000E+00 -0.00000000000E+00 -0.45593999997E+02  0.45594000000E+02  0.51100000000E-03 0.  1.
    9900012    2    1    2    0    0  0.77176748458E+00  0.26898903296E+02 -0.34051087686E+02  0.47787271940E+02  0.20000004081E+02 0.  0.
         12    1    1    2    0    0 -0.77176748458E+00 -0.26898903296E+02  0.34051087686E+02  0.43400728060E+02  0.00000000000E+00 0. -1.
         11    1    3    3    0    0 -0.11825440573E+01 -0.95750331831E+00 -0.71025955142E+01  0.72637515343E+01  0.51100000000E-03 0. -1.
        -11    1    3    3    0    0  0.24125195594E+01  0.10638212323E+02 -0.35549716397E+01  0.11472995933E+02  0.51100000000E-03 0.  1.
        -12    1    3    3    0    0 -0.45820801758E+00  0.17218194291E+02 -0.23393520532E+02  0.29050524472E+02  0.00000000000E+00 0.  1.
</event>
<event>
 7    1  0.3807360E-011  0.4778727E+02  0.7816164E-02  0.1312668E+00
        -11   -1    0    0    0    0  0.00000000000E+00  0.00000000000E+00  0.45593999997E+02  0.45594000000E+02  0.51100000000E-03 0. -1.
         11   -1    0    0    0    0 -0.00000000000E+00 -0.00000000000E+00 -0.45593999997E+02  0.45594000000E+02  0.51100000000E-03 0.  1.
    9900012    2    1    2    0    0  0.23467443863E+02 -0.69825224612E+01 -0.35834992559E+02  0.47787271514E+02  0.20000002143E+02 0.  0.
         12    1    1    2    0    0 -0.23467443863E+02  0.69825224612E+01  0.35834992559E+02  0.43400728486E+02  0.00000000000E+00 0. -1.
         11    1    3    3    0    0  0.12900197029E+02  0.18434278052E+01 -0.77544972895E+01  0.15163955221E+02  0.51100000000E-03 0. -1.
        -11    1    3    3    0    0 -0.82665954305E+00  0.30835397334E+00 -0.65403151924E+01  0.65995584133E+01  0.51100000000E-03 0.  1.
        -12    1    3    3    0    0  0.11393906377E+02 -0.91343042397E+01 -0.21540180077E+02  0.26023757880E+02  0.00000000000E+00 0.  1.
</event>
<event>
 7    1  0.3807360E-011  0.4778727E+02  0.7816164E-02  0.1312668E+00
        -11   -1    0    0    0    0  0.00000000000E+00  0.00000000000E+00  0.45593999997E+02  0.45594000000E+02  0.51100000000E-03 0. -1.
         11   -1    0    0    0    0 -0.00000000000E+00 -0.00000000000E+00 -0.45593999997E+02  0.45594000000E+02  0.51100000000E-03 0.  1.
    9900012    2    1    2    0    0  0.86032614084E+01  0.24597897562E+02  0.34706637063E+02  0.47787270426E+02  0.19999997181E+02 0.  0.
        -12    1    1    2    0    0 -0.86032614084E+01 -0.24597897562E+02 -0.34706637063E+02  0.43400729574E+02  0.00000000000E+00 0.  1.
         11    1    3    3    0    0  0.64258921457E+01  0.90733355650E+01  0.79193581190E+01  0.13650411767E+02  0.51100000000E-03 0. -1.
        -11    1    3    3    0    0  0.73782029593E+01  0.89171029675E+01  0.97332175125E+01  0.15122437887E+02  0.51100000000E-03 0.  1.
         12    1    3    3    0    0 -0.52008336966E+01  0.66074590292E+01  0.17054061432E+02  0.19014420772E+02  0.00000000000E+00 0. -1.
</event>
<event>
 7    1  0.3807360E-011  0.4778727E+02  0.7816164E-02  0.1312668E+00
        -11   -1    0    0    0    0  0.00000000000E+00  0.00000000000E+00  0.45593999997E+02  0.45594000000E+02  0.51100000000E-03 0. -1.
         11   -1    0    0    0    0 -0.00000000000E+00 -0.00000000000E+00 -0.45593999997E+02  0.45594000000E+02  0.51100000000E-03 0.  1.
    9900012    2    1    2    0    0  0.65419374156E+01 -0.33594494014E+01  0.42773128189E+02  0.47787270277E+02  0.19999996502E+02 0.  0.
        -12    1    1    2    0    0 -0.65419374156E+01  0.33594494014E+01 -0.42773128189E+02  0.43400729723E+02  0.00000000000E+00 0.  1.
         11    1    3    3    0    0  0.32936547115E+01 -0.46889198466E+00  0.15204170755E+02  0.15563895067E+02  0.51100000000E-03 0. -1.
        -11    1    3    3    0    0 -0.16293695338E+01 -0.43668127365E+01  0.51000404595E+00  0.46887101575E+01  0.51100000000E-03 0.  1.
        -12    1    3    3    0    0  0.48776522379E+01  0.14762553197E+01  0.27058953388E+02  0.27534665053E+02  0.00000000000E+00 0.  1.
</event>
<event>
 7    1  0.3807360E-011  0.4778726E+02  0.7816164E-02  0.1312668E+00
        -11   -1    0    0    0    0  0.00000000000E+00  0.00000000000E+00  0.45593999997E+02  0.45594000000E+02  0.51100000000E-03 0. -1.
         11   -1    0    0    0    0 -0.00000000000E+00 -0.00000000000E+00 -0.45593999997E+02  0.45594000000E+02  0.51100000000E-03 0.  1.
    9900012    2    1    2    0    0  0.27681550697E+02  0.20820672413E+02 -0.26150634123E+02  0.47787259065E+02  0.19999945380E+02 0.  0.
         12    1    1    2    0    0 -0.27681550697E+02 -0.20820672413E+02  0.26150634123E+02  0.43400740935E+02  0.00000000000E+00 0. -1.
         11    1    3    3    0    0 -0.60502536735E+00  0.11315316707E+01  0.23277875323E+00  0.13040727840E+01  0.51100000000E-03 0. -1.
        -11    1    3    3    0    0  0.82385782827E-01 -0.23215952674E+01 -0.27767159119E+01  0.36203236760E+01  0.51100000000E-03 0.  1.
        -12    1    3    3    0    0  0.28204190281E+02  0.22010736009E+02 -0.23606696964E+02  0.42862862605E+02  0.00000000000E+00 0.  1.
</event>
<event>
 7    1  0.3807360E-011  0.4778727E+02  0.7816164E-02  0.1312668E+00
        -11   -1    0    0    0    0  0.00000000000E+00  0.00000000000E+00  0.45593999997E+02  0.45594000000E+02  0.51100000000E-03 0. -1.
         11   -1    0    0    0    0 -0.00000000000E+00 -0.00000000000E+00 -0.45593999997E+02  0.45594000000E+02  0.51100000000E-03 0.  1.
    9900012    2    1    2    0    0  0.51841419669E+00  0.27646293343E+02  0.33452017069E+02  0.47787265733E+02  0.19999975784E+02 0.  0.
        -12    1    1    2    0    0 -0.51841419669E+00 -0.27646293343E+02 -0.33452017069E+02  0.43400734267E+02  0.00000000000E+00 0.  1.
         11    1    3    3    0    0 -0.22441562865E+01  0.13760189677E+02  0.15636749770E+02  0.20949630093E+02  0.51100000000E-03 0. -1.
        -11    1    3    3    0    0 -0.16629552841E+01  0.17307397264E+01 -0.20333830459E+01  0.31457156817E+01  0.51100000000E-03 0.  1.
         12    1    3    3    0    0  0.44255257674E+01  0.12155363940E+02  0.19848650345E+02  0.23691919959E+02  0.00000000000E+00 0. -1.
</event>
<event>
 7    1  0.3807360E-011  0.4778727E+02  0.7816164E-02  0.1312668E+00
        -11   -1    0    0    0    0  0.00000000000E+00  0.00000000000E+00  0.45593999997E+02  0.45594000000E+02  0.51100000000E-03 0. -1.
         11   -1    0    0    0    0 -0.00000000000E+00 -0.00000000000E+00 -0.45593999997E+02  0.45594000000E+02  0.51100000000E-03 0.  1.
    9900012    2    1    2    0    0 -0.37000528198E+02 -0.77303387425E+01 -0.21326647893E+02  0.47787272651E+02  0.20000007327E+02 0.  0.
         12    1    1    2    0    0  0.37000528198E+02  0.77303387425E+01  0.21326647893E+02  0.43400727349E+02  0.00000000000E+00 0. -1.
         11    1    3    3    0    0 -0.69017245522E+01 -0.21695985954E+01 -0.46415113344E+01  0.85956144392E+01  0.51100000000E-03 0. -1.
        -11    1    3    3    0    0 -0.14110178395E+02  0.42530709901E+01 -0.13839597253E+02  0.20216829612E+02  0.51100000000E-03 0.  1.
         12    1    3    3    0    0 -0.15988625251E+02 -0.98138111373E+01 -0.28455393060E+01  0.18974828600E+02  0.00000000000E+00 0. -1.
</event>
<event>
 7    1  0.3807360E-011  0.4778727E+02  0.7816164E-02  0.1312668E+00
        -11   -1    0    0    0    0  0.00000000000E+00  0.00000000000E+00  0.45593999997E+02  0.45594000000E+02  0.51100000000E-03 0. -1.
         11   -1    0    0    0    0 -0.00000000000E+00 -0.00000000000E+00 -0.45593999997E+02  0.45594000000E+02  0.51100000000E-03 0.  1.
    9900012    2    1    2    0    0  0.34967605729E+02  0.21840486807E+02 -0.13560336129E+02  0.47787273850E+02  0.20000012792E+02 0.  0.
         12    1    1    2    0    0 -0.34967605729E+02 -0.21840486807E+02  0.13560336129E+02  0.43400726150E+02  0.00000000000E+00 0. -1.
         11    1    3    3    0    0  0.10010157082E+02  0.64942258541E+01 -0.13373766313E+02  0.17923053309E+02  0.51100000000E-03 0. -1.
        -11    1    3    3    0    0  0.13547338417E+02  0.10740499694E+02 -0.20862528463E+01  0.17413821036E+02  0.51100000000E-03 0.  1.
         12    1    3    3    0    0  0.11410110229E+02  0.46057612591E+01  0.18996830301E+01  0.12450399505E+02  0.00000000000E+00 0. -1.
</event>
<event>
 7    1  0.3807360E-011  0.4778727E+02  0.7816164E-02  0.1312668E+00
        -11   -1    0    0    0    0  0.00000000000E+00  0.00000000000E+00  0.45593999997E+02  0.45594000000E+02  0.51100000000E-03 0. -1.
         11   -1    0    0    0    0 -0.00000000000E+00 -0.00000000000E+00 -0.45593999997E+02  0.45594000000E+02  0.51100000000E-03 0.  1.
    9900012    2    1    2    0    0  0.29680992535E+02 -0.95170562589E+00 -0.31650531555E+02  0.47787271790E+02  0.20000003398E+02 0.  0.
         12    1    1    2    0    0 -0.29680992535E+02  0.95170562589E+00  0.31650531555E+02  0.43400728210E+02  0.00000000000E+00 0. -1.
         11    1    3    3    0    0  0.67306849990E+01 -0.74486056866E+00 -0.13437294118E+02  0.15047186159E+02  0.51100000000E-03 0. -1.
        -11    1    3    3    0    0  0.24368723209E+02 -0.19118318249E+01 -0.14516795569E+02  0.28429335652E+02  0.51100000000E-03 0.  1.
         12    1    3    3    0    0 -0.14184156726E+01  0.17049867677E+01 -0.36964418677E+01  0.43107499788E+01  0.00000000000E+00 0. -1.
</event>
<event>
 7    1  0.6164704E-011  0.4778727E+02  0.7816164E-02  0.1312668E+00
        -11   -1    0    0    0    0  0.00000000000E+00  0.00000000000E+00  0.45593999997E+02  0.45594000000E+02  0.51100000000E-03 0. -1.
         11   -1    0    0    0    0 -0.00000000000E+00 -0.00000000000E+00 -0.45593999997E+02  0.45594000000E+02  0.51100000000E-03 0.  1.
    9900012    2    1    2    0    0  0.12100608468E+02  0.23530203202E+01 -0.41613240001E+02  0.47787272203E+02  0.20000005282E+02 0.  0.
         12    1    1    2    0    0 -0.12100608468E+02 -0.23530203202E+01  0.41613240001E+02  0.43400727797E+02  0.00000000000E+00 0. -1.
         11    1    3    3    0    0  0.71888973046E+00  0.64572352871E+01 -0.14112523664E+02  0.15536280586E+02  0.51100000000E-03 0. -1.
        -11    1    3    3    0    0  0.55106801375E+01 -0.29094208852E+01 -0.24989268956E+02  0.25754531421E+02  0.51100000000E-03 0.  1.
         12    1    3    3    0    0  0.58710386000E+01 -0.11947940817E+01 -0.25114473804E+01  0.64964601965E+01  0.00000000000E+00 0. -1.
</event>
<event>
 7    1  0.3807360E-011  0.4778725E+02  0.7816164E-02  0.1312668E+00
        -11   -1    0    0    0    0  0.00000000000E+00  0.00000000000E+00  0.45593999997E+02  0.45594000000E+02  0.51100000000E-03 0.  1.
         11   -1    0    0    0    0 -0.00000000000E+00 -0.00000000000E+00 -0.45593999997E+02  0.45594000000E+02  0.51100000000E-03 0. -1.
    9900012    2    1    2    0    0  0.38408471114E+02 -0.18400357331E+02 -0.83571350375E+01  0.47787245291E+02  0.19999882582E+02 0.  0.
         12    1    1    2    0    0 -0.38408471114E+02  0.18400357331E+02  0.83571350375E+01  0.43400754709E+02  0.00000000000E+00 0. -1.
         11    1    3    3    0    0 -0.96477585838E+00 -0.86928205025E+00  0.28411711504E+01  0.31238914044E+01  0.51100000000E-03 0. -1.
        -11    1    3    3    0    0  0.13071888520E+02 -0.66622430719E+01 -0.23344467462E+01  0.14856291398E+02  0.51100000000E-03 0.  1.
         12    1    3    3    0    0  0.26301358452E+02 -0.10868832209E+02 -0.88638594416E+01  0.29807062489E+02  0.00000000000E+00 0. -1.
</event>
<event>
 7    1  0.3807360E-011  0.4778727E+02  0.7816164E-02  0.1312668E+00
        -11   -1    0    0    0    0  0.00000000000E+00  0.00000000000E+00  0.45593999997E+02  0.45594000000E+02  0.51100000000E-03 0. -1.
         11   -1    0    0    0    0 -0.00000000000E+00 -0.00000000000E+00 -0.45593999997E+02  0.45594000000E+02  0.51100000000E-03 0.  1.
    9900012    2    1    2    0    0  0.20124955907E+02 -0.24548065748E+02 -0.29597332265E+02  0.47787268907E+02  0.19999990254E+02 0.  0.
         12    1    1    2    0    0 -0.20124955907E+02  0.24548065748E+02  0.29597332265E+02  0.43400731093E+02  0.00000000000E+00 0. -1.
         11    1    3    3    0    0 -0.73702682590E+00 -0.20899059445E+01  0.41344489123E+00  0.22542964176E+01  0.51100000000E-03 0. -1.
        -11    1    3    3    0    0  0.14459297604E+02 -0.46085940650E+01 -0.15114532261E+02  0.21418672046E+02  0.51100000000E-03 0.  1.
         12    1    3    3    0    0  0.64026851289E+01 -0.17849565739E+02 -0.14896244894E+02  0.24114300444E+02  0.00000000000E+00 0. -1.
</event>
<event>
 7    1  0.3807360E-011  0.4778727E+02  0.7816164E-02  0.1312668E+00
        -11   -1    0    0    0    0  0.00000000000E+00  0.00000000000E+00  0.45593999997E+02  0.45594000000E+02  0.51100000000E-03 0. -1.
         11   -1    0    0    0    0 -0.00000000000E+00 -0.00000000000E+00 -0.45593999997E+02  0.45594000000E+02  0.51100000000E-03 0.  1.
    9900012    2    1    2    0    0 -0.73094373631E+01  0.10566283914E+02  0.41455385256E+02  0.47787271930E+02  0.20000004037E+02 0.  0.
        -12    1    1    2    0    0  0.73094373631E+01 -0.10566283914E+02 -0.41455385256E+02  0.43400728070E+02  0.00000000000E+00 0.  1.
         11    1    3    3    0    0 -0.72378852490E+01  0.69135630768E+01  0.28040314465E+02  0.29773202260E+02  0.51100000000E-03 0. -1.
        -11    1    3    3    0    0  0.69003541480E+00 -0.41373323340E+01  0.45751430090E+01  0.62068995102E+01  0.51100000000E-03 0.  1.
         12    1    3    3    0    0 -0.76158752885E+00  0.77900531716E+01  0.88399277822E+01  0.11807170159E+02  0.00000000000E+00 0. -1.
</event>
<event>
 7    1  0.3807360E-011  0.4778727E+02  0.7816164E-02  0.1312668E+00
        -11   -1    0    0    0    0  0.00000000000E+00  0.00000000000E+00  0.45593999997E+02  0.45594000000E+02  0.51100000000E-03 0. -1.
         11   -1    0    0    0    0 -0.00000000000E+00 -0.00000000000E+00 -0.45593999997E+02  0.45594000000E+02  0.51100000000E-03 0.  1.
    9900012    2    1    2    0    0 -0.37515505228E+02  0.16577542654E+02 -0.14191371166E+02  0.47787273410E+02  0.20000010785E+02 0.  0.
         12    1    1    2    0    0  0.37515505228E+02 -0.16577542654E+02  0.14191371166E+02  0.43400726590E+02  0.00000000000E+00 0. -1.
         11    1    3    3    0    0 -0.35992262950E+01  0.21870842653E+01 -0.73644808939E+01  0.84837106625E+01  0.51100000000E-03 0. -1.
        -11    1    3    3    0    0 -0.93054673059E+01  0.83583590606E+01  0.15767261953E+01  0.12607138998E+02  0.51100000000E-03 0.  1.
        -12    1    3    3    0    0 -0.24610811627E+02  0.60320993286E+01 -0.84036164676E+01  0.26696423749E+02  0.00000000000E+00 0.  1.
</event>
<event>
 7    1  0.3807360E-011  0.4778727E+02  0.7816164E-02  0.1312668E+00
        -11   -1    0    0    0    0  0.00000000000E+00  0.00000000000E+00  0.45593999997E+02  0.45594000000E+02  0.51100000000E-03 0. -1.
         11   -1    0    0    0    0 -0.00000000000E+00 -0.00000000000E+00 -0.45593999997E+02  0.45594000000E+02  0.51100000000E-03 0.  1.
    9900012    2    1    2    0    0 -0.25066177740E+02 -0.11272355955E+02  0.33589342820E+02  0.47787271592E+02  0.20000002495E+02 0.  0.
        -12    1    1    2    0    0  0.25066177740E+02  0.11272355955E+02 -0.33589342820E+02  0.43400728408E+02  0.00000000000E+00 0.  1.
         11    1    3    3    0    0  0.43572708141E+00  0.85694749500E-01 -0.42204208666E+00  0.61263485340E+00  0.51100000000E-03 0.  1.
        -11    1    3    3    0    0 -0.27868386379E+02 -0.92298670624E+01  0.31914662916E+02  0.43363384492E+02  0.51100000000E-03 0. -1.
         12    1    3    3    0    0  0.23664815571E+01 -0.21281836419E+01  0.20967219911E+01  0.38112522458E+01  0.00000000000E+00 0. -1.
</event>
<event>
 7    1  0.3807360E-011  0.4778727E+02  0.7816164E-02  0.1312668E+00
        -11   -1    0    0    0    0  0.00000000000E+00  0.00000000000E+00  0.45593999997E+02  0.45594000000E+02  0.51100000000E-03 0. -1.
         11   -1    0    0    0    0 -0.00000000000E+00 -0.00000000000E+00 -0.45593999997E+02  0.45594000000E+02  0.51100000000E-03 0.  1.
    9900012    2    1    2    0    0 -0.12428050311E+02 -0.12073397906E+02  0.39791958990E+02  0.47787269917E+02  0.19999994858E+02 0.  0.
        -12    1    1    2    0    0  0.12428050311E+02  0.12073397906E+02 -0.39791958990E+02  0.43400730083E+02  0.00000000000E+00 0.  1.
         11    1    3    3    0    0 -0.38960636320E+01 -0.32521324529E+01  0.79179454739E+01  0.94047614591E+01  0.51100000000E-03 0. -1.
        -11    1    3    3    0    0  0.41263699710E+01 -0.57174605794E+00  0.15724738398E+02  0.16267182320E+02  0.51100000000E-03 0.  1.
        -12    1    3    3    0    0 -0.12658356650E+02 -0.82495193950E+01  0.16149275118E+02  0.22115326137E+02  0.00000000000E+00 0.  1.
</event>
<event>
 7    1  0.3807360E-011  0.4778727E+02  0.7816164E-02  0.1312668E+00
        -11   -1    0    0    0    0  0.00000000000E+00  0.00000000000E+00  0.45593999997E+02  0.45594000000E+02  0.51100000000E-03 0. -1.
         11   -1    0    0    0    0 -0.00000000000E+00 -0.00000000000E+00 -0.45593999997E+02  0.45594000000E+02  0.51100000000E-03 0.  1.
    9900012    2    1    2    0    0 -0.10406101488E+02  0.25524105951E+02  0.33523964384E+02  0.47787272809E+02  0.20000008043E+02 0.  0.
        -12    1    1    2    0    0  0.10406101488E+02 -0.25524105951E+02 -0.33523964384E+02  0.43400727191E+02  0.00000000000E+00 0.  1.
         11    1    3    3    0    0 -0.10628723278E+02  0.72492592530E+01  0.14576542977E+02  0.19442148123E+02  0.51100000000E-03 0. -1.
        -11    1    3    3    0    0 -0.11610198576E+01  0.10464571776E+02  0.37036475893E+01  0.11161193273E+02  0.51100000000E-03 0.  1.
         12    1    3    3    0    0  0.13836416478E+01  0.78102749221E+01  0.15243773818E+02  0.17183931412E+02  0.00000000000E+00 0. -1.
</event>
<event>
 7    1  0.3807360E-011  0.4778727E+02  0.7816164E-02  0.1312668E+00
        -11   -1    0    0    0    0  0.00000000000E+00  0.00000000000E+00  0.45593999997E+02  0.45594000000E+02  0.51100000000E-03 0. -1.
         11   -1    0    0    0    0 -0.00000000000E+00 -0.00000000000E+00 -0.45593999997E+02  0.45594000000E+02  0.51100000000E-03 0.  1.
    9900012    2    1    2    0    0 -0.38665889810E+02 -0.99809543624E+00 -0.19686954771E+02  0.47787269390E+02  0.19999992456E+02 0.  0.
         12    1    1    2    0    0  0.38665889810E+02  0.99809543624E+00  0.19686954771E+02  0.43400730610E+02  0.00000000000E+00 0. -1.
         11    1    3    3    0    0 -0.21905193644E+02  0.38774906946E+01 -0.10591523830E+02  0.24638441914E+02  0.51100000000E-03 0. -1.
        -11    1    3    3    0    0 -0.29314271472E+01  0.39194057386E+01 -0.22739357216E+01  0.53968315140E+01  0.51100000000E-03 0.  1.
        -12    1    3    3    0    0 -0.13829269019E+02 -0.87949918694E+01 -0.68214952194E+01  0.17751995961E+02  0.00000000000E+00 0.  1.
</event>
<event>
 7    1  0.3807360E-011  0.4778727E+02  0.7816164E-02  0.1312668E+00
        -11   -1    0    0    0    0  0.00000000000E+00  0.00000000000E+00  0.45593999997E+02  0.45594000000E+02  0.51100000000E-03 0. -1.
         11   -1    0    0    0    0 -0.00000000000E+00 -0.00000000000E+00 -0.45593999997E+02  0.45594000000E+02  0.51100000000E-03 0.  1.
    9900012    2    1    2    0    0  0.41152985055E+02 -0.66376711527E+01  0.12082907190E+02  0.47787268399E+02  0.19999987941E+02 0.  0.
        -12    1    1    2    0    0 -0.41152985055E+02  0.66376711527E+01 -0.12082907190E+02  0.43400731601E+02  0.00000000000E+00 0.  1.
         11    1    3    3    0    0  0.15021746432E+02 -0.82511331331E+01  0.10428746932E+02  0.20062223872E+02  0.51100000000E-03 0. -1.
        -11    1    3    3    0    0  0.21032378336E+02 -0.63215273578E+00  0.44257490720E+01  0.21502274546E+02  0.51100000000E-03 0.  1.
        -12    1    3    3    0    0  0.50988602869E+01  0.22456147162E+01 -0.27715888145E+01  0.62227699810E+01  0.00000000000E+00 0.  1.
</event>
<event>
 7    1  0.3807360E-011  0.4778727E+02  0.7816164E-02  0.1312668E+00
        -11   -1    0    0    0    0  0.00000000000E+00  0.00000000000E+00  0.45593999997E+02  0.45594000000E+02  0.51100000000E-03 0. -1.
         11   -1    0    0    0    0 -0.00000000000E+00 -0.00000000000E+00 -0.45593999997E+02  0.45594000000E+02  0.51100000000E-03 0.  1.
    9900012    2    1    2    0    0 -0.42261287680E+02  0.63205875092E+01 -0.75932166639E+01  0.47787271871E+02  0.20000003767E+02 0.  0.
         12    1    1    2    0    0  0.42261287680E+02 -0.63205875092E+01  0.75932166639E+01  0.43400728129E+02  0.00000000000E+00 0. -1.
         11    1    3    3    0    0 -0.29637679328E+01  0.23816269691E+01 -0.19439068912E+01  0.42702273526E+01  0.51100000000E-03 0. -1.
        -11    1    3    3    0    0 -0.20856213721E+02  0.82233498669E+01 -0.92377847667E+01  0.24247511243E+02  0.51100000000E-03 0.  1.
         12    1    3    3    0    0 -0.18441306026E+02 -0.42843893268E+01  0.35884749940E+01  0.19269533275E+02  0.00000000000E+00 0. -1.
</event>
<event>
 7    1  0.3807360E-011  0.4778727E+02  0.7816164E-02  0.1312668E+00
        -11   -1    0    0    0    0  0.00000000000E+00  0.00000000000E+00  0.45593999997E+02  0.45594000000E+02  0.51100000000E-03 0. -1.
         11   -1    0    0    0    0 -0.00000000000E+00 -0.00000000000E+00 -0.45593999997E+02  0.45594000000E+02  0.51100000000E-03 0.  1.
    9900012    2    1    2    0    0 -0.23963345255E+02 -0.48070211860E+01 -0.35864659750E+02  0.47787272040E+02  0.20000004540E+02 0.  0.
         12    1    1    2    0    0  0.23963345255E+02  0.48070211860E+01  0.35864659750E+02  0.43400727960E+02  0.00000000000E+00 0. -1.
         11    1    3    3    0    0 -0.29479821725E+01  0.22081202787E+01 -0.12241258507E+02  0.12783379997E+02  0.51100000000E-03 0. -1.
        -11    1    3    3    0    0 -0.18869896831E+02 -0.64571829751E+01 -0.25306217507E+02  0.32220689985E+02  0.51100000000E-03 0.  1.
         12    1    3    3    0    0 -0.21454662517E+01 -0.55795848954E+00  0.16828162643E+01  0.27832020574E+01  0.00000000000E+00 0. -1.
</event>
<event>
 7    1  0.3807360E-011  0.4778731E+02  0.7816164E-02  0.1312668E+00
        -11   -1    0    0    0    0  0.00000000000E+00  0.00000000000E+00  0.45593999997E+02  0.45594000000E+02  0.51100000000E-03 0. -1.
         11   -1    0    0    0    0 -0.00000000000E+00 -0.00000000000E+00 -0.45593999997E+02  0.45594000000E+02  0.51100000000E-03 0.  1.
    9900012    2    1    2    0    0  0.60944614413E+01  0.25445411857E+02 -0.34626706709E+02  0.47787305739E+02  0.20000158184E+02 0.  0.
         12    1    1    2    0    0 -0.60944614413E+01 -0.25445411857E+02  0.34626706709E+02  0.43400694261E+02  0.00000000000E+00 0. -1.
         11    1    3    3    0    0  0.89789909833E+01  0.80642577785E+01 -0.11894296736E+02  0.16944876149E+02  0.51100000000E-03 0. -1.
        -11    1    3    3    0    0  0.14489201905E+01  0.15374052431E+02 -0.20231853012E+02  0.25451694137E+02  0.51100000000E-03 0.  1.
        -12    1    3    3    0    0 -0.43334497324E+01  0.20071016475E+01 -0.25005569607E+01  0.53907354526E+01  0.00000000000E+00 0.  1.
</event>
<event>
 7    1  0.3807360E-011  0.4778728E+02  0.7816164E-02  0.1312668E+00
        -11   -1    0    0    0    0  0.00000000000E+00  0.00000000000E+00  0.45593999997E+02  0.45594000000E+02  0.51100000000E-03 0. -1.
         11   -1    0    0    0    0 -0.00000000000E+00 -0.00000000000E+00 -0.45593999997E+02  0.45594000000E+02  0.51100000000E-03 0.  1.
    9900012    2    1    2    0    0 -0.28885511729E+02 -0.30180308552E+02  0.11764305900E+02  0.47787277593E+02  0.20000029858E+02 0.  0.
        -12    1    1    2    0    0  0.28885511729E+02  0.30180308552E+02 -0.11764305900E+02  0.43400722407E+02  0.00000000000E+00 0.  1.
         11    1    3    3    0    0 -0.27572879939E+01 -0.14825445742E+00  0.14211473532E+00  0.27649255550E+01  0.51100000000E-03 0. -1.
        -11    1    3    3    0    0 -0.15700967652E+02 -0.17021338537E+02  0.15548611403E+02  0.27892752959E+02  0.51100000000E-03 0.  1.
        -12    1    3    3    0    0 -0.10427256083E+02 -0.13010715558E+02 -0.39264202380E+01  0.17129599080E+02  0.00000000000E+00 0.  1.
</event>
<event>
 7    1  0.3807360E-011  0.4778727E+02  0.7816164E-02  0.1312668E+00
        -11   -1    0    0    0    0  0.00000000000E+00  0.00000000000E+00  0.45593999997E+02  0.45594000000E+02  0.51100000000E-03 0. -1.
         11   -1    0    0    0    0 -0.00000000000E+00 -0.00000000000E+00 -0.45593999997E+02  0.45594000000E+02  0.51100000000E-03 0.  1.
    9900012    2    1    2    0    0 -0.75907577585E+00 -0.68111646934E+01 -0.42856213714E+02  0.47787271730E+02  0.20000003125E+02 0.  0.
         12    1    1    2    0    0  0.75907577585E+00  0.68111646934E+01  0.42856213714E+02  0.43400728270E+02  0.00000000000E+00 0. -1.
         11    1    3    3    0    0 -0.13215827789E+01 -0.52535899358E+01 -0.14133323728E+01  0.55985977630E+01  0.51100000000E-03 0. -1.
        -11    1    3    3    0    0  0.29658751053E+00  0.26094549585E+01 -0.67089750084E+01  0.72046905038E+01  0.51100000000E-03 0.  1.
        -12    1    3    3    0    0  0.26591949247E+00 -0.41670297160E+01 -0.34733906332E+02  0.34983983463E+02  0.00000000000E+00 0.  1.
</event>
<event>
 7    1  0.3807360E-011  0.4778726E+02  0.7816164E-02  0.1312668E+00
        -11   -1    0    0    0    0  0.00000000000E+00  0.00000000000E+00  0.45593999997E+02  0.45594000000E+02  0.51100000000E-03 0. -1.
         11   -1    0    0    0    0 -0.00000000000E+00 -0.00000000000E+00 -0.45593999997E+02  0.45594000000E+02  0.51100000000E-03 0.  1.
    9900012    2    1    2    0    0  0.71482262795E+01  0.15926350624E+02 -0.39735100509E+02  0.47787262730E+02  0.19999962091E+02 0.  0.
         12    1    1    2    0    0 -0.71482262795E+01 -0.15926350624E+02  0.39735100509E+02  0.43400737270E+02  0.00000000000E+00 0. -1.
         11    1    3    3    0    0  0.24285493494E+01  0.47614033324E+01 -0.24351248348E+01  0.58735548740E+01  0.51100000000E-03 0. -1.
        -11    1    3    3    0    0  0.17739062197E+01 -0.18090198290E+01 -0.19642148030E+02  0.19804880094E+02  0.51100000000E-03 0.  1.
        -12    1    3    3    0    0  0.29457707105E+01  0.12973967120E+02 -0.17657827644E+02  0.22108827762E+02  0.00000000000E+00 0.  1.
</event>
<event>
 7    1  0.3807360E-011  0.4778727E+02  0.7816164E-02  0.1312668E+00
        -11   -1    0    0    0    0  0.00000000000E+00  0.00000000000E+00  0.45593999997E+02  0.45594000000E+02  0.51100000000E-03 0. -1.
         11   -1    0    0    0    0 -0.00000000000E+00 -0.00000000000E+00 -0.45593999997E+02  0.45594000000E+02  0.51100000000E-03 0.  1.
    9900012    2    1    2    0    0  0.22267524430E+01  0.23983231977E+02 -0.36103593183E+02  0.47787270937E+02  0.19999999511E+02 0.  0.
         12    1    1    2    0    0 -0.22267524430E+01 -0.23983231977E+02  0.36103593183E+02  0.43400729063E+02  0.00000000000E+00 0. -1.
         11    1    3    3    0    0 -0.51649530678E+01  0.11447486689E+02 -0.71808600866E+01  0.14466735759E+02  0.51100000000E-03 0. -1.
        -11    1    3    3    0    0  0.48080942784E+01  0.93786602300E+01 -0.12268032598E+02  0.16173486402E+02  0.51100000000E-03 0.  1.
        -12    1    3    3    0    0  0.25836112324E+01  0.31570850582E+01 -0.16654700498E+02  0.17147048776E+02  0.00000000000E+00 0.  1.
</event>
<event>
 7    1  0.3807360E-011  0.4778727E+02  0.7816164E-02  0.1312668E+00
        -11   -1    0    0    0    0  0.00000000000E+00  0.00000000000E+00  0.45593999997E+02  0.45594000000E+02  0.51100000000E-03 0. -1.
         11   -1    0    0    0    0 -0.00000000000E+00 -0.00000000000E+00 -0.45593999997E+02  0.45594000000E+02  0.51100000000E-03 0.  1.
    9900012    2    1    2    0    0  0.18435378010E+02 -0.26656425735E+02  0.28865124870E+02  0.47787266952E+02  0.19999981339E+02 0.  0.
        -12    1    1    2    0    0 -0.18435378010E+02  0.26656425735E+02 -0.28865124870E+02  0.43400733048E+02  0.00000000000E+00 0.  1.
         11    1    3    3    0    0  0.14403563867E+02 -0.16550016032E+02  0.13425981383E+02  0.25722026730E+02  0.51100000000E-03 0. -1.
        -11    1    3    3    0    0 -0.14102403209E+01  0.47713008850E+00 -0.98325196640E+00  0.17841568246E+01  0.51100000000E-03 0.  1.
         12    1    3    3    0    0  0.54420544639E+01 -0.10583539792E+02  0.16422395454E+02  0.20281083397E+02  0.00000000000E+00 0. -1.
</event>
<event>
 7    1  0.3807360E-011  0.4778727E+02  0.7816164E-02  0.1312668E+00
        -11   -1    0    0    0    0  0.00000000000E+00  0.00000000000E+00  0.45593999997E+02  0.45594000000E+02  0.51100000000E-03 0.  1.
         11   -1    0    0    0    0 -0.00000000000E+00 -0.00000000000E+00 -0.45593999997E+02  0.45594000000E+02  0.51100000000E-03 0. -1.
    9900012    2    1    2    0    0 -0.78208258478E+01 -0.42459705929E+02  0.44307245206E+01  0.47787271154E+02  0.20000000502E+02 0.  0.
         12    1    1    2    0    0  0.78208258478E+01  0.42459705929E+02 -0.44307245206E+01  0.43400728846E+02  0.00000000000E+00 0. -1.
         11    1    3    3    0    0 -0.70120737012E+01 -0.16851176409E+02  0.16254967405E+01  0.18324125187E+02  0.51100000000E-03 0. -1.
        -11    1    3    3    0    0  0.27962198454E+00 -0.10030350526E+02  0.81820306617E+01  0.12947267903E+02  0.51100000000E-03 0.  1.
         12    1    3    3    0    0 -0.10883741312E+01 -0.15578178994E+02 -0.53768028817E+01  0.16515878064E+02  0.00000000000E+00 0. -1.
</event>
<event>
 7    1  0.3807360E-011  0.4778727E+02  0.7816164E-02  0.1312668E+00
        -11   -1    0    0    0    0  0.00000000000E+00  0.00000000000E+00  0.45593999997E+02  0.45594000000E+02  0.51100000000E-03 0. -1.
         11   -1    0    0    0    0 -0.00000000000E+00 -0.00000000000E+00 -0.45593999997E+02  0.45594000000E+02  0.51100000000E-03 0.  1.
    9900012    2    1    2    0    0  0.87779481369E+01 -0.66896382909E+01 -0.41974031293E+02  0.47787274927E+02  0.20000017700E+02 0.  0.
         12    1    1    2    0    0 -0.87779481369E+01  0.66896382909E+01  0.41974031293E+02  0.43400725073E+02  0.00000000000E+00 0. -1.
         11    1    3    3    0    0 -0.68918226839E-01  0.30574634561E+01 -0.12732396188E+00  0.30608894394E+01  0.51100000000E-03 0. -1.
        -11    1    3    3    0    0  0.18990495772E+01  0.22404088247E+00 -0.11002474058E+01  0.22061568912E+01  0.51100000000E-03 0.  1.
        -12    1    3    3    0    0  0.69478167865E+01 -0.99711426295E+01 -0.40746459925E+02  0.42520228596E+02  0.00000000000E+00 0.  1.
</event>
<event>
 7    1  0.3807360E-011  0.4778727E+02  0.7816164E-02  0.1312668E+00
        -11   -1    0    0    0    0  0.00000000000E+00  0.00000000000E+00  0.45593999997E+02  0.45594000000E+02  0.51100000000E-03 0. -1.
         11   -1    0    0    0    0 -0.00000000000E+00 -0.00000000000E+00 -0.45593999997E+02  0.45594000000E+02  0.51100000000E-03 0.  1.
    9900012    2    1    2    0    0  0.11521630801E+02  0.11447694608E+02  0.40247058079E+02  0.47787269912E+02  0.19999994839E+02 0.  0.
        -12    1    1    2    0    0 -0.11521630801E+02 -0.11447694608E+02 -0.40247058079E+02  0.43400730088E+02  0.00000000000E+00 0.  1.
         11    1    3    3    0    0  0.11010472256E+02 -0.93941626148E+00  0.24146912803E+02  0.26555345985E+02  0.51100000000E-03 0.  1.
        -11    1    3    3    0    0  0.54991516273E+00  0.54047529894E+01  0.11905371351E+02  0.13086314563E+02  0.51100000000E-03 0. -1.
        -12    1    3    3    0    0 -0.38756618435E-01  0.69823578801E+01  0.41947739243E+01  0.81456093644E+01  0.00000000000E+00 0.  1.
</event>
<event>
 7    1  0.3807360E-011  0.4778727E+02  0.7816164E-02  0.1312668E+00
        -11   -1    0    0    0    0  0.00000000000E+00  0.00000000000E+00  0.45593999997E+02  0.45594000000E+02  0.51100000000E-03 0. -1.
         11   -1    0    0    0    0 -0.00000000000E+00 -0.00000000000E+00 -0.45593999997E+02  0.45594000000E+02  0.51100000000E-03 0.  1.
    9900012    2    1    2    0    0 -0.13919946691E+02 -0.27220527488E+01  0.41017665035E+02  0.47787270375E+02  0.19999996947E+02 0.  0.
        -12    1    1    2    0    0  0.13919946691E+02  0.27220527488E+01 -0.41017665035E+02  0.43400729625E+02  0.00000000000E+00 0.  1.
         11    1    3    3    0    0 -0.11357913609E+02 -0.34982299697E+00  0.13778200061E+02  0.17859545763E+02  0.51100000000E-03 0. -1.
        -11    1    3    3    0    0  0.85442350888E+00  0.33176491288E+01  0.23148906357E+01  0.41346770359E+01  0.51100000000E-03 0.  1.
        -12    1    3    3    0    0 -0.34164565911E+01 -0.56898788806E+01  0.24924574338E+02  0.25793047576E+02  0.00000000000E+00 0.  1.
</event>
<event>
 7    1  0.3807360E-011  0.4778727E+02  0.7816164E-02  0.1312668E+00
        -11   -1    0    0    0    0  0.00000000000E+00  0.00000000000E+00  0.45593999997E+02  0.45594000000E+02  0.51100000000E-03 0. -1.
         11   -1    0    0    0    0 -0.00000000000E+00 -0.00000000000E+00 -0.45593999997E+02  0.45594000000E+02  0.51100000000E-03 0.  1.
    9900012    2    1    2    0    0 -0.90124833469E+01 -0.22455856307E+01  0.42395229007E+02  0.47787274736E+02  0.20000016833E+02 0.  0.
        -12    1    1    2    0    0  0.90124833469E+01  0.22455856307E+01 -0.42395229007E+02  0.43400725264E+02  0.00000000000E+00 0.  1.
         11    1    3    3    0    0  0.53500680495E+01 -0.57405666536E+00  0.98216339281E+01  0.11198984886E+02  0.51100000000E-03 0.  1.
        -11    1    3    3    0    0 -0.47203694009E+01 -0.21913927676E+01  0.20381865088E+02  0.21035791268E+02  0.51100000000E-03 0. -1.
        -12    1    3    3    0    0 -0.96421819955E+01  0.51986380221E+00  0.12191729991E+02  0.15552498583E+02  0.00000000000E+00 0.  1.
</event>
<event>
 7    1  0.3807360E-011  0.4778727E+02  0.7816164E-02  0.1312668E+00
        -11   -1    0    0    0    0  0.00000000000E+00  0.00000000000E+00  0.45593999997E+02  0.45594000000E+02  0.51100000000E-03 0. -1.
         11   -1    0    0    0    0 -0.00000000000E+00 -0.00000000000E+00 -0.45593999997E+02  0.45594000000E+02  0.51100000000E-03 0.  1.
    9900012    2    1    2    0    0 -0.12856201452E+02  0.12423412465E+02  0.39547447285E+02  0.47787266368E+02  0.19999978678E+02 0.  0.
        -12    1    1    2    0    0  0.12856201452E+02 -0.12423412465E+02 -0.39547447285E+02  0.43400733632E+02  0.00000000000E+00 0.  1.
         11    1    3    3    0    0 -0.98768005168E+01  0.37782294249E+01  0.82478147672E+01  0.13410915507E+02  0.51100000000E-03 0. -1.
        -11    1    3    3    0    0  0.12289531948E+01 -0.22336043101E+01  0.57893505600E+01  0.63258117532E+01  0.51100000000E-03 0.  1.
         12    1    3    3    0    0 -0.42083541297E+01  0.10878787350E+02  0.25510281958E+02  0.28050539108E+02  0.00000000000E+00 0. -1.
</event>
<event>
 7    1  0.3807360E-011  0.4778727E+02  0.7816164E-02  0.1312668E+00
        -11   -1    0    0    0    0  0.00000000000E+00  0.00000000000E+00  0.45593999997E+02  0.45594000000E+02  0.51100000000E-03 0. -1.
         11   -1    0    0    0    0 -0.00000000000E+00 -0.00000000000E+00 -0.45593999997E+02  0.45594000000E+02  0.51100000000E-03 0.  1.
    9900012    2    1    2    0    0 -0.14040365095E+02  0.29442086676E+02  0.28629618416E+02  0.47787269932E+02  0.19999994927E+02 0.  0.
        -12    1    1    2    0    0  0.14040365095E+02 -0.29442086676E+02 -0.28629618416E+02  0.43400730068E+02  0.00000000000E+00 0.  1.
         11    1    3    3    0    0 -0.46797308805E+01  0.26400309486E+01  0.85019086143E+01  0.10057439777E+02  0.51100000000E-03 0. -1.
        -11    1    3    3    0    0  0.35796705575E+01  0.10492840824E+02  0.66270037854E+01  0.12916304785E+02  0.51100000000E-03 0.  1.
        -12    1    3    3    0    0 -0.12940304772E+02  0.16309214903E+02  0.13500706016E+02  0.24813525370E+02  0.00000000000E+00 0.  1.
</event>
<event>
 7    1  0.3807360E-011  0.4778727E+02  0.7816164E-02  0.1312668E+00
        -11   -1    0    0    0    0  0.00000000000E+00  0.00000000000E+00  0.45593999997E+02  0.45594000000E+02  0.51100000000E-03 0. -1.
         11   -1    0    0    0    0 -0.00000000000E+00 -0.00000000000E+00 -0.45593999997E+02  0.45594000000E+02  0.51100000000E-03 0.  1.
    9900012    2    1    2    0    0  0.14488916435E+02 -0.30548963838E+02 -0.27211311553E+02  0.47787269966E+02  0.19999995082E+02 0.  0.
         12    1    1    2    0    0 -0.14488916435E+02  0.30548963838E+02  0.27211311553E+02  0.43400730034E+02  0.00000000000E+00 0. -1.
         11    1    3    3    0    0  0.78153413812E+01 -0.85050068674E+01 -0.13843055729E+02  0.18029001495E+02  0.51100000000E-03 0.  1.
        -11    1    3    3    0    0 -0.35757001762E+01 -0.24606121145E+01 -0.33879858181E+01  0.55062411764E+01  0.51100000000E-03 0. -1.
         12    1    3    3    0    0  0.10249275230E+02 -0.19583344857E+02 -0.99802700062E+01  0.24252027295E+02  0.00000000000E+00 0. -1.
</event>
<event>
 7    1  0.3807360E-011  0.4778727E+02  0.7816164E-02  0.1312668E+00
        -11   -1    0    0    0    0  0.00000000000E+00  0.00000000000E+00  0.45593999997E+02  0.45594000000E+02  0.51100000000E-03 0. -1.
         11   -1    0    0    0    0 -0.00000000000E+00 -0.00000000000E+00 -0.45593999997E+02  0.45594000000E+02  0.51100000000E-03 0.  1.
    9900012    2    1    2    0    0  0.40300108159E+02  0.86517934508E+01  0.13589370638E+02  0.47787271413E+02  0.20000001683E+02 0.  0.
        -12    1    1    2    0    0 -0.40300108159E+02 -0.86517934508E+01 -0.13589370638E+02  0.43400728587E+02  0.00000000000E+00 0.  1.
         11    1    3    3    0    0  0.17498109154E+02  0.77346594354E+01  0.13604776261E+02  0.23475491857E+02  0.51100000000E-03 0. -1.
        -11    1    3    3    0    0  0.15695390253E+01  0.18472749342E+00 -0.24627314786E+01  0.29261960966E+01  0.51100000000E-03 0.  1.
         12    1    3    3    0    0  0.21232459979E+02  0.73240652199E+00  0.24473258557E+01  0.21385583460E+02  0.00000000000E+00 0. -1.
</event>
<event>
 7    1  0.3807360E-011  0.4778726E+02  0.7816164E-02  0.1312668E+00
        -11   -1    0    0    0    0  0.00000000000E+00  0.00000000000E+00  0.45593999997E+02  0.45594000000E+02  0.51100000000E-03 0. -1.
         11   -1    0    0    0    0 -0.00000000000E+00 -0.00000000000E+00 -0.45593999997E+02  0.45594000000E+02  0.51100000000E-03 0.  1.
    9900012    2    1    2    0    0  0.32995156322E+02  0.21974705123E+02  0.17665105907E+02  0.47787262994E+02  0.19999963294E+02 0.  0.
        -12    1    1    2    0    0 -0.32995156322E+02 -0.21974705123E+02 -0.17665105907E+02  0.43400737006E+02  0.00000000000E+00 0.  1.
         11    1    3    3    0    0  0.16055056931E+02  0.66865778341E+01  0.36727368335E+01  0.17775381073E+02  0.51100000000E-03 0. -1.
        -11    1    3    3    0    0  0.15823540777E+02  0.12033658267E+02  0.51676759070E+01  0.20540161843E+02  0.51100000000E-03 0.  1.
        -12    1    3    3    0    0  0.11165586149E+01  0.32544690215E+01  0.88246931661E+01  0.94717200776E+01  0.00000000000E+00 0.  1.
</event>
<event>
 7    1  0.3807360E-011  0.4778727E+02  0.7816164E-02  0.1312668E+00
        -11   -1    0    0    0    0  0.00000000000E+00  0.00000000000E+00  0.45593999997E+02  0.45594000000E+02  0.51100000000E-03 0. -1.
         11   -1    0    0    0    0 -0.00000000000E+00 -0.00000000000E+00 -0.45593999997E+02  0.45594000000E+02  0.51100000000E-03 0.  1.
    9900012    2    1    2    0    0 -0.27539609304E+01  0.32367686544E+02  0.28781449491E+02  0.47787271115E+02  0.20000000321E+02 0.  0.
        -12    1    1    2    0    0  0.27539609304E+01 -0.32367686544E+02 -0.28781449491E+02  0.43400728885E+02  0.00000000000E+00 0.  1.
         11    1    3    3    0    0  0.27694639086E+01  0.12647339067E+02  0.46719695836E+01  0.13764171456E+02  0.51100000000E-03 0. -1.
        -11    1    3    3    0    0  0.17566153355E+01  0.40586659858E+01  0.12378519834E+02  0.13144817251E+02  0.51100000000E-03 0.  1.
        -12    1    3    3    0    0 -0.72800401745E+01  0.15661681491E+02  0.11730960073E+02  0.20878282407E+02  0.00000000000E+00 0.  1.
</event>
<event>
 7    1  0.3807360E-011  0.4778727E+02  0.7816164E-02  0.1312668E+00
        -11   -1    0    0    0    0  0.00000000000E+00  0.00000000000E+00  0.45593999997E+02  0.45594000000E+02  0.51100000000E-03 0. -1.
         11   -1    0    0    0    0 -0.00000000000E+00 -0.00000000000E+00 -0.45593999997E+02  0.45594000000E+02  0.51100000000E-03 0.  1.
    9900012    2    1    2    0    0  0.25066856337E+02  0.28237480610E+02 -0.21399085016E+02  0.47787269161E+02  0.19999991415E+02 0.  0.
         12    1    1    2    0    0 -0.25066856337E+02 -0.28237480610E+02  0.21399085016E+02  0.43400730839E+02  0.00000000000E+00 0. -1.
         11    1    3    3    0    0  0.26841824497E+01  0.11064560000E+02 -0.19828417982E+01  0.11556858798E+02  0.51100000000E-03 0. -1.
        -11    1    3    3    0    0  0.19121246425E+02  0.18435994959E+02 -0.14696809482E+02  0.30356287391E+02  0.51100000000E-03 0.  1.
         12    1    3    3    0    0  0.32614274621E+01 -0.12630743493E+01 -0.47194337358E+01  0.58741229719E+01  0.00000000000E+00 0. -1.
</event>
<event>
 7    1  0.3807360E-011  0.4778727E+02  0.7816164E-02  0.1312668E+00
        -11   -1    0    0    0    0  0.00000000000E+00  0.00000000000E+00  0.45593999997E+02  0.45594000000E+02  0.51100000000E-03 0. -1.
         11   -1    0    0    0    0 -0.00000000000E+00 -0.00000000000E+00 -0.45593999997E+02  0.45594000000E+02  0.51100000000E-03 0.  1.
    9900012    2    1    2    0    0 -0.77715608312E+01 -0.78442847828E+01  0.41972529968E+02  0.47787271511E+02  0.20000002126E+02 0.  0.
        -12    1    1    2    0    0  0.77715608312E+01  0.78442847828E+01 -0.41972529968E+02  0.43400728489E+02  0.00000000000E+00 0.  1.
         11    1    3    3    0    0 -0.56433646399E+01  0.29398879515E+01  0.14425781526E+02  0.15766853793E+02  0.51100000000E-03 0. -1.
        -11    1    3    3    0    0 -0.61762679374E+01 -0.70644304420E+01  0.10369940480E+02  0.13985282583E+02  0.51100000000E-03 0.  1.
        -12    1    3    3    0    0  0.40480717461E+01 -0.37197422923E+01  0.17176807962E+02  0.18035135135E+02  0.00000000000E+00 0.  1.
</event>
<event>
 7    1  0.3807360E-011  0.4778726E+02  0.7816164E-02  0.1312668E+00
        -11   -1    0    0    0    0  0.00000000000E+00  0.00000000000E+00  0.45593999997E+02  0.45594000000E+02  0.51100000000E-03 0. -1.
         11   -1    0    0    0    0 -0.00000000000E+00 -0.00000000000E+00 -0.45593999997E+02  0.45594000000E+02  0.51100000000E-03 0.  1.
    9900012    2    1    2    0    0 -0.71162381548E+01 -0.41814492230E+02  0.91940849167E+01  0.47787264944E+02  0.19999972186E+02 0.  0.
        -12    1    1    2    0    0  0.71162381548E+01  0.41814492230E+02 -0.91940849167E+01  0.43400735056E+02  0.00000000000E+00 0.  1.
         11    1    3    3    0    0 -0.33701727502E+01 -0.17867765375E+02  0.92044682961E+01  0.20379826808E+02  0.51100000000E-03 0. -1.
        -11    1    3    3    0    0  0.59462841532E+00  0.14871862990E+01 -0.11215453254E+00  0.16055793162E+01  0.51100000000E-03 0.  1.
         12    1    3    3    0    0 -0.43406938199E+01 -0.25433913154E+02  0.10177115310E+00  0.25801858819E+02  0.00000000000E+00 0. -1.
</event>
<event>
 7    1  0.3807360E-011  0.4778727E+02  0.7816164E-02  0.1312668E+00
        -11   -1    0    0    0    0  0.00000000000E+00  0.00000000000E+00  0.45593999997E+02  0.45594000000E+02  0.51100000000E-03 0. -1.
         11   -1    0    0    0    0 -0.00000000000E+00 -0.00000000000E+00 -0.45593999997E+02  0.45594000000E+02  0.51100000000E-03 0.  1.
    9900012    2    1    2    0    0  0.22293935416E+02 -0.13861613365E+02 -0.34560954436E+02  0.47787268982E+02  0.19999990596E+02 0.  0.
         12    1    1    2    0    0 -0.22293935416E+02  0.13861613365E+02  0.34560954436E+02  0.43400731018E+02  0.00000000000E+00 0. -1.
         11    1    3    3    0    0  0.50865221573E+01 -0.22897795329E+01  0.83280195039E+00  0.56399784854E+01  0.51100000000E-03 0. -1.
        -11    1    3    3    0    0  0.21441319927E+01 -0.66294626838E+01 -0.12284431056E+02  0.14122829890E+02  0.51100000000E-03 0.  1.
        -12    1    3    3    0    0  0.15063281266E+02 -0.49423711478E+01 -0.23109325330E+02  0.28024460607E+02  0.00000000000E+00 0.  1.
</event>
<event>
 7    1  0.3807360E-011  0.4778727E+02  0.7816164E-02  0.1312668E+00
        -11   -1    0    0    0    0  0.00000000000E+00  0.00000000000E+00  0.45593999997E+02  0.45594000000E+02  0.51100000000E-03 0. -1.
         11   -1    0    0    0    0 -0.00000000000E+00 -0.00000000000E+00 -0.45593999997E+02  0.45594000000E+02  0.51100000000E-03 0.  1.
    9900012    2    1    2    0    0 -0.18487603022E+02  0.39250336490E+02  0.11148446238E+01  0.47787271220E+02  0.20000000802E+02 0.  0.
         12    1    1    2    0    0  0.18487603022E+02 -0.39250336490E+02 -0.11148446238E+01  0.43400728780E+02  0.00000000000E+00 0. -1.
         11    1    3    3    0    0 -0.25363443182E+01  0.20160759094E+01 -0.27214998938E+01  0.42313315288E+01  0.51100000000E-03 0. -1.
        -11    1    3    3    0    0 -0.16582553740E+02  0.38085003552E+02  0.21874770659E+01  0.41596077222E+02  0.51100000000E-03 0.  1.
         12    1    3    3    0    0  0.63129503631E+00 -0.85074297120E+00  0.16488674517E+01  0.19598624695E+01  0.00000000000E+00 0. -1.
</event>
<event>
 7    1  0.3807360E-011  0.4778728E+02  0.7816164E-02  0.1312668E+00
        -11   -1    0    0    0    0  0.00000000000E+00  0.00000000000E+00  0.45593999997E+02  0.45594000000E+02  0.51100000000E-03 0. -1.
         11   -1    0    0    0    0 -0.00000000000E+00 -0.00000000000E+00 -0.45593999997E+02  0.45594000000E+02  0.51100000000E-03 0.  1.
    9900012    2    1    2    0    0 -0.51838023556E+01  0.78443547256E+01  0.42370003464E+02  0.47787275334E+02  0.20000019560E+02 0.  0.
        -12    1    1    2    0    0  0.51838023556E+01 -0.78443547256E+01 -0.42370003464E+02  0.43400724666E+02  0.00000000000E+00 0.  1.
         11    1    3    3    0    0  0.14698959428E+01 -0.26528814013E+01  0.12622057149E+02  0.12981321225E+02  0.51100000000E-03 0. -1.
        -11    1    3    3    0    0 -0.64191035552E+01  0.51535419428E+01  0.53247920542E+01  0.98039428645E+01  0.51100000000E-03 0.  1.
         12    1    3    3    0    0 -0.23459474313E+00  0.53436941842E+01  0.24423154261E+02  0.25002011245E+02  0.00000000000E+00 0. -1.
</event>
<event>
 7    1  0.3807360E-011  0.4778727E+02  0.7816164E-02  0.1312668E+00
        -11   -1    0    0    0    0  0.00000000000E+00  0.00000000000E+00  0.45593999997E+02  0.45594000000E+02  0.51100000000E-03 0.  1.
         11   -1    0    0    0    0 -0.00000000000E+00 -0.00000000000E+00 -0.45593999997E+02  0.45594000000E+02  0.51100000000E-03 0. -1.
    9900012    2    1    2    0    0 -0.16768640797E+02  0.39598880531E+02  0.58621067967E+01  0.47787274780E+02  0.20000017034E+02 0.  0.
         12    1    1    2    0    0  0.16768640797E+02 -0.39598880531E+02 -0.58621067967E+01  0.43400725220E+02  0.00000000000E+00 0. -1.
         11    1    3    3    0    0 -0.31773259167E+01  0.24426297696E+02 -0.18394698264E+01  0.24700669396E+02  0.51100000000E-03 0. -1.
        -11    1    3    3    0    0 -0.93414175130E+01  0.10357151458E+02  0.12827931899E+01  0.14006363772E+02  0.51100000000E-03 0.  1.
         12    1    3    3    0    0 -0.42498973676E+01  0.48154313772E+01  0.64187834332E+01  0.90802416128E+01  0.00000000000E+00 0. -1.
</event>
<event>
 7    1  0.3807360E-011  0.4778727E+02  0.7816164E-02  0.1312668E+00
        -11   -1    0    0    0    0  0.00000000000E+00  0.00000000000E+00  0.45593999997E+02  0.45594000000E+02  0.51100000000E-03 0. -1.
         11   -1    0    0    0    0 -0.00000000000E+00 -0.00000000000E+00 -0.45593999997E+02  0.45594000000E+02  0.51100000000E-03 0.  1.
    9900012    2    1    2    0    0  0.68614153941E+01  0.16722278771E+02 -0.39457697773E+02  0.47787267955E+02  0.19999985913E+02 0.  0.
         12    1    1    2    0    0 -0.68614153941E+01 -0.16722278771E+02  0.39457697773E+02  0.43400732045E+02  0.00000000000E+00 0. -1.
         11    1    3    3    0    0 -0.10587017065E+01  0.16609255049E+01  0.20494481662E+01  0.28424920199E+01  0.51100000000E-03 0. -1.
        -11    1    3    3    0    0  0.23070088454E+01  0.72536776624E+01 -0.19158052524E+02  0.20614778830E+02  0.51100000000E-03 0.  1.
         12    1    3    3    0    0  0.56131082552E+01  0.78076756036E+01 -0.22349093415E+02  0.24329997104E+02  0.00000000000E+00 0. -1.
</event>
<event>
 7    1  0.3807360E-011  0.4778727E+02  0.7816164E-02  0.1312668E+00
        -11   -1    0    0    0    0  0.00000000000E+00  0.00000000000E+00  0.45593999997E+02  0.45594000000E+02  0.51100000000E-03 0. -1.
         11   -1    0    0    0    0 -0.00000000000E+00 -0.00000000000E+00 -0.45593999997E+02  0.45594000000E+02  0.51100000000E-03 0.  1.
    9900012    2    1    2    0    0 -0.17792901400E+02 -0.20555590892E+02  0.33830514685E+02  0.47787269810E+02  0.19999994374E+02 0.  0.
        -12    1    1    2    0    0  0.17792901400E+02  0.20555590892E+02 -0.33830514685E+02  0.43400730190E+02  0.00000000000E+00 0.  1.
         11    1    3    3    0    0 -0.65962466840E+01 -0.15387990144E+02  0.17205574411E+02  0.24006926127E+02  0.51100000000E-03 0.  1.
        -11    1    3    3    0    0 -0.11171068024E+02 -0.60002358600E+01  0.77392521475E+01  0.14855693024E+02  0.51100000000E-03 0. -1.
         12    1    3    3    0    0 -0.25586691986E-01  0.83263511207E+00  0.88856881264E+01  0.89246506592E+01  0.00000000000E+00 0. -1.
</event>
<event>
 7    1  0.3807360E-011  0.4778727E+02  0.7816164E-02  0.1312668E+00
        -11   -1    0    0    0    0  0.00000000000E+00  0.00000000000E+00  0.45593999997E+02  0.45594000000E+02  0.51100000000E-03 0. -1.
         11   -1    0    0    0    0 -0.00000000000E+00 -0.00000000000E+00 -0.45593999997E+02  0.45594000000E+02  0.51100000000E-03 0.  1.
    9900012    2    1    2    0    0 -0.26992461459E+02 -0.53665335006E+01  0.33559357168E+02  0.47787272921E+02  0.20000008558E+02 0.  0.
        -12    1    1    2    0    0  0.26992461459E+02  0.53665335006E+01 -0.33559357168E+02  0.43400727079E+02  0.00000000000E+00 0.  1.
         11    1    3    3    0    0 -0.18659570165E+02 -0.58100069791E+01  0.13552394632E+02  0.23782412417E+02  0.51100000000E-03 0. -1.
        -11    1    3    3    0    0 -0.22078701599E+01 -0.45432521445E+01  0.10447661761E+02  0.11604717456E+02  0.51100000000E-03 0.  1.
         12    1    3    3    0    0 -0.61250211341E+01  0.49867256230E+01  0.95593007745E+01  0.12400143049E+02  0.00000000000E+00 0. -1.
</event>
<event>
 7    1  0.3807360E-011  0.4778727E+02  0.7816164E-02  0.1312668E+00
        -11   -1    0    0    0    0  0.00000000000E+00  0.00000000000E+00  0.45593999997E+02  0.45594000000E+02  0.51100000000E-03 0. -1.
         11   -1    0    0    0    0 -0.00000000000E+00 -0.00000000000E+00 -0.45593999997E+02  0.45594000000E+02  0.51100000000E-03 0.  1.
    9900012    2    1    2    0    0  0.38889559712E+02  0.17052366119E+02  0.89689563587E+01  0.47787271631E+02  0.20000002673E+02 0.  0.
        -12    1    1    2    0    0 -0.38889559712E+02 -0.17052366119E+02 -0.89689563587E+01  0.43400728369E+02  0.00000000000E+00 0.  1.
         11    1    3    3    0    0  0.34853060074E+02  0.11639080438E+02  0.32338735047E+01  0.36887151260E+02  0.51100000000E-03 0. -1.
        -11    1    3    3    0    0 -0.37012289605E+00 -0.94115071738E+00 -0.33933014097E+00  0.10667243490E+01  0.51100000000E-03 0.  1.
         12    1    3    3    0    0  0.44066225339E+01  0.63544363980E+01  0.60744129950E+01  0.98333960220E+01  0.00000000000E+00 0. -1.
</event>
<event>
 7    1  0.3807360E-011  0.4778726E+02  0.7816164E-02  0.1312668E+00
        -11   -1    0    0    0    0  0.00000000000E+00  0.00000000000E+00  0.45593999997E+02  0.45594000000E+02  0.51100000000E-03 0. -1.
         11   -1    0    0    0    0 -0.00000000000E+00 -0.00000000000E+00 -0.45593999997E+02  0.45594000000E+02  0.51100000000E-03 0.  1.
    9900012    2    1    2    0    0 -0.88986576690E+00 -0.47601159506E+01 -0.43129726726E+02  0.47787263919E+02  0.19999967510E+02 0.  0.
         12    1    1    2    0    0  0.88986576690E+00  0.47601159506E+01  0.43129726726E+02  0.43400736081E+02  0.00000000000E+00 0. -1.
         11    1    3    3    0    0 -0.40913840038E+01 -0.81220502248E+01 -0.16318114049E+02  0.18681219695E+02  0.51100000000E-03 0. -1.
        -11    1    3    3    0    0  0.11819377693E+00  0.19442525837E+01  0.12939810188E+00  0.19521352433E+01  0.51100000000E-03 0.  1.
        -12    1    3    3    0    0  0.30833244600E+01  0.14176816905E+01 -0.26941010779E+02  0.27153908980E+02  0.00000000000E+00 0.  1.
</event>
<event>
 7    1  0.3807360E-011  0.4778731E+02  0.7816164E-02  0.1312668E+00
        -11   -1    0    0    0    0  0.00000000000E+00  0.00000000000E+00  0.45593999997E+02  0.45594000000E+02  0.51100000000E-03 0. -1.
         11   -1    0    0    0    0 -0.00000000000E+00 -0.00000000000E+00 -0.45593999997E+02  0.45594000000E+02  0.51100000000E-03 0.  1.
    9900012    2    1    2    0    0  0.21084210805E+02  0.18700596818E+02  0.33005507321E+02  0.47787311294E+02  0.20000183515E+02 0.  0.
        -12    1    1    2    0    0 -0.21084210805E+02 -0.18700596818E+02 -0.33005507321E+02  0.43400688706E+02  0.00000000000E+00 0.  1.
         11    1    3    3    0    0  0.19586764310E+02  0.10937256010E+02  0.26550347945E+02  0.34758968359E+02  0.51100000000E-03 0. -1.
        -11    1    3    3    0    0  0.29468513004E+00  0.73092804749E+01  0.81172104743E+01  0.10927100555E+02  0.51100000000E-03 0.  1.
        -12    1    3    3    0    0  0.12027613652E+01  0.45406033305E+00 -0.16620510984E+01  0.21012423805E+01  0.00000000000E+00 0.  1.
</event>
<event>
 7    1  0.3807360E-011  0.4778727E+02  0.7816164E-02  0.1312668E+00
        -11   -1    0    0    0    0  0.00000000000E+00  0.00000000000E+00  0.45593999997E+02  0.45594000000E+02  0.51100000000E-03 0. -1.
         11   -1    0    0    0    0 -0.00000000000E+00 -0.00000000000E+00 -0.45593999997E+02  0.45594000000E+02  0.51100000000E-03 0.  1.
    9900012    2    1    2    0    0 -0.31304697064E+02  0.80296787136E+01 -0.28968324512E+02  0.47787267016E+02  0.19999981633E+02 0.  0.
         12    1    1    2    0    0  0.31304697064E+02 -0.80296787136E+01  0.28968324512E+02  0.43400732984E+02  0.00000000000E+00 0. -1.
         11    1    3    3    0    0 -0.21986925777E+02  0.40303409048E+01 -0.28228535448E+02  0.36007204373E+02  0.51100000000E-03 0. -1.
        -11    1    3    3    0    0 -0.50309503057E+01  0.44252429601E+01 -0.24653288621E+01  0.71394035390E+01  0.51100000000E-03 0.  1.
         12    1    3    3    0    0 -0.42868209813E+01 -0.42590515125E+00  0.17255397988E+01  0.46406591041E+01  0.00000000000E+00 0. -1.
</event>
<event>
 7    1  0.3807360E-011  0.4778727E+02  0.7816164E-02  0.1312668E+00
        -11   -1    0    0    0    0  0.00000000000E+00  0.00000000000E+00  0.45593999997E+02  0.45594000000E+02  0.51100000000E-03 0. -1.
         11   -1    0    0    0    0 -0.00000000000E+00 -0.00000000000E+00 -0.45593999997E+02  0.45594000000E+02  0.51100000000E-03 0.  1.
    9900012    2    1    2    0    0  0.11288151905E+02  0.12581708592E+02  0.39973759737E+02  0.47787271526E+02  0.20000002197E+02 0.  0.
        -12    1    1    2    0    0 -0.11288151905E+02 -0.12581708592E+02 -0.39973759737E+02  0.43400728474E+02  0.00000000000E+00 0.  1.
         11    1    3    3    0    0 -0.11474758667E+00 -0.55282408712E+00  0.13468249363E-01  0.56476821335E+00  0.51100000000E-03 0. -1.
        -11    1    3    3    0    0  0.38731055488E+01  0.16357570086E+00 -0.65045136601E+00  0.39307493996E+01  0.51100000000E-03 0.  1.
         12    1    3    3    0    0  0.75297939432E+01  0.12970956979E+02  0.40610742854E+02  0.43291753913E+02  0.00000000000E+00 0. -1.
</event>
<event>
 7    1  0.3807360E-011  0.4778727E+02  0.7816164E-02  0.1312668E+00
        -11   -1    0    0    0    0  0.00000000000E+00  0.00000000000E+00  0.45593999997E+02  0.45594000000E+02  0.51100000000E-03 0. -1.
         11   -1    0    0    0    0 -0.00000000000E+00 -0.00000000000E+00 -0.45593999997E+02  0.45594000000E+02  0.51100000000E-03 0.  1.
    9900012    2    1    2    0    0  0.43115320419E+01 -0.26492329341E+02 -0.34105576547E+02  0.47787272194E+02  0.20000005243E+02 0.  0.
         12    1    1    2    0    0 -0.43115320419E+01  0.26492329341E+02  0.34105576547E+02  0.43400727806E+02  0.00000000000E+00 0. -1.
         11    1    3    3    0    0  0.12128460552E+01 -0.11821071523E+01  0.16761690907E+01  0.23828377945E+01  0.51100000000E-03 0. -1.
        -11    1    3    3    0    0 -0.30164856246E+01 -0.17401273968E+02 -0.19595447205E+02  0.26379633671E+02  0.51100000000E-03 0.  1.
        -12    1    3    3    0    0  0.61151716114E+01 -0.79089482207E+01 -0.16186298433E+02  0.19024800729E+02  0.00000000000E+00 0.  1.
</event>
<event>
 7    1  0.3807360E-011  0.4778727E+02  0.7816164E-02  0.1312668E+00
        -11   -1    0    0    0    0  0.00000000000E+00  0.00000000000E+00  0.45593999997E+02  0.45594000000E+02  0.51100000000E-03 0. -1.
         11   -1    0    0    0    0 -0.00000000000E+00 -0.00000000000E+00 -0.45593999997E+02  0.45594000000E+02  0.51100000000E-03 0.  1.
    9900012    2    1    2    0    0  0.32011803715E+02 -0.11118338874E+02  0.27115502438E+02  0.47787268337E+02  0.19999987657E+02 0.  0.
        -12    1    1    2    0    0 -0.32011803715E+02  0.11118338874E+02 -0.27115502438E+02  0.43400731663E+02  0.00000000000E+00 0.  1.
         11    1    3    3    0    0  0.66120221635E+01 -0.46993793933E+00  0.94028490854E+01  0.11504488252E+02  0.51100000000E-03 0. -1.
        -11    1    3    3    0    0  0.33106967745E+01 -0.20446848817E+01 -0.29126701895E+01  0.48605655321E+01  0.51100000000E-03 0.  1.
        -12    1    3    3    0    0  0.22089084777E+02 -0.86037160530E+01  0.20625323542E+02  0.31422214553E+02  0.00000000000E+00 0.  1.
</event>
<event>
 7    1  0.3807360E-011  0.4778727E+02  0.7816164E-02  0.1312668E+00
        -11   -1    0    0    0    0  0.00000000000E+00  0.00000000000E+00  0.45593999997E+02  0.45594000000E+02  0.51100000000E-03 0. -1.
         11   -1    0    0    0    0 -0.00000000000E+00 -0.00000000000E+00 -0.45593999997E+02  0.45594000000E+02  0.51100000000E-03 0.  1.
    9900012    2    1    2    0    0  0.12218990216E+02 -0.23529254218E+02  0.34361222862E+02  0.47787272327E+02  0.20000005847E+02 0.  0.
        -12    1    1    2    0    0 -0.12218990216E+02  0.23529254218E+02 -0.34361222862E+02  0.43400727673E+02  0.00000000000E+00 0.  1.
         11    1    3    3    0    0  0.55045040241E+01 -0.15535592433E+02  0.23913089163E+02  0.29042899827E+02  0.51100000000E-03 0. -1.
        -11    1    3    3    0    0 -0.10042386127E+01  0.16791988975E+01  0.47168190805E+01  0.51065239280E+01  0.51100000000E-03 0.  1.
        -12    1    3    3    0    0  0.77187248051E+01 -0.96728606822E+01  0.57313146190E+01  0.13637848571E+02  0.00000000000E+00 0.  1.
</event>
<event>
 7    1  0.3807360E-011  0.4778727E+02  0.7816164E-02  0.1312668E+00
        -11   -1    0    0    0    0  0.00000000000E+00  0.00000000000E+00  0.45593999997E+02  0.45594000000E+02  0.51100000000E-03 0.  1.
         11   -1    0    0    0    0 -0.00000000000E+00 -0.00000000000E+00 -0.45593999997E+02  0.45594000000E+02  0.51100000000E-03 0. -1.
    9900012    2    1    2    0    0  0.41788051036E+02 -0.92232162845E+01  0.72328718733E+01  0.47787270011E+02  0.19999995289E+02 0.  0.
         12    1    1    2    0    0 -0.41788051036E+02  0.92232162845E+01 -0.72328718733E+01  0.43400729989E+02  0.00000000000E+00 0. -1.
         11    1    3    3    0    0  0.46395234821E+01  0.32869949719E+01  0.97436987184E+00  0.57687876538E+01  0.51100000000E-03 0. -1.
        -11    1    3    3    0    0  0.12709702377E+01  0.20739704512E+01  0.18169419010E+01  0.30361154310E+01  0.51100000000E-03 0.  1.
        -12    1    3    3    0    0  0.35877557316E+02 -0.14584181708E+02  0.44415601004E+01  0.38982366926E+02  0.00000000000E+00 0.  1.
</event>
<event>
 7    1  0.3807360E-011  0.4778727E+02  0.7816164E-02  0.1312668E+00
        -11   -1    0    0    0    0  0.00000000000E+00  0.00000000000E+00  0.45593999997E+02  0.45594000000E+02  0.51100000000E-03 0. -1.
         11   -1    0    0    0    0 -0.00000000000E+00 -0.00000000000E+00 -0.45593999997E+02  0.45594000000E+02  0.51100000000E-03 0.  1.
    9900012    2    1    2    0    0 -0.22747079083E+02  0.19563807677E+02  0.31360024535E+02  0.47787270554E+02  0.19999997762E+02 0.  0.
        -12    1    1    2    0    0  0.22747079083E+02 -0.19563807677E+02 -0.31360024535E+02  0.43400729446E+02  0.00000000000E+00 0.  1.
         11    1    3    3    0    0  0.11452119568E+01  0.92029727388E+00  0.28482221726E+00  0.14965231221E+01  0.51100000000E-03 0. -1.
        -11    1    3    3    0    0 -0.21899350272E+02  0.11077567577E+02  0.15972276405E+02  0.29281524202E+02  0.51100000000E-03 0.  1.
         12    1    3    3    0    0 -0.19929407676E+01  0.75659428261E+01  0.15102925913E+02  0.17009223230E+02  0.00000000000E+00 0. -1.
</event>
<event>
 7    1  0.3807360E-011  0.4778727E+02  0.7816164E-02  0.1312668E+00
        -11   -1    0    0    0    0  0.00000000000E+00  0.00000000000E+00  0.45593999997E+02  0.45594000000E+02  0.51100000000E-03 0. -1.
         11   -1    0    0    0    0 -0.00000000000E+00 -0.00000000000E+00 -0.45593999997E+02  0.45594000000E+02  0.51100000000E-03 0.  1.
    9900012    2    1    2    0    0 -0.30419665002E+02  0.10740405370E+02  0.29032927885E+02  0.47787271573E+02  0.20000002412E+02 0.  0.
        -12    1    1    2    0    0  0.30419665002E+02 -0.10740405370E+02 -0.29032927885E+02  0.43400728427E+02  0.00000000000E+00 0.  1.
         11    1    3    3    0    0 -0.78323077599E+00  0.30926423798E+01  0.27331322683E+01  0.42009403227E+01  0.51100000000E-03 0. -1.
        -11    1    3    3    0    0 -0.29045314406E+02  0.20526608253E+01  0.22482930933E+02  0.36787577917E+02  0.51100000000E-03 0.  1.
        -12    1    3    3    0    0 -0.59111982027E+00  0.55951021645E+01  0.38168646842E+01  0.67987533335E+01  0.00000000000E+00 0.  1.
</event>
<event>
 7    1  0.3807360E-011  0.4778727E+02  0.7816164E-02  0.1312668E+00
        -11   -1    0    0    0    0  0.00000000000E+00  0.00000000000E+00  0.45593999997E+02  0.45594000000E+02  0.51100000000E-03 0.  1.
         11   -1    0    0    0    0 -0.00000000000E+00 -0.00000000000E+00 -0.45593999997E+02  0.45594000000E+02  0.51100000000E-03 0. -1.
    9900012    2    1    2    0    0 -0.28524056794E+02  0.19075202507E+02  0.26573258441E+02  0.47787271540E+02  0.20000002260E+02 0.  0.
        -12    1    1    2    0    0  0.28524056794E+02 -0.19075202507E+02 -0.26573258441E+02  0.43400728460E+02  0.00000000000E+00 0.  1.
         11    1    3    3    0    0 -0.11071802884E+02  0.35245072616E+01  0.50354564439E+01  0.12663443149E+02  0.51100000000E-03 0. -1.
        -11    1    3    3    0    0 -0.88065665589E+01  0.11198631235E+02  0.21068503277E+02  0.25433182788E+02  0.51100000000E-03 0.  1.
        -12    1    3    3    0    0 -0.86456873512E+01  0.43520640101E+01  0.46929871993E+00  0.96906456034E+01  0.00000000000E+00 0.  1.
</event>
<event>
 7    1  0.3807360E-011  0.4778727E+02  0.7816164E-02  0.1312668E+00
        -11   -1    0    0    0    0  0.00000000000E+00  0.00000000000E+00  0.45593999997E+02  0.45594000000E+02  0.51100000000E-03 0. -1.
         11   -1    0    0    0    0 -0.00000000000E+00 -0.00000000000E+00 -0.45593999997E+02  0.45594000000E+02  0.51100000000E-03 0.  1.
    9900012    2    1    2    0    0  0.85250591879E+01  0.55843303470E+01 -0.42187221529E+02  0.47787273740E+02  0.20000012288E+02 0.  0.
         12    1    1    2    0    0 -0.85250591879E+01 -0.55843303470E+01  0.42187221529E+02  0.43400726260E+02  0.00000000000E+00 0. -1.
         11    1    3    3    0    0 -0.41383505328E+01  0.23591187493E+01 -0.11972258056E+02  0.12885121250E+02  0.51100000000E-03 0. -1.
        -11    1    3    3    0    0  0.17366863584E+01  0.35442799508E+01 -0.15796398936E+01  0.42512659681E+01  0.51100000000E-03 0.  1.
        -12    1    3    3    0    0  0.10926723362E+02 -0.31906835310E+00 -0.28635323579E+02  0.30650886521E+02  0.00000000000E+00 0.  1.
</event>
<event>
 7    1  0.3807360E-011  0.4778727E+02  0.7816164E-02  0.1312668E+00
        -11   -1    0    0    0    0  0.00000000000E+00  0.00000000000E+00  0.45593999997E+02  0.45594000000E+02  0.51100000000E-03 0. -1.
         11   -1    0    0    0    0 -0.00000000000E+00 -0.00000000000E+00 -0.45593999997E+02  0.45594000000E+02  0.51100000000E-03 0.  1.
    9900012    2    1    2    0    0  0.11213049051E+02  0.11271327185E+02 -0.40383759396E+02  0.47787270646E+02  0.19999998183E+02 0.  0.
         12    1    1    2    0    0 -0.11213049051E+02 -0.11271327185E+02  0.40383759396E+02  0.43400729354E+02  0.00000000000E+00 0. -1.
         11    1    3    3    0    0  0.98772089290E+01  0.45312079158E+01 -0.17698456356E+02  0.20768400494E+02  0.51100000000E-03 0.  1.
        -11    1    3    3    0    0 -0.31084136131E+01  0.78115434333E+01 -0.78765252540E+01  0.11520507642E+02  0.51100000000E-03 0. -1.
         12    1    3    3    0    0  0.44442537347E+01 -0.10714241637E+01 -0.14808777785E+02  0.15498362510E+02  0.00000000000E+00 0. -1.
</event>
<event>
 7    1  0.3807360E-011  0.4778726E+02  0.7816164E-02  0.1312668E+00
        -11   -1    0    0    0    0  0.00000000000E+00  0.00000000000E+00  0.45593999997E+02  0.45594000000E+02  0.51100000000E-03 0. -1.
         11   -1    0    0    0    0 -0.00000000000E+00 -0.00000000000E+00 -0.45593999997E+02  0.45594000000E+02  0.51100000000E-03 0.  1.
    9900012    2    1    2    0    0 -0.53740878762E-01 -0.30552241591E+02  0.30825015156E+02  0.47787263674E+02  0.19999966395E+02 0.  0.
        -12    1    1    2    0    0  0.53740878762E-01  0.30552241591E+02 -0.30825015156E+02  0.43400736326E+02  0.00000000000E+00 0.  1.
         11    1    3    3    0    0  0.26861315315E+01 -0.24690418979E+01  0.58115370435E+01  0.68618826547E+01  0.51100000000E-03 0.  1.
        -11    1    3    3    0    0 -0.57237271036E+01 -0.12562551320E+02  0.35204288778E+01  0.14246830081E+02  0.51100000000E-03 0. -1.
         12    1    3    3    0    0  0.29838546933E+01 -0.15520648373E+02  0.21493049235E+02  0.26678550938E+02  0.00000000000E+00 0. -1.
</event>
<event>
 7    1  0.3807360E-011  0.4778728E+02  0.7816164E-02  0.1312668E+00
        -11   -1    0    0    0    0  0.00000000000E+00  0.00000000000E+00  0.45593999997E+02  0.45594000000E+02  0.51100000000E-03 0. -1.
         11   -1    0    0    0    0 -0.00000000000E+00 -0.00000000000E+00 -0.45593999997E+02  0.45594000000E+02  0.51100000000E-03 0.  1.
    9900012    2    1    2    0    0 -0.34752157022E+02  0.79616733872E+01  0.24749176773E+02  0.47787280977E+02  0.20000045287E+02 0.  0.
        -12    1    1    2    0    0  0.34752157022E+02 -0.79616733872E+01 -0.24749176773E+02  0.43400719023E+02  0.00000000000E+00 0.  1.
         11    1    3    3    0    0 -0.12833163944E+02 -0.89008028557E+00  0.90692769356E+01  0.15739571917E+02  0.51100000000E-03 0. -1.
        -11    1    3    3    0    0 -0.17656479071E+02  0.12150263526E+02  0.15847065909E+02  0.26655386981E+02  0.51100000000E-03 0.  1.
        -12    1    3    3    0    0 -0.42625140065E+01 -0.32985098533E+01 -0.16716607166E+00  0.53923220790E+01  0.00000000000E+00 0.  1.
</event>
<event>
 7    1  0.3807360E-011  0.4778727E+02  0.7816164E-02  0.1312668E+00
        -11   -1    0    0    0    0  0.00000000000E+00  0.00000000000E+00  0.45593999997E+02  0.45594000000E+02  0.51100000000E-03 0. -1.
         11   -1    0    0    0    0 -0.00000000000E+00 -0.00000000000E+00 -0.45593999997E+02  0.45594000000E+02  0.51100000000E-03 0.  1.
    9900012    2    1    2    0    0 -0.63598198857E+01 -0.41181985407E+02  0.12133435721E+02  0.47787268515E+02  0.19999988466E+02 0.  0.
        -12    1    1    2    0    0  0.63598198857E+01  0.41181985407E+02 -0.12133435721E+02  0.43400731485E+02  0.00000000000E+00 0.  1.
         11    1    3    3    0    0 -0.88739266346E+01 -0.35850710982E+02  0.14831657056E+02  0.39799473654E+02  0.51100000000E-03 0. -1.
        -11    1    3    3    0    0  0.29958280543E+01 -0.46198597609E+01 -0.38437458790E+00  0.55195863999E+01  0.51100000000E-03 0.  1.
        -12    1    3    3    0    0 -0.48172130529E+00 -0.71141466437E+00 -0.23138467466E+01  0.24682084611E+01  0.00000000000E+00 0.  1.
</event>
<event>
 7    1  0.3807360E-011  0.4778727E+02  0.7816164E-02  0.1312668E+00
        -11   -1    0    0    0    0  0.00000000000E+00  0.00000000000E+00  0.45593999997E+02  0.45594000000E+02  0.51100000000E-03 0. -1.
         11   -1    0    0    0    0 -0.00000000000E+00 -0.00000000000E+00 -0.45593999997E+02  0.45594000000E+02  0.51100000000E-03 0.  1.
    9900012    2    1    2    0    0  0.66891000720E+01  0.33231465578E+02 -0.27102563626E+02  0.47787270520E+02  0.19999997611E+02 0.  0.
         12    1    1    2    0    0 -0.66891000720E+01 -0.33231465578E+02  0.27102563626E+02  0.43400729480E+02  0.00000000000E+00 0. -1.
         11    1    3    3    0    0  0.71327581716E+00  0.92845247952E+01 -0.82987483639E+01  0.12473186751E+02  0.51100000000E-03 0. -1.
        -11    1    3    3    0    0 -0.48940954616E+01  0.68867439096E+01 -0.10425012493E+02  0.13418654843E+02  0.51100000000E-03 0.  1.
         12    1    3    3    0    0  0.10869919716E+02  0.17060196874E+02 -0.83788027692E+01  0.21895428926E+02  0.00000000000E+00 0. -1.
</event>
<event>
 7    1  0.3807360E-011  0.4778727E+02  0.7816164E-02  0.1312668E+00
        -11   -1    0    0    0    0  0.00000000000E+00  0.00000000000E+00  0.45593999997E+02  0.45594000000E+02  0.51100000000E-03 0. -1.
         11   -1    0    0    0    0 -0.00000000000E+00 -0.00000000000E+00 -0.45593999997E+02  0.45594000000E+02  0.51100000000E-03 0.  1.
    9900012    2    1    2    0    0  0.35839846831E+02  0.48807594459E+00 -0.24472244524E+02  0.47787267391E+02  0.19999983342E+02 0.  0.
         12    1    1    2    0    0 -0.35839846831E+02 -0.48807594459E+00  0.24472244524E+02  0.43400732609E+02  0.00000000000E+00 0. -1.
         11    1    3    3    0    0  0.31198873536E+02 -0.26529667464E+01 -0.21840481861E+02  0.38176099731E+02  0.51100000000E-03 0. -1.
        -11    1    3    3    0    0  0.45570429033E+01 -0.30711741115E+00  0.92120792904E+00  0.46593546158E+01  0.51100000000E-03 0.  1.
         12    1    3    3    0    0  0.83930391512E-01  0.34481601022E+01 -0.35529705912E+01  0.49518130440E+01  0.00000000000E+00 0. -1.
</event>
<event>
 7    1  0.3807360E-011  0.4778728E+02  0.7816164E-02  0.1312668E+00
        -11   -1    0    0    0    0  0.00000000000E+00  0.00000000000E+00  0.45593999997E+02  0.45594000000E+02  0.51100000000E-03 0. -1.
         11   -1    0    0    0    0 -0.00000000000E+00 -0.00000000000E+00 -0.45593999997E+02  0.45594000000E+02  0.51100000000E-03 0.  1.
    9900012    2    1    2    0    0 -0.37952563209E+02 -0.15686706338E+02 -0.14041110691E+02  0.47787278816E+02  0.20000035432E+02 0.  0.
         12    1    1    2    0    0  0.37952563209E+02  0.15686706338E+02  0.14041110691E+02  0.43400721184E+02  0.00000000000E+00 0. -1.
         11    1    3    3    0    0 -0.11695759548E+02 -0.85904113644E+01 -0.68320587128E-01  0.14511740997E+02  0.51100000000E-03 0. -1.
        -11    1    3    3    0    0 -0.15142085367E+02 -0.90231505248E+01 -0.13099545559E+02  0.21961286137E+02  0.51100000000E-03 0.  1.
        -12    1    3    3    0    0 -0.11114718294E+02  0.19268555518E+01 -0.87324454435E+00  0.11314251681E+02  0.00000000000E+00 0.  1.
</event>
<event>
 7    1  0.3807360E-011  0.4778727E+02  0.7816164E-02  0.1312668E+00
        -11   -1    0    0    0    0  0.00000000000E+00  0.00000000000E+00  0.45593999997E+02  0.45594000000E+02  0.51100000000E-03 0. -1.
         11   -1    0    0    0    0 -0.00000000000E+00 -0.00000000000E+00 -0.45593999997E+02  0.45594000000E+02  0.51100000000E-03 0.  1.
    9900012    2    1    2    0    0 -0.17075885481E+02  0.28186197251E+02  0.28241385486E+02  0.47787269193E+02  0.19999991558E+02 0.  0.
        -12    1    1    2    0    0  0.17075885481E+02 -0.28186197251E+02 -0.28241385486E+02  0.43400730807E+02  0.00000000000E+00 0.  1.
         11    1    3    3    0    0 -0.10579998649E+02  0.13147380927E+02  0.16820771984E+02  0.23827051161E+02  0.51100000000E-03 0. -1.
        -11    1    3    3    0    0  0.31390636072E+00 -0.10194277589E+01  0.54054245976E+01  0.55096629207E+01  0.51100000000E-03 0.  1.
        -12    1    3    3    0    0 -0.68097931933E+01  0.16058244083E+02  0.60151889046E+01  0.18450555111E+02  0.00000000000E+00 0.  1.
</event>
<event>
 7    1  0.3807360E-011  0.4778727E+02  0.7816164E-02  0.1312668E+00
        -11   -1    0    0    0    0  0.00000000000E+00  0.00000000000E+00  0.45593999997E+02  0.45594000000E+02  0.51100000000E-03 0. -1.
         11   -1    0    0    0    0 -0.00000000000E+00 -0.00000000000E+00 -0.45593999997E+02  0.45594000000E+02  0.51100000000E-03 0.  1.
    9900012    2    1    2    0    0 -0.11818839770E+02 -0.25801863896E+02 -0.32835986393E+02  0.47787272398E+02  0.20000006171E+02 0.  0.
         12    1    1    2    0    0  0.11818839770E+02  0.25801863896E+02  0.32835986393E+02  0.43400727602E+02  0.00000000000E+00 0. -1.
         11    1    3    3    0    0 -0.12161461423E+01 -0.10478351543E+02 -0.19756389742E+02  0.22396200535E+02  0.51100000000E-03 0.  1.
        -11    1    3    3    0    0 -0.22804920911E+01  0.16073352886E+01 -0.88378113424E+00  0.29266431730E+01  0.51100000000E-03 0. -1.
        -12    1    3    3    0    0 -0.83222015368E+01 -0.16930847641E+02 -0.12195815517E+02  0.22464428690E+02  0.00000000000E+00 0.  1.
</event>
<event>
 7    1  0.3807360E-011  0.4778727E+02  0.7816164E-02  0.1312668E+00
        -11   -1    0    0    0    0  0.00000000000E+00  0.00000000000E+00  0.45593999997E+02  0.45594000000E+02  0.51100000000E-03 0. -1.
         11   -1    0    0    0    0 -0.00000000000E+00 -0.00000000000E+00 -0.45593999997E+02  0.45594000000E+02  0.51100000000E-03 0.  1.
    9900012    2    1    2    0    0  0.16049724630E+02 -0.21992180625E+02  0.33799020676E+02  0.47787268809E+02  0.19999989806E+02 0.  0.
        -12    1    1    2    0    0 -0.16049724630E+02  0.21992180625E+02 -0.33799020676E+02  0.43400731191E+02  0.00000000000E+00 0.  1.
         11    1    3    3    0    0  0.13325207312E+02 -0.58766500583E+01  0.18777112723E+02  0.23762914979E+02  0.51100000000E-03 0.  1.
        -11    1    3    3    0    0  0.52956446291E+01 -0.14392354621E+02  0.10663412385E+02  0.18678653258E+02  0.51100000000E-03 0. -1.
        -12    1    3    3    0    0 -0.25711273114E+01 -0.17231759452E+01  0.43584955681E+01  0.53457005721E+01  0.00000000000E+00 0.  1.
</event>
<event>
 7    1  0.3807360E-011  0.4778727E+02  0.7816164E-02  0.1312668E+00
        -11   -1    0    0    0    0  0.00000000000E+00  0.00000000000E+00  0.45593999997E+02  0.45594000000E+02  0.51100000000E-03 0. -1.
         11   -1    0    0    0    0 -0.00000000000E+00 -0.00000000000E+00 -0.45593999997E+02  0.45594000000E+02  0.51100000000E-03 0.  1.
    9900012    2    1    2    0    0  0.15859535042E+02 -0.44768211092E+01  0.40150423172E+02  0.47787271206E+02  0.20000000735E+02 0.  0.
        -12    1    1    2    0    0 -0.15859535042E+02  0.44768211092E+01 -0.40150423172E+02  0.43400728794E+02  0.00000000000E+00 0.  1.
         11    1    3    3    0    0  0.13276391754E+02 -0.41783564416E+01  0.25208394633E+02  0.28795562172E+02  0.51100000000E-03 0. -1.
        -11    1    3    3    0    0 -0.16608382483E+01 -0.50679532470E+01  0.65197708887E+01  0.84231791209E+01  0.51100000000E-03 0.  1.
         12    1    3    3    0    0  0.42439815361E+01  0.47694885795E+01  0.84222576501E+01  0.10568529913E+02  0.00000000000E+00 0. -1.
</event>
<event>
 7    1  0.3807360E-011  0.4778727E+02  0.7816164E-02  0.1312668E+00
        -11   -1    0    0    0    0  0.00000000000E+00  0.00000000000E+00  0.45593999997E+02  0.45594000000E+02  0.51100000000E-03 0.  1.
         11   -1    0    0    0    0 -0.00000000000E+00 -0.00000000000E+00 -0.45593999997E+02  0.45594000000E+02  0.51100000000E-03 0. -1.
    9900012    2    1    2    0    0 -0.85954080112E+01 -0.42371819578E+02  0.37909028328E+01  0.47787273307E+02  0.20000010314E+02 0.  0.
        -12    1    1    2    0    0  0.85954080112E+01  0.42371819578E+02 -0.37909028328E+01  0.43400726693E+02  0.00000000000E+00 0.  1.
         11    1    3    3    0    0 -0.58753983407E+01 -0.15967051895E+02 -0.22304308080E+01  0.17159308661E+02  0.51100000000E-03 0. -1.
        -11    1    3    3    0    0 -0.73846398902E+00 -0.16392816939E+02 -0.33774617825E+01  0.16753418296E+02  0.51100000000E-03 0.  1.
        -12    1    3    3    0    0 -0.19815456815E+01 -0.10011950744E+02  0.93987954233E+01  0.13874546349E+02  0.00000000000E+00 0.  1.
</event>
<event>
 7    1  0.3807360E-011  0.4778727E+02  0.7816164E-02  0.1312668E+00
        -11   -1    0    0    0    0  0.00000000000E+00  0.00000000000E+00  0.45593999997E+02  0.45594000000E+02  0.51100000000E-03 0. -1.
         11   -1    0    0    0    0 -0.00000000000E+00 -0.00000000000E+00 -0.45593999997E+02  0.45594000000E+02  0.51100000000E-03 0.  1.
    9900012    2    1    2    0    0 -0.24453500145E+02  0.24809507566E+02  0.25887019933E+02  0.47787272633E+02  0.20000007242E+02 0.  0.
        -12    1    1    2    0    0  0.24453500145E+02 -0.24809507566E+02 -0.25887019933E+02  0.43400727367E+02  0.00000000000E+00 0.  1.
         11    1    3    3    0    0 -0.35286833369E+01  0.10265480387E+02  0.73392915289E+01  0.13103316148E+02  0.51100000000E-03 0. -1.
        -11    1    3    3    0    0 -0.22599402002E+02  0.14141377634E+02  0.19188008954E+02  0.32846479570E+02  0.51100000000E-03 0.  1.
        -12    1    3    3    0    0  0.16745851944E+01  0.40264954399E+00 -0.64028054976E+00  0.18374769144E+01  0.00000000000E+00 0.  1.
</event>
<event>
 7    1  0.3807360E-011  0.4778727E+02  0.7816164E-02  0.1312668E+00
        -11   -1    0    0    0    0  0.00000000000E+00  0.00000000000E+00  0.45593999997E+02  0.45594000000E+02  0.51100000000E-03 0. -1.
         11   -1    0    0    0    0 -0.00000000000E+00 -0.00000000000E+00 -0.45593999997E+02  0.45594000000E+02  0.51100000000E-03 0.  1.
    9900012    2    1    2    0    0  0.37713124538E+02 -0.21153446564E+02  0.37249246222E+01  0.47787272732E+02  0.20000007696E+02 0.  0.
        -12    1    1    2    0    0 -0.37713124538E+02  0.21153446564E+02 -0.37249246222E+01  0.43400727268E+02  0.00000000000E+00 0.  1.
         11    1    3    3    0    0  0.25026132114E+02 -0.16203598238E+02 -0.23606316380E+01  0.29907130696E+02  0.51100000000E-03 0. -1.
        -11    1    3    3    0    0  0.13276974280E+02 -0.16120579042E+01  0.42978879963E+01  0.14048082368E+02  0.51100000000E-03 0.  1.
         12    1    3    3    0    0 -0.58998185637E+00 -0.33377904212E+01  0.17876682639E+01  0.38320596692E+01  0.00000000000E+00 0. -1.
</event>
<event>
 7    1  0.3807360E-011  0.4778722E+02  0.7816164E-02  0.1312668E+00
        -11   -1    0    0    0    0  0.00000000000E+00  0.00000000000E+00  0.45593999997E+02  0.45594000000E+02  0.51100000000E-03 0.  1.
         11   -1    0    0    0    0 -0.00000000000E+00 -0.00000000000E+00 -0.45593999997E+02  0.45594000000E+02  0.51100000000E-03 0. -1.
    9900012    2    1    2    0    0  0.33471650790E+01  0.38187894231E+02 -0.20349656684E+02  0.47787224581E+02  0.19999788153E+02 0.  0.
         12    1    1    2    0    0 -0.33471650790E+01 -0.38187894231E+02  0.20349656684E+02  0.43400775419E+02  0.00000000000E+00 0. -1.
         11    1    3    3    0    0 -0.56849307839E+01  0.16039256870E+02 -0.97962057998E+01  0.19635219563E+02  0.51100000000E-03 0. -1.
        -11    1    3    3    0    0  0.46169498611E+01  0.95315382585E+01 -0.10312957904E+02  0.14782542020E+02  0.51100000000E-03 0.  1.
         12    1    3    3    0    0  0.44151460018E+01  0.12617099102E+02 -0.24049298027E+00  0.13369462998E+02  0.00000000000E+00 0. -1.
</event>
<event>
 7    1  0.3807360E-011  0.4778727E+02  0.7816164E-02  0.1312668E+00
        -11   -1    0    0    0    0  0.00000000000E+00  0.00000000000E+00  0.45593999997E+02  0.45594000000E+02  0.51100000000E-03 0. -1.
         11   -1    0    0    0    0 -0.00000000000E+00 -0.00000000000E+00 -0.45593999997E+02  0.45594000000E+02  0.51100000000E-03 0.  1.
    9900012    2    1    2    0    0  0.27208456657E+01 -0.22922770470E+02  0.36752782258E+02  0.47787269466E+02  0.19999992805E+02 0.  0.
        -12    1    1    2    0    0 -0.27208456657E+01  0.22922770470E+02 -0.36752782258E+02  0.43400730534E+02  0.00000000000E+00 0.  1.
         11    1    3    3    0    0  0.40612475646E+01 -0.36857652562E+01  0.93272788358E+01  0.10820200000E+02  0.51100000000E-03 0. -1.
        -11    1    3    3    0    0  0.47228647060E+01 -0.27178195508E+01  0.15321873001E+01  0.56603526680E+01  0.51100000000E-03 0.  1.
         12    1    3    3    0    0 -0.60632666049E+01 -0.16519185663E+02  0.25893316122E+02  0.31306716798E+02  0.00000000000E+00 0. -1.
</event>
<event>
 7    1  0.3807360E-011  0.4778728E+02  0.7816164E-02  0.1312668E+00
        -11   -1    0    0    0    0  0.00000000000E+00  0.00000000000E+00  0.45593999997E+02  0.45594000000E+02  0.51100000000E-03 0. -1.
         11   -1    0    0    0    0 -0.00000000000E+00 -0.00000000000E+00 -0.45593999997E+02  0.45594000000E+02  0.51100000000E-03 0.  1.
    9900012    2    1    2    0    0  0.33707746560E+01  0.15314458941E+02  0.40468846220E+02  0.47787282393E+02  0.20000051742E+02 0.  0.
        -12    1    1    2    0    0 -0.33707746560E+01 -0.15314458941E+02 -0.40468846220E+02  0.43400717607E+02  0.00000000000E+00 0.  1.
         11    1    3    3    0    0  0.25251768987E+01  0.78617153449E+01  0.26814611281E+01  0.86817809565E+01  0.51100000000E-03 0. -1.
        -11    1    3    3    0    0 -0.27222250984E+01  0.14520707359E+01  0.11830542270E+02  0.12226232027E+02  0.51100000000E-03 0.  1.
         12    1    3    3    0    0  0.35678228556E+01  0.60006728601E+01  0.25956842822E+02  0.26879269410E+02  0.00000000000E+00 0. -1.
</event>
<event>
 7    1  0.3807360E-011  0.4778727E+02  0.7816164E-02  0.1312668E+00
        -11   -1    0    0    0    0  0.00000000000E+00  0.00000000000E+00  0.45593999997E+02  0.45594000000E+02  0.51100000000E-03 0. -1.
         11   -1    0    0    0    0 -0.00000000000E+00 -0.00000000000E+00 -0.45593999997E+02  0.45594000000E+02  0.51100000000E-03 0.  1.
    9900012    2    1    2    0    0 -0.23354627238E+02  0.59508816457E+01 -0.36093928680E+02  0.47787270820E+02  0.19999998978E+02 0.  0.
         12    1    1    2    0    0  0.23354627238E+02 -0.59508816457E+01  0.36093928680E+02  0.43400729180E+02  0.00000000000E+00 0. -1.
         11    1    3    3    0    0  0.23896891946E+01  0.15965541475E+01 -0.62370566720E+00  0.29408516816E+01  0.51100000000E-03 0. -1.
        -11    1    3    3    0    0 -0.96554684247E+01  0.57803318960E+01 -0.15713395988E+02  0.19327470633E+02  0.51100000000E-03 0.  1.
        -12    1    3    3    0    0 -0.16088848007E+02 -0.14260043978E+01 -0.19756827025E+02  0.25518948506E+02  0.00000000000E+00 0.  1.
</event>
<event>
 7    1  0.3807360E-011  0.4778727E+02  0.7816164E-02  0.1312668E+00
        -11   -1    0    0    0    0  0.00000000000E+00  0.00000000000E+00  0.45593999997E+02  0.45594000000E+02  0.51100000000E-03 0. -1.
         11   -1    0    0    0    0 -0.00000000000E+00 -0.00000000000E+00 -0.45593999997E+02  0.45594000000E+02  0.51100000000E-03 0.  1.
    9900012    2    1    2    0    0  0.27505301261E+02  0.75343412345E+01 -0.32715673474E+02  0.47787272055E+02  0.20000004608E+02 0.  0.
         12    1    1    2    0    0 -0.27505301261E+02 -0.75343412345E+01  0.32715673474E+02  0.43400727945E+02  0.00000000000E+00 0. -1.
         11    1    3    3    0    0  0.10957465676E+01 -0.27288763411E+01  0.76290674398E+00  0.30380015778E+01  0.51100000000E-03 0. -1.
        -11    1    3    3    0    0  0.78011246349E+01  0.73419866886E+01 -0.14299406318E+02  0.17867158012E+02  0.51100000000E-03 0.  1.
        -12    1    3    3    0    0  0.18608430058E+02  0.29212308870E+01 -0.19179173900E+02  0.26882112465E+02  0.00000000000E+00 0.  1.
</event>
<event>
 7    1  0.3807360E-011  0.4778727E+02  0.7816164E-02  0.1312668E+00
        -11   -1    0    0    0    0  0.00000000000E+00  0.00000000000E+00  0.45593999997E+02  0.45594000000E+02  0.51100000000E-03 0. -1.
         11   -1    0    0    0    0 -0.00000000000E+00 -0.00000000000E+00 -0.45593999997E+02  0.45594000000E+02  0.51100000000E-03 0.  1.
    9900012    2    1    2    0    0  0.26307649570E+02  0.68576069915E+01  0.33830521515E+02  0.47787269758E+02  0.19999994137E+02 0.  0.
        -12    1    1    2    0    0 -0.26307649570E+02 -0.68576069915E+01 -0.33830521515E+02  0.43400730242E+02  0.00000000000E+00 0.  1.
         11    1    3    3    0    0  0.98942278337E+00 -0.26389454200E+01  0.54524861971E+01  0.61378006130E+01  0.51100000000E-03 0. -1.
        -11    1    3    3    0    0  0.15447735018E+02 -0.15047748688E+01  0.16817930704E+02  0.22885359032E+02  0.51100000000E-03 0.  1.
         12    1    3    3    0    0  0.98704917689E+01  0.11001327280E+02  0.11560104614E+02  0.18764110114E+02  0.00000000000E+00 0. -1.
</event>
<event>
 7    1  0.3807360E-011  0.4778727E+02  0.7816164E-02  0.1312668E+00
        -11   -1    0    0    0    0  0.00000000000E+00  0.00000000000E+00  0.45593999997E+02  0.45594000000E+02  0.51100000000E-03 0. -1.
         11   -1    0    0    0    0 -0.00000000000E+00 -0.00000000000E+00 -0.45593999997E+02  0.45594000000E+02  0.51100000000E-03 0.  1.
    9900012    2    1    2    0    0  0.16065868399E+02  0.49348998488E+01  0.40014472643E+02  0.47787269766E+02  0.19999994172E+02 0.  0.
        -12    1    1    2    0    0 -0.16065868399E+02 -0.49348998488E+01 -0.40014472643E+02  0.43400730234E+02  0.00000000000E+00 0.  1.
         11    1    3    3    0    0  0.66616336717E-01  0.23339386445E+01  0.11320751215E+02  0.11559027453E+02  0.51100000000E-03 0. -1.
        -11    1    3    3    0    0  0.58376944695E+01 -0.24941218146E+01  0.11775071965E+01  0.64564575275E+01  0.51100000000E-03 0.  1.
         12    1    3    3    0    0  0.10161557593E+02  0.50950830188E+01  0.27516214231E+02  0.29771784785E+02  0.00000000000E+00 0. -1.
</event>
<event>
 7    1  0.3807360E-011  0.4778727E+02  0.7816164E-02  0.1312668E+00
        -11   -1    0    0    0    0  0.00000000000E+00  0.00000000000E+00  0.45593999997E+02  0.45594000000E+02  0.51100000000E-03 0. -1.
         11   -1    0    0    0    0 -0.00000000000E+00 -0.00000000000E+00 -0.45593999997E+02  0.45594000000E+02  0.51100000000E-03 0.  1.
    9900012    2    1    2    0    0 -0.74630753600E+01  0.37636212254E+01 -0.42588272247E+02  0.47787271071E+02  0.20000000123E+02 0.  0.
         12    1    1    2    0    0  0.74630753600E+01 -0.37636212254E+01  0.42588272247E+02  0.43400728929E+02  0.00000000000E+00 0. -1.
         11    1    3    3    0    0 -0.65111538231E+01  0.13290335719E+01 -0.32191927882E+01  0.73840813113E+01  0.51100000000E-03 0. -1.
        -11    1    3    3    0    0  0.18240798369E+01 -0.25147146036E+01 -0.93538236643E+01  0.98562200763E+01  0.51100000000E-03 0.  1.
        -12    1    3    3    0    0 -0.27760013737E+01  0.49493022570E+01 -0.30015255794E+02  0.30546969684E+02  0.00000000000E+00 0.  1.
</event>
<event>
 7    1  0.3807360E-011  0.4778727E+02  0.7816164E-02  0.1312668E+00
        -11   -1    0    0    0    0  0.00000000000E+00  0.00000000000E+00  0.45593999997E+02  0.45594000000E+02  0.51100000000E-03 0. -1.
         11   -1    0    0    0    0 -0.00000000000E+00 -0.00000000000E+00 -0.45593999997E+02  0.45594000000E+02  0.51100000000E-03 0.  1.
    9900012    2    1    2    0    0 -0.93264272395E+00  0.40039664850E+02 -0.16720615938E+02  0.47787267505E+02  0.19999983862E+02 0.  0.
         12    1    1    2    0    0  0.93264272395E+00 -0.40039664850E+02  0.16720615938E+02  0.43400732495E+02  0.00000000000E+00 0. -1.
         11    1    3    3    0    0  0.13457408383E+01 -0.56335555756E+00 -0.32673688562E+01  0.35782799488E+01  0.51100000000E-03 0. -1.
        -11    1    3    3    0    0 -0.41765546546E+01  0.14832412558E+02 -0.78213380885E+00  0.15429057153E+02  0.51100000000E-03 0.  1.
        -12    1    3    3    0    0  0.18981710924E+01  0.25770607849E+02 -0.12671113273E+02  0.28779930403E+02  0.00000000000E+00 0.  1.
</event>
<event>
 7    1  0.3807360E-011  0.4778727E+02  0.7816164E-02  0.1312668E+00
        -11   -1    0    0    0    0  0.00000000000E+00  0.00000000000E+00  0.45593999997E+02  0.45594000000E+02  0.51100000000E-03 0. -1.
         11   -1    0    0    0    0 -0.00000000000E+00 -0.00000000000E+00 -0.45593999997E+02  0.45594000000E+02  0.51100000000E-03 0.  1.
    9900012    2    1    2    0    0 -0.41862076415E+02  0.10168759420E+02 -0.52712411373E+01  0.47787273127E+02  0.20000009497E+02 0.  0.
         12    1    1    2    0    0  0.41862076415E+02 -0.10168759420E+02  0.52712411373E+01  0.43400726873E+02  0.00000000000E+00 0. -1.
         11    1    3    3    0    0 -0.18608317358E+02 -0.12009146042E+00 -0.43242143267E+01  0.19104521106E+02  0.51100000000E-03 0. -1.
        -11    1    3    3    0    0 -0.12347191391E+02  0.23026118796E+01  0.54936161185E+01  0.13708937779E+02  0.51100000000E-03 0.  1.
         12    1    3    3    0    0 -0.10906567665E+02  0.79862390013E+01 -0.64406429291E+01  0.14973814242E+02  0.00000000000E+00 0. -1.
</event>
<event>
 7    1  0.3807360E-011  0.4778727E+02  0.7816164E-02  0.1312668E+00
        -11   -1    0    0    0    0  0.00000000000E+00  0.00000000000E+00  0.45593999997E+02  0.45594000000E+02  0.51100000000E-03 0. -1.
         11   -1    0    0    0    0 -0.00000000000E+00 -0.00000000000E+00 -0.45593999997E+02  0.45594000000E+02  0.51100000000E-03 0.  1.
    9900012    2    1    2    0    0  0.12381214988E+02 -0.39446635336E+02  0.13201950813E+02  0.47787273863E+02  0.20000012850E+02 0.  0.
        -12    1    1    2    0    0 -0.12381214988E+02  0.39446635336E+02 -0.13201950813E+02  0.43400726137E+02  0.00000000000E+00 0.  1.
         11    1    3    3    0    0  0.86638478496E+00 -0.15905869619E+02  0.10309110228E+02  0.18974326467E+02  0.51100000000E-03 0. -1.
        -11    1    3    3    0    0  0.11169291243E+02 -0.10149662644E+02  0.31395919618E+01  0.15415114550E+02  0.51100000000E-03 0.  1.
         12    1    3    3    0    0  0.34553896021E+00 -0.13391103074E+02 -0.24675137678E+00  0.13397832845E+02  0.00000000000E+00 0. -1.
</event>
<event>
 7    1  0.3807360E-011  0.4778727E+02  0.7816164E-02  0.1312668E+00
        -11   -1    0    0    0    0  0.00000000000E+00  0.00000000000E+00  0.45593999997E+02  0.45594000000E+02  0.51100000000E-03 0. -1.
         11   -1    0    0    0    0 -0.00000000000E+00 -0.00000000000E+00 -0.45593999997E+02  0.45594000000E+02  0.51100000000E-03 0.  1.
    9900012    2    1    2    0    0 -0.14411609868E+02  0.16050415997E+02  0.37660496511E+02  0.47787270166E+02  0.19999995995E+02 0.  0.
        -12    1    1    2    0    0  0.14411609868E+02 -0.16050415997E+02 -0.37660496511E+02  0.43400729834E+02  0.00000000000E+00 0.  1.
         11    1    3    3    0    0 -0.82317600379E+01  0.68015203700E+01  0.11023032994E+02  0.15346980463E+02  0.51100000000E-03 0. -1.
        -11    1    3    3    0    0  0.25147188020E+01  0.92346128258E+01  0.16593407008E+02  0.19155757388E+02  0.51100000000E-03 0.  1.
        -12    1    3    3    0    0 -0.86945686322E+01  0.14282801325E-01  0.10044056508E+02  0.13284532316E+02  0.00000000000E+00 0.  1.
</event>
<event>
 7    1  0.3807360E-011  0.4778727E+02  0.7816164E-02  0.1312668E+00
        -11   -1    0    0    0    0  0.00000000000E+00  0.00000000000E+00  0.45593999997E+02  0.45594000000E+02  0.51100000000E-03 0. -1.
         11   -1    0    0    0    0 -0.00000000000E+00 -0.00000000000E+00 -0.45593999997E+02  0.45594000000E+02  0.51100000000E-03 0.  1.
    9900012    2    1    2    0    0  0.15620027401E+02  0.28786590608E+02  0.28477535423E+02  0.47787273294E+02  0.20000010254E+02 0.  0.
        -12    1    1    2    0    0 -0.15620027401E+02 -0.28786590608E+02 -0.28477535423E+02  0.43400726706E+02  0.00000000000E+00 0.  1.
         11    1    3    3    0    0 -0.14812494837E+00  0.10840615946E+02  0.10560965894E+02  0.15135220380E+02  0.51100000000E-03 0. -1.
        -11    1    3    3    0    0  0.84165476876E+01  0.14405699933E+02  0.50778540254E+01  0.17439812708E+02  0.51100000000E-03 0.  1.
         12    1    3    3    0    0  0.73516046616E+01  0.35402747298E+01  0.12838715504E+02  0.15212240205E+02  0.00000000000E+00 0. -1.
</event>
<event>
 7    1  0.3807360E-011  0.4778727E+02  0.7816164E-02  0.1312668E+00
        -11   -1    0    0    0    0  0.00000000000E+00  0.00000000000E+00  0.45593999997E+02  0.45594000000E+02  0.51100000000E-03 0. -1.
         11   -1    0    0    0    0 -0.00000000000E+00 -0.00000000000E+00 -0.45593999997E+02  0.45594000000E+02  0.51100000000E-03 0.  1.
    9900012    2    1    2    0    0 -0.22945619441E+02  0.73142183182E+01  0.36105738473E+02  0.47787267381E+02  0.19999983298E+02 0.  0.
        -12    1    1    2    0    0  0.22945619441E+02 -0.73142183182E+01 -0.36105738473E+02  0.43400732619E+02  0.00000000000E+00 0.  1.
         11    1    3    3    0    0 -0.70235459989E+01  0.79838212088E+01  0.83072603318E+01  0.13493782790E+02  0.51100000000E-03 0. -1.
        -11    1    3    3    0    0  0.12394006693E+01 -0.25318045298E+01  0.37890920708E+01  0.47226440876E+01  0.51100000000E-03 0.  1.
         12    1    3    3    0    0 -0.17161474111E+02  0.18622016392E+01  0.24009386071E+02  0.29570840504E+02  0.00000000000E+00 0. -1.
</event>
<event>
 7    1  0.3807360E-011  0.4778722E+02  0.7816164E-02  0.1312668E+00
        -11   -1    0    0    0    0  0.00000000000E+00  0.00000000000E+00  0.45593999997E+02  0.45594000000E+02  0.51100000000E-03 0. -1.
         11   -1    0    0    0    0 -0.00000000000E+00 -0.00000000000E+00 -0.45593999997E+02  0.45594000000E+02  0.51100000000E-03 0.  1.
    9900012    2    1    2    0    0  0.84722583934E+01 -0.18735433839E+02 -0.38220828636E+02  0.47787223682E+02  0.19999784053E+02 0.  0.
         12    1    1    2    0    0 -0.84722583934E+01  0.18735433839E+02  0.38220828636E+02  0.43400776318E+02  0.00000000000E+00 0. -1.
         11    1    3    3    0    0  0.84076259813E+01 -0.12427125065E+02 -0.16112445102E+02  0.22016641421E+02  0.51100000000E-03 0.  1.
        -11    1    3    3    0    0 -0.20796833074E+01  0.11106294325E+01 -0.57668087879E-02  0.23576712902E+01  0.51100000000E-03 0. -1.
         12    1    3    3    0    0  0.21443157195E+01 -0.74189382060E+01 -0.22102616725E+02  0.23412910971E+02  0.00000000000E+00 0. -1.
</event>
<event>
 7    1  0.3807360E-011  0.4778728E+02  0.7816164E-02  0.1312668E+00
        -11   -1    0    0    0    0  0.00000000000E+00  0.00000000000E+00  0.45593999997E+02  0.45594000000E+02  0.51100000000E-03 0. -1.
         11   -1    0    0    0    0 -0.00000000000E+00 -0.00000000000E+00 -0.45593999997E+02  0.45594000000E+02  0.51100000000E-03 0.  1.
    9900012    2    1    2    0    0  0.42000086407E+01 -0.27038122751E+02  0.33688613531E+02  0.47787276087E+02  0.20000022992E+02 0.  0.
        -12    1    1    2    0    0 -0.42000086407E+01  0.27038122751E+02 -0.33688613531E+02  0.43400723913E+02  0.00000000000E+00 0.  1.
         11    1    3    3    0    0 -0.38963512783E+01 -0.80094855813E+01  0.16885541110E+02  0.19090702224E+02  0.51100000000E-03 0. -1.
        -11    1    3    3    0    0  0.67788995148E+01 -0.36328742804E+01  0.69829097939E+01  0.10388083732E+02  0.51100000000E-03 0.  1.
        -12    1    3    3    0    0  0.13174604042E+01 -0.15395762890E+02  0.98201626270E+01  0.18308490131E+02  0.00000000000E+00 0.  1.
</event>
<event>
 7    1  0.3807360E-011  0.4778727E+02  0.7816164E-02  0.1312668E+00
        -11   -1    0    0    0    0  0.00000000000E+00  0.00000000000E+00  0.45593999997E+02  0.45594000000E+02  0.51100000000E-03 0. -1.
         11   -1    0    0    0    0 -0.00000000000E+00 -0.00000000000E+00 -0.45593999997E+02  0.45594000000E+02  0.51100000000E-03 0.  1.
    9900012    2    1    2    0    0  0.55670429453E+00 -0.32771584946E+02  0.28448838548E+02  0.47787272883E+02  0.20000008381E+02 0.  0.
        -12    1    1    2    0    0 -0.55670429453E+00  0.32771584946E+02 -0.28448838548E+02  0.43400727117E+02  0.00000000000E+00 0.  1.
         11    1    3    3    0    0  0.10100203422E+01 -0.38626686269E+01 -0.11635928254E+01  0.41586414292E+01  0.51100000000E-03 0. -1.
        -11    1    3    3    0    0  0.32448484932E+01 -0.79055954096E+00  0.13873337018E+01  0.36164514642E+01  0.51100000000E-03 0.  1.
         12    1    3    3    0    0 -0.36981645409E+01 -0.28118356779E+02  0.28225097672E+02  0.40012179989E+02  0.00000000000E+00 0. -1.
</event>
<event>
 7    1  0.3978911E-011  0.4778727E+02  0.7816164E-02  0.1312668E+00
        -11   -1    0    0    0    0  0.00000000000E+00  0.00000000000E+00  0.45593999997E+02  0.45594000000E+02  0.51100000000E-03 0. -1.
         11   -1    0    0    0    0 -0.00000000000E+00 -0.00000000000E+00 -0.45593999997E+02  0.45594000000E+02  0.51100000000E-03 0.  1.
    9900012    2    1    2    0    0  0.26256782812E+01  0.15562186942E+02 -0.40429535615E+02  0.47787271909E+02  0.20000003941E+02 0.  0.
         12    1    1    2    0    0 -0.26256782812E+01 -0.15562186942E+02  0.40429535615E+02  0.43400728091E+02  0.00000000000E+00 0. -1.
         11    1    3    3    0    0 -0.41638377519E+01  0.20015154617E+01 -0.15780977454E+01  0.48820079602E+01  0.51100000000E-03 0. -1.
        -11    1    3    3    0    0  0.14454499337E+00  0.22210211567E+01 -0.18793057535E+02  0.18924398009E+02  0.51100000000E-03 0.  1.
         12    1    3    3    0    0  0.66449710398E+01  0.11339650323E+02 -0.20058380335E+02  0.23980865940E+02  0.00000000000E+00 0. -1.
</event>
<event>
 7    1  0.3807360E-011  0.4778727E+02  0.7816164E-02  0.1312668E+00
        -11   -1    0    0    0    0  0.00000000000E+00  0.00000000000E+00  0.45593999997E+02  0.45594000000E+02  0.51100000000E-03 0. -1.
         11   -1    0    0    0    0 -0.00000000000E+00 -0.00000000000E+00 -0.45593999997E+02  0.45594000000E+02  0.51100000000E-03 0.  1.
    9900012    2    1    2    0    0  0.11768534002E+02 -0.31376518616E+02  0.27579684031E+02  0.47787270925E+02  0.19999999454E+02 0.  0.
        -12    1    1    2    0    0 -0.11768534002E+02  0.31376518616E+02 -0.27579684031E+02  0.43400729075E+02  0.00000000000E+00 0.  1.
         11    1    3    3    0    0  0.30156011831E+01 -0.13681417445E+02  0.53638477606E+01  0.15001529818E+02  0.51100000000E-03 0. -1.
        -11    1    3    3    0    0  0.80884998053E+01 -0.15736070964E+02  0.98542433276E+01  0.20252255931E+02  0.51100000000E-03 0.  1.
        -12    1    3    3    0    0  0.66443301391E+00 -0.19590302074E+01  0.12361592942E+02  0.12533485176E+02  0.00000000000E+00 0.  1.
</event>
<event>
 7    1  0.3807360E-011  0.4778725E+02  0.7816164E-02  0.1312668E+00
        -11   -1    0    0    0    0  0.00000000000E+00  0.00000000000E+00  0.45593999997E+02  0.45594000000E+02  0.51100000000E-03 0.  1.
         11   -1    0    0    0    0 -0.00000000000E+00 -0.00000000000E+00 -0.45593999997E+02  0.45594000000E+02  0.51100000000E-03 0. -1.
    9900012    2    1    2    0    0 -0.23456075248E+02 -0.34163346324E+02  0.12895855739E+02  0.47787253539E+02  0.19999920186E+02 0.  0.
         12    1    1    2    0    0  0.23456075248E+02  0.34163346324E+02 -0.12895855739E+02  0.43400746461E+02  0.00000000000E+00 0. -1.
         11    1    3    3    0    0 -0.74844017415E+01 -0.11877696572E+02  0.82266313402E+01  0.16271859413E+02  0.51100000000E-03 0.  1.
        -11    1    3    3    0    0 -0.13230433150E+01 -0.56953535747E+01 -0.46804926334E+01  0.74896266600E+01  0.51100000000E-03 0. -1.
         12    1    3    3    0    0 -0.14648630192E+02 -0.16590296177E+02  0.93497170317E+01  0.24025767466E+02  0.00000000000E+00 0. -1.
</event>
<event>
 7    1  0.3807360E-011  0.4778727E+02  0.7816164E-02  0.1312668E+00
        -11   -1    0    0    0    0  0.00000000000E+00  0.00000000000E+00  0.45593999997E+02  0.45594000000E+02  0.51100000000E-03 0. -1.
         11   -1    0    0    0    0 -0.00000000000E+00 -0.00000000000E+00 -0.45593999997E+02  0.45594000000E+02  0.51100000000E-03 0.  1.
    9900012    2    1    2    0    0  0.39918801600E+02  0.28558466361E+01 -0.16791568675E+02  0.47787270055E+02  0.19999995491E+02 0.  0.
         12    1    1    2    0    0 -0.39918801600E+02 -0.28558466361E+01  0.16791568675E+02  0.43400729945E+02  0.00000000000E+00 0. -1.
         11    1    3    3    0    0  0.42231294782E+01 -0.98829221911E+00 -0.65691434312E+01  0.78717971125E+01  0.51100000000E-03 0.  1.
        -11    1    3    3    0    0  0.34708235635E+02  0.13685615174E+01 -0.65013966957E+01  0.35338403201E+02  0.51100000000E-03 0. -1.
         12    1    3    3    0    0  0.98743648630E+00  0.24755773378E+01 -0.37210285476E+01  0.45770697419E+01  0.00000000000E+00 0. -1.
</event>
<event>
 7    1  0.3807360E-011  0.4778727E+02  0.7816164E-02  0.1312668E+00
        -11   -1    0    0    0    0  0.00000000000E+00  0.00000000000E+00  0.45593999997E+02  0.45594000000E+02  0.51100000000E-03 0. -1.
         11   -1    0    0    0    0 -0.00000000000E+00 -0.00000000000E+00 -0.45593999997E+02  0.45594000000E+02  0.51100000000E-03 0.  1.
    9900012    2    1    2    0    0  0.22118168751E+02 -0.14189017408E+02 -0.34541012138E+02  0.47787272778E+02  0.20000007904E+02 0.  0.
         12    1    1    2    0    0 -0.22118168751E+02  0.14189017408E+02  0.34541012138E+02  0.43400727222E+02  0.00000000000E+00 0. -1.
         11    1    3    3    0    0  0.71972238029E+01 -0.95684988643E+01 -0.20170923437E+02  0.23456818913E+02  0.51100000000E-03 0. -1.
        -11    1    3    3    0    0  0.16460081088E+02 -0.20557722181E+01 -0.12799619311E+02  0.20952105469E+02  0.51100000000E-03 0.  1.
         12    1    3    3    0    0 -0.15391361400E+01 -0.25647463258E+01 -0.15704693903E+01  0.33783483951E+01  0.00000000000E+00 0. -1.
</event>
<event>
 7    1  0.3807360E-011  0.4778727E+02  0.7816164E-02  0.1312668E+00
        -11   -1    0    0    0    0  0.00000000000E+00  0.00000000000E+00  0.45593999997E+02  0.45594000000E+02  0.51100000000E-03 0. -1.
         11   -1    0    0    0    0 -0.00000000000E+00 -0.00000000000E+00 -0.45593999997E+02  0.45594000000E+02  0.51100000000E-03 0.  1.
    9900012    2    1    2    0    0 -0.19956843027E+02  0.11996240974E+02  0.36625646936E+02  0.47787269653E+02  0.19999993657E+02 0.  0.
        -12    1    1    2    0    0  0.19956843027E+02 -0.11996240974E+02 -0.36625646936E+02  0.43400730347E+02  0.00000000000E+00 0.  1.
         11    1    3    3    0    0  0.19230487423E+01 -0.21583995233E+01  0.23026836834E+01  0.36958297275E+01  0.51100000000E-03 0. -1.
        -11    1    3    3    0    0 -0.11244760326E+02  0.19244152923E+01  0.15629571060E+02  0.19350232577E+02  0.51100000000E-03 0.  1.
        -12    1    3    3    0    0 -0.10635131444E+02  0.12230225205E+02  0.18693392193E+02  0.24741207349E+02  0.00000000000E+00 0.  1.
</event>
<event>
 7    1  0.3807360E-011  0.4778727E+02  0.7816164E-02  0.1312668E+00
        -11   -1    0    0    0    0  0.00000000000E+00  0.00000000000E+00  0.45593999997E+02  0.45594000000E+02  0.51100000000E-03 0.  1.
         11   -1    0    0    0    0 -0.00000000000E+00 -0.00000000000E+00 -0.45593999997E+02  0.45594000000E+02  0.51100000000E-03 0. -1.
    9900012    2    1    2    0    0  0.39293738819E+02  0.14266754175E+02 -0.11665552699E+02  0.47787270688E+02  0.19999998373E+02 0.  0.
        -12    1    1    2    0    0 -0.39293738819E+02 -0.14266754175E+02  0.11665552699E+02  0.43400729312E+02  0.00000000000E+00 0.  1.
         11    1    3    3    0    0  0.16454343794E+02  0.24826541253E+00 -0.37994430323E+01  0.16889133578E+02  0.51100000000E-03 0. -1.
        -11    1    3    3    0    0  0.96097722026E+01  0.31409283535E+00  0.13990373033E+01  0.97161557074E+01  0.51100000000E-03 0.  1.
         12    1    3    3    0    0  0.13229622823E+02  0.13704395927E+02 -0.92651469701E+01  0.21181981402E+02  0.00000000000E+00 0. -1.
</event>
<event>
 7    1  0.3807360E-011  0.4778727E+02  0.7816164E-02  0.1312668E+00
        -11   -1    0    0    0    0  0.00000000000E+00  0.00000000000E+00  0.45593999997E+02  0.45594000000E+02  0.51100000000E-03 0.  1.
         11   -1    0    0    0    0 -0.00000000000E+00 -0.00000000000E+00 -0.45593999997E+02  0.45594000000E+02  0.51100000000E-03 0. -1.
    9900012    2    1    2    0    0  0.40089369781E+02 -0.88372289714E+01  0.14084349186E+02  0.47787273309E+02  0.20000010325E+02 0.  0.
        -12    1    1    2    0    0 -0.40089369781E+02  0.88372289714E+01 -0.14084349186E+02  0.43400726691E+02  0.00000000000E+00 0.  1.
         11    1    3    3    0    0  0.72602194671E+01  0.14536056091E+01  0.33083549542E+01  0.81098069485E+01  0.51100000000E-03 0. -1.
        -11    1    3    3    0    0  0.12882114352E+02 -0.12319923063E+02  0.25533990625E+01  0.18006921489E+02  0.51100000000E-03 0.  1.
        -12    1    3    3    0    0  0.19947035962E+02  0.20290884827E+01  0.82225951693E+01  0.21670544872E+02  0.00000000000E+00 0.  1.
</event>
<event>
 7    1  0.3807360E-011  0.4778727E+02  0.7816164E-02  0.1312668E+00
        -11   -1    0    0    0    0  0.00000000000E+00  0.00000000000E+00  0.45593999997E+02  0.45594000000E+02  0.51100000000E-03 0. -1.
         11   -1    0    0    0    0 -0.00000000000E+00 -0.00000000000E+00 -0.45593999997E+02  0.45594000000E+02  0.51100000000E-03 0.  1.
    9900012    2    1    2    0    0 -0.25563597947E+02  0.26429079257E+02 -0.23057100798E+02  0.47787266508E+02  0.19999979318E+02 0.  0.
         12    1    1    2    0    0  0.25563597947E+02 -0.26429079257E+02  0.23057100798E+02  0.43400733492E+02  0.00000000000E+00 0. -1.
         11    1    3    3    0    0  0.50487715206E+00  0.75767790479E+00 -0.65802178156E+01  0.66429092654E+01  0.51100000000E-03 0. -1.
        -11    1    3    3    0    0 -0.16507214141E+02  0.10169221457E+02 -0.70030709553E+01  0.20614174415E+02  0.51100000000E-03 0.  1.
        -12    1    3    3    0    0 -0.95612609587E+01  0.15502179895E+02 -0.94738120273E+01  0.20530182828E+02  0.00000000000E+00 0.  1.
</event>
<event>
 7    1  0.3807360E-011  0.4778727E+02  0.7816164E-02  0.1312668E+00
        -11   -1    0    0    0    0  0.00000000000E+00  0.00000000000E+00  0.45593999997E+02  0.45594000000E+02  0.51100000000E-03 0. -1.
         11   -1    0    0    0    0 -0.00000000000E+00 -0.00000000000E+00 -0.45593999997E+02  0.45594000000E+02  0.51100000000E-03 0.  1.
    9900012    2    1    2    0    0 -0.34810414721E+02 -0.14114698061E+02  0.21740135492E+02  0.47787272292E+02  0.20000005688E+02 0.  0.
        -12    1    1    2    0    0  0.34810414721E+02  0.14114698061E+02 -0.21740135492E+02  0.43400727708E+02  0.00000000000E+00 0.  1.
         11    1    3    3    0    0 -0.19012617337E+02  0.22250620518E+01  0.85865709715E+01  0.20979983805E+02  0.51100000000E-03 0. -1.
        -11    1    3    3    0    0 -0.10702363293E+02 -0.92248554293E+01  0.54355229297E+01  0.15138806014E+02  0.51100000000E-03 0.  1.
        -12    1    3    3    0    0 -0.50954340899E+01 -0.71149046835E+01  0.77180415906E+01  0.11668482473E+02  0.00000000000E+00 0.  1.
</event>
<event>
 7    1  0.3807360E-011  0.4778727E+02  0.7816164E-02  0.1312668E+00
        -11   -1    0    0    0    0  0.00000000000E+00  0.00000000000E+00  0.45593999997E+02  0.45594000000E+02  0.51100000000E-03 0.  1.
         11   -1    0    0    0    0 -0.00000000000E+00 -0.00000000000E+00 -0.45593999997E+02  0.45594000000E+02  0.51100000000E-03 0. -1.
    9900012    2    1    2    0    0  0.18520425925E+02  0.26475081173E+01  0.39161303437E+02  0.47787272327E+02  0.20000005847E+02 0.  0.
        -12    1    1    2    0    0 -0.18520425925E+02 -0.26475081173E+01 -0.39161303437E+02  0.43400727673E+02  0.00000000000E+00 0.  1.
         11    1    3    3    0    0 -0.38226986631E+00 -0.13426402470E+01  0.19247398114E+02  0.19297957081E+02  0.51100000000E-03 0.  1.
        -11    1    3    3    0    0  0.11286868192E+02 -0.51868566228E+00  0.90480687853E+01  0.14475150342E+02  0.51100000000E-03 0. -1.
        -12    1    3    3    0    0  0.76158275991E+01  0.45088340265E+01  0.10865836537E+02  0.14014164904E+02  0.00000000000E+00 0.  1.
</event>
<event>
 7    1  0.3807360E-011  0.4778727E+02  0.7816164E-02  0.1312668E+00
        -11   -1    0    0    0    0  0.00000000000E+00  0.00000000000E+00  0.45593999997E+02  0.45594000000E+02  0.51100000000E-03 0. -1.
         11   -1    0    0    0    0 -0.00000000000E+00 -0.00000000000E+00 -0.45593999997E+02  0.45594000000E+02  0.51100000000E-03 0.  1.
    9900012    2    1    2    0    0  0.35033769949E+02 -0.14802951299E+02 -0.20907671513E+02  0.47787272678E+02  0.20000007448E+02 0.  0.
         12    1    1    2    0    0 -0.35033769949E+02  0.14802951299E+02  0.20907671513E+02  0.43400727322E+02  0.00000000000E+00 0. -1.
         11    1    3    3    0    0  0.14237601772E+02 -0.20253599081E+00 -0.16520789310E+02  0.21810245408E+02  0.51100000000E-03 0. -1.
        -11    1    3    3    0    0  0.68551416067E+01 -0.62026983536E+01 -0.26050714754E+01  0.96048337292E+01  0.51100000000E-03 0.  1.
         12    1    3    3    0    0  0.13941026570E+02 -0.83977169542E+01 -0.17818107270E+01  0.16372193541E+02  0.00000000000E+00 0. -1.
</event>
<event>
 7    1  0.3807360E-011  0.4778728E+02  0.7816164E-02  0.1312668E+00
        -11   -1    0    0    0    0  0.00000000000E+00  0.00000000000E+00  0.45593999997E+02  0.45594000000E+02  0.51100000000E-03 0.  1.
         11   -1    0    0    0    0 -0.00000000000E+00 -0.00000000000E+00 -0.45593999997E+02  0.45594000000E+02  0.51100000000E-03 0. -1.
    9900012    2    1    2    0    0 -0.42881981207E+01 -0.43097729085E+02  0.27964255531E+01  0.47787275453E+02  0.20000020098E+02 0.  0.
         12    1    1    2    0    0  0.42881981207E+01  0.43097729085E+02 -0.27964255531E+01  0.43400724547E+02  0.00000000000E+00 0. -1.
         11    1    3    3    0    0 -0.27335981226E+01 -0.38087153240E+01 -0.43692788332E+01  0.64085465512E+01  0.51100000000E-03 0. -1.
        -11    1    3    3    0    0  0.21600792997E+00 -0.27796973901E+02  0.14941387387E+00  0.27798214732E+02  0.51100000000E-03 0.  1.
        -12    1    3    3    0    0 -0.17706079281E+01 -0.11492039859E+02  0.70162905124E+01  0.13580514170E+02  0.00000000000E+00 0.  1.
</event>
<event>
 7    1  0.3807360E-011  0.4778727E+02  0.7816164E-02  0.1312668E+00
        -11   -1    0    0    0    0  0.00000000000E+00  0.00000000000E+00  0.45593999997E+02  0.45594000000E+02  0.51100000000E-03 0. -1.
         11   -1    0    0    0    0 -0.00000000000E+00 -0.00000000000E+00 -0.45593999997E+02  0.45594000000E+02  0.51100000000E-03 0.  1.
    9900012    2    1    2    0    0 -0.15804487283E+02 -0.14106757879E+02  0.37879290156E+02  0.47787273522E+02  0.20000011295E+02 0.  0.
        -12    1    1    2    0    0  0.15804487283E+02  0.14106757879E+02 -0.37879290156E+02  0.43400726478E+02  0.00000000000E+00 0.  1.
         11    1    3    3    0    0 -0.64230416747E+01 -0.99858531957E+01  0.12108798443E+02  0.16958647600E+02  0.51100000000E-03 0. -1.
        -11    1    3    3    0    0  0.32660862086E+01  0.33461656088E-01  0.29101777037E+01  0.43746512241E+01  0.51100000000E-03 0.  1.
         12    1    3    3    0    0 -0.12647531817E+02 -0.41543663395E+01  0.22860314008E+02  0.26453974698E+02  0.00000000000E+00 0. -1.
</event>
<event>
 7    1  0.3807360E-011  0.4778726E+02  0.7816164E-02  0.1312668E+00
        -11   -1    0    0    0    0  0.00000000000E+00  0.00000000000E+00  0.45593999997E+02  0.45594000000E+02  0.51100000000E-03 0. -1.
         11   -1    0    0    0    0 -0.00000000000E+00 -0.00000000000E+00 -0.45593999997E+02  0.45594000000E+02  0.51100000000E-03 0.  1.
    9900012    2    1    2    0    0 -0.31693605488E+02 -0.24552308020E+02 -0.16622995172E+02  0.47787257766E+02  0.19999939458E+02 0.  0.
         12    1    1    2    0    0  0.31693605488E+02  0.24552308020E+02  0.16622995172E+02  0.43400742234E+02  0.00000000000E+00 0. -1.
         11    1    3    3    0    0 -0.30462294291E+01 -0.53748200982E+01 -0.10905361298E+02  0.12533758819E+02  0.51100000000E-03 0. -1.
        -11    1    3    3    0    0 -0.86236141882E+01 -0.72234331586E+01 -0.29612388104E-01  0.11249248216E+02  0.51100000000E-03 0.  1.
        -12    1    3    3    0    0 -0.20023761871E+02 -0.11954054764E+02 -0.56880214857E+01  0.24004250731E+02  0.00000000000E+00 0.  1.
</event>
<event>
 7    1  0.3807360E-011  0.4778724E+02  0.7816164E-02  0.1312668E+00
        -11   -1    0    0    0    0  0.00000000000E+00  0.00000000000E+00  0.45593999997E+02  0.45594000000E+02  0.51100000000E-03 0. -1.
         11   -1    0    0    0    0 -0.00000000000E+00 -0.00000000000E+00 -0.45593999997E+02  0.45594000000E+02  0.51100000000E-03 0.  1.
    9900012    2    1    2    0    0 -0.16547558145E+02  0.13754824975E+02  0.37690968908E+02  0.47787239316E+02  0.19999855339E+02 0.  0.
        -12    1    1    2    0    0  0.16547558145E+02 -0.13754824975E+02 -0.37690968908E+02  0.43400760684E+02  0.00000000000E+00 0.  1.
         11    1    3    3    0    0 -0.18418654411E+02  0.70734643805E+01  0.29195146536E+02  0.35236874296E+02  0.51100000000E-03 0. -1.
        -11    1    3    3    0    0  0.74658362746E+00  0.34490798806E+01  0.84173347108E+01  0.91271607322E+01  0.51100000000E-03 0.  1.
        -12    1    3    3    0    0  0.11245126380E+01  0.32322807141E+01  0.78487661876E-01  0.34232042885E+01  0.00000000000E+00 0.  1.
</event>
<event>
 7    1  0.3807360E-011  0.4778727E+02  0.7816164E-02  0.1312668E+00
        -11   -1    0    0    0    0  0.00000000000E+00  0.00000000000E+00  0.45593999997E+02  0.45594000000E+02  0.51100000000E-03 0. -1.
         11   -1    0    0    0    0 -0.00000000000E+00 -0.00000000000E+00 -0.45593999997E+02  0.45594000000E+02  0.51100000000E-03 0.  1.
    9900012    2    1    2    0    0 -0.17022756761E+02  0.12393131169E+02  0.37950750462E+02  0.47787269493E+02  0.19999992926E+02 0.  0.
        -12    1    1    2    0    0  0.17022756761E+02 -0.12393131169E+02 -0.37950750462E+02  0.43400730507E+02  0.00000000000E+00 0.  1.
         11    1    3    3    0    0  0.10289412009E+01 -0.13222889153E+01  0.16187312737E+01  0.23296907881E+01  0.51100000000E-03 0.  1.
        -11    1    3    3    0    0  0.24054131090E+01  0.36232742387E+01  0.77709763130E+01  0.89051783560E+01  0.51100000000E-03 0. -1.
        -12    1    3    3    0    0 -0.20457111071E+02  0.10092145845E+02  0.28561042875E+02  0.36552400349E+02  0.00000000000E+00 0.  1.
</event>
<event>
 7    1  0.3807360E-011  0.4778727E+02  0.7816164E-02  0.1312668E+00
        -11   -1    0    0    0    0  0.00000000000E+00  0.00000000000E+00  0.45593999997E+02  0.45594000000E+02  0.51100000000E-03 0. -1.
         11   -1    0    0    0    0 -0.00000000000E+00 -0.00000000000E+00 -0.45593999997E+02  0.45594000000E+02  0.51100000000E-03 0.  1.
    9900012    2    1    2    0    0 -0.31063045217E+02 -0.83466230409E+01  0.29138371102E+02  0.47787267693E+02  0.19999984720E+02 0.  0.
        -12    1    1    2    0    0  0.31063045217E+02  0.83466230409E+01 -0.29138371102E+02  0.43400732307E+02  0.00000000000E+00 0.  1.
         11    1    3    3    0    0 -0.12184091002E+02 -0.47080688415E+01  0.16443261259E+02  0.20999972068E+02  0.51100000000E-03 0. -1.
        -11    1    3    3    0    0 -0.19232576615E+01  0.17578992838E+01 -0.23322864166E+01  0.34969544055E+01  0.51100000000E-03 0.  1.
         12    1    3    3    0    0 -0.16955696553E+02 -0.53964534832E+01  0.15027396259E+02  0.23290341219E+02  0.00000000000E+00 0. -1.
</event>
<event>
 7    1  0.3807360E-011  0.4778727E+02  0.7816164E-02  0.1312668E+00
        -11   -1    0    0    0    0  0.00000000000E+00  0.00000000000E+00  0.45593999997E+02  0.45594000000E+02  0.51100000000E-03 0. -1.
         11   -1    0    0    0    0 -0.00000000000E+00 -0.00000000000E+00 -0.45593999997E+02  0.45594000000E+02  0.51100000000E-03 0.  1.
    9900012    2    1    2    0    0 -0.97551979986E+01 -0.41656056117E+02 -0.72960369967E+01  0.47787273566E+02  0.20000011495E+02 0.  0.
         12    1    1    2    0    0  0.97551979986E+01  0.41656056117E+02  0.72960369967E+01  0.43400726434E+02  0.00000000000E+00 0. -1.
         11    1    3    3    0    0 -0.33377618074E+01 -0.27406797137E+01 -0.47046457303E+01  0.63863660155E+01  0.51100000000E-03 0. -1.
        -11    1    3    3    0    0  0.13740322536E+01 -0.77051235401E+01  0.36450577288E+01  0.86338484762E+01  0.51100000000E-03 0.  1.
        -12    1    3    3    0    0 -0.77914684448E+01 -0.31210252863E+02 -0.62364489953E+01  0.32767059074E+02  0.00000000000E+00 0.  1.
</event>
<event>
 7    1  0.3807360E-011  0.4778727E+02  0.7816164E-02  0.1312668E+00
        -11   -1    0    0    0    0  0.00000000000E+00  0.00000000000E+00  0.45593999997E+02  0.45594000000E+02  0.51100000000E-03 0. -1.
         11   -1    0    0    0    0 -0.00000000000E+00 -0.00000000000E+00 -0.45593999997E+02  0.45594000000E+02  0.51100000000E-03 0.  1.
    9900012    2    1    2    0    0  0.17834694658E+02 -0.27541735981E+02  0.28407736993E+02  0.47787273330E+02  0.20000010421E+02 0.  0.
        -12    1    1    2    0    0 -0.17834694658E+02  0.27541735981E+02 -0.28407736993E+02  0.43400726670E+02  0.00000000000E+00 0.  1.
         11    1    3    3    0    0  0.12916607772E+01  0.34244907065E+00  0.70550514899E+01  0.71804881948E+01  0.51100000000E-03 0.  1.
        -11    1    3    3    0    0  0.11884118394E+02 -0.16959299272E+02  0.19760195943E+02  0.28623686795E+02  0.51100000000E-03 0. -1.
        -12    1    3    3    0    0  0.46589154868E+01 -0.10924885780E+02  0.15924895606E+01  0.11983098340E+02  0.00000000000E+00 0.  1.
</event>
<event>
 7    1  0.3807360E-011  0.4778726E+02  0.7816164E-02  0.1312668E+00
        -11   -1    0    0    0    0  0.00000000000E+00  0.00000000000E+00  0.45593999997E+02  0.45594000000E+02  0.51100000000E-03 0. -1.
         11   -1    0    0    0    0 -0.00000000000E+00 -0.00000000000E+00 -0.45593999997E+02  0.45594000000E+02  0.51100000000E-03 0.  1.
    9900012    2    1    2    0    0  0.27543514381E+02 -0.14587114373E+01 -0.33508977553E+02  0.47787255765E+02  0.19999930334E+02 0.  0.
         12    1    1    2    0    0 -0.27543514381E+02  0.14587114373E+01  0.33508977553E+02  0.43400744235E+02  0.00000000000E+00 0. -1.
         11    1    3    3    0    0 -0.17237142059E+01 -0.18173228963E+01 -0.23382137071E+01  0.34265283852E+01  0.51100000000E-03 0. -1.
        -11    1    3    3    0    0  0.13752391753E+02 -0.54416625592E+01 -0.17266107421E+02  0.22734520802E+02  0.51100000000E-03 0.  1.
         12    1    3    3    0    0  0.15514836833E+02  0.58002740183E+01 -0.13904656425E+02  0.21626206578E+02  0.00000000000E+00 0. -1.
</event>
<event>
 7    1  0.3807360E-011  0.4778727E+02  0.7816164E-02  0.1312668E+00
        -11   -1    0    0    0    0  0.00000000000E+00  0.00000000000E+00  0.45593999997E+02  0.45594000000E+02  0.51100000000E-03 0.  1.
         11   -1    0    0    0    0 -0.00000000000E+00 -0.00000000000E+00 -0.45593999997E+02  0.45594000000E+02  0.51100000000E-03 0. -1.
    9900012    2    1    2    0    0  0.40690867494E+02  0.95016313066E+01 -0.11730116356E+02  0.47787270460E+02  0.19999997333E+02 0.  0.
        -12    1    1    2    0    0 -0.40690867494E+02 -0.95016313066E+01  0.11730116356E+02  0.43400729540E+02  0.00000000000E+00 0.  1.
         11    1    3    3    0    0  0.47275567378E+01  0.31372007485E+01 -0.40480559321E+01  0.69698334511E+01  0.51100000000E-03 0. -1.
        -11    1    3    3    0    0  0.22431186674E+02 -0.30142759953E+01  0.38111092983E-01  0.22632840036E+02  0.51100000000E-03 0.  1.
        -12    1    3    3    0    0  0.13532124082E+02  0.93787065534E+01 -0.77201715173E+01  0.18184596972E+02  0.00000000000E+00 0.  1.
</event>
<event>
 7    1  0.3807360E-011  0.4778727E+02  0.7816164E-02  0.1312668E+00
        -11   -1    0    0    0    0  0.00000000000E+00  0.00000000000E+00  0.45593999997E+02  0.45594000000E+02  0.51100000000E-03 0. -1.
         11   -1    0    0    0    0 -0.00000000000E+00 -0.00000000000E+00 -0.45593999997E+02  0.45594000000E+02  0.51100000000E-03 0.  1.
    9900012    2    1    2    0    0 -0.18921859318E+01  0.43260249424E+01  0.43143112075E+02  0.47787274443E+02  0.20000015495E+02 0.  0.
        -12    1    1    2    0    0  0.18921859318E+01 -0.43260249424E+01 -0.43143112075E+02  0.43400725557E+02  0.00000000000E+00 0.  1.
         11    1    3    3    0    0 -0.39077422244E+01  0.40839515525E+00  0.38152988827E+02  0.38354762319E+02  0.51100000000E-03 0. -1.
        -11    1    3    3    0    0 -0.21505354531E+01  0.28861314341E+01  0.30699642464E+01  0.47306699447E+01  0.51100000000E-03 0.  1.
        -12    1    3    3    0    0  0.41660917457E+01  0.10314983530E+01  0.19201590014E+01  0.47018421791E+01  0.00000000000E+00 0.  1.
</event>
<event>
 7    1  0.3807360E-011  0.4778727E+02  0.7816164E-02  0.1312668E+00
        -11   -1    0    0    0    0  0.00000000000E+00  0.00000000000E+00  0.45593999997E+02  0.45594000000E+02  0.51100000000E-03 0. -1.
         11   -1    0    0    0    0 -0.00000000000E+00 -0.00000000000E+00 -0.45593999997E+02  0.45594000000E+02  0.51100000000E-03 0.  1.
    9900012    2    1    2    0    0 -0.33452034986E+02 -0.19823190431E+02 -0.19277599951E+02  0.47787269783E+02  0.19999994247E+02 0.  0.
         12    1    1    2    0    0  0.33452034986E+02  0.19823190431E+02  0.19277599951E+02  0.43400730217E+02  0.00000000000E+00 0. -1.
         11    1    3    3    0    0  0.12063238267E+01 -0.66041933241E-01  0.16422117023E+01  0.20387344722E+01  0.51100000000E-03 0. -1.
        -11    1    3    3    0    0 -0.15222951110E+02 -0.12852501883E+02 -0.84057881905E+01  0.21623651877E+02  0.51100000000E-03 0.  1.
        -12    1    3    3    0    0 -0.19435407703E+02 -0.69046466145E+01 -0.12514023463E+02  0.24124883433E+02  0.00000000000E+00 0.  1.
</event>
<event>
 7    1  0.3807360E-011  0.4778727E+02  0.7816164E-02  0.1312668E+00
        -11   -1    0    0    0    0  0.00000000000E+00  0.00000000000E+00  0.45593999997E+02  0.45594000000E+02  0.51100000000E-03 0. -1.
         11   -1    0    0    0    0 -0.00000000000E+00 -0.00000000000E+00 -0.45593999997E+02  0.45594000000E+02  0.51100000000E-03 0.  1.
    9900012    2    1    2    0    0  0.35994698533E+02 -0.54020615743E+01 -0.23639432243E+02  0.47787270185E+02  0.19999996081E+02 0.  0.
         12    1    1    2    0    0 -0.35994698533E+02  0.54020615743E+01  0.23639432243E+02  0.43400729815E+02  0.00000000000E+00 0. -1.
         11    1    3    3    0    0  0.11885532195E+02 -0.29669854835E+01  0.50062099892E+00  0.12260485311E+02  0.51100000000E-03 0. -1.
        -11    1    3    3    0    0  0.85171645299E+01 -0.29535186910E-01 -0.27543443351E+01  0.89515013788E+01  0.51100000000E-03 0.  1.
        -12    1    3    3    0    0  0.15592001809E+02 -0.24055409039E+01 -0.21385708906E+02  0.26575283495E+02  0.00000000000E+00 0.  1.
</event>
<event>
 7    1  0.3807360E-011  0.4778727E+02  0.7816164E-02  0.1312668E+00
        -11   -1    0    0    0    0  0.00000000000E+00  0.00000000000E+00  0.45593999997E+02  0.45594000000E+02  0.51100000000E-03 0. -1.
         11   -1    0    0    0    0 -0.00000000000E+00 -0.00000000000E+00 -0.45593999997E+02  0.45594000000E+02  0.51100000000E-03 0.  1.
    9900012    2    1    2    0    0 -0.17419864376E+02  0.20735955012E+02 -0.33914476728E+02  0.47787271471E+02  0.20000001945E+02 0.  0.
         12    1    1    2    0    0  0.17419864376E+02 -0.20735955012E+02  0.33914476728E+02  0.43400728529E+02  0.00000000000E+00 0. -1.
         11    1    3    3    0    0 -0.30523344931E+01  0.13023124169E+02 -0.18636221753E+02  0.22939644079E+02  0.51100000000E-03 0. -1.
        -11    1    3    3    0    0 -0.62159872075E+01  0.65594472578E+01 -0.20495912161E+01  0.92663730610E+01  0.51100000000E-03 0.  1.
         12    1    3    3    0    0 -0.81515426753E+01  0.11533835848E+01 -0.13228663759E+02  0.15581254331E+02  0.00000000000E+00 0. -1.
</event>
<event>
 7    1  0.3807360E-011  0.4778727E+02  0.7816164E-02  0.1312668E+00
        -11   -1    0    0    0    0  0.00000000000E+00  0.00000000000E+00  0.45593999997E+02  0.45594000000E+02  0.51100000000E-03 0.  1.
         11   -1    0    0    0    0 -0.00000000000E+00 -0.00000000000E+00 -0.45593999997E+02  0.45594000000E+02  0.51100000000E-03 0. -1.
    9900012    2    1    2    0    0 -0.30243586300E+02  0.30928017907E+02  0.35222834915E+01  0.47787270917E+02  0.19999999421E+02 0.  0.
        -12    1    1    2    0    0  0.30243586300E+02 -0.30928017907E+02 -0.35222834915E+01  0.43400729083E+02  0.00000000000E+00 0.  1.
         11    1    3    3    0    0 -0.18871694999E+02  0.12416343596E+02 -0.27116748581E+01  0.22752134872E+02  0.51100000000E-03 0. -1.
        -11    1    3    3    0    0 -0.81510974876E+01  0.94236526809E+01 -0.16653972039E+01  0.12570567537E+02  0.51100000000E-03 0.  1.
         12    1    3    3    0    0 -0.32207938128E+01  0.90880216297E+01  0.78993555534E+01  0.12464568508E+02  0.00000000000E+00 0. -1.
</event>
<event>
 7    1  0.3807360E-011  0.4778728E+02  0.7816164E-02  0.1312668E+00
        -11   -1    0    0    0    0  0.00000000000E+00  0.00000000000E+00  0.45593999997E+02  0.45594000000E+02  0.51100000000E-03 0. -1.
         11   -1    0    0    0    0 -0.00000000000E+00 -0.00000000000E+00 -0.45593999997E+02  0.45594000000E+02  0.51100000000E-03 0.  1.
    9900012    2    1    2    0    0  0.34148797310E+02 -0.17897937596E+00 -0.26785266822E+02  0.47787275235E+02  0.20000019109E+02 0.  0.
         12    1    1    2    0    0 -0.34148797310E+02  0.17897937596E+00  0.26785266822E+02  0.43400724765E+02  0.00000000000E+00 0. -1.
         11    1    3    3    0    0  0.16062068094E+02  0.28128867938E+01 -0.64226026651E+01  0.17525757867E+02  0.51100000000E-03 0. -1.
        -11    1    3    3    0    0  0.77066640577E+01  0.47619159744E+01 -0.57395634718E+01  0.10724322997E+02  0.51100000000E-03 0.  1.
        -12    1    3    3    0    0  0.10380065159E+02 -0.77537821441E+01 -0.14623100685E+02  0.19537194371E+02  0.00000000000E+00 0.  1.
</event>
<event>
 7    1  0.3807360E-011  0.4778727E+02  0.7816164E-02  0.1312668E+00
        -11   -1    0    0    0    0  0.00000000000E+00  0.00000000000E+00  0.45593999997E+02  0.45594000000E+02  0.51100000000E-03 0. -1.
         11   -1    0    0    0    0 -0.00000000000E+00 -0.00000000000E+00 -0.45593999997E+02  0.45594000000E+02  0.51100000000E-03 0.  1.
    9900012    2    1    2    0    0  0.18383191489E+02  0.27735245969E+02  0.27864628049E+02  0.47787273110E+02  0.20000009417E+02 0.  0.
        -12    1    1    2    0    0 -0.18383191489E+02 -0.27735245969E+02 -0.27864628049E+02  0.43400726890E+02  0.00000000000E+00 0.  1.
         11    1    3    3    0    0  0.21319066861E+02  0.26999179970E+02  0.27728152373E+02  0.44184938216E+02  0.51100000000E-03 0. -1.
        -11    1    3    3    0    0 -0.45559787044E+00 -0.39475568839E+00 -0.52268088824E+00  0.79787031848E+00  0.51100000000E-03 0.  1.
         12    1    3    3    0    0 -0.24802775023E+01  0.11308216872E+01  0.65915656485E+00  0.28044645752E+01  0.00000000000E+00 0. -1.
</event>
<event>
 7    1  0.3807360E-011  0.4778727E+02  0.7816164E-02  0.1312668E+00
        -11   -1    0    0    0    0  0.00000000000E+00  0.00000000000E+00  0.45593999997E+02  0.45594000000E+02  0.51100000000E-03 0. -1.
         11   -1    0    0    0    0 -0.00000000000E+00 -0.00000000000E+00 -0.45593999997E+02  0.45594000000E+02  0.51100000000E-03 0.  1.
    9900012    2    1    2    0    0  0.17409245497E+02 -0.39487472444E+02 -0.46131513096E+01  0.47787268741E+02  0.19999989498E+02 0.  0.
         12    1    1    2    0    0 -0.17409245497E+02  0.39487472444E+02  0.46131513096E+01  0.43400731259E+02  0.00000000000E+00 0. -1.
         11    1    3    3    0    0  0.24582159385E+00  0.72847767180E+00  0.29104884960E+01  0.30103241555E+01  0.51100000000E-03 0. -1.
        -11    1    3    3    0    0  0.12175113258E+02 -0.22605704448E+02 -0.25022723238E+01  0.25797531345E+02  0.51100000000E-03 0.  1.
        -12    1    3    3    0    0  0.49883106454E+01 -0.17610245668E+02 -0.50213674818E+01  0.18979413241E+02  0.00000000000E+00 0.  1.
</event>
<event>
 7    1  0.3807360E-011  0.4778727E+02  0.7816164E-02  0.1312668E+00
        -11   -1    0    0    0    0  0.00000000000E+00  0.00000000000E+00  0.45593999997E+02  0.45594000000E+02  0.51100000000E-03 0. -1.
         11   -1    0    0    0    0 -0.00000000000E+00 -0.00000000000E+00 -0.45593999997E+02  0.45594000000E+02  0.51100000000E-03 0.  1.
    9900012    2    1    2    0    0  0.35425709634E+01 -0.52833881061E+01 -0.42932030379E+02  0.47787271534E+02  0.20000002231E+02 0.  0.
         12    1    1    2    0    0 -0.35425709634E+01  0.52833881061E+01  0.42932030379E+02  0.43400728466E+02  0.00000000000E+00 0. -1.
         11    1    3    3    0    0 -0.94418748079E+00 -0.30733348161E+01 -0.23985737891E+02  0.24200258249E+02  0.51100000000E-03 0. -1.
        -11    1    3    3    0    0  0.88190193600E+01 -0.30893670043E+01 -0.14936852663E+02  0.17618991421E+02  0.51100000000E-03 0.  1.
         12    1    3    3    0    0 -0.43322609159E+01  0.87931371421E+00 -0.40094398259E+01  0.59680218639E+01  0.00000000000E+00 0. -1.
</event>
<event>
 7    1  0.3807360E-011  0.4778727E+02  0.7816164E-02  0.1312668E+00
        -11   -1    0    0    0    0  0.00000000000E+00  0.00000000000E+00  0.45593999997E+02  0.45594000000E+02  0.51100000000E-03 0.  1.
         11   -1    0    0    0    0 -0.00000000000E+00 -0.00000000000E+00 -0.45593999997E+02  0.45594000000E+02  0.51100000000E-03 0. -1.
    9900012    2    1    2    0    0 -0.82152786090E+01  0.26891401948E+02  0.33060322427E+02  0.47787271661E+02  0.20000002812E+02 0.  0.
        -12    1    1    2    0    0  0.82152786090E+01 -0.26891401948E+02 -0.33060322427E+02  0.43400728339E+02  0.00000000000E+00 0.  1.
         11    1    3    3    0    0 -0.79826427828E+01  0.31141661704E+01  0.89354844168E+01  0.12379963601E+02  0.51100000000E-03 0. -1.
        -11    1    3    3    0    0  0.24773087932E+01  0.46639649197E+01  0.10580718831E+02  0.11825448781E+02  0.51100000000E-03 0.  1.
         12    1    3    3    0    0 -0.27099446194E+01  0.19113270858E+02  0.13544119180E+02  0.23581859280E+02  0.00000000000E+00 0. -1.
</event>
<event>
 7    1  0.3807360E-011  0.4778727E+02  0.7816164E-02  0.1312668E+00
        -11   -1    0    0    0    0  0.00000000000E+00  0.00000000000E+00  0.45593999997E+02  0.45594000000E+02  0.51100000000E-03 0.  1.
         11   -1    0    0    0    0 -0.00000000000E+00 -0.00000000000E+00 -0.45593999997E+02  0.45594000000E+02  0.51100000000E-03 0. -1.
    9900012    2    1    2    0    0  0.40515687921E+02 -0.13122097821E+02  0.83613803260E+01  0.47787273049E+02  0.20000009141E+02 0.  0.
         12    1    1    2    0    0 -0.40515687921E+02  0.13122097821E+02 -0.83613803260E+01  0.43400726951E+02  0.00000000000E+00 0. -1.
         11    1    3    3    0    0  0.13758082662E+01  0.44394663710E+00 -0.17472791045E+01  0.22678010345E+01  0.51100000000E-03 0. -1.
        -11    1    3    3    0    0  0.24109235477E+02 -0.16096683954E+02  0.84022915137E+01  0.30182063756E+02  0.51100000000E-03 0.  1.
        -12    1    3    3    0    0  0.15030644177E+02  0.25306394961E+01  0.17063679167E+01  0.15337408259E+02  0.00000000000E+00 0.  1.
</event>
<event>
 7    1  0.3973664E-011  0.4778729E+02  0.7816164E-02  0.1312668E+00
        -11   -1    0    0    0    0  0.00000000000E+00  0.00000000000E+00  0.45593999997E+02  0.45594000000E+02  0.51100000000E-03 0. -1.
         11   -1    0    0    0    0 -0.00000000000E+00 -0.00000000000E+00 -0.45593999997E+02  0.45594000000E+02  0.51100000000E-03 0.  1.
    9900012    2    1    2    0    0  0.11240181779E+02 -0.36422816135E+02 -0.20752303608E+02  0.47787293477E+02  0.20000102279E+02 0.  0.
         12    1    1    2    0    0 -0.11240181779E+02  0.36422816135E+02  0.20752303608E+02  0.43400706523E+02  0.00000000000E+00 0. -1.
         11    1    3    3    0    0  0.65205540646E+01 -0.11615450696E+02 -0.16035840707E+01  0.13416698637E+02  0.51100000000E-03 0. -1.
        -11    1    3    3    0    0 -0.10449218439E+00 -0.23014639500E+02 -0.13305915700E+02  0.26584430459E+02  0.51100000000E-03 0.  1.
         12    1    3    3    0    0  0.48241198992E+01 -0.17927259387E+01 -0.58428038364E+01  0.77861643807E+01  0.00000000000E+00 0. -1.
</event>
<event>
 7    1  0.3807360E-011  0.4778727E+02  0.7816164E-02  0.1312668E+00
        -11   -1    0    0    0    0  0.00000000000E+00  0.00000000000E+00  0.45593999997E+02  0.45594000000E+02  0.51100000000E-03 0. -1.
         11   -1    0    0    0    0 -0.00000000000E+00 -0.00000000000E+00 -0.45593999997E+02  0.45594000000E+02  0.51100000000E-03 0.  1.
    9900012    2    1    2    0    0 -0.57577396079E+01  0.11423453347E+02  0.41472604374E+02  0.47787265383E+02  0.19999974185E+02 0.  0.
        -12    1    1    2    0    0  0.57577396079E+01 -0.11423453347E+02 -0.41472604374E+02  0.43400734617E+02  0.00000000000E+00 0.  1.
         11    1    3    3    0    0 -0.38197543267E+01  0.59906122776E+01  0.19654370116E+02  0.20899096236E+02  0.51100000000E-03 0. -1.
        -11    1    3    3    0    0 -0.49717752522E+01 -0.26158404392E+01  0.34160834407E+01  0.65750130568E+01  0.51100000000E-03 0.  1.
        -12    1    3    3    0    0  0.30337899710E+01  0.80486815081E+01  0.18402150818E+02  0.20313156090E+02  0.00000000000E+00 0.  1.
</event>
<event>
 7    1  0.3807360E-011  0.4778727E+02  0.7816164E-02  0.1312668E+00
        -11   -1    0    0    0    0  0.00000000000E+00  0.00000000000E+00  0.45593999997E+02  0.45594000000E+02  0.51100000000E-03 0. -1.
         11   -1    0    0    0    0 -0.00000000000E+00 -0.00000000000E+00 -0.45593999997E+02  0.45594000000E+02  0.51100000000E-03 0.  1.
    9900012    2    1    2    0    0 -0.32251089255E+02 -0.10958096403E+02 -0.26896297584E+02  0.47787268916E+02  0.19999990294E+02 0.  0.
         12    1    1    2    0    0  0.32251089255E+02  0.10958096403E+02  0.26896297584E+02  0.43400731084E+02  0.00000000000E+00 0. -1.
         11    1    3    3    0    0 -0.59508120686E+01 -0.40992087560E+01 -0.16232147387E+02  0.17767900432E+02  0.51100000000E-03 0. -1.
        -11    1    3    3    0    0 -0.55265894129E+01 -0.27506169621E+01  0.28565029351E+00  0.61798608853E+01  0.51100000000E-03 0.  1.
        -12    1    3    3    0    0 -0.20773687774E+02 -0.41082706849E+01 -0.10949800490E+02  0.23839507598E+02  0.00000000000E+00 0.  1.
</event>
<event>
 7    1  0.3807360E-011  0.4778732E+02  0.7816164E-02  0.1312668E+00
        -11   -1    0    0    0    0  0.00000000000E+00  0.00000000000E+00  0.45593999997E+02  0.45594000000E+02  0.51100000000E-03 0. -1.
         11   -1    0    0    0    0 -0.00000000000E+00 -0.00000000000E+00 -0.45593999997E+02  0.45594000000E+02  0.51100000000E-03 0.  1.
    9900012    2    1    2    0    0  0.21191663712E+01 -0.84483259002E+01  0.42517692889E+02  0.47787316996E+02  0.20000209510E+02 0.  0.
        -12    1    1    2    0    0 -0.21191663712E+01  0.84483259002E+01 -0.42517692889E+02  0.43400683004E+02  0.00000000000E+00 0.  1.
         11    1    3    3    0    0 -0.39111775229E+01  0.70257788315E+00  0.16433627426E+02  0.16907248030E+02  0.51100000000E-03 0. -1.
        -11    1    3    3    0    0  0.27026195852E+01 -0.18841698926E+01 -0.30362203900E+00  0.33085397700E+01  0.51100000000E-03 0.  1.
         12    1    3    3    0    0  0.33277243089E+01 -0.72667338908E+01  0.26387687502E+02  0.27571529196E+02  0.00000000000E+00 0. -1.
</event>
<event>
 7    1  0.3807360E-011  0.4778727E+02  0.7816164E-02  0.1312668E+00
        -11   -1    0    0    0    0  0.00000000000E+00  0.00000000000E+00  0.45593999997E+02  0.45594000000E+02  0.51100000000E-03 0. -1.
         11   -1    0    0    0    0 -0.00000000000E+00 -0.00000000000E+00 -0.45593999997E+02  0.45594000000E+02  0.51100000000E-03 0.  1.
    9900012    2    1    2    0    0  0.15251558133E+01 -0.11579646438E+02 -0.41799630428E+02  0.47787269409E+02  0.19999992545E+02 0.  0.
         12    1    1    2    0    0 -0.15251558133E+01  0.11579646438E+02  0.41799630428E+02  0.43400730591E+02  0.00000000000E+00 0. -1.
         11    1    3    3    0    0  0.14760998887E+01 -0.13156388132E+02 -0.18271309147E+02  0.22563469542E+02  0.51100000000E-03 0. -1.
        -11    1    3    3    0    0  0.35394179853E+01  0.23381699961E+01 -0.60803140165E+01  0.74138207023E+01  0.51100000000E-03 0.  1.
        -12    1    3    3    0    0 -0.34903620607E+01 -0.76142830224E+00 -0.17448007264E+02  0.17809979165E+02  0.00000000000E+00 0.  1.
</event>
<event>
 7    1  0.3807360E-011  0.4778727E+02  0.7816164E-02  0.1312668E+00
        -11   -1    0    0    0    0  0.00000000000E+00  0.00000000000E+00  0.45593999997E+02  0.45594000000E+02  0.51100000000E-03 0. -1.
         11   -1    0    0    0    0 -0.00000000000E+00 -0.00000000000E+00 -0.45593999997E+02  0.45594000000E+02  0.51100000000E-03 0.  1.
    9900012    2    1    2    0    0 -0.36287100989E+01 -0.14110950889E+00 -0.43248533429E+02  0.47787273132E+02  0.20000009519E+02 0.  0.
         12    1    1    2    0    0  0.36287100989E+01  0.14110950889E+00  0.43248533429E+02  0.43400726868E+02  0.00000000000E+00 0. -1.
         11    1    3    3    0    0 -0.36056408868E+01  0.11777580856E+01 -0.30736848117E+01  0.48821408107E+01  0.51100000000E-03 0. -1.
        -11    1    3    3    0    0 -0.12935911780E+01  0.39910249505E+00  0.99486604613E+00  0.16800058477E+01  0.51100000000E-03 0.  1.
        -12    1    3    3    0    0  0.12705219658E+01 -0.17179700895E+01 -0.41169714664E+02  0.41225126474E+02  0.00000000000E+00 0.  1.
</event>
<event>
 7    1  0.3807360E-011  0.4778727E+02  0.7816164E-02  0.1312668E+00
        -11   -1    0    0    0    0  0.00000000000E+00  0.00000000000E+00  0.45593999997E+02  0.45594000000E+02  0.51100000000E-03 0. -1.
         11   -1    0    0    0    0 -0.00000000000E+00 -0.00000000000E+00 -0.45593999997E+02  0.45594000000E+02  0.51100000000E-03 0.  1.
    9900012    2    1    2    0    0  0.27469381329E+02  0.70253541326E+01 -0.32858801151E+02  0.47787270463E+02  0.19999997349E+02 0.  0.
         12    1    1    2    0    0 -0.27469381329E+02 -0.70253541326E+01  0.32858801151E+02  0.43400729537E+02  0.00000000000E+00 0. -1.
         11    1    3    3    0    0  0.75644236933E+01 -0.27907314672E+01 -0.19208615104E+02  0.20832176612E+02  0.51100000000E-03 0. -1.
        -11    1    3    3    0    0  0.86631459794E+01  0.55289471122E+01 -0.10103240474E+02  0.14411621101E+02  0.51100000000E-03 0.  1.
        -12    1    3    3    0    0  0.11241811656E+02  0.42871384875E+01 -0.35469455730E+01  0.12543472749E+02  0.00000000000E+00 0.  1.
</event>
<event>
 7    1  0.3807360E-011  0.4778727E+02  0.7816164E-02  0.1312668E+00
        -11   -1    0    0    0    0  0.00000000000E+00  0.00000000000E+00  0.45593999997E+02  0.45594000000E+02  0.51100000000E-03 0. -1.
         11   -1    0    0    0    0 -0.00000000000E+00 -0.00000000000E+00 -0.45593999997E+02  0.45594000000E+02  0.51100000000E-03 0.  1.
    9900012    2    1    2    0    0  0.37856284564E+02 -0.79562604990E+01  0.19677988819E+02  0.47787267217E+02  0.19999982549E+02 0.  0.
        -12    1    1    2    0    0 -0.37856284564E+02  0.79562604990E+01 -0.19677988819E+02  0.43400732783E+02  0.00000000000E+00 0.  1.
         11    1    3    3    0    0  0.92452123156E+01 -0.14146802891E+01  0.91802601557E+01  0.13105435814E+02  0.51100000000E-03 0. -1.
        -11    1    3    3    0    0  0.90424663512E+01  0.16711610659E+01  0.98136417943E+01  0.13448663225E+02  0.51100000000E-03 0.  1.
         12    1    3    3    0    0  0.19568605897E+02 -0.82127412758E+01  0.68408686935E+00  0.21233168178E+02  0.00000000000E+00 0. -1.
</event>
<event>
 7    1  0.3807360E-011  0.4778728E+02  0.7816164E-02  0.1312668E+00
        -11   -1    0    0    0    0  0.00000000000E+00  0.00000000000E+00  0.45593999997E+02  0.45594000000E+02  0.51100000000E-03 0. -1.
         11   -1    0    0    0    0 -0.00000000000E+00 -0.00000000000E+00 -0.45593999997E+02  0.45594000000E+02  0.51100000000E-03 0.  1.
    9900012    2    1    2    0    0  0.70568164661E+00 -0.24340000873E+02  0.35926159476E+02  0.47787279225E+02  0.20000037300E+02 0.  0.
        -12    1    1    2    0    0 -0.70568164661E+00  0.24340000873E+02 -0.35926159476E+02  0.43400720775E+02  0.00000000000E+00 0.  1.
         11    1    3    3    0    0  0.31526491715E+01 -0.14241064849E+02  0.16616354464E+02  0.22109960669E+02  0.51100000000E-03 0. -1.
        -11    1    3    3    0    0  0.25501281131E+01 -0.13856885226E+01 -0.95862711829E+00  0.30565098214E+01  0.51100000000E-03 0.  1.
         12    1    3    3    0    0 -0.49970956380E+01 -0.87132475014E+01  0.20268432130E+02  0.22620808735E+02  0.00000000000E+00 0. -1.
</event>
<event>
 7    1  0.3807360E-011  0.4778727E+02  0.7816164E-02  0.1312668E+00
        -11   -1    0    0    0    0  0.00000000000E+00  0.00000000000E+00  0.45593999997E+02  0.45594000000E+02  0.51100000000E-03 0.  1.
         11   -1    0    0    0    0 -0.00000000000E+00 -0.00000000000E+00 -0.45593999997E+02  0.45594000000E+02  0.51100000000E-03 0. -1.
    9900012    2    1    2    0    0 -0.42849778565E+02  0.28964633110E+01  0.62554144977E+01  0.47787271511E+02  0.20000002129E+02 0.  0.
        -12    1    1    2    0    0  0.42849778565E+02 -0.28964633110E+01 -0.62554144977E+01  0.43400728489E+02  0.00000000000E+00 0.  1.
         11    1    3    3    0    0 -0.16107150752E+02 -0.76946968325E+01 -0.94409727777E+00  0.17875681375E+02  0.51100000000E-03 0. -1.
        -11    1    3    3    0    0 -0.43036806614E+01  0.32232196459E+01  0.19338368668E+01  0.57140648762E+01  0.51100000000E-03 0.  1.
         12    1    3    3    0    0 -0.22438947152E+02  0.73679404976E+01  0.52656749086E+01  0.24197525260E+02  0.00000000000E+00 0. -1.
</event>
<event>
 7    1  0.3807360E-011  0.4778727E+02  0.7816164E-02  0.1312668E+00
        -11   -1    0    0    0    0  0.00000000000E+00  0.00000000000E+00  0.45593999997E+02  0.45594000000E+02  0.51100000000E-03 0. -1.
         11   -1    0    0    0    0 -0.00000000000E+00 -0.00000000000E+00 -0.45593999997E+02  0.45594000000E+02  0.51100000000E-03 0.  1.
    9900012    2    1    2    0    0 -0.47852353583E+00  0.11482584468E+02  0.41851457216E+02  0.47787271873E+02  0.20000003778E+02 0.  0.
        -12    1    1    2    0    0  0.47852353583E+00 -0.11482584468E+02 -0.41851457216E+02  0.43400728127E+02  0.00000000000E+00 0.  1.
         11    1    3    3    0    0  0.29838690346E+01  0.61674012696E+01  0.21930774564E+02  0.22976056800E+02  0.51100000000E-03 0. -1.
        -11    1    3    3    0    0  0.46854039674E+01  0.32359642665E+01  0.45425098793E+01  0.72841520671E+01  0.51100000000E-03 0.  1.
         12    1    3    3    0    0 -0.81477965379E+01  0.20792189315E+01  0.15378172773E+02  0.17527063006E+02  0.00000000000E+00 0. -1.
</event>
<event>
 7    1  0.3807360E-011  0.4778730E+02  0.7816164E-02  0.1312668E+00
        -11   -1    0    0    0    0  0.00000000000E+00  0.00000000000E+00  0.45593999997E+02  0.45594000000E+02  0.51100000000E-03 0. -1.
         11   -1    0    0    0    0 -0.00000000000E+00 -0.00000000000E+00 -0.45593999997E+02  0.45594000000E+02  0.51100000000E-03 0.  1.
    9900012    2    1    2    0    0 -0.16213963135E+02 -0.23666844706E+02  0.32566981887E+02  0.47787303599E+02  0.20000148429E+02 0.  0.
        -12    1    1    2    0    0  0.16213963135E+02  0.23666844706E+02 -0.32566981887E+02  0.43400696401E+02  0.00000000000E+00 0.  1.
         11    1    3    3    0    0 -0.87153801686E+01 -0.90406926815E+01  0.10786824792E+02  0.16554382048E+02  0.51100000000E-03 0. -1.
        -11    1    3    3    0    0  0.20424079054E+01 -0.63322923157E+01  0.75024327582E+00  0.66956867651E+01  0.51100000000E-03 0.  1.
        -12    1    3    3    0    0 -0.95409908717E+01 -0.82938597085E+01  0.21029913819E+02  0.24537234786E+02  0.00000000000E+00 0.  1.
</event>
<event>
 7    1  0.3807360E-011  0.4778727E+02  0.7816164E-02  0.1312668E+00
        -11   -1    0    0    0    0  0.00000000000E+00  0.00000000000E+00  0.45593999997E+02  0.45594000000E+02  0.51100000000E-03 0. -1.
         11   -1    0    0    0    0 -0.00000000000E+00 -0.00000000000E+00 -0.45593999997E+02  0.45594000000E+02  0.51100000000E-03 0.  1.
    9900012    2    1    2    0    0 -0.64900663146E+01 -0.37333061274E+02 -0.21159981689E+02  0.47787271320E+02  0.20000001258E+02 0.  0.
         12    1    1    2    0    0  0.64900663146E+01  0.37333061274E+02  0.21159981689E+02  0.43400728680E+02  0.00000000000E+00 0. -1.
         11    1    3    3    0    0 -0.18086239669E+01 -0.97984826100E+00  0.22690837523E+01  0.30626727877E+01  0.51100000000E-03 0. -1.
        -11    1    3    3    0    0 -0.13006191257E+01 -0.99353985124E+01 -0.12286544838E+02  0.15854429603E+02  0.51100000000E-03 0.  1.
        -12    1    3    3    0    0 -0.33808232220E+01 -0.26417814500E+02 -0.11142520603E+02  0.28870168930E+02  0.00000000000E+00 0.  1.
</event>
<event>
 7    1  0.3807360E-011  0.4778728E+02  0.7816164E-02  0.1312668E+00
        -11   -1    0    0    0    0  0.00000000000E+00  0.00000000000E+00  0.45593999997E+02  0.45594000000E+02  0.51100000000E-03 0. -1.
         11   -1    0    0    0    0 -0.00000000000E+00 -0.00000000000E+00 -0.45593999997E+02  0.45594000000E+02  0.51100000000E-03 0.  1.
    9900012    2    1    2    0    0 -0.20099389061E+02  0.69481356755E+01 -0.37833329225E+02  0.47787276155E+02  0.20000023303E+02 0.  0.
         12    1    1    2    0    0  0.20099389061E+02 -0.69481356755E+01  0.37833329225E+02  0.43400723845E+02  0.00000000000E+00 0. -1.
         11    1    3    3    0    0 -0.41512850441E+01  0.52023101132E+01 -0.17788987350E+02  0.18993295376E+02  0.51100000000E-03 0. -1.
        -11    1    3    3    0    0 -0.36099586285E+01 -0.52784237157E+01 -0.74205560577E+01  0.97958261872E+01  0.51100000000E-03 0.  1.
        -12    1    3    3    0    0 -0.12338145389E+02  0.70242492780E+01 -0.12623785817E+02  0.18998154592E+02  0.00000000000E+00 0.  1.
</event>
<event>
 7    1  0.3807360E-011  0.4778727E+02  0.7816164E-02  0.1312668E+00
        -11   -1    0    0    0    0  0.00000000000E+00  0.00000000000E+00  0.45593999997E+02  0.45594000000E+02  0.51100000000E-03 0.  1.
         11   -1    0    0    0    0 -0.00000000000E+00 -0.00000000000E+00 -0.45593999997E+02  0.45594000000E+02  0.51100000000E-03 0. -1.
    9900012    2    1    2    0    0 -0.33765591824E+02  0.20115160215E+02  0.18408923913E+02  0.47787270267E+02  0.19999996456E+02 0.  0.
        -12    1    1    2    0    0  0.33765591824E+02 -0.20115160215E+02 -0.18408923913E+02  0.43400729733E+02  0.00000000000E+00 0.  1.
         11    1    3    3    0    0 -0.90283989011E+01  0.31581145191E+01  0.16473040583E+01  0.97056316103E+01  0.51100000000E-03 0. -1.
        -11    1    3    3    0    0 -0.12990366791E+01  0.60398686075E+01  0.93099256990E+01  0.11173281786E+02  0.51100000000E-03 0.  1.
        -12    1    3    3    0    0 -0.23438156244E+02  0.10917177089E+02  0.74516941562E+01  0.26908356871E+02  0.00000000000E+00 0.  1.
</event>
<event>
 7    1  0.4801030E-011  0.4778727E+02  0.7816164E-02  0.1312668E+00
        -11   -1    0    0    0    0  0.00000000000E+00  0.00000000000E+00  0.45593999997E+02  0.45594000000E+02  0.51100000000E-03 0. -1.
         11   -1    0    0    0    0 -0.00000000000E+00 -0.00000000000E+00 -0.45593999997E+02  0.45594000000E+02  0.51100000000E-03 0.  1.
    9900012    2    1    2    0    0  0.40282311673E+01 -0.13759035383E+01 -0.43191475733E+02  0.47787270365E+02  0.19999996902E+02 0.  0.
         12    1    1    2    0    0 -0.40282311673E+01  0.13759035383E+01  0.43191475733E+02  0.43400729635E+02  0.00000000000E+00 0. -1.
         11    1    3    3    0    0 -0.41881455721E+01 -0.16021728254E+01 -0.65432487047E+01  0.79323152338E+01  0.51100000000E-03 0. -1.
        -11    1    3    3    0    0  0.31352521703E+01  0.46364422426E+01 -0.29547544966E+02  0.30072974855E+02  0.51100000000E-03 0.  1.
         12    1    3    3    0    0  0.50811245691E+01 -0.44101729555E+01 -0.71006820621E+01  0.97819802766E+01  0.00000000000E+00 0. -1.
</event>
<event>
 7    1  0.3807360E-011  0.4778728E+02  0.7816164E-02  0.1312668E+00
        -11   -1    0    0    0    0  0.00000000000E+00  0.00000000000E+00  0.45593999997E+02  0.45594000000E+02  0.51100000000E-03 0. -1.
         11   -1    0    0    0    0 -0.00000000000E+00 -0.00000000000E+00 -0.45593999997E+02  0.45594000000E+02  0.51100000000E-03 0.  1.
    9900012    2    1    2    0    0 -0.81183550512E+01 -0.29204629542E+02  0.31061307072E+02  0.47787275669E+02  0.20000021085E+02 0.  0.
        -12    1    1    2    0    0  0.81183550512E+01  0.29204629542E+02 -0.31061307072E+02  0.43400724331E+02  0.00000000000E+00 0.  1.
         11    1    3    3    0    0 -0.43284776364E+01 -0.16367581222E+02  0.16960258356E+02  0.23964219108E+02  0.51100000000E-03 0. -1.
        -11    1    3    3    0    0 -0.78297145052E+01 -0.11509681787E+02  0.13733804977E+02  0.19554912515E+02  0.51100000000E-03 0.  1.
        -12    1    3    3    0    0  0.40398370903E+01 -0.13273665334E+01  0.36724373946E+00  0.42681440457E+01  0.00000000000E+00 0.  1.
</event>
<event>
 7    1  0.3807360E-011  0.4778727E+02  0.7816164E-02  0.1312668E+00
        -11   -1    0    0    0    0  0.00000000000E+00  0.00000000000E+00  0.45593999997E+02  0.45594000000E+02  0.51100000000E-03 0. -1.
         11   -1    0    0    0    0 -0.00000000000E+00 -0.00000000000E+00 -0.45593999997E+02  0.45594000000E+02  0.51100000000E-03 0.  1.
    9900012    2    1    2    0    0 -0.59326218631E+01 -0.24234307661E+01  0.42924983903E+02  0.47787271182E+02  0.20000000627E+02 0.  0.
        -12    1    1    2    0    0  0.59326218631E+01  0.24234307661E+01 -0.42924983903E+02  0.43400728818E+02  0.00000000000E+00 0.  1.
         11    1    3    3    0    0  0.35434377236E+01 -0.22014242778E+01  0.43784363152E+01  0.60475552564E+01  0.51100000000E-03 0. -1.
        -11    1    3    3    0    0 -0.29465069432E+01  0.36043153597E+01  0.29851669915E+02  0.30212500548E+02  0.51100000000E-03 0.  1.
        -12    1    3    3    0    0 -0.65295526436E+01 -0.38263218480E+01  0.86948776728E+01  0.11527215377E+02  0.00000000000E+00 0.  1.
</event>
<event>
 7    1  0.3807360E-011  0.4778726E+02  0.7816164E-02  0.1312668E+00
        -11   -1    0    0    0    0  0.00000000000E+00  0.00000000000E+00  0.45593999997E+02  0.45594000000E+02  0.51100000000E-03 0. -1.
         11   -1    0    0    0    0 -0.00000000000E+00 -0.00000000000E+00 -0.45593999997E+02  0.45594000000E+02  0.51100000000E-03 0.  1.
    9900012    2    1    2    0    0 -0.22859293792E+01  0.17372489801E+02  0.39706363374E+02  0.47787260751E+02  0.19999953068E+02 0.  0.
        -12    1    1    2    0    0  0.22859293792E+01 -0.17372489801E+02 -0.39706363374E+02  0.43400739249E+02  0.00000000000E+00 0.  1.
         11    1    3    3    0    0  0.21786928425E+01  0.12848396627E+02  0.23079258732E+02  0.26504342705E+02  0.51100000000E-03 0. -1.
        -11    1    3    3    0    0 -0.54569833004E+01  0.32128780936E+01  0.18037314277E+02  0.19116640891E+02  0.51100000000E-03 0.  1.
        -12    1    3    3    0    0  0.99236107874E+00  0.13112150801E+01 -0.14102096346E+01  0.21662771545E+01  0.00000000000E+00 0.  1.
</event>
<event>
 7    1  0.3807360E-011  0.4778728E+02  0.7816164E-02  0.1312668E+00
        -11   -1    0    0    0    0  0.00000000000E+00  0.00000000000E+00  0.45593999997E+02  0.45594000000E+02  0.51100000000E-03 0. -1.
         11   -1    0    0    0    0 -0.00000000000E+00 -0.00000000000E+00 -0.45593999997E+02  0.45594000000E+02  0.51100000000E-03 0.  1.
    9900012    2    1    2    0    0 -0.55061483711E+01 -0.63110112846E+01 -0.42584930313E+02  0.47787276238E+02  0.20000023679E+02 0.  0.
         12    1    1    2    0    0  0.55061483711E+01  0.63110112846E+01  0.42584930313E+02  0.43400723762E+02  0.00000000000E+00 0. -1.
         11    1    3    3    0    0  0.27002584286E+01  0.14814621665E+01 -0.22031359055E+01  0.37868105064E+01  0.51100000000E-03 0. -1.
        -11    1    3    3    0    0 -0.96287407221E+01 -0.31945770650E+01 -0.14632753181E+02  0.17805488941E+02  0.51100000000E-03 0.  1.
        -12    1    3    3    0    0  0.14223339224E+01 -0.45978963861E+01 -0.25749041226E+02  0.26194976790E+02  0.00000000000E+00 0.  1.
</event>
<event>
 7    1  0.3807360E-011  0.4778727E+02  0.7816164E-02  0.1312668E+00
        -11   -1    0    0    0    0  0.00000000000E+00  0.00000000000E+00  0.45593999997E+02  0.45594000000E+02  0.51100000000E-03 0. -1.
         11   -1    0    0    0    0 -0.00000000000E+00 -0.00000000000E+00 -0.45593999997E+02  0.45594000000E+02  0.51100000000E-03 0.  1.
    9900012    2    1    2    0    0  0.52173884769E+01 -0.25288706043E+02 -0.34883857071E+02  0.47787270974E+02  0.19999999679E+02 0.  0.
         12    1    1    2    0    0 -0.52173884769E+01  0.25288706043E+02  0.34883857071E+02  0.43400729026E+02  0.00000000000E+00 0. -1.
         11    1    3    3    0    0 -0.28553852823E+01 -0.23202862634E+01 -0.75794403899E+01  0.84252519451E+01  0.51100000000E-03 0. -1.
        -11    1    3    3    0    0  0.10622263099E+02 -0.83972929482E+01 -0.13768939648E+02  0.19311413763E+02  0.51100000000E-03 0.  1.
        -12    1    3    3    0    0 -0.25494893403E+01 -0.14571126832E+02 -0.13535477032E+02  0.20050605266E+02  0.00000000000E+00 0.  1.
</event>
<event>
 7    1  0.3807360E-011  0.4778727E+02  0.7816164E-02  0.1312668E+00
        -11   -1    0    0    0    0  0.00000000000E+00  0.00000000000E+00  0.45593999997E+02  0.45594000000E+02  0.51100000000E-03 0. -1.
         11   -1    0    0    0    0 -0.00000000000E+00 -0.00000000000E+00 -0.45593999997E+02  0.45594000000E+02  0.51100000000E-03 0.  1.
    9900012    2    1    2    0    0  0.46346241956E+01  0.11475192559E+02 -0.41598836143E+02  0.47787274728E+02  0.20000016794E+02 0.  0.
         12    1    1    2    0    0 -0.46346241956E+01 -0.11475192559E+02  0.41598836143E+02  0.43400725272E+02  0.00000000000E+00 0. -1.
         11    1    3    3    0    0  0.83916104324E+01  0.81161849970E+01 -0.20585539938E+02  0.23665503150E+02  0.51100000000E-03 0. -1.
        -11    1    3    3    0    0 -0.33318325727E+01  0.17685420595E+01 -0.81838993042E+00  0.38598719730E+01  0.51100000000E-03 0.  1.
        -12    1    3    3    0    0 -0.42515366411E+00  0.15904655028E+01 -0.20194906275E+02  0.20261899605E+02  0.00000000000E+00 0.  1.
</event>
<event>
 7    1  0.3807360E-011  0.4778727E+02  0.7816164E-02  0.1312668E+00
        -11   -1    0    0    0    0  0.00000000000E+00  0.00000000000E+00  0.45593999997E+02  0.45594000000E+02  0.51100000000E-03 0. -1.
         11   -1    0    0    0    0 -0.00000000000E+00 -0.00000000000E+00 -0.45593999997E+02  0.45594000000E+02  0.51100000000E-03 0.  1.
    9900012    2    1    2    0    0 -0.12140538833E+02 -0.58622218997E+01  0.41253665546E+02  0.47787271322E+02  0.20000001268E+02 0.  0.
        -12    1    1    2    0    0  0.12140538833E+02  0.58622218997E+01 -0.41253665546E+02  0.43400728678E+02  0.00000000000E+00 0.  1.
         11    1    3    3    0    0 -0.26111918898E+01 -0.65378997491E+01  0.10367184510E+02  0.12531598906E+02  0.51100000000E-03 0. -1.
        -11    1    3    3    0    0 -0.76509075461E+01  0.21994533759E+01  0.53194274439E+01  0.95744602994E+01  0.51100000000E-03 0.  1.
         12    1    3    3    0    0 -0.18784393970E+01 -0.15237755266E+01  0.25567053592E+02  0.25681212117E+02  0.00000000000E+00 0. -1.
</event>
<event>
 7    1  0.3807360E-011  0.4778727E+02  0.7816164E-02  0.1312668E+00
        -11   -1    0    0    0    0  0.00000000000E+00  0.00000000000E+00  0.45593999997E+02  0.45594000000E+02  0.51100000000E-03 0. -1.
         11   -1    0    0    0    0 -0.00000000000E+00 -0.00000000000E+00 -0.45593999997E+02  0.45594000000E+02  0.51100000000E-03 0.  1.
    9900012    2    1    2    0    0  0.76423169630E+01 -0.18821191509E+01  0.42681099073E+02  0.47787267297E+02  0.19999982913E+02 0.  0.
        -12    1    1    2    0    0 -0.76423169630E+01  0.18821191509E+01 -0.42681099073E+02  0.43400732703E+02  0.00000000000E+00 0.  1.
         11    1    3    3    0    0  0.77456689149E+01 -0.66918450995E+01  0.24474958667E+02  0.26529225013E+02  0.51100000000E-03 0. -1.
        -11    1    3    3    0    0  0.97042932598E+00  0.10074325161E+00 -0.10335935398E+01  0.14213367462E+01  0.51100000000E-03 0.  1.
        -12    1    3    3    0    0 -0.10737812778E+01  0.47089826970E+01  0.19239733946E+02  0.19836705538E+02  0.00000000000E+00 0.  1.
</event>
<event>
 7    1  0.3807360E-011  0.4778727E+02  0.7816164E-02  0.1312668E+00
        -11   -1    0    0    0    0  0.00000000000E+00  0.00000000000E+00  0.45593999997E+02  0.45594000000E+02  0.51100000000E-03 0. -1.
         11   -1    0    0    0    0 -0.00000000000E+00 -0.00000000000E+00 -0.45593999997E+02  0.45594000000E+02  0.51100000000E-03 0.  1.
    9900012    2    1    2    0    0  0.24167718345E+02 -0.13428934741E+02  0.33454569286E+02  0.47787272998E+02  0.20000008905E+02 0.  0.
        -12    1    1    2    0    0 -0.24167718345E+02  0.13428934741E+02 -0.33454569286E+02  0.43400727002E+02  0.00000000000E+00 0.  1.
         11    1    3    3    0    0  0.11997615100E+02 -0.66597858396E+01  0.71097447806E+01  0.15454578177E+02  0.51100000000E-03 0. -1.
        -11    1    3    3    0    0 -0.13458202848E+01  0.20525939448E+01  0.22378497323E+01  0.33214975277E+01  0.51100000000E-03 0.  1.
         12    1    3    3    0    0  0.13515923530E+02 -0.88217428458E+01  0.24106974773E+02  0.29011197293E+02  0.00000000000E+00 0. -1.
</event>
<event>
 7    1  0.3807360E-011  0.4778727E+02  0.7816164E-02  0.1312668E+00
        -11   -1    0    0    0    0  0.00000000000E+00  0.00000000000E+00  0.45593999997E+02  0.45594000000E+02  0.51100000000E-03 0. -1.
         11   -1    0    0    0    0 -0.00000000000E+00 -0.00000000000E+00 -0.45593999997E+02  0.45594000000E+02  0.51100000000E-03 0.  1.
    9900012    2    1    2    0    0  0.31537166403E+02  0.28256109934E+02 -0.95195908023E+01  0.47787271638E+02  0.20000002705E+02 0.  0.
         12    1    1    2    0    0 -0.31537166403E+02 -0.28256109934E+02  0.95195908023E+01  0.43400728362E+02  0.00000000000E+00 0. -1.
         11    1    3    3    0    0  0.15240143073E+02  0.10102371530E+02 -0.13156541264E+02  0.22525861797E+02  0.51100000000E-03 0. -1.
        -11    1    3    3    0    0  0.11884868671E+02  0.12474207197E+02  0.61266953487E-01  0.17229617013E+02  0.51100000000E-03 0.  1.
         12    1    3    3    0    0  0.44121546589E+01  0.56795312072E+01  0.35756835083E+01  0.80317928272E+01  0.00000000000E+00 0. -1.
</event>
<event>
 7    1  0.3807360E-011  0.4778727E+02  0.7816164E-02  0.1312668E+00
        -11   -1    0    0    0    0  0.00000000000E+00  0.00000000000E+00  0.45593999997E+02  0.45594000000E+02  0.51100000000E-03 0.  1.
         11   -1    0    0    0    0 -0.00000000000E+00 -0.00000000000E+00 -0.45593999997E+02  0.45594000000E+02  0.51100000000E-03 0. -1.
    9900012    2    1    2    0    0  0.38537139342E+02 -0.19080990364E+02  0.58675476188E+01  0.47787269395E+02  0.19999992481E+02 0.  0.
        -12    1    1    2    0    0 -0.38537139342E+02  0.19080990364E+02 -0.58675476188E+01  0.43400730605E+02  0.00000000000E+00 0.  1.
         11    1    3    3    0    0  0.90367854603E+01 -0.28177869432E+01  0.43398714516E+01  0.10413351967E+02  0.51100000000E-03 0. -1.
        -11    1    3    3    0    0  0.45410244488E+01 -0.10802569842E+02 -0.61649407791E+00  0.11734414491E+02  0.51100000000E-03 0.  1.
         12    1    3    3    0    0  0.24959329433E+02 -0.54606335788E+01  0.21441702452E+01  0.25639502937E+02  0.00000000000E+00 0. -1.
</event>
<event>
 7    1  0.3807360E-011  0.4778727E+02  0.7816164E-02  0.1312668E+00
        -11   -1    0    0    0    0  0.00000000000E+00  0.00000000000E+00  0.45593999997E+02  0.45594000000E+02  0.51100000000E-03 0. -1.
         11   -1    0    0    0    0 -0.00000000000E+00 -0.00000000000E+00 -0.45593999997E+02  0.45594000000E+02  0.51100000000E-03 0.  1.
    9900012    2    1    2    0    0  0.33782039456E+02 -0.34260555962E+01  0.27030707153E+02  0.47787272173E+02  0.20000005143E+02 0.  0.
        -12    1    1    2    0    0 -0.33782039456E+02  0.34260555962E+01 -0.27030707153E+02  0.43400727827E+02  0.00000000000E+00 0.  1.
         11    1    3    3    0    0  0.18241092719E+02 -0.37790696938E+01  0.32569138400E+01  0.18911010532E+02  0.51100000000E-03 0.  1.
        -11    1    3    3    0    0  0.10185450627E+02  0.14407736277E+01  0.11433089509E+02  0.15379686899E+02  0.51100000000E-03 0. -1.
        -12    1    3    3    0    0  0.53554961108E+01 -0.10877595302E+01  0.12340703804E+02  0.13496574742E+02  0.00000000000E+00 0.  1.
</event>
<event>
 7    1  0.3807360E-011  0.4778727E+02  0.7816164E-02  0.1312668E+00
        -11   -1    0    0    0    0  0.00000000000E+00  0.00000000000E+00  0.45593999997E+02  0.45594000000E+02  0.51100000000E-03 0. -1.
         11   -1    0    0    0    0 -0.00000000000E+00 -0.00000000000E+00 -0.45593999997E+02  0.45594000000E+02  0.51100000000E-03 0.  1.
    9900012    2    1    2    0    0 -0.42119791868E+02 -0.97919173865E+01 -0.36965836503E+01  0.47787271391E+02  0.20000001581E+02 0.  0.
        -12    1    1    2    0    0  0.42119791868E+02  0.97919173865E+01  0.36965836503E+01  0.43400728609E+02  0.00000000000E+00 0.  1.
         11    1    3    3    0    0 -0.55844607937E+00 -0.24762016553E+01  0.25238538146E+01  0.35795635208E+01  0.51100000000E-03 0. -1.
        -11    1    3    3    0    0 -0.34172507175E+01 -0.38522932863E+01  0.96320581381E+00  0.52388483210E+01  0.51100000000E-03 0.  1.
         12    1    3    3    0    0 -0.38144095071E+02 -0.34634224449E+01 -0.71836432787E+01  0.38968859549E+02  0.00000000000E+00 0. -1.
</event>
<event>
 7    1  0.3807360E-011  0.4778727E+02  0.7816164E-02  0.1312668E+00
        -11   -1    0    0    0    0  0.00000000000E+00  0.00000000000E+00  0.45593999997E+02  0.45594000000E+02  0.51100000000E-03 0. -1.
         11   -1    0    0    0    0 -0.00000000000E+00 -0.00000000000E+00 -0.45593999997E+02  0.45594000000E+02  0.51100000000E-03 0.  1.
    9900012    2    1    2    0    0  0.28502840308E+02  0.28547962283E+02 -0.16007037457E+02  0.47787270694E+02  0.19999998402E+02 0.  0.
         12    1    1    2    0    0 -0.28502840308E+02 -0.28547962283E+02  0.16007037457E+02  0.43400729306E+02  0.00000000000E+00 0. -1.
         11    1    3    3    0    0  0.57929164483E+01  0.16438207894E+02 -0.17131179014E+01  0.17513061781E+02  0.51100000000E-03 0. -1.
        -11    1    3    3    0    0  0.12019502586E+02  0.73048187046E+01 -0.38675366435E+01  0.14587208735E+02  0.51100000000E-03 0.  1.
         12    1    3    3    0    0  0.10690421274E+02  0.48049356838E+01 -0.10426382913E+02  0.15687000178E+02  0.00000000000E+00 0. -1.
</event>
<event>
 7    1  0.5500334E-011  0.4778727E+02  0.7816164E-02  0.1312668E+00
        -11   -1    0    0    0    0  0.00000000000E+00  0.00000000000E+00  0.45593999997E+02  0.45594000000E+02  0.51100000000E-03 0. -1.
         11   -1    0    0    0    0 -0.00000000000E+00 -0.00000000000E+00 -0.45593999997E+02  0.45594000000E+02  0.51100000000E-03 0.  1.
    9900012    2    1    2    0    0  0.47869518524E+01  0.67515186522E+01 -0.42604289094E+02  0.47787270036E+02  0.19999995404E+02 0.  0.
         12    1    1    2    0    0 -0.47869518524E+01 -0.67515186522E+01  0.42604289094E+02  0.43400729964E+02  0.00000000000E+00 0. -1.
         11    1    3    3    0    0 -0.41475598788E+01  0.64042373116E+01 -0.77193554329E+01  0.10853799199E+02  0.51100000000E-03 0. -1.
        -11    1    3    3    0    0  0.51330471390E+01  0.42089919605E+01 -0.17179291605E+02  0.18417161740E+02  0.51100000000E-03 0.  1.
         12    1    3    3    0    0  0.38014645922E+01 -0.38617106200E+01 -0.17705642056E+02  0.18516309097E+02  0.00000000000E+00 0. -1.
</event>
<event>
 7    1  0.3807360E-011  0.4778727E+02  0.7816164E-02  0.1312668E+00
        -11   -1    0    0    0    0  0.00000000000E+00  0.00000000000E+00  0.45593999997E+02  0.45594000000E+02  0.51100000000E-03 0. -1.
         11   -1    0    0    0    0 -0.00000000000E+00 -0.00000000000E+00 -0.45593999997E+02  0.45594000000E+02  0.51100000000E-03 0.  1.
    9900012    2    1    2    0    0 -0.36466242731E+02  0.78314260051E+01  0.22192464281E+02  0.47787267713E+02  0.19999984812E+02 0.  0.
        -12    1    1    2    0    0  0.36466242731E+02 -0.78314260051E+01 -0.22192464281E+02  0.43400732287E+02  0.00000000000E+00 0.  1.
         11    1    3    3    0    0 -0.15071805804E+02  0.70821489708E+01  0.15465582611E+02  0.22726645375E+02  0.51100000000E-03 0. -1.
        -11    1    3    3    0    0 -0.69674286809E+01  0.46117769508E+01 -0.69259972677E+00  0.83841066137E+01  0.51100000000E-03 0.  1.
        -12    1    3    3    0    0 -0.14427008246E+02 -0.38624999166E+01  0.74194813970E+01  0.16676515725E+02  0.00000000000E+00 0.  1.
</event>
<event>
 7    1  0.3807360E-011  0.4778726E+02  0.7816164E-02  0.1312668E+00
        -11   -1    0    0    0    0  0.00000000000E+00  0.00000000000E+00  0.45593999997E+02  0.45594000000E+02  0.51100000000E-03 0. -1.
         11   -1    0    0    0    0 -0.00000000000E+00 -0.00000000000E+00 -0.45593999997E+02  0.45594000000E+02  0.51100000000E-03 0.  1.
    9900012    2    1    2    0    0  0.94299774161E+01  0.27815053489E+02  0.31953436913E+02  0.47787264923E+02  0.19999972091E+02 0.  0.
        -12    1    1    2    0    0 -0.94299774161E+01 -0.27815053489E+02 -0.31953436913E+02  0.43400735077E+02  0.00000000000E+00 0.  1.
         11    1    3    3    0    0  0.40827653861E+00  0.17664812895E+01  0.38273024935E+01  0.42350195414E+01  0.51100000000E-03 0. -1.
        -11    1    3    3    0    0 -0.78465895277E+00  0.18262744615E+02  0.82366714026E+01  0.20049595672E+02  0.51100000000E-03 0.  1.
        -12    1    3    3    0    0  0.98063598303E+01  0.77858275841E+01  0.19889463017E+02  0.23502649710E+02  0.00000000000E+00 0.  1.
</event>
<event>
 7    1  0.3807360E-011  0.4778727E+02  0.7816164E-02  0.1312668E+00
        -11   -1    0    0    0    0  0.00000000000E+00  0.00000000000E+00  0.45593999997E+02  0.45594000000E+02  0.51100000000E-03 0. -1.
         11   -1    0    0    0    0 -0.00000000000E+00 -0.00000000000E+00 -0.45593999997E+02  0.45594000000E+02  0.51100000000E-03 0.  1.
    9900012    2    1    2    0    0 -0.24839676601E+02 -0.20871735945E+02  0.28826794295E+02  0.47787274611E+02  0.20000016260E+02 0.  0.
        -12    1    1    2    0    0  0.24839676601E+02  0.20871735945E+02 -0.28826794295E+02  0.43400725389E+02  0.00000000000E+00 0.  1.
         11    1    3    3    0    0 -0.10921906397E+02 -0.64349173548E+01  0.14548580932E+02  0.19296564671E+02  0.51100000000E-03 0. -1.
        -11    1    3    3    0    0  0.42445776713E+00  0.23393841691E+01  0.37899185919E+00  0.24075958501E+01  0.51100000000E-03 0.  1.
         12    1    3    3    0    0 -0.14342227971E+02 -0.16776202760E+02  0.13899221504E+02  0.26083114090E+02  0.00000000000E+00 0. -1.
</event>
<event>
 7    1  0.3807360E-011  0.4778727E+02  0.7816164E-02  0.1312668E+00
        -11   -1    0    0    0    0  0.00000000000E+00  0.00000000000E+00  0.45593999997E+02  0.45594000000E+02  0.51100000000E-03 0. -1.
         11   -1    0    0    0    0 -0.00000000000E+00 -0.00000000000E+00 -0.45593999997E+02  0.45594000000E+02  0.51100000000E-03 0.  1.
    9900012    2    1    2    0    0 -0.80571531259E+01 -0.25459695082E+02 -0.34212706639E+02  0.47787273212E+02  0.20000009884E+02 0.  0.
         12    1    1    2    0    0  0.80571531259E+01  0.25459695082E+02  0.34212706639E+02  0.43400726788E+02  0.00000000000E+00 0. -1.
         11    1    3    3    0    0  0.36525464831E+00 -0.71525166462E+01 -0.30869652068E+01  0.77987986114E+01  0.51100000000E-03 0. -1.
        -11    1    3    3    0    0 -0.20409959665E+01 -0.73862575344E+01 -0.24579219603E+02  0.25746077399E+02  0.51100000000E-03 0.  1.
         12    1    3    3    0    0 -0.63814118077E+01 -0.10920920901E+02 -0.65465218290E+01  0.14242397202E+02  0.00000000000E+00 0. -1.
</event>
<event>
 7    1  0.3807360E-011  0.4778728E+02  0.7816164E-02  0.1312668E+00
        -11   -1    0    0    0    0  0.00000000000E+00  0.00000000000E+00  0.45593999997E+02  0.45594000000E+02  0.51100000000E-03 0. -1.
         11   -1    0    0    0    0 -0.00000000000E+00 -0.00000000000E+00 -0.45593999997E+02  0.45594000000E+02  0.51100000000E-03 0.  1.
    9900012    2    1    2    0    0 -0.26746962408E+02  0.31090225998E+02 -0.14199300866E+02  0.47787282313E+02  0.20000051377E+02 0.  0.
         12    1    1    2    0    0  0.26746962408E+02 -0.31090225998E+02  0.14199300866E+02  0.43400717687E+02  0.00000000000E+00 0. -1.
         11    1    3    3    0    0 -0.80929803787E+01  0.63195240972E+01  0.26582014328E+01  0.10606542855E+02  0.51100000000E-03 0. -1.
        -11    1    3    3    0    0 -0.64602476855E+00  0.72019240993E+01 -0.72803977396E+01  0.10261055026E+02  0.51100000000E-03 0.  1.
         12    1    3    3    0    0 -0.18007957261E+02  0.17568777802E+02 -0.95771045595E+01  0.26919684432E+02  0.00000000000E+00 0. -1.
</event>
<event>
 7    1  0.3807360E-011  0.4778725E+02  0.7816164E-02  0.1312668E+00
        -11   -1    0    0    0    0  0.00000000000E+00  0.00000000000E+00  0.45593999997E+02  0.45594000000E+02  0.51100000000E-03 0. -1.
         11   -1    0    0    0    0 -0.00000000000E+00 -0.00000000000E+00 -0.45593999997E+02  0.45594000000E+02  0.51100000000E-03 0.  1.
    9900012    2    1    2    0    0 -0.25782966170E+02  0.25118382420E+01  0.34821746145E+02  0.47787254839E+02  0.19999926115E+02 0.  0.
        -12    1    1    2    0    0  0.25782966170E+02 -0.25118382420E+01 -0.34821746145E+02  0.43400745161E+02  0.00000000000E+00 0.  1.
         11    1    3    3    0    0 -0.10198065039E+02  0.78722704018E+01  0.12041608228E+02  0.17634440757E+02  0.51100000000E-03 0. -1.
        -11    1    3    3    0    0 -0.17225386594E+01  0.19416978132E+01  0.11353128168E+00  0.25981184430E+01  0.51100000000E-03 0.  1.
        -12    1    3    3    0    0 -0.13862362472E+02 -0.73021299730E+01  0.22666606635E+02  0.27554695640E+02  0.00000000000E+00 0.  1.
</event>
<event>
 7    1  0.3807360E-011  0.4778730E+02  0.7816164E-02  0.1312668E+00
        -11   -1    0    0    0    0  0.00000000000E+00  0.00000000000E+00  0.45593999997E+02  0.45594000000E+02  0.51100000000E-03 0. -1.
         11   -1    0    0    0    0 -0.00000000000E+00 -0.00000000000E+00 -0.45593999997E+02  0.45594000000E+02  0.51100000000E-03 0.  1.
    9900012    2    1    2    0    0 -0.95001392471E+01  0.42910668577E+01  0.42130208557E+02  0.47787304457E+02  0.20000152342E+02 0.  0.
        -12    1    1    2    0    0  0.95001392471E+01 -0.42910668577E+01 -0.42130208557E+02  0.43400695543E+02  0.00000000000E+00 0.  1.
         11    1    3    3    0    0 -0.84185446348E+01  0.67820084185E+00  0.26686471380E+02  0.27991062951E+02  0.51100000000E-03 0. -1.
        -11    1    3    3    0    0 -0.23673591963E+01 -0.21976442915E+01 -0.16468172035E-01  0.32302169366E+01  0.51100000000E-03 0.  1.
         12    1    3    3    0    0  0.12857645839E+01  0.58105103073E+01  0.15460205349E+02  0.16566024569E+02  0.00000000000E+00 0. -1.
</event>
<event>
 7    1  0.3807360E-011  0.4778729E+02  0.7816164E-02  0.1312668E+00
        -11   -1    0    0    0    0  0.00000000000E+00  0.00000000000E+00  0.45593999997E+02  0.45594000000E+02  0.51100000000E-03 0.  1.
         11   -1    0    0    0    0 -0.00000000000E+00 -0.00000000000E+00 -0.45593999997E+02  0.45594000000E+02  0.51100000000E-03 0. -1.
    9900012    2    1    2    0    0  0.20143010094E+02  0.30220969549E+02 -0.23760768176E+02  0.47787286176E+02  0.20000068993E+02 0.  0.
         12    1    1    2    0    0 -0.20143010094E+02 -0.30220969549E+02  0.23760768176E+02  0.43400713824E+02  0.00000000000E+00 0. -1.
         11    1    3    3    0    0  0.18865142420E+02  0.28254407837E+02 -0.22656858531E+02  0.40835504154E+02  0.51100000000E-03 0. -1.
        -11    1    3    3    0    0 -0.64786782193E+00  0.34628348172E+01 -0.23284806426E+01  0.42228876435E+01  0.51100000000E-03 0.  1.
         12    1    3    3    0    0  0.19257354958E+01 -0.14962731053E+01  0.12245709977E+01  0.27288943794E+01  0.00000000000E+00 0. -1.
</event>
<event>
 7    1  0.3807360E-011  0.4778727E+02  0.7816164E-02  0.1312668E+00
        -11   -1    0    0    0    0  0.00000000000E+00  0.00000000000E+00  0.45593999997E+02  0.45594000000E+02  0.51100000000E-03 0. -1.
         11   -1    0    0    0    0 -0.00000000000E+00 -0.00000000000E+00 -0.45593999997E+02  0.45594000000E+02  0.51100000000E-03 0.  1.
    9900012    2    1    2    0    0 -0.26254419912E+02  0.27644088272E+02  0.20739659766E+02  0.47787266498E+02  0.19999979271E+02 0.  0.
        -12    1    1    2    0    0  0.26254419912E+02 -0.27644088272E+02 -0.20739659766E+02  0.43400733502E+02  0.00000000000E+00 0.  1.
         11    1    3    3    0    0 -0.10218811424E+02  0.13060390314E+02  0.10026759127E+02  0.19378694511E+02  0.51100000000E-03 0. -1.
        -11    1    3    3    0    0  0.13327756260E+01  0.11839051174E+01 -0.22943891772E+01  0.29055368099E+01  0.51100000000E-03 0.  1.
         12    1    3    3    0    0 -0.17368384114E+02  0.13399792840E+02  0.13007289816E+02  0.25503035177E+02  0.00000000000E+00 0. -1.
</event>
<event>
 7    1  0.4328785E-011  0.4778727E+02  0.7816164E-02  0.1312668E+00
        -11   -1    0    0    0    0  0.00000000000E+00  0.00000000000E+00  0.45593999997E+02  0.45594000000E+02  0.51100000000E-03 0. -1.
         11   -1    0    0    0    0 -0.00000000000E+00 -0.00000000000E+00 -0.45593999997E+02  0.45594000000E+02  0.51100000000E-03 0.  1.
    9900012    2    1    2    0    0  0.36035770702E+02  0.15511392661E+02 -0.18559176201E+02  0.47787273121E+02  0.20000009470E+02 0.  0.
         12    1    1    2    0    0 -0.36035770702E+02 -0.15511392661E+02  0.18559176201E+02  0.43400726879E+02  0.00000000000E+00 0. -1.
         11    1    3    3    0    0  0.25340141674E+01 -0.22159069639E+01 -0.43004284305E+01  0.54612412894E+01  0.51100000000E-03 0. -1.
        -11    1    3    3    0    0  0.13025001108E+02  0.11873397604E+02 -0.11014287388E+02  0.20783232459E+02  0.51100000000E-03 0.  1.
         12    1    3    3    0    0  0.20476755426E+02  0.58539020208E+01 -0.32444603824E+01  0.21542799373E+02  0.00000000000E+00 0. -1.
</event>
<event>
 7    1  0.3807360E-011  0.4778727E+02  0.7816164E-02  0.1312668E+00
        -11   -1    0    0    0    0  0.00000000000E+00  0.00000000000E+00  0.45593999997E+02  0.45594000000E+02  0.51100000000E-03 0. -1.
         11   -1    0    0    0    0 -0.00000000000E+00 -0.00000000000E+00 -0.45593999997E+02  0.45594000000E+02  0.51100000000E-03 0.  1.
    9900012    2    1    2    0    0  0.13818159048E+01 -0.23849708877E+01 -0.43313113461E+02  0.47787270755E+02  0.19999998678E+02 0.  0.
         12    1    1    2    0    0 -0.13818159048E+01  0.23849708877E+01  0.43313113461E+02  0.43400729245E+02  0.00000000000E+00 0. -1.
         11    1    3    3    0    0 -0.33356075339E+01 -0.32139535603E+01 -0.21815587331E+02  0.22301919782E+02  0.51100000000E-03 0. -1.
        -11    1    3    3    0    0 -0.30214278494E+01 -0.35852289738E+01 -0.88445034936E+01  0.10010401358E+02  0.51100000000E-03 0.  1.
        -12    1    3    3    0    0  0.77388512880E+01  0.44142116465E+01 -0.12653022637E+02  0.15474949614E+02  0.00000000000E+00 0.  1.
</event>
<event>
 7    1  0.3807360E-011  0.4778727E+02  0.7816164E-02  0.1312668E+00
        -11   -1    0    0    0    0  0.00000000000E+00  0.00000000000E+00  0.45593999997E+02  0.45594000000E+02  0.51100000000E-03 0. -1.
         11   -1    0    0    0    0 -0.00000000000E+00 -0.00000000000E+00 -0.45593999997E+02  0.45594000000E+02  0.51100000000E-03 0.  1.
    9900012    2    1    2    0    0 -0.23671442460E+02 -0.17157174449E+02  0.32076741916E+02  0.47787271951E+02  0.20000004134E+02 0.  0.
        -12    1    1    2    0    0  0.23671442460E+02  0.17157174449E+02 -0.32076741916E+02  0.43400728049E+02  0.00000000000E+00 0.  1.
         11    1    3    3    0    0 -0.14212261619E+02 -0.10103231353E+02  0.88794972750E+01  0.19568064192E+02  0.51100000000E-03 0. -1.
        -11    1    3    3    0    0  0.90369373959E+00  0.20699446960E+01  0.34635641253E+01  0.41349256500E+01  0.51100000000E-03 0.  1.
        -12    1    3    3    0    0 -0.10362874581E+02 -0.91238877915E+01  0.19733680516E+02  0.24084282109E+02  0.00000000000E+00 0.  1.
</event>
<event>
 7    1  0.3807360E-011  0.4778727E+02  0.7816164E-02  0.1312668E+00
        -11   -1    0    0    0    0  0.00000000000E+00  0.00000000000E+00  0.45593999997E+02  0.45594000000E+02  0.51100000000E-03 0. -1.
         11   -1    0    0    0    0 -0.00000000000E+00 -0.00000000000E+00 -0.45593999997E+02  0.45594000000E+02  0.51100000000E-03 0.  1.
    9900012    2    1    2    0    0 -0.38240831404E+01 -0.19566705538E+02 -0.38550535343E+02  0.47787270136E+02  0.19999995859E+02 0.  0.
         12    1    1    2    0    0  0.38240831404E+01  0.19566705538E+02  0.38550535343E+02  0.43400729864E+02  0.00000000000E+00 0. -1.
         11    1    3    3    0    0 -0.98103404775E+01 -0.15473613782E+02 -0.26686018783E+02  0.32370034020E+02  0.51100000000E-03 0. -1.
        -11    1    3    3    0    0  0.21155557254E+01 -0.41813392038E+01 -0.25609084906E+01  0.53401709825E+01  0.51100000000E-03 0.  1.
        -12    1    3    3    0    0  0.38707016117E+01  0.88247447561E-01 -0.93036080698E+01  0.10077065133E+02  0.00000000000E+00 0.  1.
</event>
<event>
 7    1  0.3807360E-011  0.4778730E+02  0.7816164E-02  0.1312668E+00
        -11   -1    0    0    0    0  0.00000000000E+00  0.00000000000E+00  0.45593999997E+02  0.45594000000E+02  0.51100000000E-03 0. -1.
         11   -1    0    0    0    0 -0.00000000000E+00 -0.00000000000E+00 -0.45593999997E+02  0.45594000000E+02  0.51100000000E-03 0.  1.
    9900012    2    1    2    0    0  0.21600389114E+02  0.65006066472E+01 -0.37078107381E+02  0.47787300195E+02  0.20000132907E+02 0.  0.
         12    1    1    2    0    0 -0.21600389114E+02 -0.65006066472E+01  0.37078107381E+02  0.43400699805E+02  0.00000000000E+00 0. -1.
         11    1    3    3    0    0  0.33211949055E+01  0.62013478688E+01 -0.15504186638E+02  0.17025476632E+02  0.51100000000E-03 0.  1.
        -11    1    3    3    0    0  0.19284977690E+02  0.23108677241E+01 -0.17677922864E+02  0.26263271525E+02  0.51100000000E-03 0. -1.
         12    1    3    3    0    0 -0.10057834814E+01 -0.20116089457E+01 -0.38959978789E+01  0.44985520375E+01  0.00000000000E+00 0. -1.
</event>
<event>
 7    1  0.3807360E-011  0.4778727E+02  0.7816164E-02  0.1312668E+00
        -11   -1    0    0    0    0  0.00000000000E+00  0.00000000000E+00  0.45593999997E+02  0.45594000000E+02  0.51100000000E-03 0.  1.
         11   -1    0    0    0    0 -0.00000000000E+00 -0.00000000000E+00 -0.45593999997E+02  0.45594000000E+02  0.51100000000E-03 0. -1.
    9900012    2    1    2    0    0  0.10610531142E+01  0.29938876782E+02  0.31403201533E+02  0.47787271398E+02  0.20000001613E+02 0.  0.
        -12    1    1    2    0    0 -0.10610531142E+01 -0.29938876782E+02 -0.31403201533E+02  0.43400728602E+02  0.00000000000E+00 0.  1.
         11    1    3    3    0    0  0.37268128705E+00  0.42484860488E+01  0.59902873244E+01  0.73533711683E+01  0.51100000000E-03 0. -1.
        -11    1    3    3    0    0  0.28295908487E+01  0.10015400457E+02 -0.10698171270E+00  0.10407990970E+02  0.51100000000E-03 0.  1.
         12    1    3    3    0    0 -0.21412190216E+01  0.15674990276E+02  0.25519895921E+02  0.30025909260E+02  0.00000000000E+00 0. -1.
</event>
<event>
 7    1  0.3807360E-011  0.4778727E+02  0.7816164E-02  0.1312668E+00
        -11   -1    0    0    0    0  0.00000000000E+00  0.00000000000E+00  0.45593999997E+02  0.45594000000E+02  0.51100000000E-03 0. -1.
         11   -1    0    0    0    0 -0.00000000000E+00 -0.00000000000E+00 -0.45593999997E+02  0.45594000000E+02  0.51100000000E-03 0.  1.
    9900012    2    1    2    0    0 -0.41065399748E+02 -0.47127878221E+01  0.13230491197E+02  0.47787270481E+02  0.19999997430E+02 0.  0.
        -12    1    1    2    0    0  0.41065399748E+02  0.47127878221E+01 -0.13230491197E+02  0.43400729519E+02  0.00000000000E+00 0.  1.
         11    1    3    3    0    0 -0.20340461984E+02  0.15399070738E+01  0.99640120611E+01  0.22702141840E+02  0.51100000000E-03 0. -1.
        -11    1    3    3    0    0 -0.15231774840E+02 -0.80581913883E+01  0.65508820074E+01  0.18435169339E+02  0.51100000000E-03 0.  1.
         12    1    3    3    0    0 -0.54931629234E+01  0.18054964924E+01 -0.32844028713E+01  0.66499593012E+01  0.00000000000E+00 0. -1.
</event>
<event>
 7    1  0.3807360E-011  0.4778732E+02  0.7816164E-02  0.1312668E+00
        -11   -1    0    0    0    0  0.00000000000E+00  0.00000000000E+00  0.45593999997E+02  0.45594000000E+02  0.51100000000E-03 0. -1.
         11   -1    0    0    0    0 -0.00000000000E+00 -0.00000000000E+00 -0.45593999997E+02  0.45594000000E+02  0.51100000000E-03 0.  1.
    9900012    2    1    2    0    0  0.84988294415E+01 -0.42531964436E+02  0.15559356170E+01  0.47787319864E+02  0.20000222585E+02 0.  0.
        -12    1    1    2    0    0 -0.84988294415E+01  0.42531964436E+02 -0.15559356170E+01  0.43400680136E+02  0.00000000000E+00 0.  1.
         11    1    3    3    0    0  0.95201579560E+01 -0.18633002070E+02 -0.17671935080E+01  0.20998693931E+02  0.51100000000E-03 0. -1.
        -11    1    3    3    0    0  0.12803837553E+01 -0.86291130847E+01  0.66778160174E+01  0.10986091307E+02  0.51100000000E-03 0.  1.
        -12    1    3    3    0    0 -0.23017122698E+01 -0.15269849281E+02 -0.33546868924E+01  0.15802534625E+02  0.00000000000E+00 0.  1.
</event>
<event>
 7    1  0.3807360E-011  0.4778727E+02  0.7816164E-02  0.1312668E+00
        -11   -1    0    0    0    0  0.00000000000E+00  0.00000000000E+00  0.45593999997E+02  0.45594000000E+02  0.51100000000E-03 0. -1.
         11   -1    0    0    0    0 -0.00000000000E+00 -0.00000000000E+00 -0.45593999997E+02  0.45594000000E+02  0.51100000000E-03 0.  1.
    9900012    2    1    2    0    0 -0.11082299817E+02 -0.88040270520E+01 -0.41027976932E+02  0.47787272441E+02  0.20000006367E+02 0.  0.
         12    1    1    2    0    0  0.11082299817E+02  0.88040270520E+01  0.41027976932E+02  0.43400727559E+02  0.00000000000E+00 0. -1.
         11    1    3    3    0    0 -0.91896246420E+01 -0.82301062021E+01 -0.17245967086E+02  0.21203943740E+02  0.51100000000E-03 0. -1.
        -11    1    3    3    0    0  0.28983609385E+00  0.36495187107E+00  0.13041455720E+01  0.13849154356E+01  0.51100000000E-03 0.  1.
        -12    1    3    3    0    0 -0.21825112688E+01 -0.93887272100E+00 -0.25086155418E+02  0.25198413265E+02  0.00000000000E+00 0.  1.
</event>
<event>
 7    1  0.3807360E-011  0.4778728E+02  0.7816164E-02  0.1312668E+00
        -11   -1    0    0    0    0  0.00000000000E+00  0.00000000000E+00  0.45593999997E+02  0.45594000000E+02  0.51100000000E-03 0. -1.
         11   -1    0    0    0    0 -0.00000000000E+00 -0.00000000000E+00 -0.45593999997E+02  0.45594000000E+02  0.51100000000E-03 0.  1.
    9900012    2    1    2    0    0 -0.28808302982E+02  0.55909616618E+01 -0.31975692990E+02  0.47787284393E+02  0.20000060862E+02 0.  0.
         12    1    1    2    0    0  0.28808302982E+02 -0.55909616618E+01  0.31975692990E+02  0.43400715607E+02  0.00000000000E+00 0. -1.
         11    1    3    3    0    0 -0.15315144682E+02 -0.43827172609E+01 -0.63766391466E+01  0.17158770186E+02  0.51100000000E-03 0. -1.
        -11    1    3    3    0    0 -0.53413220302E+01  0.32748557571E+01 -0.95544821214E+01  0.11425521000E+02  0.51100000000E-03 0.  1.
         12    1    3    3    0    0 -0.81518362694E+01  0.66988231656E+01 -0.16044571722E+02  0.19202993207E+02  0.00000000000E+00 0. -1.
</event>
<event>
 7    1  0.3807360E-011  0.4778727E+02  0.7816164E-02  0.1312668E+00
        -11   -1    0    0    0    0  0.00000000000E+00  0.00000000000E+00  0.45593999997E+02  0.45594000000E+02  0.51100000000E-03 0. -1.
         11   -1    0    0    0    0 -0.00000000000E+00 -0.00000000000E+00 -0.45593999997E+02  0.45594000000E+02  0.51100000000E-03 0.  1.
    9900012    2    1    2    0    0 -0.27622068222E+02 -0.33383935697E+02 -0.24814480614E+01  0.47787269592E+02  0.19999993377E+02 0.  0.
        -12    1    1    2    0    0  0.27622068222E+02  0.33383935697E+02  0.24814480614E+01  0.43400730408E+02  0.00000000000E+00 0.  1.
         11    1    3    3    0    0 -0.54422970700E+01 -0.15074890974E+02 -0.62500785355E+01  0.17202744468E+02  0.51100000000E-03 0.  1.
        -11    1    3    3    0    0 -0.16459853949E+02 -0.12591353614E+02 -0.17439461903E+01  0.20796882613E+02  0.51100000000E-03 0. -1.
        -12    1    3    3    0    0 -0.57199172034E+01 -0.57176911089E+01  0.55125766644E+01  0.97876425104E+01  0.00000000000E+00 0.  1.
</event>
<event>
 7    1  0.3807360E-011  0.4778727E+02  0.7816164E-02  0.1312668E+00
        -11   -1    0    0    0    0  0.00000000000E+00  0.00000000000E+00  0.45593999997E+02  0.45594000000E+02  0.51100000000E-03 0. -1.
         11   -1    0    0    0    0 -0.00000000000E+00 -0.00000000000E+00 -0.45593999997E+02  0.45594000000E+02  0.51100000000E-03 0.  1.
    9900012    2    1    2    0    0  0.19492720845E+02  0.12400323569E+02  0.36740836608E+02  0.47787271145E+02  0.20000000457E+02 0.  0.
        -12    1    1    2    0    0 -0.19492720845E+02 -0.12400323569E+02 -0.36740836608E+02  0.43400728855E+02  0.00000000000E+00 0.  1.
         11    1    3    3    0    0  0.10851662878E+02  0.24621135397E+01  0.22304072503E+02  0.24925734509E+02  0.51100000000E-03 0. -1.
        -11    1    3    3    0    0 -0.16960034411E+01  0.33430276663E+01 -0.21633678539E+00  0.37548719706E+01  0.51100000000E-03 0.  1.
         12    1    3    3    0    0  0.10337061408E+02  0.65951823626E+01  0.14653100890E+02  0.19106664665E+02  0.00000000000E+00 0. -1.
</event>
<event>
 7    1  0.3807360E-011  0.4778727E+02  0.7816164E-02  0.1312668E+00
        -11   -1    0    0    0    0  0.00000000000E+00  0.00000000000E+00  0.45593999997E+02  0.45594000000E+02  0.51100000000E-03 0. -1.
         11   -1    0    0    0    0 -0.00000000000E+00 -0.00000000000E+00 -0.45593999997E+02  0.45594000000E+02  0.51100000000E-03 0.  1.
    9900012    2    1    2    0    0 -0.35610640446E+02 -0.24131926269E+02 -0.57581134582E+01  0.47787269027E+02  0.19999990799E+02 0.  0.
         12    1    1    2    0    0  0.35610640446E+02  0.24131926269E+02  0.57581134582E+01  0.43400730973E+02  0.00000000000E+00 0. -1.
         11    1    3    3    0    0 -0.25003188758E+01 -0.26976098546E+01  0.32717163375E+01  0.49226843757E+01  0.51100000000E-03 0. -1.
        -11    1    3    3    0    0 -0.10789544532E+02 -0.17486519308E+01 -0.71140957556E+01  0.13041564840E+02  0.51100000000E-03 0.  1.
        -12    1    3    3    0    0 -0.22320777038E+02 -0.19685664483E+02 -0.19157340402E+01  0.29823019811E+02  0.00000000000E+00 0.  1.
</event>
<event>
 7    1  0.3807360E-011  0.4778726E+02  0.7816164E-02  0.1312668E+00
        -11   -1    0    0    0    0  0.00000000000E+00  0.00000000000E+00  0.45593999997E+02  0.45594000000E+02  0.51100000000E-03 0. -1.
         11   -1    0    0    0    0 -0.00000000000E+00 -0.00000000000E+00 -0.45593999997E+02  0.45594000000E+02  0.51100000000E-03 0.  1.
    9900012    2    1    2    0    0 -0.18494779910E+02 -0.32777893922E+02  0.21614268914E+02  0.47787264585E+02  0.19999970549E+02 0.  0.
        -12    1    1    2    0    0  0.18494779910E+02  0.32777893922E+02 -0.21614268914E+02  0.43400735415E+02  0.00000000000E+00 0.  1.
         11    1    3    3    0    0 -0.14587220916E+02 -0.16690040460E+02  0.41081761507E+01  0.22543770229E+02  0.51100000000E-03 0. -1.
        -11    1    3    3    0    0  0.20493137029E+01 -0.34959983582E+01  0.24663023961E+01  0.47438738330E+01  0.51100000000E-03 0.  1.
         12    1    3    3    0    0 -0.59568726966E+01 -0.12591855104E+02  0.15039790367E+02  0.20499620523E+02  0.00000000000E+00 0. -1.
</event>
<event>
 7    1  0.3807360E-011  0.4778728E+02  0.7816164E-02  0.1312668E+00
        -11   -1    0    0    0    0  0.00000000000E+00  0.00000000000E+00  0.45593999997E+02  0.45594000000E+02  0.51100000000E-03 0. -1.
         11   -1    0    0    0    0 -0.00000000000E+00 -0.00000000000E+00 -0.45593999997E+02  0.45594000000E+02  0.51100000000E-03 0.  1.
    9900012    2    1    2    0    0 -0.32273677715E+02 -0.54909384245E+01  0.28493543984E+02  0.47787277347E+02  0.20000028735E+02 0.  0.
        -12    1    1    2    0    0  0.32273677715E+02  0.54909384245E+01 -0.28493543984E+02  0.43400722653E+02  0.00000000000E+00 0.  1.
         11    1    3    3    0    0 -0.45663815374E+01  0.18477972530E+01 -0.88267447260E+00  0.50045289008E+01  0.51100000000E-03 0. -1.
        -11    1    3    3    0    0 -0.32879260350E+01 -0.55162651967E+01  0.81518410028E+01  0.10377482899E+02  0.51100000000E-03 0.  1.
         12    1    3    3    0    0 -0.24419370143E+02 -0.18224704808E+01  0.21224377454E+02  0.32405265546E+02  0.00000000000E+00 0. -1.
</event>
<event>
 7    1  0.3807360E-011  0.4778727E+02  0.7816164E-02  0.1312668E+00
        -11   -1    0    0    0    0  0.00000000000E+00  0.00000000000E+00  0.45593999997E+02  0.45594000000E+02  0.51100000000E-03 0. -1.
         11   -1    0    0    0    0 -0.00000000000E+00 -0.00000000000E+00 -0.45593999997E+02  0.45594000000E+02  0.51100000000E-03 0.  1.
    9900012    2    1    2    0    0  0.22739296590E+02  0.25363658335E+02 -0.26892981576E+02  0.47787271531E+02  0.20000002219E+02 0.  0.
         12    1    1    2    0    0 -0.22739296590E+02 -0.25363658335E+02  0.26892981576E+02  0.43400728469E+02  0.00000000000E+00 0. -1.
         11    1    3    3    0    0 -0.13826628329E+01  0.29925686707E+01 -0.28701426891E+01  0.43709201634E+01  0.51100000000E-03 0. -1.
        -11    1    3    3    0    0  0.19778500210E+02  0.24016542564E+02 -0.22917677274E+02  0.38641989068E+02  0.51100000000E-03 0.  1.
         12    1    3    3    0    0  0.43434592125E+01 -0.16454528988E+01 -0.11051616134E+01  0.47743622993E+01  0.00000000000E+00 0. -1.
</event>
<event>
 7    1  0.3807360E-011  0.4778727E+02  0.7816164E-02  0.1312668E+00
        -11   -1    0    0    0    0  0.00000000000E+00  0.00000000000E+00  0.45593999997E+02  0.45594000000E+02  0.51100000000E-03 0. -1.
         11   -1    0    0    0    0 -0.00000000000E+00 -0.00000000000E+00 -0.45593999997E+02  0.45594000000E+02  0.51100000000E-03 0.  1.
    9900012    2    1    2    0    0  0.35766360263E+02 -0.56984551873E+01  0.23914818825E+02  0.47787268699E+02  0.19999989305E+02 0.  0.
        -12    1    1    2    0    0 -0.35766360263E+02  0.56984551873E+01 -0.23914818825E+02  0.43400731301E+02  0.00000000000E+00 0.  1.
         11    1    3    3    0    0  0.18874444468E+02 -0.65024083397E+00  0.10965177237E+02  0.21838099258E+02  0.51100000000E-03 0. -1.
        -11    1    3    3    0    0  0.26530669771E+01  0.13062343357E+01 -0.25932197121E+01  0.39331668235E+01  0.51100000000E-03 0.  1.
        -12    1    3    3    0    0  0.14238848818E+02 -0.63544486890E+01  0.15542861301E+02  0.22016002617E+02  0.00000000000E+00 0.  1.
</event>
<event>
 7    1  0.3807360E-011  0.4778727E+02  0.7816164E-02  0.1312668E+00
        -11   -1    0    0    0    0  0.00000000000E+00  0.00000000000E+00  0.45593999997E+02  0.45594000000E+02  0.51100000000E-03 0. -1.
         11   -1    0    0    0    0 -0.00000000000E+00 -0.00000000000E+00 -0.45593999997E+02  0.45594000000E+02  0.51100000000E-03 0.  1.
    9900012    2    1    2    0    0  0.14485831714E+02  0.25683470539E+02  0.31845611763E+02  0.47787274569E+02  0.20000016069E+02 0.  0.
        -12    1    1    2    0    0 -0.14485831714E+02 -0.25683470539E+02 -0.31845611763E+02  0.43400725431E+02  0.00000000000E+00 0.  1.
         11    1    3    3    0    0  0.13035072800E+02  0.72202678491E+01  0.13207042228E+02  0.19911588470E+02  0.51100000000E-03 0. -1.
        -11    1    3    3    0    0 -0.49116615630E+00  0.72314087237E+01  0.16763238204E+01  0.74393936672E+01  0.51100000000E-03 0.  1.
        -12    1    3    3    0    0  0.19419250706E+01  0.11231793966E+02  0.16962245714E+02  0.20436292432E+02  0.00000000000E+00 0.  1.
</event>
<event>
 7    1  0.3807360E-011  0.4778727E+02  0.7816164E-02  0.1312668E+00
        -11   -1    0    0    0    0  0.00000000000E+00  0.00000000000E+00  0.45593999997E+02  0.45594000000E+02  0.51100000000E-03 0.  1.
         11   -1    0    0    0    0 -0.00000000000E+00 -0.00000000000E+00 -0.45593999997E+02  0.45594000000E+02  0.51100000000E-03 0. -1.
    9900012    2    1    2    0    0 -0.13333723160E+02 -0.34640852322E+02 -0.22491028860E+02  0.47787271871E+02  0.20000003770E+02 0.  0.
         12    1    1    2    0    0  0.13333723160E+02  0.34640852322E+02  0.22491028860E+02  0.43400728129E+02  0.00000000000E+00 0. -1.
         11    1    3    3    0    0 -0.19373652442E+01  0.56581161560E+00  0.34002815217E+00  0.20467404034E+01  0.51100000000E-03 0. -1.
        -11    1    3    3    0    0  0.13832269899E+01  0.67961115826E+00 -0.90098227864E+00  0.17852051870E+01  0.51100000000E-03 0.  1.
        -12    1    3    3    0    0 -0.12779584906E+02 -0.35886275096E+02 -0.21930074734E+02  0.43955326281E+02  0.00000000000E+00 0.  1.
</event>
<event>
 7    1  0.3807360E-011  0.4778728E+02  0.7816164E-02  0.1312668E+00
        -11   -1    0    0    0    0  0.00000000000E+00  0.00000000000E+00  0.45593999997E+02  0.45594000000E+02  0.51100000000E-03 0. -1.
         11   -1    0    0    0    0 -0.00000000000E+00 -0.00000000000E+00 -0.45593999997E+02  0.45594000000E+02  0.51100000000E-03 0.  1.
    9900012    2    1    2    0    0  0.24144712785E+02 -0.14461967698E+01 -0.36035597380E+02  0.47787275132E+02  0.20000018635E+02 0.  0.
         12    1    1    2    0    0 -0.24144712785E+02  0.14461967698E+01  0.36035597380E+02  0.43400724868E+02  0.00000000000E+00 0. -1.
         11    1    3    3    0    0  0.25566365261E+01  0.42985888015E+01 -0.50665805741E+01  0.71193043891E+01  0.51100000000E-03 0. -1.
        -11    1    3    3    0    0  0.16553979384E+02 -0.79136014505E+01 -0.14731872526E+02  0.23530562886E+02  0.51100000000E-03 0.  1.
        -12    1    3    3    0    0  0.50340968751E+01  0.21688158792E+01 -0.16237144280E+02  0.17137407856E+02  0.00000000000E+00 0.  1.
</event>
<event>
 7    1  0.3807360E-011  0.4778726E+02  0.7816164E-02  0.1312668E+00
        -11   -1    0    0    0    0  0.00000000000E+00  0.00000000000E+00  0.45593999997E+02  0.45594000000E+02  0.51100000000E-03 0. -1.
         11   -1    0    0    0    0 -0.00000000000E+00 -0.00000000000E+00 -0.45593999997E+02  0.45594000000E+02  0.51100000000E-03 0.  1.
    9900012    2    1    2    0    0  0.20627022650E+02 -0.32735901889E+02  0.19659881187E+02  0.47787259636E+02  0.19999947985E+02 0.  0.
        -12    1    1    2    0    0 -0.20627022650E+02  0.32735901889E+02 -0.19659881187E+02  0.43400740364E+02  0.00000000000E+00 0.  1.
         11    1    3    3    0    0  0.57665948095E+01 -0.80466841548E+01  0.84547966585E+01  0.13018691500E+02  0.51100000000E-03 0. -1.
        -11    1    3    3    0    0 -0.25368585663E+01 -0.39957301739E+01 -0.14053022209E+01  0.49372447378E+01  0.51100000000E-03 0.  1.
        -12    1    3    3    0    0  0.17397286407E+02 -0.20693487560E+02  0.12610386749E+02  0.29831323398E+02  0.00000000000E+00 0.  1.
</event>
<event>
 7    1  0.3807360E-011  0.4778727E+02  0.7816164E-02  0.1312668E+00
        -11   -1    0    0    0    0  0.00000000000E+00  0.00000000000E+00  0.45593999997E+02  0.45594000000E+02  0.51100000000E-03 0. -1.
         11   -1    0    0    0    0 -0.00000000000E+00 -0.00000000000E+00 -0.45593999997E+02  0.45594000000E+02  0.51100000000E-03 0.  1.
    9900012    2    1    2    0    0  0.36068397155E+02 -0.19668507688E+01  0.24058797379E+02  0.47787268363E+02  0.19999987775E+02 0.  0.
        -12    1    1    2    0    0 -0.36068397155E+02  0.19668507688E+01 -0.24058797379E+02  0.43400731637E+02  0.00000000000E+00 0.  1.
         11    1    3    3    0    0  0.42758099509E+01 -0.43207034802E+01  0.16028407597E+01  0.62865036437E+01  0.51100000000E-03 0. -1.
        -11    1    3    3    0    0  0.15034439864E+01 -0.30816062965E+01  0.51742884579E+01  0.62072459669E+01  0.51100000000E-03 0.  1.
         12    1    3    3    0    0  0.30289143218E+02  0.54354590079E+01  0.17281668162E+02  0.35293518753E+02  0.00000000000E+00 0. -1.
</event>
<event>
 7    1  0.3807360E-011  0.4778727E+02  0.7816164E-02  0.1312668E+00
        -11   -1    0    0    0    0  0.00000000000E+00  0.00000000000E+00  0.45593999997E+02  0.45594000000E+02  0.51100000000E-03 0.  1.
         11   -1    0    0    0    0 -0.00000000000E+00 -0.00000000000E+00 -0.45593999997E+02  0.45594000000E+02  0.51100000000E-03 0. -1.
    9900012    2    1    2    0    0  0.37583920412E+02 -0.72797311943E+01 -0.20446945434E+02  0.47787272617E+02  0.20000007169E+02 0.  0.
         12    1    1    2    0    0 -0.37583920412E+02  0.72797311943E+01  0.20446945434E+02  0.43400727383E+02  0.00000000000E+00 0. -1.
         11    1    3    3    0    0  0.27784759935E+02  0.16170915403E+01 -0.80603811789E+01  0.28975465738E+02  0.51100000000E-03 0. -1.
        -11    1    3    3    0    0  0.80651097390E+01 -0.49554047467E+01 -0.63562715866E+01  0.11401939311E+02  0.51100000000E-03 0.  1.
         12    1    3    3    0    0  0.17340507382E+01 -0.39414179880E+01 -0.60302926681E+01  0.74098675684E+01  0.00000000000E+00 0. -1.
</event>
<event>
 7    1  0.3807360E-011  0.4778728E+02  0.7816164E-02  0.1312668E+00
        -11   -1    0    0    0    0  0.00000000000E+00  0.00000000000E+00  0.45593999997E+02  0.45594000000E+02  0.51100000000E-03 0. -1.
         11   -1    0    0    0    0 -0.00000000000E+00 -0.00000000000E+00 -0.45593999997E+02  0.45594000000E+02  0.51100000000E-03 0.  1.
    9900012    2    1    2    0    0 -0.52682800063E+01 -0.26779752119E+02  0.33744820523E+02  0.47787276390E+02  0.20000024372E+02 0.  0.
        -12    1    1    2    0    0  0.52682800063E+01  0.26779752119E+02 -0.33744820523E+02  0.43400723610E+02  0.00000000000E+00 0.  1.
         11    1    3    3    0    0  0.55645716425E+01 -0.15154856640E+02  0.11361568207E+02  0.19741311246E+02  0.51100000000E-03 0. -1.
        -11    1    3    3    0    0 -0.42298196722E+01 -0.35960445398E+01  0.37199572112E+01  0.66828880513E+01  0.51100000000E-03 0.  1.
         12    1    3    3    0    0 -0.66030319766E+01 -0.80288509387E+01  0.18663295105E+02  0.21363077092E+02  0.00000000000E+00 0. -1.
</event>
<event>
 7    1  0.3807360E-011  0.4778727E+02  0.7816164E-02  0.1312668E+00
        -11   -1    0    0    0    0  0.00000000000E+00  0.00000000000E+00  0.45593999997E+02  0.45594000000E+02  0.51100000000E-03 0. -1.
         11   -1    0    0    0    0 -0.00000000000E+00 -0.00000000000E+00 -0.45593999997E+02  0.45594000000E+02  0.51100000000E-03 0.  1.
    9900012    2    1    2    0    0  0.15684490578E+02 -0.18578529289E+02 -0.35950775290E+02  0.47787271444E+02  0.20000001821E+02 0.  0.
         12    1    1    2    0    0 -0.15684490578E+02  0.18578529289E+02  0.35950775290E+02  0.43400728556E+02  0.00000000000E+00 0. -1.
         11    1    3    3    0    0  0.19357529178E+01 -0.63553617250E+01 -0.20545934943E+02  0.21593360205E+02  0.51100000000E-03 0. -1.
        -11    1    3    3    0    0  0.21897491442E+01  0.95463894573E+00  0.59394961753E+00  0.24615266077E+01  0.51100000000E-03 0.  1.
        -12    1    3    3    0    0  0.11558988516E+02 -0.13177806510E+02 -0.15998789965E+02  0.23732384631E+02  0.00000000000E+00 0.  1.
</event>
<event>
 7    1  0.3807360E-011  0.4778727E+02  0.7816164E-02  0.1312668E+00
        -11   -1    0    0    0    0  0.00000000000E+00  0.00000000000E+00  0.45593999997E+02  0.45594000000E+02  0.51100000000E-03 0. -1.
         11   -1    0    0    0    0 -0.00000000000E+00 -0.00000000000E+00 -0.45593999997E+02  0.45594000000E+02  0.51100000000E-03 0.  1.
    9900012    2    1    2    0    0 -0.20509155398E+02  0.33607301149E+02 -0.18263272142E+02  0.47787271262E+02  0.20000000992E+02 0.  0.
         12    1    1    2    0    0  0.20509155398E+02 -0.33607301149E+02  0.18263272142E+02  0.43400728738E+02  0.00000000000E+00 0. -1.
         11    1    3    3    0    0 -0.32517426258E+01  0.11918349517E+02 -0.70947234406E+01  0.14246262186E+02  0.51100000000E-03 0. -1.
        -11    1    3    3    0    0 -0.13479763338E+02  0.54228134306E+01 -0.78527734980E+01  0.16515961281E+02  0.51100000000E-03 0.  1.
        -12    1    3    3    0    0 -0.37776494341E+01  0.16266138201E+02 -0.33157752029E+01  0.17025047795E+02  0.00000000000E+00 0.  1.
</event>
<event>
 7    1  0.3807360E-011  0.4778727E+02  0.7816164E-02  0.1312668E+00
        -11   -1    0    0    0    0  0.00000000000E+00  0.00000000000E+00  0.45593999997E+02  0.45594000000E+02  0.51100000000E-03 0. -1.
         11   -1    0    0    0    0 -0.00000000000E+00 -0.00000000000E+00 -0.45593999997E+02  0.45594000000E+02  0.51100000000E-03 0.  1.
    9900012    2    1    2    0    0 -0.27345242452E+02  0.63150588558E+01  0.33105600981E+02  0.47787273400E+02  0.20000010738E+02 0.  0.
        -12    1    1    2    0    0  0.27345242452E+02 -0.63150588558E+01 -0.33105600981E+02  0.43400726600E+02  0.00000000000E+00 0.  1.
         11    1    3    3    0    0 -0.13358805955E+02  0.11823384906E+01  0.12899945740E+02  0.18608176192E+02  0.51100000000E-03 0. -1.
        -11    1    3    3    0    0  0.31001584712E+00  0.26125347764E+01  0.12440974594E+02  0.12716103841E+02  0.51100000000E-03 0.  1.
         12    1    3    3    0    0 -0.14296452343E+02  0.25201855888E+01  0.77646806478E+01  0.16462993366E+02  0.00000000000E+00 0. -1.
</event>
<event>
 7    1  0.3807360E-011  0.4778727E+02  0.7816164E-02  0.1312668E+00
        -11   -1    0    0    0    0  0.00000000000E+00  0.00000000000E+00  0.45593999997E+02  0.45594000000E+02  0.51100000000E-03 0. -1.
         11   -1    0    0    0    0 -0.00000000000E+00 -0.00000000000E+00 -0.45593999997E+02  0.45594000000E+02  0.51100000000E-03 0.  1.
    9900012    2    1    2    0    0  0.10437800211E+02 -0.19006659521E+02 -0.37595515959E+02  0.47787267291E+02  0.19999982887E+02 0.  0.
         12    1    1    2    0    0 -0.10437800211E+02  0.19006659521E+02  0.37595515959E+02  0.43400732709E+02  0.00000000000E+00 0. -1.
         11    1    3    3    0    0  0.49319855474E+01 -0.50282451829E+01 -0.98098024124E+00  0.71112624444E+01  0.51100000000E-03 0. -1.
        -11    1    3    3    0    0  0.16092675029E+01 -0.11092124804E+02 -0.16239286869E+02  0.19731685504E+02  0.51100000000E-03 0.  1.
         12    1    3    3    0    0  0.38965471611E+01 -0.28862895348E+01 -0.20375248849E+02  0.20944319342E+02  0.00000000000E+00 0. -1.
</event>
<event>
 7    1  0.3807360E-011  0.4778727E+02  0.7816164E-02  0.1312668E+00
        -11   -1    0    0    0    0  0.00000000000E+00  0.00000000000E+00  0.45593999997E+02  0.45594000000E+02  0.51100000000E-03 0. -1.
         11   -1    0    0    0    0 -0.00000000000E+00 -0.00000000000E+00 -0.45593999997E+02  0.45594000000E+02  0.51100000000E-03 0.  1.
    9900012    2    1    2    0    0  0.14372850433E+01  0.20522950943E+02  0.38214735401E+02  0.47787270681E+02  0.19999998342E+02 0.  0.
        -12    1    1    2    0    0 -0.14372850433E+01 -0.20522950943E+02 -0.38214735401E+02  0.43400729319E+02  0.00000000000E+00 0.  1.
         11    1    3    3    0    0  0.68959488879E+00 -0.22529020735E+01  0.23384660229E+01  0.33195681142E+01  0.51100000000E-03 0. -1.
        -11    1    3    3    0    0 -0.91766399869E+00  0.15707037335E+02  0.12822286645E+02  0.20296900357E+02  0.51100000000E-03 0.  1.
         12    1    3    3    0    0  0.16653541532E+01  0.70688156822E+01  0.23053982733E+02  0.24170802209E+02  0.00000000000E+00 0. -1.
</event>
<event>
 7    1  0.3807360E-011  0.4778727E+02  0.7816164E-02  0.1312668E+00
        -11   -1    0    0    0    0  0.00000000000E+00  0.00000000000E+00  0.45593999997E+02  0.45594000000E+02  0.51100000000E-03 0. -1.
         11   -1    0    0    0    0 -0.00000000000E+00 -0.00000000000E+00 -0.45593999997E+02  0.45594000000E+02  0.51100000000E-03 0.  1.
    9900012    2    1    2    0    0  0.38004593839E+02  0.18964180798E+02 -0.89237810154E+01  0.47787272197E+02  0.20000005255E+02 0.  0.
         12    1    1    2    0    0 -0.38004593839E+02 -0.18964180798E+02  0.89237810154E+01  0.43400727803E+02  0.00000000000E+00 0. -1.
         11    1    3    3    0    0  0.13967882517E+02  0.77287513424E+01 -0.12393274845E+01  0.16011598052E+02  0.51100000000E-03 0. -1.
        -11    1    3    3    0    0  0.12132678868E+02  0.79643218708E+00 -0.10040409688E+02  0.15768513808E+02  0.51100000000E-03 0.  1.
        -12    1    3    3    0    0  0.11904032454E+02  0.10438997269E+02  0.23559561569E+01  0.16007160337E+02  0.00000000000E+00 0.  1.
</event>
<event>
 7    1  0.3807360E-011  0.4778727E+02  0.7816164E-02  0.1312668E+00
        -11   -1    0    0    0    0  0.00000000000E+00  0.00000000000E+00  0.45593999997E+02  0.45594000000E+02  0.51100000000E-03 0. -1.
         11   -1    0    0    0    0 -0.00000000000E+00 -0.00000000000E+00 -0.45593999997E+02  0.45594000000E+02  0.51100000000E-03 0.  1.
    9900012    2    1    2    0    0  0.40223858052E+02  0.48413052645E+01  0.15563633071E+02  0.47787266508E+02  0.19999979318E+02 0.  0.
        -12    1    1    2    0    0 -0.40223858052E+02 -0.48413052645E+01 -0.15563633071E+02  0.43400733492E+02  0.00000000000E+00 0.  1.
         11    1    3    3    0    0  0.19169892230E+02 -0.45419631817E+01  0.44955836632E+01  0.20207040119E+02  0.51100000000E-03 0. -1.
        -11    1    3    3    0    0  0.29679301590E+00  0.26759927585E+01 -0.71718677436E+00  0.27862843480E+01  0.51100000000E-03 0.  1.
         12    1    3    3    0    0  0.20757172806E+02  0.67072756877E+01  0.11785236182E+02  0.24793942041E+02  0.00000000000E+00 0. -1.
</event>
<event>
 7    1  0.3807360E-011  0.4778727E+02  0.7816164E-02  0.1312668E+00
        -11   -1    0    0    0    0  0.00000000000E+00  0.00000000000E+00  0.45593999997E+02  0.45594000000E+02  0.51100000000E-03 0. -1.
         11   -1    0    0    0    0 -0.00000000000E+00 -0.00000000000E+00 -0.45593999997E+02  0.45594000000E+02  0.51100000000E-03 0.  1.
    9900012    2    1    2    0    0  0.16554662291E+02  0.87958610826E+01 -0.39143315475E+02  0.47787272332E+02  0.20000005868E+02 0.  0.
         12    1    1    2    0    0 -0.16554662291E+02 -0.87958610826E+01  0.39143315475E+02  0.43400727668E+02  0.00000000000E+00 0. -1.
         11    1    3    3    0    0 -0.59028867637E+00 -0.27719772502E+01 -0.86002142853E+01  0.90551634227E+01  0.51100000000E-03 0. -1.
        -11    1    3    3    0    0  0.58692258232E+01  0.24456800603E+01 -0.19163752954E+01  0.66409078638E+01  0.51100000000E-03 0.  1.
        -12    1    3    3    0    0  0.11275725145E+02  0.91221582724E+01 -0.28626725894E+02  0.32091201045E+02  0.00000000000E+00 0.  1.
</event>
<event>
 7    1  0.3807360E-011  0.4778727E+02  0.7816164E-02  0.1312668E+00
        -11   -1    0    0    0    0  0.00000000000E+00  0.00000000000E+00  0.45593999997E+02  0.45594000000E+02  0.51100000000E-03 0. -1.
         11   -1    0    0    0    0 -0.00000000000E+00 -0.00000000000E+00 -0.45593999997E+02  0.45594000000E+02  0.51100000000E-03 0.  1.
    9900012    2    1    2    0    0  0.26596626207E+02 -0.23652026740E+02 -0.24835950251E+02  0.47787270521E+02  0.19999997612E+02 0.  0.
         12    1    1    2    0    0 -0.26596626207E+02  0.23652026740E+02  0.24835950251E+02  0.43400729479E+02  0.00000000000E+00 0. -1.
         11    1    3    3    0    0  0.21722489068E+01 -0.78123124892E+01 -0.54548777923E+01  0.97727469901E+01  0.51100000000E-03 0.  1.
        -11    1    3    3    0    0  0.20448724388E+02 -0.52772760246E+01 -0.10134801561E+02  0.23424648861E+02  0.51100000000E-03 0. -1.
         12    1    3    3    0    0  0.39756529122E+01 -0.10562438226E+02 -0.92462708971E+01  0.14589874669E+02  0.00000000000E+00 0. -1.
</event>
<event>
 7    1  0.3807360E-011  0.4778728E+02  0.7816164E-02  0.1312668E+00
        -11   -1    0    0    0    0  0.00000000000E+00  0.00000000000E+00  0.45593999997E+02  0.45594000000E+02  0.51100000000E-03 0. -1.
         11   -1    0    0    0    0 -0.00000000000E+00 -0.00000000000E+00 -0.45593999997E+02  0.45594000000E+02  0.51100000000E-03 0.  1.
    9900012    2    1    2    0    0  0.13931062138E+02 -0.34433404485E+02  0.22447468627E+02  0.47787277834E+02  0.20000030957E+02 0.  0.
        -12    1    1    2    0    0 -0.13931062138E+02  0.34433404485E+02 -0.22447468627E+02  0.43400722166E+02  0.00000000000E+00 0.  1.
         11    1    3    3    0    0  0.68392838035E+01 -0.81368546985E+01  0.10846104661E+02  0.15186250160E+02  0.51100000000E-03 0. -1.
        -11    1    3    3    0    0 -0.34373300286E+01 -0.10133922290E+02  0.69454446324E+01  0.12757382965E+02  0.51100000000E-03 0.  1.
         12    1    3    3    0    0  0.10529108363E+02 -0.16162627497E+02  0.46559193339E+01  0.19843644710E+02  0.00000000000E+00 0. -1.
</event>
<event>
 7    1  0.3807360E-011  0.4778727E+02  0.7816164E-02  0.1312668E+00
        -11   -1    0    0    0    0  0.00000000000E+00  0.00000000000E+00  0.45593999997E+02  0.45594000000E+02  0.51100000000E-03 0. -1.
         11   -1    0    0    0    0 -0.00000000000E+00 -0.00000000000E+00 -0.45593999997E+02  0.45594000000E+02  0.51100000000E-03 0.  1.
    9900012    2    1    2    0    0  0.53797511107E+01 -0.38088955617E+02 -0.20097589102E+02  0.47787270171E+02  0.19999996016E+02 0.  0.
         12    1    1    2    0    0 -0.53797511107E+01  0.38088955617E+02  0.20097589102E+02  0.43400729829E+02  0.00000000000E+00 0. -1.
         11    1    3    3    0    0  0.27257764605E+01 -0.23870657444E+01  0.77711846289E+00  0.37056515685E+01  0.51100000000E-03 0. -1.
        -11    1    3    3    0    0  0.67589732080E+01 -0.88070186093E+01 -0.29016218738E+01  0.11474611339E+02  0.51100000000E-03 0.  1.
        -12    1    3    3    0    0 -0.41049985579E+01 -0.26894871264E+02 -0.17973085691E+02  0.32607007264E+02  0.00000000000E+00 0.  1.
</event>
<event>
 7    1  0.3807360E-011  0.4778727E+02  0.7816164E-02  0.1312668E+00
        -11   -1    0    0    0    0  0.00000000000E+00  0.00000000000E+00  0.45593999997E+02  0.45594000000E+02  0.51100000000E-03 0. -1.
         11   -1    0    0    0    0 -0.00000000000E+00 -0.00000000000E+00 -0.45593999997E+02  0.45594000000E+02  0.51100000000E-03 0.  1.
    9900012    2    1    2    0    0  0.25238791300E+01 -0.14369588240E+02  0.40875032179E+02  0.47787270886E+02  0.19999999277E+02 0.  0.
        -12    1    1    2    0    0 -0.25238791300E+01  0.14369588240E+02 -0.40875032179E+02  0.43400729114E+02  0.00000000000E+00 0.  1.
         11    1    3    3    0    0  0.74118291567E+01 -0.44391864979E+01  0.17975043993E+02  0.19943515112E+02  0.51100000000E-03 0. -1.
        -11    1    3    3    0    0 -0.37839144751E+01  0.12150148933E+01  0.99965279393E+01  0.10757548097E+02  0.51100000000E-03 0.  1.
        -12    1    3    3    0    0 -0.11040355515E+01 -0.11145416635E+02  0.12903460247E+02  0.17086207678E+02  0.00000000000E+00 0.  1.
</event>
<event>
 7    1  0.3807360E-011  0.4778725E+02  0.7816164E-02  0.1312668E+00
        -11   -1    0    0    0    0  0.00000000000E+00  0.00000000000E+00  0.45593999997E+02  0.45594000000E+02  0.51100000000E-03 0. -1.
         11   -1    0    0    0    0 -0.00000000000E+00 -0.00000000000E+00 -0.45593999997E+02  0.45594000000E+02  0.51100000000E-03 0.  1.
    9900012    2    1    2    0    0 -0.85623415313E+01  0.28182587365E+02  0.31875587564E+02  0.47787251094E+02  0.19999909036E+02 0.  0.
        -12    1    1    2    0    0  0.85623415313E+01 -0.28182587365E+02 -0.31875587564E+02  0.43400748906E+02  0.00000000000E+00 0.  1.
         11    1    3    3    0    0 -0.30926305690E+01  0.31442476479E+01 -0.13145411139E+01  0.46020295206E+01  0.51100000000E-03 0.  1.
        -11    1    3    3    0    0 -0.55086872258E+01  0.47290062874E+01  0.10026097436E+02  0.12378681895E+02  0.51100000000E-03 0. -1.
        -12    1    3    3    0    0  0.38976263493E-01  0.20309333430E+02  0.23164031242E+02  0.30806539678E+02  0.00000000000E+00 0.  1.
</event>
<event>
 7    1  0.3807360E-011  0.4778727E+02  0.7816164E-02  0.1312668E+00
        -11   -1    0    0    0    0  0.00000000000E+00  0.00000000000E+00  0.45593999997E+02  0.45594000000E+02  0.51100000000E-03 0. -1.
         11   -1    0    0    0    0 -0.00000000000E+00 -0.00000000000E+00 -0.45593999997E+02  0.45594000000E+02  0.51100000000E-03 0.  1.
    9900012    2    1    2    0    0  0.12678811132E+01 -0.35396247715E+02 -0.25082295028E+02  0.47787269607E+02  0.19999993445E+02 0.  0.
         12    1    1    2    0    0 -0.12678811132E+01  0.35396247715E+02  0.25082295028E+02  0.43400730393E+02  0.00000000000E+00 0. -1.
         11    1    3    3    0    0 -0.26288344322E+01 -0.20123732005E+01  0.14402049721E+01  0.36103472122E+01  0.51100000000E-03 0. -1.
        -11    1    3    3    0    0  0.39815221393E+01 -0.24091676845E+02 -0.12706701611E+02  0.27526744774E+02  0.51100000000E-03 0.  1.
        -12    1    3    3    0    0 -0.84806593848E-01 -0.92921976694E+01 -0.13815798389E+02  0.16650177621E+02  0.00000000000E+00 0.  1.
</event>
<event>
 7    1  0.3807360E-011  0.4778726E+02  0.7816164E-02  0.1312668E+00
        -11   -1    0    0    0    0  0.00000000000E+00  0.00000000000E+00  0.45593999997E+02  0.45594000000E+02  0.51100000000E-03 0. -1.
         11   -1    0    0    0    0 -0.00000000000E+00 -0.00000000000E+00 -0.45593999997E+02  0.45594000000E+02  0.51100000000E-03 0.  1.
    9900012    2    1    2    0    0  0.20454764537E+02  0.93078362824E+01  0.37129382899E+02  0.47787259419E+02  0.19999946994E+02 0.  0.
        -12    1    1    2    0    0 -0.20454764537E+02 -0.93078362824E+01 -0.37129382899E+02  0.43400740581E+02  0.00000000000E+00 0.  1.
         11    1    3    3    0    0  0.55544249370E+01  0.43525681892E+01  0.56266929441E+01  0.90253066414E+01  0.51100000000E-03 0.  1.
        -11    1    3    3    0    0 -0.17402202935E+01 -0.12396462893E+01  0.12783869238E+02  0.12961188316E+02  0.51100000000E-03 0. -1.
         12    1    3    3    0    0  0.16640559893E+02  0.61949143825E+01  0.18718820717E+02  0.25800764461E+02  0.00000000000E+00 0. -1.
</event>
<event>
 7    1  0.4983490E-011  0.4778728E+02  0.7816164E-02  0.1312668E+00
        -11   -1    0    0    0    0  0.00000000000E+00  0.00000000000E+00  0.45593999997E+02  0.45594000000E+02  0.51100000000E-03 0. -1.
         11   -1    0    0    0    0 -0.00000000000E+00 -0.00000000000E+00 -0.45593999997E+02  0.45594000000E+02  0.51100000000E-03 0.  1.
    9900012    2    1    2    0    0 -0.28401336346E+00  0.95199371295E+01 -0.42342797119E+02  0.47787281868E+02  0.20000049349E+02 0.  0.
         12    1    1    2    0    0  0.28401336346E+00 -0.95199371295E+01  0.42342797119E+02  0.43400718132E+02  0.00000000000E+00 0. -1.
         11    1    3    3    0    0 -0.19509252003E+01 -0.10023002312E+01 -0.15958855504E+00  0.21991324786E+01  0.51100000000E-03 0. -1.
        -11    1    3    3    0    0 -0.27848107728E+01  0.41882418718E+01 -0.33818786155E+02  0.34190741996E+02  0.51100000000E-03 0.  1.
         12    1    3    3    0    0  0.44517226096E+01  0.63339954889E+01 -0.83644224091E+01  0.11397407393E+02  0.00000000000E+00 0. -1.
</event>
<event>
 7    1  0.3807360E-011  0.4778727E+02  0.7816164E-02  0.1312668E+00
        -11   -1    0    0    0    0  0.00000000000E+00  0.00000000000E+00  0.45593999997E+02  0.45594000000E+02  0.51100000000E-03 0. -1.
         11   -1    0    0    0    0 -0.00000000000E+00 -0.00000000000E+00 -0.45593999997E+02  0.45594000000E+02  0.51100000000E-03 0.  1.
    9900012    2    1    2    0    0  0.34025796717E+02 -0.24582672307E+02 -0.11025466996E+02  0.47787267950E+02  0.19999985891E+02 0.  0.
         12    1    1    2    0    0 -0.34025796717E+02  0.24582672307E+02  0.11025466996E+02  0.43400732050E+02  0.00000000000E+00 0. -1.
         11    1    3    3    0    0  0.29758103713E+01 -0.54467246429E+01 -0.21307507072E+01  0.65621913671E+01  0.51100000000E-03 0. -1.
        -11    1    3    3    0    0  0.28040419638E+02 -0.21831826897E+02 -0.55255464817E+01  0.35964224770E+02  0.51100000000E-03 0.  1.
         12    1    3    3    0    0  0.30095667082E+01  0.26958792328E+01 -0.33691698067E+01  0.52608518127E+01  0.00000000000E+00 0. -1.
</event>
<event>
 7    1  0.3807360E-011  0.4778726E+02  0.7816164E-02  0.1312668E+00
        -11   -1    0    0    0    0  0.00000000000E+00  0.00000000000E+00  0.45593999997E+02  0.45594000000E+02  0.51100000000E-03 0. -1.
         11   -1    0    0    0    0 -0.00000000000E+00 -0.00000000000E+00 -0.45593999997E+02  0.45594000000E+02  0.51100000000E-03 0.  1.
    9900012    2    1    2    0    0 -0.19760559234E+02 -0.68031030455E+01  0.38037638065E+02  0.47787264732E+02  0.19999971217E+02 0.  0.
        -12    1    1    2    0    0  0.19760559234E+02  0.68031030455E+01 -0.38037638065E+02  0.43400735268E+02  0.00000000000E+00 0.  1.
         11    1    3    3    0    0 -0.36512120795E+01 -0.31977929403E+01  0.18252012007E+02  0.18886322349E+02  0.51100000000E-03 0. -1.
        -11    1    3    3    0    0 -0.64557552121E+01 -0.61480299785E+01  0.30651981059E+01  0.94271144931E+01  0.51100000000E-03 0.  1.
         12    1    3    3    0    0 -0.96535919420E+01  0.25427198733E+01  0.16720427952E+02  0.19473827889E+02  0.00000000000E+00 0. -1.
</event>
<event>
 7    1  0.3807360E-011  0.4778727E+02  0.7816164E-02  0.1312668E+00
        -11   -1    0    0    0    0  0.00000000000E+00  0.00000000000E+00  0.45593999997E+02  0.45594000000E+02  0.51100000000E-03 0. -1.
         11   -1    0    0    0    0 -0.00000000000E+00 -0.00000000000E+00 -0.45593999997E+02  0.45594000000E+02  0.51100000000E-03 0.  1.
    9900012    2    1    2    0    0  0.35313309058E+02 -0.13834020776E+02  0.21100080514E+02  0.47787270454E+02  0.19999997308E+02 0.  0.
        -12    1    1    2    0    0 -0.35313309058E+02  0.13834020776E+02 -0.21100080514E+02  0.43400729546E+02  0.00000000000E+00 0.  1.
         11    1    3    3    0    0  0.86774910820E+01  0.19391087723E+01  0.63288316927E+01  0.10913895050E+02  0.51100000000E-03 0. -1.
        -11    1    3    3    0    0  0.25861135541E+02 -0.10565455635E+02  0.97245874086E+01  0.29580310762E+02  0.51100000000E-03 0.  1.
        -12    1    3    3    0    0  0.77468243478E+00 -0.52076739125E+01  0.50466614129E+01  0.72930646419E+01  0.00000000000E+00 0.  1.
</event>
<event>
 7    1  0.3807360E-011  0.4778727E+02  0.7816164E-02  0.1312668E+00
        -11   -1    0    0    0    0  0.00000000000E+00  0.00000000000E+00  0.45593999997E+02  0.45594000000E+02  0.51100000000E-03 0. -1.
         11   -1    0    0    0    0 -0.00000000000E+00 -0.00000000000E+00 -0.45593999997E+02  0.45594000000E+02  0.51100000000E-03 0.  1.
    9900012    2    1    2    0    0  0.35279097408E+02  0.70849614863E+01  0.24265449436E+02  0.47787269252E+02  0.19999991826E+02 0.  0.
        -12    1    1    2    0    0 -0.35279097408E+02 -0.70849614863E+01 -0.24265449436E+02  0.43400730748E+02  0.00000000000E+00 0.  1.
         11    1    3    3    0    0  0.15711861436E+02  0.73841614991E+01  0.99052688561E+01  0.19987565689E+02  0.51100000000E-03 0. -1.
        -11    1    3    3    0    0 -0.16539213470E+01  0.17826398309E+01  0.95220583130E+00  0.26115046994E+01  0.51100000000E-03 0.  1.
        -12    1    3    3    0    0  0.21221157319E+02 -0.20818398437E+01  0.13407974748E+02  0.25188198863E+02  0.00000000000E+00 0.  1.
</event>
<event>
 7    1  0.3807360E-011  0.4778728E+02  0.7816164E-02  0.1312668E+00
        -11   -1    0    0    0    0  0.00000000000E+00  0.00000000000E+00  0.45593999997E+02  0.45594000000E+02  0.51100000000E-03 0. -1.
         11   -1    0    0    0    0 -0.00000000000E+00 -0.00000000000E+00 -0.45593999997E+02  0.45594000000E+02  0.51100000000E-03 0.  1.
    9900012    2    1    2    0    0  0.76360612855E+01 -0.61774475511E+01  0.42274724603E+02  0.47787278457E+02  0.20000033795E+02 0.  0.
        -12    1    1    2    0    0 -0.76360612855E+01  0.61774475511E+01 -0.42274724603E+02  0.43400721543E+02  0.00000000000E+00 0.  1.
         11    1    3    3    0    0  0.60949820544E+01 -0.10164162264E+02  0.14316501924E+02  0.18585511249E+02  0.51100000000E-03 0. -1.
        -11    1    3    3    0    0 -0.53935983972E+00  0.68600960716E+00 -0.95651982150E-01  0.87787685960E+00  0.51100000000E-03 0.  1.
        -12    1    3    3    0    0  0.20804390708E+01  0.33007051062E+01  0.28053874662E+02  0.28323890348E+02  0.00000000000E+00 0.  1.
</event>
<event>
 7    1  0.3807360E-011  0.4778728E+02  0.7816164E-02  0.1312668E+00
        -11   -1    0    0    0    0  0.00000000000E+00  0.00000000000E+00  0.45593999997E+02  0.45594000000E+02  0.51100000000E-03 0. -1.
         11   -1    0    0    0    0 -0.00000000000E+00 -0.00000000000E+00 -0.45593999997E+02  0.45594000000E+02  0.51100000000E-03 0.  1.
    9900012    2    1    2    0    0  0.11308117427E+02  0.37643222809E+02  0.18404794824E+02  0.47787283235E+02  0.20000055583E+02 0.  0.
        -12    1    1    2    0    0 -0.11308117427E+02 -0.37643222809E+02 -0.18404794824E+02  0.43400716765E+02  0.00000000000E+00 0.  1.
         11    1    3    3    0    0  0.18452021929E+01  0.19841334233E+02  0.66156010073E+01  0.20996416176E+02  0.51100000000E-03 0. -1.
        -11    1    3    3    0    0  0.11395041684E+01  0.16477338973E+01  0.79746432525E+01  0.82224346767E+01  0.51100000000E-03 0.  1.
         12    1    3    3    0    0  0.83234110659E+01  0.16154154678E+02  0.38145505643E+01  0.18568432383E+02  0.00000000000E+00 0. -1.
</event>
<event>
 7    1  0.3807360E-011  0.4778726E+02  0.7816164E-02  0.1312668E+00
        -11   -1    0    0    0    0  0.00000000000E+00  0.00000000000E+00  0.45593999997E+02  0.45594000000E+02  0.51100000000E-03 0. -1.
         11   -1    0    0    0    0 -0.00000000000E+00 -0.00000000000E+00 -0.45593999997E+02  0.45594000000E+02  0.51100000000E-03 0.  1.
    9900012    2    1    2    0    0  0.18096070390E+02 -0.23385668065E+02 -0.31768961936E+02  0.47787260641E+02  0.19999952566E+02 0.  0.
         12    1    1    2    0    0 -0.18096070390E+02  0.23385668065E+02  0.31768961936E+02  0.43400739359E+02  0.00000000000E+00 0. -1.
         11    1    3    3    0    0  0.60584892868E+01 -0.28254452173E+01 -0.72287565660E+01  0.98459816609E+01  0.51100000000E-03 0. -1.
        -11    1    3    3    0    0 -0.25499364889E+01 -0.85137344140E+01 -0.13107805632E+02  0.15836679530E+02  0.51100000000E-03 0.  1.
        -12    1    3    3    0    0  0.14587517592E+02 -0.12046488434E+02 -0.11432399738E+02  0.22104599450E+02  0.00000000000E+00 0.  1.
</event>
<event>
 7    1  0.3807360E-011  0.4778727E+02  0.7816164E-02  0.1312668E+00
        -11   -1    0    0    0    0  0.00000000000E+00  0.00000000000E+00  0.45593999997E+02  0.45594000000E+02  0.51100000000E-03 0. -1.
         11   -1    0    0    0    0 -0.00000000000E+00 -0.00000000000E+00 -0.45593999997E+02  0.45594000000E+02  0.51100000000E-03 0.  1.
    9900012    2    1    2    0    0  0.32465043212E+00 -0.29525587560E+02  0.31808138859E+02  0.47787269404E+02  0.19999992519E+02 0.  0.
        -12    1    1    2    0    0 -0.32465043212E+00  0.29525587560E+02 -0.31808138859E+02  0.43400730596E+02  0.00000000000E+00 0.  1.
         11    1    3    3    0    0 -0.17523613127E+01 -0.16747304073E+02  0.23503143212E+02  0.28912639191E+02  0.51100000000E-03 0. -1.
        -11    1    3    3    0    0  0.60113669885E+01 -0.73227530965E+01  0.75336277361E+01  0.12104329519E+02  0.51100000000E-03 0.  1.
         12    1    3    3    0    0 -0.39343552437E+01 -0.54555303903E+01  0.77136791012E+00  0.67703006932E+01  0.00000000000E+00 0. -1.
</event>
<event>
 7    1  0.3807360E-011  0.4778728E+02  0.7816164E-02  0.1312668E+00
        -11   -1    0    0    0    0  0.00000000000E+00  0.00000000000E+00  0.45593999997E+02  0.45594000000E+02  0.51100000000E-03 0.  1.
         11   -1    0    0    0    0 -0.00000000000E+00 -0.00000000000E+00 -0.45593999997E+02  0.45594000000E+02  0.51100000000E-03 0. -1.
    9900012    2    1    2    0    0 -0.25710586047E+02  0.12543480401E+02 -0.32638164105E+02  0.47787275449E+02  0.20000020080E+02 0.  0.
         12    1    1    2    0    0  0.25710586047E+02 -0.12543480401E+02  0.32638164105E+02  0.43400724551E+02  0.00000000000E+00 0. -1.
         11    1    3    3    0    0 -0.70944895838E+01  0.19097685833E+01 -0.57537313650E+01  0.93319035238E+01  0.51100000000E-03 0. -1.
        -11    1    3    3    0    0 -0.14548445299E+02 -0.53295112777E+00 -0.94526894460E+01  0.17357840751E+02  0.51100000000E-03 0.  1.
         12    1    3    3    0    0 -0.40676511637E+01  0.11166662946E+02 -0.17431743294E+02  0.21097531173E+02  0.00000000000E+00 0. -1.
</event>
<event>
 7    1  0.3807360E-011  0.4778728E+02  0.7816164E-02  0.1312668E+00
        -11   -1    0    0    0    0  0.00000000000E+00  0.00000000000E+00  0.45593999997E+02  0.45594000000E+02  0.51100000000E-03 0. -1.
         11   -1    0    0    0    0 -0.00000000000E+00 -0.00000000000E+00 -0.45593999997E+02  0.45594000000E+02  0.51100000000E-03 0.  1.
    9900012    2    1    2    0    0  0.13867895415E+01  0.36575609185E+02 -0.23322189893E+02  0.47787275191E+02  0.20000018908E+02 0.  0.
         12    1    1    2    0    0 -0.13867895415E+01 -0.36575609185E+02  0.23322189893E+02  0.43400724809E+02  0.00000000000E+00 0. -1.
         11    1    3    3    0    0  0.24013611250E+01  0.93784861915E+01 -0.13076657911E+02  0.16270264929E+02  0.51100000000E-03 0. -1.
        -11    1    3    3    0    0 -0.52705563456E+01  0.20889928949E+02 -0.10362937754E+02  0.23907287065E+02  0.51100000000E-03 0.  1.
         12    1    3    3    0    0  0.42559847620E+01  0.63071940451E+01  0.11740577174E+00  0.76097231969E+01  0.00000000000E+00 0. -1.
</event>
<event>
 7    1  0.3807360E-011  0.4778726E+02  0.7816164E-02  0.1312668E+00
        -11   -1    0    0    0    0  0.00000000000E+00  0.00000000000E+00  0.45593999997E+02  0.45594000000E+02  0.51100000000E-03 0. -1.
         11   -1    0    0    0    0 -0.00000000000E+00 -0.00000000000E+00 -0.45593999997E+02  0.45594000000E+02  0.51100000000E-03 0.  1.
    9900012    2    1    2    0    0  0.11941603790E+02 -0.14791715823E+02  0.39015736705E+02  0.47787257280E+02  0.19999937241E+02 0.  0.
        -12    1    1    2    0    0 -0.11941603790E+02  0.14791715823E+02 -0.39015736705E+02  0.43400742720E+02  0.00000000000E+00 0.  1.
         11    1    3    3    0    0  0.10217059563E+00 -0.10366077710E+02  0.26334065222E+02  0.28301042336E+02  0.51100000000E-03 0. -1.
        -11    1    3    3    0    0  0.74124438737E+01 -0.13280372064E+01  0.11819770591E+02  0.14014813024E+02  0.51100000000E-03 0.  1.
        -12    1    3    3    0    0  0.44269893208E+01 -0.30976009068E+01  0.86190089127E+00  0.54714019200E+01  0.00000000000E+00 0.  1.
</event>
<event>
 7    1  0.3807360E-011  0.4778727E+02  0.7816164E-02  0.1312668E+00
        -11   -1    0    0    0    0  0.00000000000E+00  0.00000000000E+00  0.45593999997E+02  0.45594000000E+02  0.51100000000E-03 0. -1.
         11   -1    0    0    0    0 -0.00000000000E+00 -0.00000000000E+00 -0.45593999997E+02  0.45594000000E+02  0.51100000000E-03 0.  1.
    9900012    2    1    2    0    0  0.28288549486E+02 -0.92863425834E+01  0.31577603750E+02  0.47787271329E+02  0.20000001297E+02 0.  0.
        -12    1    1    2    0    0 -0.28288549486E+02  0.92863425834E+01 -0.31577603750E+02  0.43400728671E+02  0.00000000000E+00 0.  1.
         11    1    3    3    0    0  0.25304090008E+01 -0.43155662710E+00  0.79238927372E+01  0.83293029244E+01  0.51100000000E-03 0. -1.
        -11    1    3    3    0    0  0.69579556294E+01 -0.61190805003E+01  0.16939741462E+02  0.19308317735E+02  0.51100000000E-03 0.  1.
        -12    1    3    3    0    0  0.18800184856E+02 -0.27357054559E+01  0.67139695506E+01  0.20149650669E+02  0.00000000000E+00 0.  1.
</event>
<event>
 7    1  0.3807360E-011  0.4778726E+02  0.7816164E-02  0.1312668E+00
        -11   -1    0    0    0    0  0.00000000000E+00  0.00000000000E+00  0.45593999997E+02  0.45594000000E+02  0.51100000000E-03 0. -1.
         11   -1    0    0    0    0 -0.00000000000E+00 -0.00000000000E+00 -0.45593999997E+02  0.45594000000E+02  0.51100000000E-03 0.  1.
    9900012    2    1    2    0    0  0.25307438549E+02 -0.35251777300E+01 -0.35081771680E+02  0.47787262355E+02  0.19999960382E+02 0.  0.
         12    1    1    2    0    0 -0.25307438549E+02  0.35251777300E+01  0.35081771680E+02  0.43400737645E+02  0.00000000000E+00 0. -1.
         11    1    3    3    0    0  0.16626311720E+02 -0.86224000000E+01 -0.11903997400E+02  0.22192007064E+02  0.51100000000E-03 0. -1.
        -11    1    3    3    0    0  0.61271144697E+01  0.20164311733E+01 -0.10725420553E+02  0.12515677077E+02  0.51100000000E-03 0.  1.
         12    1    3    3    0    0  0.25540123594E+01  0.30807910967E+01 -0.12452353727E+02  0.13079578214E+02  0.00000000000E+00 0. -1.
</event>
<event>
 7    1  0.3807360E-011  0.4778727E+02  0.7816164E-02  0.1312668E+00
        -11   -1    0    0    0    0  0.00000000000E+00  0.00000000000E+00  0.45593999997E+02  0.45594000000E+02  0.51100000000E-03 0. -1.
         11   -1    0    0    0    0 -0.00000000000E+00 -0.00000000000E+00 -0.45593999997E+02  0.45594000000E+02  0.51100000000E-03 0.  1.
    9900012    2    1    2    0    0 -0.20093939012E+02  0.13359975246E+02 -0.36074476334E+02  0.47787272283E+02  0.20000005646E+02 0.  0.
         12    1    1    2    0    0  0.20093939012E+02 -0.13359975246E+02  0.36074476334E+02  0.43400727717E+02  0.00000000000E+00 0. -1.
         11    1    3    3    0    0 -0.19521094604E+01  0.45274373320E+01 -0.10639915257E+02  0.11726730877E+02  0.51100000000E-03 0. -1.
        -11    1    3    3    0    0 -0.33259932691E+01  0.91412011469E+00  0.19287544524E+01  0.39519540494E+01  0.51100000000E-03 0.  1.
         12    1    3    3    0    0 -0.14815836282E+02  0.79184177993E+01 -0.27363315530E+02  0.32108587356E+02  0.00000000000E+00 0. -1.
</event>
<event>
 7    1  0.3807360E-011  0.4778727E+02  0.7816164E-02  0.1312668E+00
        -11   -1    0    0    0    0  0.00000000000E+00  0.00000000000E+00  0.45593999997E+02  0.45594000000E+02  0.51100000000E-03 0. -1.
         11   -1    0    0    0    0 -0.00000000000E+00 -0.00000000000E+00 -0.45593999997E+02  0.45594000000E+02  0.51100000000E-03 0.  1.
    9900012    2    1    2    0    0  0.26621346766E+02  0.10421189505E+02 -0.32654650683E+02  0.47787268376E+02  0.19999987832E+02 0.  0.
         12    1    1    2    0    0 -0.26621346766E+02 -0.10421189505E+02  0.32654650683E+02  0.43400731624E+02  0.00000000000E+00 0. -1.
         11    1    3    3    0    0  0.17663915823E+01 -0.21967427590E+01  0.11461960764E+01  0.30429564042E+01  0.51100000000E-03 0. -1.
        -11    1    3    3    0    0  0.12256125318E+02  0.16089275099E+01 -0.17141415328E+02  0.21133607719E+02  0.51100000000E-03 0.  1.
         12    1    3    3    0    0  0.12598829866E+02  0.11009004754E+02 -0.16659431431E+02  0.23610704252E+02  0.00000000000E+00 0. -1.
</event>
<event>
 7    1  0.3807360E-011  0.4778727E+02  0.7816164E-02  0.1312668E+00
        -11   -1    0    0    0    0  0.00000000000E+00  0.00000000000E+00  0.45593999997E+02  0.45594000000E+02  0.51100000000E-03 0. -1.
         11   -1    0    0    0    0 -0.00000000000E+00 -0.00000000000E+00 -0.45593999997E+02  0.45594000000E+02  0.51100000000E-03 0.  1.
    9900012    2    1    2    0    0 -0.36583976169E+02  0.91227866064E+01 -0.21494431176E+02  0.47787272824E+02  0.20000008113E+02 0.  0.
         12    1    1    2    0    0  0.36583976169E+02 -0.91227866064E+01  0.21494431176E+02  0.43400727176E+02  0.00000000000E+00 0. -1.
         11    1    3    3    0    0 -0.60652561738E+01  0.68553471133E+01 -0.69318073418E+01  0.11481858290E+02  0.51100000000E-03 0. -1.
        -11    1    3    3    0    0 -0.24314257151E+02 -0.60367109400E+00 -0.16266170092E+02  0.29259798518E+02  0.51100000000E-03 0.  1.
         12    1    3    3    0    0 -0.62044628445E+01  0.28711105871E+01  0.17035462579E+01  0.70456160160E+01  0.00000000000E+00 0. -1.
</event>
<event>
 7    1  0.1168794E-010  0.4778727E+02  0.7816164E-02  0.1312668E+00
        -11   -1    0    0    0    0  0.00000000000E+00  0.00000000000E+00  0.45593999997E+02  0.45594000000E+02  0.51100000000E-03 0. -1.
         11   -1    0    0    0    0 -0.00000000000E+00 -0.00000000000E+00 -0.45593999997E+02  0.45594000000E+02  0.51100000000E-03 0.  1.
    9900012    2    1    2    0    0  0.61928390935E+01 -0.80618553809E+01 -0.42193345316E+02  0.47787272388E+02  0.20000006128E+02 0.  0.
         12    1    1    2    0    0 -0.61928390935E+01  0.80618553809E+01  0.42193345316E+02  0.43400727612E+02  0.00000000000E+00 0. -1.
         11    1    3    3    0    0  0.12950371081E+00 -0.11165177111E+01  0.95535337443E+00  0.14751553618E+01  0.51100000000E-03 0. -1.
        -11    1    3    3    0    0 -0.22556739748E+01  0.39897554404E+00 -0.24533693859E+02  0.24640401401E+02  0.51100000000E-03 0.  1.
        -12    1    3    3    0    0  0.83190093575E+01 -0.73443132138E+01 -0.18615004832E+02  0.21671715626E+02  0.00000000000E+00 0.  1.
</event>
<event>
 7    1  0.3807360E-011  0.4778729E+02  0.7816164E-02  0.1312668E+00
        -11   -1    0    0    0    0  0.00000000000E+00  0.00000000000E+00  0.45593999997E+02  0.45594000000E+02  0.51100000000E-03 0. -1.
         11   -1    0    0    0    0 -0.00000000000E+00 -0.00000000000E+00 -0.45593999997E+02  0.45594000000E+02  0.51100000000E-03 0.  1.
    9900012    2    1    2    0    0 -0.41815829194E+01  0.28200136963E+02 -0.32724432151E+02  0.47787287793E+02  0.20000076365E+02 0.  0.
         12    1    1    2    0    0  0.41815829194E+01 -0.28200136963E+02  0.32724432151E+02  0.43400712207E+02  0.00000000000E+00 0. -1.
         11    1    3    3    0    0 -0.44279218946E+01  0.83383859529E+01 -0.12487739936E+02  0.15654993503E+02  0.51100000000E-03 0.  1.
        -11    1    3    3    0    0  0.76169765419E+01  0.11559254190E+02 -0.11760098270E+02  0.18164101977E+02  0.51100000000E-03 0. -1.
         12    1    3    3    0    0 -0.73706375667E+01  0.83024968201E+01 -0.84765939453E+01  0.13968192313E+02  0.00000000000E+00 0. -1.
</event>
<event>
 7    1  0.3807360E-011  0.4778727E+02  0.7816164E-02  0.1312668E+00
        -11   -1    0    0    0    0  0.00000000000E+00  0.00000000000E+00  0.45593999997E+02  0.45594000000E+02  0.51100000000E-03 0. -1.
         11   -1    0    0    0    0 -0.00000000000E+00 -0.00000000000E+00 -0.45593999997E+02  0.45594000000E+02  0.51100000000E-03 0.  1.
    9900012    2    1    2    0    0  0.53333325213E+01  0.38838524801E+02  0.18621164787E+02  0.47787271636E+02  0.20000002696E+02 0.  0.
        -12    1    1    2    0    0 -0.53333325213E+01 -0.38838524801E+02 -0.18621164787E+02  0.43400728364E+02  0.00000000000E+00 0.  1.
         11    1    3    3    0    0 -0.15604315629E+01  0.22430165389E+02  0.19849160315E+01  0.22571822212E+02  0.51100000000E-03 0.  1.
        -11    1    3    3    0    0  0.52067871138E+01  0.12834296045E+02  0.87178269333E+01  0.16365521492E+02  0.51100000000E-03 0. -1.
         12    1    3    3    0    0  0.16869769703E+01  0.35740633677E+01  0.79184218217E+01  0.88499279320E+01  0.00000000000E+00 0. -1.
</event>
<event>
 7    1  0.3807360E-011  0.4778727E+02  0.7816164E-02  0.1312668E+00
        -11   -1    0    0    0    0  0.00000000000E+00  0.00000000000E+00  0.45593999997E+02  0.45594000000E+02  0.51100000000E-03 0.  1.
         11   -1    0    0    0    0 -0.00000000000E+00 -0.00000000000E+00 -0.45593999997E+02  0.45594000000E+02  0.51100000000E-03 0. -1.
    9900012    2    1    2    0    0  0.39649232756E+02  0.16942395925E+02  0.49514369798E+01  0.47787272288E+02  0.20000005670E+02 0.  0.
        -12    1    1    2    0    0 -0.39649232756E+02 -0.16942395925E+02 -0.49514369798E+01  0.43400727712E+02  0.00000000000E+00 0.  1.
         11    1    3    3    0    0  0.16403219828E+02  0.12384513038E+02  0.10278393080E+02  0.22980146833E+02  0.51100000000E-03 0. -1.
        -11    1    3    3    0    0  0.26263301763E+01  0.58183979081E+00 -0.23991996180E+01  0.36044842634E+01  0.51100000000E-03 0.  1.
         12    1    3    3    0    0  0.20619682751E+02  0.39760430958E+01 -0.29277564822E+01  0.21202641191E+02  0.00000000000E+00 0. -1.
</event>
<event>
 7    1  0.3807360E-011  0.4778727E+02  0.7816164E-02  0.1312668E+00
        -11   -1    0    0    0    0  0.00000000000E+00  0.00000000000E+00  0.45593999997E+02  0.45594000000E+02  0.51100000000E-03 0. -1.
         11   -1    0    0    0    0 -0.00000000000E+00 -0.00000000000E+00 -0.45593999997E+02  0.45594000000E+02  0.51100000000E-03 0.  1.
    9900012    2    1    2    0    0  0.11403179360E+02  0.24327081700E+02  0.34084948903E+02  0.47787272526E+02  0.20000006756E+02 0.  0.
        -12    1    1    2    0    0 -0.11403179360E+02 -0.24327081700E+02 -0.34084948903E+02  0.43400727474E+02  0.00000000000E+00 0.  1.
         11    1    3    3    0    0  0.21044636226E+01  0.51840790921E+01  0.99293962403E+00  0.56823738464E+01  0.51100000000E-03 0. -1.
        -11    1    3    3    0    0  0.46266393348E+01  0.13996245044E+02  0.31778183116E+02  0.35030752051E+02  0.51100000000E-03 0.  1.
        -12    1    3    3    0    0  0.46720764031E+01  0.51467575637E+01  0.13138261625E+01  0.70741466284E+01  0.00000000000E+00 0.  1.
</event>
<event>
 7    1  0.3807360E-011  0.4778728E+02  0.7816164E-02  0.1312668E+00
        -11   -1    0    0    0    0  0.00000000000E+00  0.00000000000E+00  0.45593999997E+02  0.45594000000E+02  0.51100000000E-03 0. -1.
         11   -1    0    0    0    0 -0.00000000000E+00 -0.00000000000E+00 -0.45593999997E+02  0.45594000000E+02  0.51100000000E-03 0.  1.
    9900012    2    1    2    0    0 -0.11814007600E+02 -0.32502214550E+02 -0.26223234570E+02  0.47787276993E+02  0.20000027120E+02 0.  0.
         12    1    1    2    0    0  0.11814007600E+02  0.32502214550E+02  0.26223234570E+02  0.43400723007E+02  0.00000000000E+00 0. -1.
         11    1    3    3    0    0 -0.24783752101E+01  0.65646853477E+00 -0.11314833481E+01  0.28024184996E+01  0.51100000000E-03 0. -1.
        -11    1    3    3    0    0 -0.25410484284E+00 -0.80050868690E+01 -0.13800285894E+02  0.15955998122E+02  0.51100000000E-03 0.  1.
         12    1    3    3    0    0 -0.90815275467E+01 -0.25153596216E+02 -0.11291465328E+02  0.29028860371E+02  0.00000000000E+00 0. -1.
</event>
<event>
 7    1  0.3807360E-011  0.4778727E+02  0.7816164E-02  0.1312668E+00
        -11   -1    0    0    0    0  0.00000000000E+00  0.00000000000E+00  0.45593999997E+02  0.45594000000E+02  0.51100000000E-03 0. -1.
         11   -1    0    0    0    0 -0.00000000000E+00 -0.00000000000E+00 -0.45593999997E+02  0.45594000000E+02  0.51100000000E-03 0.  1.
    9900012    2    1    2    0    0  0.10041287624E+02  0.15845154062E+02 -0.39137281400E+02  0.47787272359E+02  0.20000005994E+02 0.  0.
         12    1    1    2    0    0 -0.10041287624E+02 -0.15845154062E+02  0.39137281400E+02  0.43400727641E+02  0.00000000000E+00 0. -1.
         11    1    3    3    0    0 -0.11893737135E+01  0.10550477985E+01 -0.64859906189E+01  0.66780094532E+01  0.51100000000E-03 0. -1.
        -11    1    3    3    0    0  0.15158527570E+02  0.14576940538E+02 -0.27986223239E+02  0.35007097066E+02  0.51100000000E-03 0.  1.
        -12    1    3    3    0    0 -0.39278662326E+01  0.21316572550E+00 -0.46650675418E+01  0.61021658399E+01  0.00000000000E+00 0.  1.
</event>
<event>
 7    1  0.3807360E-011  0.4778727E+02  0.7816164E-02  0.1312668E+00
        -11   -1    0    0    0    0  0.00000000000E+00  0.00000000000E+00  0.45593999997E+02  0.45594000000E+02  0.51100000000E-03 0. -1.
         11   -1    0    0    0    0 -0.00000000000E+00 -0.00000000000E+00 -0.45593999997E+02  0.45594000000E+02  0.51100000000E-03 0.  1.
    9900012    2    1    2    0    0 -0.20789160221E+02 -0.13844513571E+02  0.35493146238E+02  0.47787272258E+02  0.20000005531E+02 0.  0.
        -12    1    1    2    0    0  0.20789160221E+02  0.13844513571E+02 -0.35493146238E+02  0.43400727742E+02  0.00000000000E+00 0.  1.
         11    1    3    3    0    0 -0.87553923125E+01 -0.93998249200E+01  0.15247782178E+02  0.19937614317E+02  0.51100000000E-03 0. -1.
        -11    1    3    3    0    0 -0.68389705939E+01 -0.78163908654E+00  0.20360084942E+02  0.21492220396E+02  0.51100000000E-03 0.  1.
         12    1    3    3    0    0 -0.51947973145E+01 -0.36630495640E+01 -0.11472088153E+00  0.63574375441E+01  0.00000000000E+00 0. -1.
</event>
<event>
 7    1  0.3807360E-011  0.4778727E+02  0.7816164E-02  0.1312668E+00
        -11   -1    0    0    0    0  0.00000000000E+00  0.00000000000E+00  0.45593999997E+02  0.45594000000E+02  0.51100000000E-03 0. -1.
         11   -1    0    0    0    0 -0.00000000000E+00 -0.00000000000E+00 -0.45593999997E+02  0.45594000000E+02  0.51100000000E-03 0.  1.
    9900012    2    1    2    0    0  0.21416519306E+02  0.30100709833E+02 -0.22779448899E+02  0.47787270469E+02  0.19999997379E+02 0.  0.
         12    1    1    2    0    0 -0.21416519306E+02 -0.30100709833E+02  0.22779448899E+02  0.43400729531E+02  0.00000000000E+00 0. -1.
         11    1    3    3    0    0  0.10360469902E+02  0.14271840560E+02 -0.52001904429E+00  0.17643559437E+02  0.51100000000E-03 0. -1.
        -11    1    3    3    0    0  0.72173832973E+01  0.52612869678E+01 -0.80475085347E+01  0.12022235903E+02  0.51100000000E-03 0.  1.
         12    1    3    3    0    0  0.38386661061E+01  0.10567582306E+02 -0.14211921320E+02  0.18121475130E+02  0.00000000000E+00 0. -1.
</event>
<event>
 7    1  0.3807360E-011  0.4778727E+02  0.7816164E-02  0.1312668E+00
        -11   -1    0    0    0    0  0.00000000000E+00  0.00000000000E+00  0.45593999997E+02  0.45594000000E+02  0.51100000000E-03 0. -1.
         11   -1    0    0    0    0 -0.00000000000E+00 -0.00000000000E+00 -0.45593999997E+02  0.45594000000E+02  0.51100000000E-03 0.  1.
    9900012    2    1    2    0    0 -0.34032061477E+01  0.45309938922E+01 -0.43029191845E+02  0.47787273410E+02  0.20000010785E+02 0.  0.
         12    1    1    2    0    0  0.34032061477E+01 -0.45309938922E+01  0.43029191845E+02  0.43400726590E+02  0.00000000000E+00 0. -1.
         11    1    3    3    0    0  0.68512535427E+01  0.77495655688E+00 -0.91863985522E+01  0.11486085120E+02  0.51100000000E-03 0. -1.
        -11    1    3    3    0    0 -0.40078103611E+01 -0.86861454171E+00 -0.51991564806E+01  0.66218021326E+01  0.51100000000E-03 0.  1.
        -12    1    3    3    0    0 -0.62466493293E+01  0.46246518771E+01 -0.28643636812E+02  0.29679386157E+02  0.00000000000E+00 0.  1.
</event>
<event>
 7    1  0.3807360E-011  0.4778727E+02  0.7816164E-02  0.1312668E+00
        -11   -1    0    0    0    0  0.00000000000E+00  0.00000000000E+00  0.45593999997E+02  0.45594000000E+02  0.51100000000E-03 0. -1.
         11   -1    0    0    0    0 -0.00000000000E+00 -0.00000000000E+00 -0.45593999997E+02  0.45594000000E+02  0.51100000000E-03 0.  1.
    9900012    2    1    2    0    0 -0.24773014102E+02  0.10930723533E+02 -0.33918143313E+02  0.47787269701E+02  0.19999993876E+02 0.  0.
         12    1    1    2    0    0  0.24773014102E+02 -0.10930723533E+02  0.33918143313E+02  0.43400730299E+02  0.00000000000E+00 0. -1.
         11    1    3    3    0    0 -0.77363738142E+01  0.18177259309E+00 -0.26255764648E+01  0.81717913031E+01  0.51100000000E-03 0. -1.
        -11    1    3    3    0    0 -0.11634606358E+02  0.12408932919E+02 -0.16161873844E+02  0.23463841282E+02  0.51100000000E-03 0.  1.
         12    1    3    3    0    0 -0.54020339296E+01 -0.16599819787E+01 -0.15130693004E+02  0.16151637116E+02  0.00000000000E+00 0. -1.
</event>
<event>
 7    1  0.3807360E-011  0.4778727E+02  0.7816164E-02  0.1312668E+00
        -11   -1    0    0    0    0  0.00000000000E+00  0.00000000000E+00  0.45593999997E+02  0.45594000000E+02  0.51100000000E-03 0. -1.
         11   -1    0    0    0    0 -0.00000000000E+00 -0.00000000000E+00 -0.45593999997E+02  0.45594000000E+02  0.51100000000E-03 0.  1.
    9900012    2    1    2    0    0 -0.21698009545E+02 -0.26268777059E+02 -0.26884399758E+02  0.47787271702E+02  0.20000003000E+02 0.  0.
         12    1    1    2    0    0  0.21698009545E+02  0.26268777059E+02  0.26884399758E+02  0.43400728298E+02  0.00000000000E+00 0. -1.
         11    1    3    3    0    0 -0.19464481733E+02 -0.13919241994E+02 -0.24599519995E+02  0.34318329374E+02  0.51100000000E-03 0. -1.
        -11    1    3    3    0    0 -0.33626355474E+01 -0.65813570700E+01 -0.10812043745E+01  0.74693093300E+01  0.51100000000E-03 0.  1.
        -12    1    3    3    0    0  0.11291077354E+01 -0.57681779957E+01 -0.12036753889E+01  0.59996329979E+01  0.00000000000E+00 0.  1.
</event>
<event>
 7    1  0.3807360E-011  0.4778725E+02  0.7816164E-02  0.1312668E+00
        -11   -1    0    0    0    0  0.00000000000E+00  0.00000000000E+00  0.45593999997E+02  0.45594000000E+02  0.51100000000E-03 0. -1.
         11   -1    0    0    0    0 -0.00000000000E+00 -0.00000000000E+00 -0.45593999997E+02  0.45594000000E+02  0.51100000000E-03 0.  1.
    9900012    2    1    2    0    0  0.12099331808E+01  0.38595713831E+02  0.19812412708E+02  0.47787253903E+02  0.19999921846E+02 0.  0.
        -12    1    1    2    0    0 -0.12099331808E+01 -0.38595713831E+02 -0.19812412708E+02  0.43400746097E+02  0.00000000000E+00 0.  1.
         11    1    3    3    0    0 -0.14522860000E+01  0.10231473328E+01  0.11646733587E+00  0.17803173852E+01  0.51100000000E-03 0. -1.
        -11    1    3    3    0    0  0.38293107843E+01  0.47086751276E+01  0.10043690458E+02  0.11735031351E+02  0.51100000000E-03 0.  1.
         12    1    3    3    0    0 -0.11670916034E+01  0.32863891371E+02  0.96522549145E+01  0.34271905167E+02  0.00000000000E+00 0. -1.
</event>
<event>
 7    1  0.3807360E-011  0.4778727E+02  0.7816164E-02  0.1312668E+00
        -11   -1    0    0    0    0  0.00000000000E+00  0.00000000000E+00  0.45593999997E+02  0.45594000000E+02  0.51100000000E-03 0. -1.
         11   -1    0    0    0    0 -0.00000000000E+00 -0.00000000000E+00 -0.45593999997E+02  0.45594000000E+02  0.51100000000E-03 0.  1.
    9900012    2    1    2    0    0  0.70853946173E+01 -0.36393993558E+02 -0.22558767438E+02  0.47787267606E+02  0.19999984323E+02 0.  0.
         12    1    1    2    0    0 -0.70853946173E+01  0.36393993558E+02  0.22558767438E+02  0.43400732394E+02  0.00000000000E+00 0. -1.
         11    1    3    3    0    0  0.35328191226E+01 -0.25027127177E+02 -0.45444473070E+01  0.25680535572E+02  0.51100000000E-03 0. -1.
        -11    1    3    3    0    0  0.26405857913E+01 -0.79344892535E+01 -0.83798286132E+01  0.11838510923E+02  0.51100000000E-03 0.  1.
         12    1    3    3    0    0  0.91198970338E+00 -0.34323771280E+01 -0.96344915177E+01  0.10268221110E+02  0.00000000000E+00 0. -1.
</event>
<event>
 7    1  0.3807360E-011  0.4778729E+02  0.7816164E-02  0.1312668E+00
        -11   -1    0    0    0    0  0.00000000000E+00  0.00000000000E+00  0.45593999997E+02  0.45594000000E+02  0.51100000000E-03 0. -1.
         11   -1    0    0    0    0 -0.00000000000E+00 -0.00000000000E+00 -0.45593999997E+02  0.45594000000E+02  0.51100000000E-03 0.  1.
    9900012    2    1    2    0    0 -0.45966523570E+01 -0.13295867140E+02 -0.41057422854E+02  0.47787294162E+02  0.20000105400E+02 0.  0.
         12    1    1    2    0    0  0.45966523570E+01  0.13295867140E+02  0.41057422854E+02  0.43400705838E+02  0.00000000000E+00 0. -1.
         11    1    3    3    0    0  0.48329447490E+01 -0.32211093490E+01 -0.28078063358E+01  0.64510989037E+01  0.51100000000E-03 0. -1.
        -11    1    3    3    0    0 -0.54077060164E+01 -0.67824208577E+00 -0.13620121904E+02  0.14670072175E+02  0.51100000000E-03 0.  1.
        -12    1    3    3    0    0 -0.40218910896E+01 -0.93965157051E+01 -0.24629494614E+02  0.26666123083E+02  0.00000000000E+00 0.  1.
</event>
<event>
 7    1  0.3807360E-011  0.4778727E+02  0.7816164E-02  0.1312668E+00
        -11   -1    0    0    0    0  0.00000000000E+00  0.00000000000E+00  0.45593999997E+02  0.45594000000E+02  0.51100000000E-03 0. -1.
         11   -1    0    0    0    0 -0.00000000000E+00 -0.00000000000E+00 -0.45593999997E+02  0.45594000000E+02  0.51100000000E-03 0.  1.
    9900012    2    1    2    0    0 -0.75852063037E+01 -0.14495291572E+02 -0.40199182836E+02  0.47787272666E+02  0.20000007395E+02 0.  0.
         12    1    1    2    0    0  0.75852063037E+01  0.14495291572E+02  0.40199182836E+02  0.43400727334E+02  0.00000000000E+00 0. -1.
         11    1    3    3    0    0  0.17620204746E+01  0.28096992355E+01 -0.29061455507E+01  0.44096267608E+01  0.51100000000E-03 0. -1.
        -11    1    3    3    0    0 -0.48369614076E+00 -0.10553723952E+02 -0.22510797792E+02  0.24866665814E+02  0.51100000000E-03 0.  1.
        -12    1    3    3    0    0 -0.88635306376E+01 -0.67512668555E+01 -0.14782239493E+02  0.18510980092E+02  0.00000000000E+00 0.  1.
</event>
<event>
 7    1  0.3807360E-011  0.4778728E+02  0.7816164E-02  0.1312668E+00
        -11   -1    0    0    0    0  0.00000000000E+00  0.00000000000E+00  0.45593999997E+02  0.45594000000E+02  0.51100000000E-03 0. -1.
         11   -1    0    0    0    0 -0.00000000000E+00 -0.00000000000E+00 -0.45593999997E+02  0.45594000000E+02  0.51100000000E-03 0.  1.
    9900012    2    1    2    0    0  0.27425817851E+02 -0.74979225098E+01  0.32790677861E+02  0.47787275567E+02  0.20000020618E+02 0.  0.
        -12    1    1    2    0    0 -0.27425817851E+02  0.74979225098E+01 -0.32790677861E+02  0.43400724433E+02  0.00000000000E+00 0.  1.
         11    1    3    3    0    0  0.39597124436E+01  0.35928928089E+01  0.31919562639E+01  0.62271009647E+01  0.51100000000E-03 0. -1.
        -11    1    3    3    0    0  0.16010977086E+02 -0.42721370844E+01  0.26006696869E+02  0.30837490573E+02  0.51100000000E-03 0.  1.
        -12    1    3    3    0    0  0.74551283206E+01 -0.68186782343E+01  0.35920247287E+01  0.10722684029E+02  0.00000000000E+00 0.  1.
</event>
<event>
 7    1  0.3807360E-011  0.4778727E+02  0.7816164E-02  0.1312668E+00
        -11   -1    0    0    0    0  0.00000000000E+00  0.00000000000E+00  0.45593999997E+02  0.45594000000E+02  0.51100000000E-03 0. -1.
         11   -1    0    0    0    0 -0.00000000000E+00 -0.00000000000E+00 -0.45593999997E+02  0.45594000000E+02  0.51100000000E-03 0.  1.
    9900012    2    1    2    0    0  0.17825803492E+02  0.12771083387E+02  0.37453479353E+02  0.47787274699E+02  0.20000016661E+02 0.  0.
        -12    1    1    2    0    0 -0.17825803492E+02 -0.12771083387E+02 -0.37453479353E+02  0.43400725301E+02  0.00000000000E+00 0.  1.
         11    1    3    3    0    0  0.66191654124E+01  0.71668512574E+01  0.79803909100E+01  0.12604116274E+02  0.51100000000E-03 0. -1.
        -11    1    3    3    0    0  0.68900268070E+01  0.60431518054E+01  0.52241859118E+01  0.10549136071E+02  0.51100000000E-03 0.  1.
        -12    1    3    3    0    0  0.43166112727E+01 -0.43891967579E+00  0.24248902531E+02  0.24634022354E+02  0.00000000000E+00 0.  1.
</event>
<event>
 7    1  0.3807360E-011  0.4778727E+02  0.7816164E-02  0.1312668E+00
        -11   -1    0    0    0    0  0.00000000000E+00  0.00000000000E+00  0.45593999997E+02  0.45594000000E+02  0.51100000000E-03 0.  1.
         11   -1    0    0    0    0 -0.00000000000E+00 -0.00000000000E+00 -0.45593999997E+02  0.45594000000E+02  0.51100000000E-03 0. -1.
    9900012    2    1    2    0    0 -0.66018510565E+01  0.15770537190E+02 -0.39891463998E+02  0.47787272120E+02  0.20000004903E+02 0.  0.
         12    1    1    2    0    0  0.66018510565E+01 -0.15770537190E+02  0.39891463998E+02  0.43400727880E+02  0.00000000000E+00 0. -1.
         11    1    3    3    0    0  0.12127771941E+01  0.18112003274E+01 -0.73781415891E+01  0.76933899367E+01  0.51100000000E-03 0. -1.
        -11    1    3    3    0    0 -0.10689648022E+02  0.12225390622E+02 -0.14502240153E+02  0.21772545107E+02  0.51100000000E-03 0.  1.
        -12    1    3    3    0    0  0.28750197715E+01  0.17339462402E+01 -0.18011082256E+02  0.18321337076E+02  0.00000000000E+00 0.  1.
</event>
<event>
 7    1  0.3807360E-011  0.4778727E+02  0.7816164E-02  0.1312668E+00
        -11   -1    0    0    0    0  0.00000000000E+00  0.00000000000E+00  0.45593999997E+02  0.45594000000E+02  0.51100000000E-03 0. -1.
         11   -1    0    0    0    0 -0.00000000000E+00 -0.00000000000E+00 -0.45593999997E+02  0.45594000000E+02  0.51100000000E-03 0.  1.
    9900012    2    1    2    0    0  0.33943595750E+02 -0.44791974484E+01  0.26671942461E+02  0.47787269397E+02  0.19999992489E+02 0.  0.
        -12    1    1    2    0    0 -0.33943595750E+02  0.44791974484E+01 -0.26671942461E+02  0.43400730603E+02  0.00000000000E+00 0.  1.
         11    1    3    3    0    0  0.78789381603E+01 -0.74833848518E+00  0.98167306282E+01  0.12609753269E+02  0.51100000000E-03 0. -1.
        -11    1    3    3    0    0  0.16349256695E+02 -0.13434450931E+01  0.10063753428E+01  0.16435200966E+02  0.51100000000E-03 0.  1.
        -12    1    3    3    0    0  0.97154008942E+01 -0.23874138701E+01  0.15848836490E+02  0.18742315162E+02  0.00000000000E+00 0.  1.
</event>
<event>
 7    1  0.3807360E-011  0.4778727E+02  0.7816164E-02  0.1312668E+00
        -11   -1    0    0    0    0  0.00000000000E+00  0.00000000000E+00  0.45593999997E+02  0.45594000000E+02  0.51100000000E-03 0.  1.
         11   -1    0    0    0    0 -0.00000000000E+00 -0.00000000000E+00 -0.45593999997E+02  0.45594000000E+02  0.51100000000E-03 0. -1.
    9900012    2    1    2    0    0  0.35611041063E+01  0.30014099603E+02 -0.31146353835E+02  0.47787274261E+02  0.20000014664E+02 0.  0.
         12    1    1    2    0    0 -0.35611041063E+01 -0.30014099603E+02  0.31146353835E+02  0.43400725739E+02  0.00000000000E+00 0. -1.
         11    1    3    3    0    0 -0.54969519182E+01  0.36186721029E+01 -0.82557219040E+01  0.10557850756E+02  0.51100000000E-03 0. -1.
        -11    1    3    3    0    0  0.32580238402E+01  0.21279307644E+02 -0.15453122050E+02  0.26499483664E+02  0.51100000000E-03 0.  1.
        -12    1    3    3    0    0  0.58000321842E+01  0.51161198570E+01 -0.74375098818E+01  0.10729939840E+02  0.00000000000E+00 0.  1.
</event>
<event>
 7    1  0.3807360E-011  0.4778727E+02  0.7816164E-02  0.1312668E+00
        -11   -1    0    0    0    0  0.00000000000E+00  0.00000000000E+00  0.45593999997E+02  0.45594000000E+02  0.51100000000E-03 0.  1.
         11   -1    0    0    0    0 -0.00000000000E+00 -0.00000000000E+00 -0.45593999997E+02  0.45594000000E+02  0.51100000000E-03 0. -1.
    9900012    2    1    2    0    0 -0.39658034273E+02  0.17483518804E+02 -0.22781552636E+01  0.47787273006E+02  0.20000008943E+02 0.  0.
         12    1    1    2    0    0  0.39658034273E+02 -0.17483518804E+02  0.22781552636E+01  0.43400726994E+02  0.00000000000E+00 0. -1.
         11    1    3    3    0    0 -0.55988363509E+01  0.54431917889E+00 -0.40037522012E+01  0.69045842599E+01  0.51100000000E-03 0. -1.
        -11    1    3    3    0    0 -0.34438863189E+02  0.13997622228E+02  0.36398700434E+01  0.37352608744E+02  0.51100000000E-03 0.  1.
        -12    1    3    3    0    0  0.37966526598E+00  0.29415773976E+01 -0.19142731058E+01  0.35300800025E+01  0.00000000000E+00 0.  1.
</event>
<event>
 7    1  0.3807360E-011  0.4778727E+02  0.7816164E-02  0.1312668E+00
        -11   -1    0    0    0    0  0.00000000000E+00  0.00000000000E+00  0.45593999997E+02  0.45594000000E+02  0.51100000000E-03 0.  1.
         11   -1    0    0    0    0 -0.00000000000E+00 -0.00000000000E+00 -0.45593999997E+02  0.45594000000E+02  0.51100000000E-03 0. -1.
    9900012    2    1    2    0    0  0.35253219896E+02  0.24525170176E+02 -0.62729330880E+01  0.47787272186E+02  0.20000005206E+02 0.  0.
         12    1    1    2    0    0 -0.35253219896E+02 -0.24525170176E+02  0.62729330880E+01  0.43400727814E+02  0.00000000000E+00 0. -1.
         11    1    3    3    0    0  0.50099520124E+01  0.35484867534E+00 -0.32737522601E+01  0.59952473569E+01  0.51100000000E-03 0. -1.
        -11    1    3    3    0    0  0.25750790589E+02  0.18890231835E+02  0.37015652441E+01  0.32150360188E+02  0.51100000000E-03 0.  1.
        -12    1    3    3    0    0  0.44924772949E+01  0.52800896663E+01 -0.67007460721E+01  0.96416646412E+01  0.00000000000E+00 0.  1.
</event>
<event>
 7    1  0.3807360E-011  0.4778729E+02  0.7816164E-02  0.1312668E+00
        -11   -1    0    0    0    0  0.00000000000E+00  0.00000000000E+00  0.45593999997E+02  0.45594000000E+02  0.51100000000E-03 0. -1.
         11   -1    0    0    0    0 -0.00000000000E+00 -0.00000000000E+00 -0.45593999997E+02  0.45594000000E+02  0.51100000000E-03 0.  1.
    9900012    2    1    2    0    0  0.29357018817E+02 -0.31950536195E+02  0.97489196580E+00  0.47787288816E+02  0.20000081027E+02 0.  0.
        -12    1    1    2    0    0 -0.29357018817E+02  0.31950536195E+02 -0.97489196580E+00  0.43400711184E+02  0.00000000000E+00 0.  1.
         11    1    3    3    0    0  0.16820772807E+02 -0.13053981590E+02 -0.40456440888E+01  0.21672841750E+02  0.51100000000E-03 0. -1.
        -11    1    3    3    0    0  0.36016664585E+01  0.28270117680E+00  0.32887461410E+01  0.48854654512E+01  0.51100000000E-03 0.  1.
        -12    1    3    3    0    0  0.89345795514E+01 -0.19179255781E+02  0.17317899135E+01  0.21228981615E+02  0.00000000000E+00 0.  1.
</event>
<event>
 7    1  0.3807360E-011  0.4778726E+02  0.7816164E-02  0.1312668E+00
        -11   -1    0    0    0    0  0.00000000000E+00  0.00000000000E+00  0.45593999997E+02  0.45594000000E+02  0.51100000000E-03 0.  1.
         11   -1    0    0    0    0 -0.00000000000E+00 -0.00000000000E+00 -0.45593999997E+02  0.45594000000E+02  0.51100000000E-03 0. -1.
    9900012    2    1    2    0    0 -0.31684205261E+02  0.13097210882E+02  0.26612001996E+02  0.47787257540E+02  0.19999938426E+02 0.  0.
        -12    1    1    2    0    0  0.31684205261E+02 -0.13097210882E+02 -0.26612001996E+02  0.43400742460E+02  0.00000000000E+00 0.  1.
         11    1    3    3    0    0 -0.14993874152E+02  0.30484765142E+01  0.17882661927E+02  0.23535060421E+02  0.51100000000E-03 0. -1.
        -11    1    3    3    0    0  0.50898071317E-01 -0.55518409878E+00  0.37875471308E+01  0.38283591167E+01  0.51100000000E-03 0.  1.
        -12    1    3    3    0    0 -0.16741229180E+02  0.10603918466E+02  0.49417929382E+01  0.20423838002E+02  0.00000000000E+00 0.  1.
</event>
<event>
 7    1  0.3807360E-011  0.4778728E+02  0.7816164E-02  0.1312668E+00
        -11   -1    0    0    0    0  0.00000000000E+00  0.00000000000E+00  0.45593999997E+02  0.45594000000E+02  0.51100000000E-03 0. -1.
         11   -1    0    0    0    0 -0.00000000000E+00 -0.00000000000E+00 -0.45593999997E+02  0.45594000000E+02  0.51100000000E-03 0.  1.
    9900012    2    1    2    0    0 -0.21348516878E+02 -0.22295190598E+02 -0.30508821188E+02  0.47787275732E+02  0.20000021372E+02 0.  0.
         12    1    1    2    0    0  0.21348516878E+02  0.22295190598E+02  0.30508821188E+02  0.43400724268E+02  0.00000000000E+00 0. -1.
         11    1    3    3    0    0 -0.15870112667E+02 -0.23250212137E+02 -0.27081025319E+02  0.39061679087E+02  0.51100000000E-03 0. -1.
        -11    1    3    3    0    0 -0.37421635235E+01  0.60321252705E+00 -0.50562765710E+01  0.63193026683E+01  0.51100000000E-03 0.  1.
         12    1    3    3    0    0 -0.17362406877E+01  0.35180901191E+00  0.16284807019E+01  0.24062939768E+01  0.00000000000E+00 0. -1.
</event>
<event>
 7    1  0.3807360E-011  0.4778727E+02  0.7816164E-02  0.1312668E+00
        -11   -1    0    0    0    0  0.00000000000E+00  0.00000000000E+00  0.45593999997E+02  0.45594000000E+02  0.51100000000E-03 0. -1.
         11   -1    0    0    0    0 -0.00000000000E+00 -0.00000000000E+00 -0.45593999997E+02  0.45594000000E+02  0.51100000000E-03 0.  1.
    9900012    2    1    2    0    0 -0.32585051863E+02  0.23663776866E+02  0.16182198068E+02  0.47787268729E+02  0.19999989445E+02 0.  0.
        -12    1    1    2    0    0  0.32585051863E+02 -0.23663776866E+02 -0.16182198068E+02  0.43400731271E+02  0.00000000000E+00 0.  1.
         11    1    3    3    0    0 -0.29062100546E+02  0.17916114487E+02  0.15154506139E+02  0.37353070865E+02  0.51100000000E-03 0. -1.
        -11    1    3    3    0    0 -0.25739778814E+01  0.73373810376E+01  0.23909050380E+01  0.81350445473E+01  0.51100000000E-03 0.  1.
        -12    1    3    3    0    0 -0.94897343591E+00 -0.15897186583E+01 -0.13632131092E+01  0.22991533172E+01  0.00000000000E+00 0.  1.
</event>
<event>
 7    1  0.3807360E-011  0.4778727E+02  0.7816164E-02  0.1312668E+00
        -11   -1    0    0    0    0  0.00000000000E+00  0.00000000000E+00  0.45593999997E+02  0.45594000000E+02  0.51100000000E-03 0. -1.
         11   -1    0    0    0    0 -0.00000000000E+00 -0.00000000000E+00 -0.45593999997E+02  0.45594000000E+02  0.51100000000E-03 0.  1.
    9900012    2    1    2    0    0 -0.17298455182E+01  0.14543669659E+02 -0.40854776237E+02  0.47787269199E+02  0.19999991585E+02 0.  0.
         12    1    1    2    0    0  0.17298455182E+01 -0.14543669659E+02  0.40854776237E+02  0.43400730801E+02  0.00000000000E+00 0. -1.
         11    1    3    3    0    0 -0.31967893958E+01 -0.11552356586E+01 -0.46413588795E+01  0.57529335454E+01  0.51100000000E-03 0. -1.
        -11    1    3    3    0    0 -0.21900166975E+01  0.15914267133E+02 -0.21306129293E+02  0.26683538319E+02  0.51100000000E-03 0.  1.
        -12    1    3    3    0    0  0.36569605752E+01 -0.21536181501E+00 -0.14907288065E+02  0.15350797334E+02  0.00000000000E+00 0.  1.
</event>
<event>
 7    1  0.3807360E-011  0.4778727E+02  0.7816164E-02  0.1312668E+00
        -11   -1    0    0    0    0  0.00000000000E+00  0.00000000000E+00  0.45593999997E+02  0.45594000000E+02  0.51100000000E-03 0. -1.
         11   -1    0    0    0    0 -0.00000000000E+00 -0.00000000000E+00 -0.45593999997E+02  0.45594000000E+02  0.51100000000E-03 0.  1.
    9900012    2    1    2    0    0 -0.36659592685E+02  0.22405315115E+02 -0.61399808038E+01  0.47787271372E+02  0.20000001491E+02 0.  0.
         12    1    1    2    0    0  0.36659592685E+02 -0.22405315115E+02  0.61399808038E+01  0.43400728628E+02  0.00000000000E+00 0. -1.
         11    1    3    3    0    0 -0.22561379326E+02  0.10066413755E+02  0.52885460553E+01  0.25264940978E+02  0.51100000000E-03 0. -1.
        -11    1    3    3    0    0 -0.91426722962E+01  0.46433164041E+01 -0.60424050571E+01  0.11902079780E+02  0.51100000000E-03 0.  1.
        -12    1    3    3    0    0 -0.49555410620E+01  0.76955849557E+01 -0.53861218021E+01  0.10620250614E+02  0.00000000000E+00 0.  1.
</event>
<event>
 7    1  0.3807360E-011  0.4778727E+02  0.7816164E-02  0.1312668E+00
        -11   -1    0    0    0    0  0.00000000000E+00  0.00000000000E+00  0.45593999997E+02  0.45594000000E+02  0.51100000000E-03 0. -1.
         11   -1    0    0    0    0 -0.00000000000E+00 -0.00000000000E+00 -0.45593999997E+02  0.45594000000E+02  0.51100000000E-03 0.  1.
    9900012    2    1    2    0    0 -0.24087204650E+02 -0.17089978727E+01 -0.36062573271E+02  0.47787270830E+02  0.19999999022E+02 0.  0.
         12    1    1    2    0    0  0.24087204650E+02  0.17089978727E+01  0.36062573271E+02  0.43400729170E+02  0.00000000000E+00 0. -1.
         11    1    3    3    0    0 -0.24032402507E+02 -0.24141958926E+01 -0.37443134481E+02  0.44557524978E+02  0.51100000000E-03 0.  1.
        -11    1    3    3    0    0  0.36482449850E+00  0.16767326729E+01  0.34742446136E+00  0.17507807940E+01  0.51100000000E-03 0. -1.
        -12    1    3    3    0    0 -0.41962664147E+00 -0.97153465302E+00  0.10331367494E+01  0.14789650582E+01  0.00000000000E+00 0.  1.
</event>
<event>
 7    1  0.3807360E-011  0.4778728E+02  0.7816164E-02  0.1312668E+00
        -11   -1    0    0    0    0  0.00000000000E+00  0.00000000000E+00  0.45593999997E+02  0.45594000000E+02  0.51100000000E-03 0. -1.
         11   -1    0    0    0    0 -0.00000000000E+00 -0.00000000000E+00 -0.45593999997E+02  0.45594000000E+02  0.51100000000E-03 0.  1.
    9900012    2    1    2    0    0 -0.12283401919E+02  0.79884156174E+01 -0.40852490480E+02  0.47787277365E+02  0.20000028820E+02 0.  0.
         12    1    1    2    0    0  0.12283401919E+02 -0.79884156174E+01  0.40852490480E+02  0.43400722635E+02  0.00000000000E+00 0. -1.
         11    1    3    3    0    0 -0.95914299687E+00 -0.17331249893E+01 -0.73956315062E+00  0.21143867744E+01  0.51100000000E-03 0. -1.
        -11    1    3    3    0    0 -0.91528809750E+01  0.14141250498E+02 -0.29433748703E+02  0.33913061772E+02  0.51100000000E-03 0.  1.
        -12    1    3    3    0    0 -0.21713779472E+01 -0.44197098913E+01 -0.10679178626E+02  0.11759828819E+02  0.00000000000E+00 0.  1.
</event>
<event>
 7    1  0.3807360E-011  0.4778727E+02  0.7816164E-02  0.1312668E+00
        -11   -1    0    0    0    0  0.00000000000E+00  0.00000000000E+00  0.45593999997E+02  0.45594000000E+02  0.51100000000E-03 0. -1.
         11   -1    0    0    0    0 -0.00000000000E+00 -0.00000000000E+00 -0.45593999997E+02  0.45594000000E+02  0.51100000000E-03 0.  1.
    9900012    2    1    2    0    0  0.65439290406E+01 -0.24771203924E+02  0.35031239130E+02  0.47787271134E+02  0.20000000408E+02 0.  0.
        -12    1    1    2    0    0 -0.65439290406E+01  0.24771203924E+02 -0.35031239130E+02  0.43400728866E+02  0.00000000000E+00 0.  1.
         11    1    3    3    0    0  0.50910375927E+01 -0.14112331593E+02  0.17848327712E+02  0.23316075337E+02  0.51100000000E-03 0. -1.
        -11    1    3    3    0    0 -0.30349189178E+01  0.19102225628E+01  0.15242362685E+01  0.38965342986E+01  0.51100000000E-03 0.  1.
        -12    1    3    3    0    0  0.44878103657E+01 -0.12569094894E+02  0.15658675149E+02  0.20574661498E+02  0.00000000000E+00 0.  1.
</event>
<event>
 7    1  0.3807360E-011  0.4778727E+02  0.7816164E-02  0.1312668E+00
        -11   -1    0    0    0    0  0.00000000000E+00  0.00000000000E+00  0.45593999997E+02  0.45594000000E+02  0.51100000000E-03 0.  1.
         11   -1    0    0    0    0 -0.00000000000E+00 -0.00000000000E+00 -0.45593999997E+02  0.45594000000E+02  0.51100000000E-03 0. -1.
    9900012    2    1    2    0    0  0.36876728281E+02 -0.21971383355E+02 -0.64022551835E+01  0.47787266750E+02  0.19999980418E+02 0.  0.
        -12    1    1    2    0    0 -0.36876728281E+02  0.21971383355E+02  0.64022551835E+01  0.43400733250E+02  0.00000000000E+00 0.  1.
         11    1    3    3    0    0 -0.85466510156E+00 -0.23439860702E+01  0.19049250436E+00  0.25022011886E+01  0.51100000000E-03 0. -1.
        -11    1    3    3    0    0  0.19427456778E+02 -0.65883143761E+01 -0.95315025634E+01  0.22620378082E+02  0.51100000000E-03 0.  1.
         12    1    3    3    0    0  0.18303936604E+02 -0.13039082909E+02  0.29387548755E+01  0.22664687479E+02  0.00000000000E+00 0. -1.
</event>
<event>
 7    1  0.3807360E-011  0.4778727E+02  0.7816164E-02  0.1312668E+00
        -11   -1    0    0    0    0  0.00000000000E+00  0.00000000000E+00  0.45593999997E+02  0.45594000000E+02  0.51100000000E-03 0. -1.
         11   -1    0    0    0    0 -0.00000000000E+00 -0.00000000000E+00 -0.45593999997E+02  0.45594000000E+02  0.51100000000E-03 0.  1.
    9900012    2    1    2    0    0 -0.14498166606E+02  0.25407045644E+02  0.32061012039E+02  0.47787270786E+02  0.19999998823E+02 0.  0.
        -12    1    1    2    0    0  0.14498166606E+02 -0.25407045644E+02 -0.32061012039E+02  0.43400729214E+02  0.00000000000E+00 0.  1.
         11    1    3    3    0    0 -0.25286172047E+01  0.12851163451E+02  0.23708910394E+02  0.27086135555E+02  0.51100000000E-03 0. -1.
        -11    1    3    3    0    0 -0.11252266071E+01  0.62928623915E-01 -0.11608412934E+01  0.16179146141E+01  0.51100000000E-03 0.  1.
        -12    1    3    3    0    0 -0.10844322795E+02  0.12492953569E+02  0.95129429388E+01  0.19083220617E+02  0.00000000000E+00 0.  1.
</event>
<event>
 7    1  0.3807360E-011  0.4778727E+02  0.7816164E-02  0.1312668E+00
        -11   -1    0    0    0    0  0.00000000000E+00  0.00000000000E+00  0.45593999997E+02  0.45594000000E+02  0.51100000000E-03 0. -1.
         11   -1    0    0    0    0 -0.00000000000E+00 -0.00000000000E+00 -0.45593999997E+02  0.45594000000E+02  0.51100000000E-03 0.  1.
    9900012    2    1    2    0    0 -0.15314626358E+02 -0.31047540958E+02 -0.26175090487E+02  0.47787274868E+02  0.20000017432E+02 0.  0.
         12    1    1    2    0    0  0.15314626358E+02  0.31047540958E+02  0.26175090487E+02  0.43400725132E+02  0.00000000000E+00 0. -1.
         11    1    3    3    0    0 -0.53838204151E+01 -0.17127393466E+01 -0.55058672879E+01  0.78888258432E+01  0.51100000000E-03 0. -1.
        -11    1    3    3    0    0 -0.86346739510E+01 -0.22940926493E+02 -0.82381187135E+01  0.25859433536E+02  0.51100000000E-03 0.  1.
         12    1    3    3    0    0 -0.12961319919E+01 -0.63938751187E+01 -0.12431104485E+02  0.14039015489E+02  0.00000000000E+00 0. -1.
</event>
<event>
 7    1  0.3807360E-011  0.4778728E+02  0.7816164E-02  0.1312668E+00
        -11   -1    0    0    0    0  0.00000000000E+00  0.00000000000E+00  0.45593999997E+02  0.45594000000E+02  0.51100000000E-03 0. -1.
         11   -1    0    0    0    0 -0.00000000000E+00 -0.00000000000E+00 -0.45593999997E+02  0.45594000000E+02  0.51100000000E-03 0.  1.
    9900012    2    1    2    0    0 -0.21885897857E+02  0.39926807607E+01  0.37265106186E+02  0.47787283834E+02  0.20000058314E+02 0.  0.
        -12    1    1    2    0    0  0.21885897857E+02 -0.39926807607E+01 -0.37265106186E+02  0.43400716166E+02  0.00000000000E+00 0.  1.
         11    1    3    3    0    0 -0.16259282348E+02  0.94265417745E+01  0.29425109063E+02  0.34915054002E+02  0.51100000000E-03 0. -1.
        -11    1    3    3    0    0 -0.39261315124E+01  0.33959696535E+00  0.45270398074E+01  0.60019933714E+01  0.51100000000E-03 0.  1.
        -12    1    3    3    0    0 -0.17004839961E+01 -0.57734579792E+01  0.33129573154E+01  0.68702364611E+01  0.00000000000E+00 0.  1.
</event>
<event>
 7    1  0.3807360E-011  0.4778727E+02  0.7816164E-02  0.1312668E+00
        -11   -1    0    0    0    0  0.00000000000E+00  0.00000000000E+00  0.45593999997E+02  0.45594000000E+02  0.51100000000E-03 0. -1.
         11   -1    0    0    0    0 -0.00000000000E+00 -0.00000000000E+00 -0.45593999997E+02  0.45594000000E+02  0.51100000000E-03 0.  1.
    9900012    2    1    2    0    0 -0.19475109699E+02  0.36257370212E+02 -0.13774849043E+02  0.47787271220E+02  0.20000000801E+02 0.  0.
         12    1    1    2    0    0  0.19475109699E+02 -0.36257370212E+02  0.13774849043E+02  0.43400728780E+02  0.00000000000E+00 0. -1.
         11    1    3    3    0    0 -0.87383107019E+01  0.60263754979E+01 -0.26277189507E+01  0.10935272411E+02  0.51100000000E-03 0. -1.
        -11    1    3    3    0    0 -0.59762218285E+01  0.28047589488E+02 -0.55922212448E+01  0.29217382534E+02  0.51100000000E-03 0.  1.
        -12    1    3    3    0    0 -0.47605771683E+01  0.21834052263E+01 -0.55549088479E+01  0.76346162750E+01  0.00000000000E+00 0.  1.
</event>
<event>
 7    1  0.3807360E-011  0.4778727E+02  0.7816164E-02  0.1312668E+00
        -11   -1    0    0    0    0  0.00000000000E+00  0.00000000000E+00  0.45593999997E+02  0.45594000000E+02  0.51100000000E-03 0. -1.
         11   -1    0    0    0    0 -0.00000000000E+00 -0.00000000000E+00 -0.45593999997E+02  0.45594000000E+02  0.51100000000E-03 0.  1.
    9900012    2    1    2    0    0  0.20402692054E+02 -0.18674601314E+01  0.38260503884E+02  0.47787269501E+02  0.19999992964E+02 0.  0.
        -12    1    1    2    0    0 -0.20402692054E+02  0.18674601314E+01 -0.38260503884E+02  0.43400730499E+02  0.00000000000E+00 0.  1.
         11    1    3    3    0    0  0.46957248261E+00 -0.20601808448E+01  0.41549120373E+01  0.46613450557E+01  0.51100000000E-03 0. -1.
        -11    1    3    3    0    0  0.22989861654E+01 -0.35289692628E+01  0.19437991724E+02  0.19889054376E+02  0.51100000000E-03 0.  1.
         12    1    3    3    0    0  0.17634133407E+02  0.37216899761E+01  0.14667600122E+02  0.23236870069E+02  0.00000000000E+00 0. -1.
</event>
<event>
 7    1  0.3807360E-011  0.4778732E+02  0.7816164E-02  0.1312668E+00
        -11   -1    0    0    0    0  0.00000000000E+00  0.00000000000E+00  0.45593999997E+02  0.45594000000E+02  0.51100000000E-03 0. -1.
         11   -1    0    0    0    0 -0.00000000000E+00 -0.00000000000E+00 -0.45593999997E+02  0.45594000000E+02  0.51100000000E-03 0.  1.
    9900012    2    1    2    0    0  0.86108413089E+01 -0.17696259693E+02  0.38682224393E+02  0.47787323978E+02  0.20000241344E+02 0.  0.
        -12    1    1    2    0    0 -0.86108413089E+01  0.17696259693E+02 -0.38682224393E+02  0.43400676022E+02  0.00000000000E+00 0.  1.
         11    1    3    3    0    0  0.47113790078E+01 -0.32973170223E+00  0.59033006664E+01  0.75600776563E+01  0.51100000000E-03 0. -1.
        -11    1    3    3    0    0 -0.17409567520E+01 -0.11117193937E+02  0.28791418505E+02  0.30912274443E+02  0.51100000000E-03 0.  1.
         12    1    3    3    0    0  0.56404190530E+01 -0.62493340538E+01  0.39875052214E+01  0.93149718787E+01  0.00000000000E+00 0. -1.
</event>
<event>
 7    1  0.3807360E-011  0.4778727E+02  0.7816164E-02  0.1312668E+00
        -11   -1    0    0    0    0  0.00000000000E+00  0.00000000000E+00  0.45593999997E+02  0.45594000000E+02  0.51100000000E-03 0. -1.
         11   -1    0    0    0    0 -0.00000000000E+00 -0.00000000000E+00 -0.45593999997E+02  0.45594000000E+02  0.51100000000E-03 0.  1.
    9900012    2    1    2    0    0  0.27087027634E+02 -0.17435780140E+02  0.29084525406E+02  0.47787272895E+02  0.20000008438E+02 0.  0.
        -12    1    1    2    0    0 -0.27087027634E+02  0.17435780140E+02 -0.29084525406E+02  0.43400727105E+02  0.00000000000E+00 0.  1.
         11    1    3    3    0    0  0.97893164688E+01  0.18745027592E+00  0.95110083453E+01  0.13650096503E+02  0.51100000000E-03 0. -1.
        -11    1    3    3    0    0  0.19262810670E+02 -0.16197799917E+02  0.19254853895E+02  0.31688704546E+02  0.51100000000E-03 0.  1.
         12    1    3    3    0    0 -0.19650995041E+01 -0.14254304989E+01  0.31866316597E+00  0.24484718462E+01  0.00000000000E+00 0. -1.
</event>
<event>
 7    1  0.3807360E-011  0.4778727E+02  0.7816164E-02  0.1312668E+00
        -11   -1    0    0    0    0  0.00000000000E+00  0.00000000000E+00  0.45593999997E+02  0.45594000000E+02  0.51100000000E-03 0. -1.
         11   -1    0    0    0    0 -0.00000000000E+00 -0.00000000000E+00 -0.45593999997E+02  0.45594000000E+02  0.51100000000E-03 0.  1.
    9900012    2    1    2    0    0 -0.10411974029E+02  0.37686563297E+02 -0.18839779071E+02  0.47787268074E+02  0.19999986455E+02 0.  0.
         12    1    1    2    0    0  0.10411974029E+02 -0.37686563297E+02  0.18839779071E+02  0.43400731926E+02  0.00000000000E+00 0. -1.
         11    1    3    3    0    0 -0.52303793164E+01  0.73629697692E+01  0.21960401049E+01  0.92947718648E+01  0.51100000000E-03 0. -1.
        -11    1    3    3    0    0 -0.79336675663E+01  0.19261028722E+02 -0.13930362026E+02  0.25059634772E+02  0.51100000000E-03 0.  1.
        -12    1    3    3    0    0  0.27520728536E+01  0.11062564806E+02 -0.71054571489E+01  0.13432861436E+02  0.00000000000E+00 0.  1.
</event>
<event>
 7    1  0.3807360E-011  0.4778727E+02  0.7816164E-02  0.1312668E+00
        -11   -1    0    0    0    0  0.00000000000E+00  0.00000000000E+00  0.45593999997E+02  0.45594000000E+02  0.51100000000E-03 0. -1.
         11   -1    0    0    0    0 -0.00000000000E+00 -0.00000000000E+00 -0.45593999997E+02  0.45594000000E+02  0.51100000000E-03 0.  1.
    9900012    2    1    2    0    0 -0.89327525725E+00  0.18091050440E+01 -0.43353807991E+02  0.47787268795E+02  0.19999989745E+02 0.  0.
         12    1    1    2    0    0  0.89327525725E+00 -0.18091050440E+01  0.43353807991E+02  0.43400731205E+02  0.00000000000E+00 0. -1.
         11    1    3    3    0    0  0.55647108530E+00  0.43563731965E+01 -0.21417151008E+01  0.48861632525E+01  0.51100000000E-03 0. -1.
        -11    1    3    3    0    0  0.43386557857E+01 -0.68275041851E+00 -0.28176871170E+02  0.28517120320E+02  0.51100000000E-03 0.  1.
        -12    1    3    3    0    0 -0.57884021283E+01 -0.18645177339E+01 -0.13035221721E+02  0.14383985223E+02  0.00000000000E+00 0.  1.
</event>
<event>
 7    1  0.3807360E-011  0.4778727E+02  0.7816164E-02  0.1312668E+00
        -11   -1    0    0    0    0  0.00000000000E+00  0.00000000000E+00  0.45593999997E+02  0.45594000000E+02  0.51100000000E-03 0.  1.
         11   -1    0    0    0    0 -0.00000000000E+00 -0.00000000000E+00 -0.45593999997E+02  0.45594000000E+02  0.51100000000E-03 0. -1.
    9900012    2    1    2    0    0  0.61541415828E+01 -0.38088897778E+02  0.19874244511E+02  0.47787272040E+02  0.20000004538E+02 0.  0.
         12    1    1    2    0    0 -0.61541415828E+01  0.38088897778E+02 -0.19874244511E+02  0.43400727960E+02  0.00000000000E+00 0. -1.
         11    1    3    3    0    0  0.58331175088E+01 -0.13534768497E+02  0.12423388941E+02  0.19275783024E+02  0.51100000000E-03 0. -1.
        -11    1    3    3    0    0 -0.29191566023E+00 -0.25959433857E+02  0.73169736003E+01  0.26972495692E+02  0.51100000000E-03 0.  1.
         12    1    3    3    0    0  0.61293973425E+00  0.14053045757E+01  0.13388196911E+00  0.15389933236E+01  0.00000000000E+00 0. -1.
</event>
<event>
 7    1  0.3807360E-011  0.4778727E+02  0.7816164E-02  0.1312668E+00
        -11   -1    0    0    0    0  0.00000000000E+00  0.00000000000E+00  0.45593999997E+02  0.45594000000E+02  0.51100000000E-03 0. -1.
         11   -1    0    0    0    0 -0.00000000000E+00 -0.00000000000E+00 -0.45593999997E+02  0.45594000000E+02  0.51100000000E-03 0.  1.
    9900012    2    1    2    0    0 -0.27546219107E+02 -0.71837528163E+01 -0.32760079630E+02  0.47787270639E+02  0.19999998154E+02 0.  0.
         12    1    1    2    0    0  0.27546219107E+02  0.71837528163E+01  0.32760079630E+02  0.43400729361E+02  0.00000000000E+00 0. -1.
         11    1    3    3    0    0 -0.68292198916E+01 -0.36415452295E+01 -0.51041515084E+01  0.92710009636E+01  0.51100000000E-03 0. -1.
        -11    1    3    3    0    0 -0.22109980121E+01 -0.72137626443E+01 -0.11063638768E+02  0.13391452003E+02  0.51100000000E-03 0.  1.
         12    1    3    3    0    0 -0.18506001204E+02  0.36715550575E+01 -0.16592289354E+02  0.25124817673E+02  0.00000000000E+00 0. -1.
</event>
<event>
 7    1  0.3807360E-011  0.4778725E+02  0.7816164E-02  0.1312668E+00
        -11   -1    0    0    0    0  0.00000000000E+00  0.00000000000E+00  0.45593999997E+02  0.45594000000E+02  0.51100000000E-03 0. -1.
         11   -1    0    0    0    0 -0.00000000000E+00 -0.00000000000E+00 -0.45593999997E+02  0.45594000000E+02  0.51100000000E-03 0.  1.
    9900012    2    1    2    0    0 -0.11929041803E+02  0.14070921502E+02 -0.39285270130E+02  0.47787247478E+02  0.19999892550E+02 0.  0.
         12    1    1    2    0    0  0.11929041803E+02 -0.14070921502E+02  0.39285270130E+02  0.43400752522E+02  0.00000000000E+00 0. -1.
         11    1    3    3    0    0 -0.50206453007E+01 -0.24116406698E+01 -0.41944717072E+01  0.69725521238E+01  0.51100000000E-03 0. -1.
        -11    1    3    3    0    0 -0.57065197333E+01  0.13286205261E+02 -0.16615262041E+02  0.22026224157E+02  0.51100000000E-03 0.  1.
        -12    1    3    3    0    0 -0.12018767691E+01  0.31963569118E+01 -0.18475536383E+02  0.18788471196E+02  0.00000000000E+00 0.  1.
</event>
<event>
 7    1  0.3807360E-011  0.4778727E+02  0.7816164E-02  0.1312668E+00
        -11   -1    0    0    0    0  0.00000000000E+00  0.00000000000E+00  0.45593999997E+02  0.45594000000E+02  0.51100000000E-03 0. -1.
         11   -1    0    0    0    0 -0.00000000000E+00 -0.00000000000E+00 -0.45593999997E+02  0.45594000000E+02  0.51100000000E-03 0.  1.
    9900012    2    1    2    0    0  0.33427792358E+02 -0.55443105312E+01 -0.27119486903E+02  0.47787271307E+02  0.20000001197E+02 0.  0.
         12    1    1    2    0    0 -0.33427792358E+02  0.55443105312E+01  0.27119486903E+02  0.43400728693E+02  0.00000000000E+00 0. -1.
         11    1    3    3    0    0  0.81627569372E+00 -0.18929509629E+01 -0.32278595515E+00  0.20865666512E+01  0.51100000000E-03 0. -1.
        -11    1    3    3    0    0  0.29472488682E+02 -0.80056317270E+01 -0.26310757159E+02  0.40310962169E+02  0.51100000000E-03 0.  1.
         12    1    3    3    0    0  0.31390279818E+01  0.43542721587E+01 -0.48594378897E+00  0.53897424863E+01  0.00000000000E+00 0. -1.
</event>
<event>
 7    1  0.3807360E-011  0.4778727E+02  0.7816164E-02  0.1312668E+00
        -11   -1    0    0    0    0  0.00000000000E+00  0.00000000000E+00  0.45593999997E+02  0.45594000000E+02  0.51100000000E-03 0. -1.
         11   -1    0    0    0    0 -0.00000000000E+00 -0.00000000000E+00 -0.45593999997E+02  0.45594000000E+02  0.51100000000E-03 0.  1.
    9900012    2    1    2    0    0  0.18854717858E+02 -0.26666893715E+02 -0.28583204513E+02  0.47787272055E+02  0.20000004610E+02 0.  0.
         12    1    1    2    0    0 -0.18854717858E+02  0.26666893715E+02  0.28583204513E+02  0.43400727945E+02  0.00000000000E+00 0. -1.
         11    1    3    3    0    0 -0.92688550569E+00 -0.36920910141E+01 -0.73495632103E+01  0.82768793903E+01  0.51100000000E-03 0. -1.
        -11    1    3    3    0    0  0.21071058149E+01 -0.68070318325E+00 -0.76871589813E+01  0.79997290706E+01  0.51100000000E-03 0.  1.
         12    1    3    3    0    0  0.17674497549E+02 -0.22294099518E+02 -0.13546482321E+02  0.31510663595E+02  0.00000000000E+00 0. -1.
</event>
<event>
 7    1  0.3807360E-011  0.4778727E+02  0.7816164E-02  0.1312668E+00
        -11   -1    0    0    0    0  0.00000000000E+00  0.00000000000E+00  0.45593999997E+02  0.45594000000E+02  0.51100000000E-03 0. -1.
         11   -1    0    0    0    0 -0.00000000000E+00 -0.00000000000E+00 -0.45593999997E+02  0.45594000000E+02  0.51100000000E-03 0.  1.
    9900012    2    1    2    0    0 -0.88130685357E+01 -0.23560207839E+01  0.42431144351E+02  0.47787273947E+02  0.20000013236E+02 0.  0.
        -12    1    1    2    0    0  0.88130685357E+01  0.23560207839E+01 -0.42431144351E+02  0.43400726053E+02  0.00000000000E+00 0.  1.
         11    1    3    3    0    0  0.19362998711E+01  0.96070612855E-01  0.11220690812E+02  0.11386939418E+02  0.51100000000E-03 0.  1.
        -11    1    3    3    0    0 -0.90619657092E+01 -0.76960991087E+01  0.14199230337E+02  0.18519376513E+02  0.51100000000E-03 0. -1.
         12    1    3    3    0    0 -0.16874026975E+01  0.52440077119E+01  0.17011223202E+02  0.17880958017E+02  0.00000000000E+00 0. -1.
</event>
<event>
 7    1  0.3807360E-011  0.4778727E+02  0.7816164E-02  0.1312668E+00
        -11   -1    0    0    0    0  0.00000000000E+00  0.00000000000E+00  0.45593999997E+02  0.45594000000E+02  0.51100000000E-03 0. -1.
         11   -1    0    0    0    0 -0.00000000000E+00 -0.00000000000E+00 -0.45593999997E+02  0.45594000000E+02  0.51100000000E-03 0.  1.
    9900012    2    1    2    0    0 -0.14457649585E+02 -0.10259014178E+02  0.39615050387E+02  0.47787271659E+02  0.20000002800E+02 0.  0.
        -12    1    1    2    0    0  0.14457649585E+02  0.10259014178E+02 -0.39615050387E+02  0.43400728341E+02  0.00000000000E+00 0.  1.
         11    1    3    3    0    0 -0.59538226339E+01  0.45425109542E+01  0.10028611779E+02  0.12516208060E+02  0.51100000000E-03 0. -1.
        -11    1    3    3    0    0 -0.26836808119E+01 -0.59201803180E+01  0.41621145867E+01  0.77184114811E+01  0.51100000000E-03 0.  1.
        -12    1    3    3    0    0 -0.58201461393E+01 -0.88813448144E+01  0.25424324021E+02  0.27552652117E+02  0.00000000000E+00 0.  1.
</event>
<event>
 7    1  0.3807360E-011  0.4778727E+02  0.7816164E-02  0.1312668E+00
        -11   -1    0    0    0    0  0.00000000000E+00  0.00000000000E+00  0.45593999997E+02  0.45594000000E+02  0.51100000000E-03 0. -1.
         11   -1    0    0    0    0 -0.00000000000E+00 -0.00000000000E+00 -0.45593999997E+02  0.45594000000E+02  0.51100000000E-03 0.  1.
    9900012    2    1    2    0    0 -0.20178359289E+01 -0.23890371097E+02  0.36177369121E+02  0.47787268099E+02  0.19999986572E+02 0.  0.
        -12    1    1    2    0    0  0.20178359289E+01  0.23890371097E+02 -0.36177369121E+02  0.43400731901E+02  0.00000000000E+00 0.  1.
         11    1    3    3    0    0  0.60522638343E+01 -0.76806294362E+01  0.93981019354E+01  0.13562679909E+02  0.51100000000E-03 0. -1.
        -11    1    3    3    0    0 -0.37465385955E+01 -0.61620718269E+01  0.25648204603E+01  0.76541482153E+01  0.51100000000E-03 0.  1.
        -12    1    3    3    0    0 -0.43235611678E+01 -0.10047669834E+02  0.24214446725E+02  0.26570439975E+02  0.00000000000E+00 0.  1.
</event>
<event>
 7    1  0.3807360E-011  0.4778727E+02  0.7816164E-02  0.1312668E+00
        -11   -1    0    0    0    0  0.00000000000E+00  0.00000000000E+00  0.45593999997E+02  0.45594000000E+02  0.51100000000E-03 0. -1.
         11   -1    0    0    0    0 -0.00000000000E+00 -0.00000000000E+00 -0.45593999997E+02  0.45594000000E+02  0.51100000000E-03 0.  1.
    9900012    2    1    2    0    0 -0.35857128430E+02  0.87848900942E+01 -0.22819187652E+02  0.47787270993E+02  0.19999999766E+02 0.  0.
         12    1    1    2    0    0  0.35857128430E+02 -0.87848900942E+01  0.22819187652E+02  0.43400729007E+02  0.00000000000E+00 0. -1.
         11    1    3    3    0    0  0.35349576427E+00  0.37487454605E+01 -0.24715975522E+01  0.45040921953E+01  0.51100000000E-03 0.  1.
        -11    1    3    3    0    0 -0.11769174892E+02 -0.13955364594E+01 -0.19227528663E+01  0.12006580633E+02  0.51100000000E-03 0. -1.
        -12    1    3    3    0    0 -0.24441449303E+02  0.64316810931E+01 -0.18424837234E+02  0.31276598165E+02  0.00000000000E+00 0.  1.
</event>
<event>
 7    1  0.3807360E-011  0.4778727E+02  0.7816164E-02  0.1312668E+00
        -11   -1    0    0    0    0  0.00000000000E+00  0.00000000000E+00  0.45593999997E+02  0.45594000000E+02  0.51100000000E-03 0. -1.
         11   -1    0    0    0    0 -0.00000000000E+00 -0.00000000000E+00 -0.45593999997E+02  0.45594000000E+02  0.51100000000E-03 0.  1.
    9900012    2    1    2    0    0 -0.18739596399E+02 -0.23022138973E+02  0.31661210746E+02  0.47787267033E+02  0.19999981712E+02 0.  0.
        -12    1    1    2    0    0  0.18739596399E+02  0.23022138973E+02 -0.31661210746E+02  0.43400732967E+02  0.00000000000E+00 0.  1.
         11    1    3    3    0    0 -0.14029532018E+02 -0.14984656288E+02  0.25720707703E+02  0.32907787797E+02  0.51100000000E-03 0. -1.
        -11    1    3    3    0    0 -0.49221654215E+01 -0.45136089641E+01  0.82850971634E+01  0.10641579469E+02  0.51100000000E-03 0.  1.
        -12    1    3    3    0    0  0.21210104003E+00 -0.35238737211E+01 -0.23445941198E+01  0.42378997676E+01  0.00000000000E+00 0.  1.
</event>
<event>
 7    1  0.3807360E-011  0.4778727E+02  0.7816164E-02  0.1312668E+00
        -11   -1    0    0    0    0  0.00000000000E+00  0.00000000000E+00  0.45593999997E+02  0.45594000000E+02  0.51100000000E-03 0. -1.
         11   -1    0    0    0    0 -0.00000000000E+00 -0.00000000000E+00 -0.45593999997E+02  0.45594000000E+02  0.51100000000E-03 0.  1.
    9900012    2    1    2    0    0  0.29699784541E+01 -0.10364809600E+02  0.42040136948E+02  0.47787272302E+02  0.20000005735E+02 0.  0.
        -12    1    1    2    0    0 -0.29699784541E+01  0.10364809600E+02 -0.42040136948E+02  0.43400727698E+02  0.00000000000E+00 0.  1.
         11    1    3    3    0    0  0.19484584764E+01 -0.62423487328E+01  0.84047049017E+01  0.10649059718E+02  0.51100000000E-03 0.  1.
        -11    1    3    3    0    0  0.54242405356E+01  0.33930976809E+01  0.19618447880E+02  0.20635382108E+02  0.51100000000E-03 0. -1.
         12    1    3    3    0    0 -0.44027205579E+01 -0.75155585478E+01  0.14016984167E+02  0.16502830476E+02  0.00000000000E+00 0. -1.
</event>
<event>
 7    1  0.3807360E-011  0.4778727E+02  0.7816164E-02  0.1312668E+00
        -11   -1    0    0    0    0  0.00000000000E+00  0.00000000000E+00  0.45593999997E+02  0.45594000000E+02  0.51100000000E-03 0. -1.
         11   -1    0    0    0    0 -0.00000000000E+00 -0.00000000000E+00 -0.45593999997E+02  0.45594000000E+02  0.51100000000E-03 0.  1.
    9900012    2    1    2    0    0  0.21062154305E+02  0.40325863120E+01 -0.37732574423E+02  0.47787271102E+02  0.20000000260E+02 0.  0.
         12    1    1    2    0    0 -0.21062154305E+02 -0.40325863120E+01  0.37732574423E+02  0.43400728898E+02  0.00000000000E+00 0. -1.
         11    1    3    3    0    0  0.90129922494E+01  0.56917081708E+01 -0.10416121214E+02  0.14903863680E+02  0.51100000000E-03 0. -1.
        -11    1    3    3    0    0  0.13884254497E+02 -0.35037081392E+01 -0.26559245524E+02  0.30173531725E+02  0.51100000000E-03 0.  1.
         12    1    3    3    0    0 -0.18350924409E+01  0.18445862805E+01 -0.75720768374E+00  0.27098756962E+01  0.00000000000E+00 0. -1.
</event>
<event>
 7    1  0.3807360E-011  0.4778727E+02  0.7816164E-02  0.1312668E+00
        -11   -1    0    0    0    0  0.00000000000E+00  0.00000000000E+00  0.45593999997E+02  0.45594000000E+02  0.51100000000E-03 0. -1.
         11   -1    0    0    0    0 -0.00000000000E+00 -0.00000000000E+00 -0.45593999997E+02  0.45594000000E+02  0.51100000000E-03 0.  1.
    9900012    2    1    2    0    0  0.66890974547E+01 -0.37655118280E+02  0.20517585305E+02  0.47787271156E+02  0.20000000509E+02 0.  0.
        -12    1    1    2    0    0 -0.66890974547E+01  0.37655118280E+02 -0.20517585305E+02  0.43400728844E+02  0.00000000000E+00 0.  1.
         11    1    3    3    0    0 -0.20173077904E+01 -0.13298250010E+01  0.19506326711E+01  0.31053072849E+01  0.51100000000E-03 0. -1.
        -11    1    3    3    0    0  0.62252814684E+01 -0.25116601809E+02  0.40774769201E+01  0.26195870555E+02  0.51100000000E-03 0.  1.
        -12    1    3    3    0    0  0.24811237768E+01 -0.11208691470E+02  0.14489475713E+02  0.18486093317E+02  0.00000000000E+00 0.  1.
</event>
<event>
 7    1  0.3807360E-011  0.4778727E+02  0.7816164E-02  0.1312668E+00
        -11   -1    0    0    0    0  0.00000000000E+00  0.00000000000E+00  0.45593999997E+02  0.45594000000E+02  0.51100000000E-03 0. -1.
         11   -1    0    0    0    0 -0.00000000000E+00 -0.00000000000E+00 -0.45593999997E+02  0.45594000000E+02  0.51100000000E-03 0.  1.
    9900012    2    1    2    0    0 -0.10021963202E+02 -0.19616601635E+02  0.37394819869E+02  0.47787270062E+02  0.19999995520E+02 0.  0.
        -12    1    1    2    0    0  0.10021963202E+02  0.19616601635E+02 -0.37394819869E+02  0.43400729938E+02  0.00000000000E+00 0.  1.
         11    1    3    3    0    0  0.17256808555E+01 -0.10524165528E+01  0.84266211169E+01  0.86656505079E+01  0.51100000000E-03 0. -1.
        -11    1    3    3    0    0 -0.77223274455E+01 -0.65627304319E+01  0.35717934776E+01  0.10745300405E+02  0.51100000000E-03 0.  1.
         12    1    3    3    0    0 -0.40253166119E+01 -0.12001454650E+02  0.25396405275E+02  0.28376319149E+02  0.00000000000E+00 0. -1.
</event>
<event>
 7    1  0.3807360E-011  0.4778727E+02  0.7816164E-02  0.1312668E+00
        -11   -1    0    0    0    0  0.00000000000E+00  0.00000000000E+00  0.45593999997E+02  0.45594000000E+02  0.51100000000E-03 0. -1.
         11   -1    0    0    0    0 -0.00000000000E+00 -0.00000000000E+00 -0.45593999997E+02  0.45594000000E+02  0.51100000000E-03 0.  1.
    9900012    2    1    2    0    0 -0.28597662570E+02  0.16669769155E+02 -0.28069842883E+02  0.47787267430E+02  0.19999983518E+02 0.  0.
         12    1    1    2    0    0  0.28597662570E+02 -0.16669769155E+02  0.28069842883E+02  0.43400732570E+02  0.00000000000E+00 0. -1.
         11    1    3    3    0    0 -0.58225186349E+01  0.73189012362E+01 -0.73293409053E+00  0.93811103395E+01  0.51100000000E-03 0. -1.
        -11    1    3    3    0    0 -0.12787501082E+02 -0.54033635344E-01 -0.96380289633E+01  0.16012954322E+02  0.51100000000E-03 0.  1.
        -12    1    3    3    0    0 -0.99876428536E+01  0.94049015541E+01 -0.17698879829E+02  0.22393202768E+02  0.00000000000E+00 0.  1.
</event>
<event>
 7    1  0.3807360E-011  0.4778727E+02  0.7816164E-02  0.1312668E+00
        -11   -1    0    0    0    0  0.00000000000E+00  0.00000000000E+00  0.45593999997E+02  0.45594000000E+02  0.51100000000E-03 0. -1.
         11   -1    0    0    0    0 -0.00000000000E+00 -0.00000000000E+00 -0.45593999997E+02  0.45594000000E+02  0.51100000000E-03 0.  1.
    9900012    2    1    2    0    0 -0.10147995722E+02  0.20132720746E+02 -0.37085240590E+02  0.47787270381E+02  0.19999996977E+02 0.  0.
         12    1    1    2    0    0  0.10147995722E+02 -0.20132720746E+02  0.37085240590E+02  0.43400729619E+02  0.00000000000E+00 0. -1.
         11    1    3    3    0    0  0.19749863120E+01  0.53878261633E+01 -0.46932670157E+01  0.74132312281E+01  0.51100000000E-03 0. -1.
        -11    1    3    3    0    0 -0.15873984509E+01 -0.15563013307E+01  0.40927467276E+00  0.22604012238E+01  0.51100000000E-03 0.  1.
        -12    1    3    3    0    0 -0.10535583584E+02  0.16301195913E+02 -0.32801248247E+02  0.38113637929E+02  0.00000000000E+00 0.  1.
</event>
<event>
 7    1  0.3807360E-011  0.4778725E+02  0.7816164E-02  0.1312668E+00
        -11   -1    0    0    0    0  0.00000000000E+00  0.00000000000E+00  0.45593999997E+02  0.45594000000E+02  0.51100000000E-03 0. -1.
         11   -1    0    0    0    0 -0.00000000000E+00 -0.00000000000E+00 -0.45593999997E+02  0.45594000000E+02  0.51100000000E-03 0.  1.
    9900012    2    1    2    0    0 -0.52011588858E+01  0.38066626150E+02  0.20186752384E+02  0.47787250559E+02  0.19999906600E+02 0.  0.
        -12    1    1    2    0    0  0.52011588858E+01 -0.38066626150E+02 -0.20186752384E+02  0.43400749441E+02  0.00000000000E+00 0.  1.
         11    1    3    3    0    0  0.19179865193E+00  0.42001783765E+01  0.59735659661E+01  0.73049144916E+01  0.51100000000E-03 0.  1.
        -11    1    3    3    0    0  0.61731043927E+00  0.19963862719E+02  0.39095178465E+00  0.19977230299E+02  0.51100000000E-03 0. -1.
         12    1    3    3    0    0 -0.60102679770E+01  0.13902585054E+02  0.13822234633E+02  0.20505105769E+02  0.00000000000E+00 0. -1.
</event>
<event>
 7    1  0.3807360E-011  0.4778727E+02  0.7816164E-02  0.1312668E+00
        -11   -1    0    0    0    0  0.00000000000E+00  0.00000000000E+00  0.45593999997E+02  0.45594000000E+02  0.51100000000E-03 0. -1.
         11   -1    0    0    0    0 -0.00000000000E+00 -0.00000000000E+00 -0.45593999997E+02  0.45594000000E+02  0.51100000000E-03 0.  1.
    9900012    2    1    2    0    0  0.30024086393E+02 -0.15203544508E+02 -0.27404930632E+02  0.47787265533E+02  0.19999974873E+02 0.  0.
         12    1    1    2    0    0 -0.30024086393E+02  0.15203544508E+02  0.27404930632E+02  0.43400734467E+02  0.00000000000E+00 0. -1.
         11    1    3    3    0    0  0.22331387547E+01 -0.61341204115E+01 -0.15358771294E+01  0.67062106095E+01  0.51100000000E-03 0. -1.
        -11    1    3    3    0    0  0.88365822565E+01  0.29085609235E+01 -0.56178121740E+01  0.10867599850E+02  0.51100000000E-03 0.  1.
         12    1    3    3    0    0  0.18954365381E+02 -0.11977985020E+02 -0.20251241328E+02  0.30213455074E+02  0.00000000000E+00 0. -1.
</event>
<event>
 7    1  0.3807360E-011  0.4778727E+02  0.7816164E-02  0.1312668E+00
        -11   -1    0    0    0    0  0.00000000000E+00  0.00000000000E+00  0.45593999997E+02  0.45594000000E+02  0.51100000000E-03 0. -1.
         11   -1    0    0    0    0 -0.00000000000E+00 -0.00000000000E+00 -0.45593999997E+02  0.45594000000E+02  0.51100000000E-03 0.  1.
    9900012    2    1    2    0    0 -0.25038784595E+02 -0.13613154207E+02 -0.32731707063E+02  0.47787270183E+02  0.19999996071E+02 0.  0.
         12    1    1    2    0    0  0.25038784595E+02  0.13613154207E+02  0.32731707063E+02  0.43400729817E+02  0.00000000000E+00 0. -1.
         11    1    3    3    0    0 -0.13084331559E+02 -0.13115092381E+02 -0.12396215554E+02  0.22290615533E+02  0.51100000000E-03 0. -1.
        -11    1    3    3    0    0 -0.12758372572E+02 -0.12225709401E+01 -0.13649994657E+02  0.18724131616E+02  0.51100000000E-03 0.  1.
        -12    1    3    3    0    0  0.80391953644E+00  0.72450911502E+00 -0.66854968519E+01  0.67725230332E+01  0.00000000000E+00 0.  1.
</event>
<event>
 7    1  0.3807360E-011  0.4778726E+02  0.7816164E-02  0.1312668E+00
        -11   -1    0    0    0    0  0.00000000000E+00  0.00000000000E+00  0.45593999997E+02  0.45594000000E+02  0.51100000000E-03 0. -1.
         11   -1    0    0    0    0 -0.00000000000E+00 -0.00000000000E+00 -0.45593999997E+02  0.45594000000E+02  0.51100000000E-03 0.  1.
    9900012    2    1    2    0    0  0.17140139041E+01 -0.22847959108E+02  0.36859963276E+02  0.47787263004E+02  0.19999963341E+02 0.  0.
        -12    1    1    2    0    0 -0.17140139041E+01  0.22847959108E+02 -0.36859963276E+02  0.43400736996E+02  0.00000000000E+00 0.  1.
         11    1    3    3    0    0 -0.27571004776E+01 -0.84505654211E+01  0.18461898558E+02  0.20490372315E+02  0.51100000000E-03 0. -1.
        -11    1    3    3    0    0 -0.27335923068E+01 -0.12126229350E+02  0.13171021549E+02  0.18110598390E+02  0.51100000000E-03 0.  1.
        -12    1    3    3    0    0  0.72047066885E+01 -0.22711643375E+01  0.52270431688E+01  0.91862922990E+01  0.00000000000E+00 0.  1.
</event>
<event>
 7    1  0.3807360E-011  0.4778727E+02  0.7816164E-02  0.1312668E+00
        -11   -1    0    0    0    0  0.00000000000E+00  0.00000000000E+00  0.45593999997E+02  0.45594000000E+02  0.51100000000E-03 0. -1.
         11   -1    0    0    0    0 -0.00000000000E+00 -0.00000000000E+00 -0.45593999997E+02  0.45594000000E+02  0.51100000000E-03 0.  1.
    9900012    2    1    2    0    0 -0.39869698036E+02 -0.15955589510E+02  0.62809123143E+01  0.47787268237E+02  0.19999987198E+02 0.  0.
         12    1    1    2    0    0  0.39869698036E+02  0.15955589510E+02 -0.62809123143E+01  0.43400731763E+02  0.00000000000E+00 0. -1.
         11    1    3    3    0    0 -0.58558797649E+01  0.20338225540E+01 -0.30012819913E+01  0.68873402598E+01  0.51100000000E-03 0. -1.
        -11    1    3    3    0    0 -0.22020585873E+02 -0.11150476974E+02  0.79876949716E+00  0.24695695412E+02  0.51100000000E-03 0.  1.
        -12    1    3    3    0    0 -0.11993232398E+02 -0.68389350902E+01  0.84834248085E+01  0.16204232565E+02  0.00000000000E+00 0.  1.
</event>
<event>
 7    1  0.3807360E-011  0.4778727E+02  0.7816164E-02  0.1312668E+00
        -11   -1    0    0    0    0  0.00000000000E+00  0.00000000000E+00  0.45593999997E+02  0.45594000000E+02  0.51100000000E-03 0.  1.
         11   -1    0    0    0    0 -0.00000000000E+00 -0.00000000000E+00 -0.45593999997E+02  0.45594000000E+02  0.51100000000E-03 0. -1.
    9900012    2    1    2    0    0  0.38168358144E+02 -0.20603971947E+02 -0.15085665598E+01  0.47787274240E+02  0.20000014572E+02 0.  0.
         12    1    1    2    0    0 -0.38168358144E+02  0.20603971947E+02  0.15085665598E+01  0.43400725760E+02  0.00000000000E+00 0. -1.
         11    1    3    3    0    0  0.63491394625E+01  0.26958530625E+01  0.52621194919E+00  0.69178099804E+01  0.51100000000E-03 0. -1.
        -11    1    3    3    0    0  0.27516305066E+02 -0.21527894436E+02  0.15864013659E+01  0.34973046091E+02  0.51100000000E-03 0.  1.
        -12    1    3    3    0    0  0.43029136156E+01 -0.17719305737E+01 -0.36211798749E+01  0.58964181693E+01  0.00000000000E+00 0.  1.
</event>
<event>
 7    1  0.3807360E-011  0.4778728E+02  0.7816164E-02  0.1312668E+00
        -11   -1    0    0    0    0  0.00000000000E+00  0.00000000000E+00  0.45593999997E+02  0.45594000000E+02  0.51100000000E-03 0. -1.
         11   -1    0    0    0    0 -0.00000000000E+00 -0.00000000000E+00 -0.45593999997E+02  0.45594000000E+02  0.51100000000E-03 0.  1.
    9900012    2    1    2    0    0 -0.14125203524E+02 -0.34857453428E+02 -0.21657776080E+02  0.47787277669E+02  0.20000030204E+02 0.  0.
         12    1    1    2    0    0  0.14125203524E+02  0.34857453428E+02  0.21657776080E+02  0.43400722331E+02  0.00000000000E+00 0. -1.
         11    1    3    3    0    0 -0.63943616033E+00 -0.79877044569E+01 -0.12065752130E+02  0.14484290657E+02  0.51100000000E-03 0. -1.
        -11    1    3    3    0    0 -0.13922863090E+02 -0.19460761684E+02 -0.98504838175E+01  0.25876618667E+02  0.51100000000E-03 0.  1.
         12    1    3    3    0    0  0.43709572618E+00 -0.74089872870E+01  0.25845986724E+00  0.74263683450E+01  0.00000000000E+00 0. -1.
</event>
<event>
 7    1  0.3807360E-011  0.4778727E+02  0.7816164E-02  0.1312668E+00
        -11   -1    0    0    0    0  0.00000000000E+00  0.00000000000E+00  0.45593999997E+02  0.45594000000E+02  0.51100000000E-03 0. -1.
         11   -1    0    0    0    0 -0.00000000000E+00 -0.00000000000E+00 -0.45593999997E+02  0.45594000000E+02  0.51100000000E-03 0.  1.
    9900012    2    1    2    0    0  0.12786612919E+02 -0.33817395740E+02  0.24010611877E+02  0.47787271812E+02  0.20000003498E+02 0.  0.
        -12    1    1    2    0    0 -0.12786612919E+02  0.33817395740E+02 -0.24010611877E+02  0.43400728188E+02  0.00000000000E+00 0.  1.
         11    1    3    3    0    0  0.17980536012E+01 -0.44397007560E+01 -0.10875560021E+01  0.49118955480E+01  0.51100000000E-03 0.  1.
        -11    1    3    3    0    0  0.14194315909E+02 -0.17970027801E+02  0.17080108986E+02  0.28568000044E+02  0.51100000000E-03 0. -1.
         12    1    3    3    0    0 -0.32057565907E+01 -0.11407667183E+02  0.80180588930E+01  0.14307376220E+02  0.00000000000E+00 0. -1.
</event>
<event>
 7    1  0.4747198E-011  0.4778727E+02  0.7816164E-02  0.1312668E+00
        -11   -1    0    0    0    0  0.00000000000E+00  0.00000000000E+00  0.45593999997E+02  0.45594000000E+02  0.51100000000E-03 0. -1.
         11   -1    0    0    0    0 -0.00000000000E+00 -0.00000000000E+00 -0.45593999997E+02  0.45594000000E+02  0.51100000000E-03 0.  1.
    9900012    2    1    2    0    0  0.43227238541E+01  0.72319245745E+00 -0.43178862676E+02  0.47787272692E+02  0.20000007514E+02 0.  0.
         12    1    1    2    0    0 -0.43227238541E+01 -0.72319245745E+00  0.43178862676E+02  0.43400727308E+02  0.00000000000E+00 0. -1.
         11    1    3    3    0    0 -0.15916221411E+01 -0.47293911337E+01 -0.37533733198E+01  0.62440542177E+01  0.51100000000E-03 0. -1.
        -11    1    3    3    0    0 -0.17315783359E+01  0.21075524572E+01 -0.22575852586E+02  0.22740036525E+02  0.51100000000E-03 0.  1.
         12    1    3    3    0    0  0.76459243310E+01  0.33450311340E+01 -0.16849636770E+02  0.18803181950E+02  0.00000000000E+00 0. -1.
</event>
<event>
 7    1  0.3807360E-011  0.4778727E+02  0.7816164E-02  0.1312668E+00
        -11   -1    0    0    0    0  0.00000000000E+00  0.00000000000E+00  0.45593999997E+02  0.45594000000E+02  0.51100000000E-03 0. -1.
         11   -1    0    0    0    0 -0.00000000000E+00 -0.00000000000E+00 -0.45593999997E+02  0.45594000000E+02  0.51100000000E-03 0.  1.
    9900012    2    1    2    0    0  0.56567288730E+01  0.35372953388E+02  0.24502631467E+02  0.47787270032E+02  0.19999995386E+02 0.  0.
        -12    1    1    2    0    0 -0.56567288730E+01 -0.35372953388E+02 -0.24502631467E+02  0.43400729968E+02  0.00000000000E+00 0.  1.
         11    1    3    3    0    0  0.19682307478E+01  0.14074601967E+02  0.10835477553E+02  0.17871091932E+02  0.51100000000E-03 0. -1.
        -11    1    3    3    0    0 -0.24703171752E+00 -0.20721335019E+01  0.36126138748E+01  0.41720188385E+01  0.51100000000E-03 0.  1.
        -12    1    3    3    0    0  0.39355298428E+01  0.23370484923E+02  0.10054540040E+02  0.25744159262E+02  0.00000000000E+00 0.  1.
</event>
<event>
 7    1  0.3807360E-011  0.4778727E+02  0.7816164E-02  0.1312668E+00
        -11   -1    0    0    0    0  0.00000000000E+00  0.00000000000E+00  0.45593999997E+02  0.45594000000E+02  0.51100000000E-03 0. -1.
         11   -1    0    0    0    0 -0.00000000000E+00 -0.00000000000E+00 -0.45593999997E+02  0.45594000000E+02  0.51100000000E-03 0.  1.
    9900012    2    1    2    0    0 -0.10298073635E+02 -0.12970095884E+02  0.40116704239E+02  0.47787266517E+02  0.19999979359E+02 0.  0.
        -12    1    1    2    0    0  0.10298073635E+02  0.12970095884E+02 -0.40116704239E+02  0.43400733483E+02  0.00000000000E+00 0.  1.
         11    1    3    3    0    0 -0.77995083373E+01 -0.57268311362E+01  0.86131868918E+01  0.12954378173E+02  0.51100000000E-03 0. -1.
        -11    1    3    3    0    0 -0.53020779372E+01 -0.96347130410E+01  0.21061826441E+02  0.23760055958E+02  0.51100000000E-03 0.  1.
        -12    1    3    3    0    0  0.28035126398E+01  0.23914482932E+01  0.10441690907E+02  0.11072832386E+02  0.00000000000E+00 0.  1.
</event>
<event>
 7    1  0.3807360E-011  0.4778727E+02  0.7816164E-02  0.1312668E+00
        -11   -1    0    0    0    0  0.00000000000E+00  0.00000000000E+00  0.45593999997E+02  0.45594000000E+02  0.51100000000E-03 0. -1.
         11   -1    0    0    0    0 -0.00000000000E+00 -0.00000000000E+00 -0.45593999997E+02  0.45594000000E+02  0.51100000000E-03 0.  1.
    9900012    2    1    2    0    0 -0.18598355080E+02  0.22406648684E+02 -0.32181773931E+02  0.47787270856E+02  0.19999999140E+02 0.  0.
         12    1    1    2    0    0  0.18598355080E+02 -0.22406648684E+02  0.32181773931E+02  0.43400729144E+02  0.00000000000E+00 0. -1.
         11    1    3    3    0    0  0.23501285946E+01  0.86480424119E+01 -0.42168849695E+01  0.99042345023E+01  0.51100000000E-03 0. -1.
        -11    1    3    3    0    0 -0.95517026573E+01  0.82746488798E+01 -0.16726275358E+02  0.20963614319E+02  0.51100000000E-03 0.  1.
         12    1    3    3    0    0 -0.11396781017E+02  0.54839573920E+01 -0.11238613604E+02  0.16919422034E+02  0.00000000000E+00 0. -1.
</event>
<event>
 7    1  0.3807360E-011  0.4778728E+02  0.7816164E-02  0.1312668E+00
        -11   -1    0    0    0    0  0.00000000000E+00  0.00000000000E+00  0.45593999997E+02  0.45594000000E+02  0.51100000000E-03 0. -1.
         11   -1    0    0    0    0 -0.00000000000E+00 -0.00000000000E+00 -0.45593999997E+02  0.45594000000E+02  0.51100000000E-03 0.  1.
    9900012    2    1    2    0    0  0.14982910051E+02 -0.17229724897E+02  0.36908966416E+02  0.47787276325E+02  0.20000024076E+02 0.  0.
        -12    1    1    2    0    0 -0.14982910051E+02  0.17229724897E+02 -0.36908966416E+02  0.43400723675E+02  0.00000000000E+00 0.  1.
         11    1    3    3    0    0  0.67260270572E+01 -0.45305430727E+01  0.13785839396E+02  0.15994206095E+02  0.51100000000E-03 0. -1.
        -11    1    3    3    0    0  0.40838984582E+01 -0.64413172980E+01  0.23041557036E+02  0.24271014525E+02  0.51100000000E-03 0.  1.
        -12    1    3    3    0    0  0.41729845356E+01 -0.62578645264E+01  0.81569983912E-01  0.75220557049E+01  0.00000000000E+00 0.  1.
</event>
<event>
 7    1  0.3807360E-011  0.4778727E+02  0.7816164E-02  0.1312668E+00
        -11   -1    0    0    0    0  0.00000000000E+00  0.00000000000E+00  0.45593999997E+02  0.45594000000E+02  0.51100000000E-03 0.  1.
         11   -1    0    0    0    0 -0.00000000000E+00 -0.00000000000E+00 -0.45593999997E+02  0.45594000000E+02  0.51100000000E-03 0. -1.
    9900012    2    1    2    0    0  0.10468814336E+02  0.38310530658E+02  0.17502295907E+02  0.47787271954E+02  0.20000004147E+02 0.  0.
        -12    1    1    2    0    0 -0.10468814336E+02 -0.38310530658E+02 -0.17502295907E+02  0.43400728046E+02  0.00000000000E+00 0.  1.
         11    1    3    3    0    0  0.20206519682E+01  0.71510826203E+01  0.40370850310E+01  0.84568949874E+01  0.51100000000E-03 0. -1.
        -11    1    3    3    0    0 -0.41614246439E+01  0.10897505315E+01  0.22075637042E+01  0.48351162402E+01  0.51100000000E-03 0.  1.
         12    1    3    3    0    0  0.12609587011E+02  0.30069697507E+02  0.11257647172E+02  0.34495260726E+02  0.00000000000E+00 0. -1.
</event>
<event>
 7    1  0.3807360E-011  0.4778730E+02  0.7816164E-02  0.1312668E+00
        -11   -1    0    0    0    0  0.00000000000E+00  0.00000000000E+00  0.45593999997E+02  0.45594000000E+02  0.51100000000E-03 0. -1.
         11   -1    0    0    0    0 -0.00000000000E+00 -0.00000000000E+00 -0.45593999997E+02  0.45594000000E+02  0.51100000000E-03 0.  1.
    9900012    2    1    2    0    0  0.28490379240E+02 -0.22503971444E+02  0.23780047775E+02  0.47787295949E+02  0.20000113548E+02 0.  0.
        -12    1    1    2    0    0 -0.28490379240E+02  0.22503971444E+02 -0.23780047775E+02  0.43400704051E+02  0.00000000000E+00 0.  1.
         11    1    3    3    0    0  0.11190015190E+02 -0.13759795258E+02  0.15134795322E+02  0.23315454857E+02  0.51100000000E-03 0. -1.
        -11    1    3    3    0    0  0.37367911078E+01 -0.64839815311E+01 -0.11739687660E+01  0.75752113636E+01  0.51100000000E-03 0.  1.
        -12    1    3    3    0    0  0.13563572941E+02 -0.22601946555E+01  0.98192212189E+01  0.16896629728E+02  0.00000000000E+00 0.  1.
</event>
<event>
 7    1  0.3807360E-011  0.4778727E+02  0.7816164E-02  0.1312668E+00
        -11   -1    0    0    0    0  0.00000000000E+00  0.00000000000E+00  0.45593999997E+02  0.45594000000E+02  0.51100000000E-03 0. -1.
         11   -1    0    0    0    0 -0.00000000000E+00 -0.00000000000E+00 -0.45593999997E+02  0.45594000000E+02  0.51100000000E-03 0.  1.
    9900012    2    1    2    0    0  0.73273945943E+01  0.60695062794E+00  0.42773403298E+02  0.47787272699E+02  0.20000007542E+02 0.  0.
        -12    1    1    2    0    0 -0.73273945943E+01 -0.60695062794E+00 -0.42773403298E+02  0.43400727301E+02  0.00000000000E+00 0.  1.
         11    1    3    3    0    0 -0.26867023289E+01 -0.50895350091E+01  0.36869213572E+01  0.68348464042E+01  0.51100000000E-03 0. -1.
        -11    1    3    3    0    0  0.14153292103E+01  0.26782617751E+01  0.11885917726E+02  0.12265858444E+02  0.51100000000E-03 0.  1.
         12    1    3    3    0    0  0.85987677129E+01  0.30182238619E+01  0.27200564214E+02  0.28686567850E+02  0.00000000000E+00 0. -1.
</event>
<event>
 7    1  0.3807360E-011  0.4778727E+02  0.7816164E-02  0.1312668E+00
        -11   -1    0    0    0    0  0.00000000000E+00  0.00000000000E+00  0.45593999997E+02  0.45594000000E+02  0.51100000000E-03 0. -1.
         11   -1    0    0    0    0 -0.00000000000E+00 -0.00000000000E+00 -0.45593999997E+02  0.45594000000E+02  0.51100000000E-03 0.  1.
    9900012    2    1    2    0    0 -0.18795053564E+02 -0.11351028883E+01 -0.39103465579E+02  0.47787268240E+02  0.19999987213E+02 0.  0.
         12    1    1    2    0    0  0.18795053564E+02  0.11351028883E+01  0.39103465579E+02  0.43400731760E+02  0.00000000000E+00 0. -1.
         11    1    3    3    0    0 -0.50277817765E+01  0.37262170899E+01 -0.73929094460E+01  0.96859895586E+01  0.51100000000E-03 0. -1.
        -11    1    3    3    0    0 -0.41285867489E+01 -0.71188080625E+01 -0.50336122167E+01  0.96467563970E+01  0.51100000000E-03 0.  1.
        -12    1    3    3    0    0 -0.96386850382E+01  0.22574880843E+01 -0.26676943916E+02  0.28454522284E+02  0.00000000000E+00 0.  1.
</event>
<event>
 7    1  0.3807360E-011  0.4778727E+02  0.7816164E-02  0.1312668E+00
        -11   -1    0    0    0    0  0.00000000000E+00  0.00000000000E+00  0.45593999997E+02  0.45594000000E+02  0.51100000000E-03 0. -1.
         11   -1    0    0    0    0 -0.00000000000E+00 -0.00000000000E+00 -0.45593999997E+02  0.45594000000E+02  0.51100000000E-03 0.  1.
    9900012    2    1    2    0    0 -0.15660111905E+02 -0.46034274901E+01 -0.40214332673E+02  0.47787271874E+02  0.20000003782E+02 0.  0.
         12    1    1    2    0    0  0.15660111905E+02  0.46034274901E+01  0.40214332673E+02  0.43400728126E+02  0.00000000000E+00 0. -1.
         11    1    3    3    0    0  0.24475587143E+01 -0.12200754498E+01 -0.26518263139E+01  0.38093714473E+01  0.51100000000E-03 0. -1.
        -11    1    3    3    0    0 -0.78549458443E+01  0.19962996566E+01 -0.27395632212E+02  0.28569320102E+02  0.51100000000E-03 0.  1.
        -12    1    3    3    0    0 -0.10252724775E+02 -0.53796516969E+01 -0.10166874148E+02  0.15408580325E+02  0.00000000000E+00 0.  1.
</event>
<event>
 7    1  0.3807360E-011  0.4778727E+02  0.7816164E-02  0.1312668E+00
        -11   -1    0    0    0    0  0.00000000000E+00  0.00000000000E+00  0.45593999997E+02  0.45594000000E+02  0.51100000000E-03 0. -1.
         11   -1    0    0    0    0 -0.00000000000E+00 -0.00000000000E+00 -0.45593999997E+02  0.45594000000E+02  0.51100000000E-03 0.  1.
    9900012    2    1    2    0    0 -0.41360781691E+02  0.98346449501E+01 -0.87286435939E+01  0.47787265878E+02  0.19999976443E+02 0.  0.
         12    1    1    2    0    0  0.41360781691E+02 -0.98346449501E+01  0.87286435939E+01  0.43400734122E+02  0.00000000000E+00 0. -1.
         11    1    3    3    0    0 -0.57819380625E+01 -0.12685454528E+01  0.24530683310E+01  0.64076173280E+01  0.51100000000E-03 0. -1.
        -11    1    3    3    0    0 -0.23741940384E+02  0.11243239103E+01 -0.32672855554E+01  0.23992061033E+02  0.51100000000E-03 0.  1.
        -12    1    3    3    0    0 -0.11836903244E+02  0.99788664926E+01 -0.79144263695E+01  0.17387587516E+02  0.00000000000E+00 0.  1.
</event>
<event>
 7    1  0.3807360E-011  0.4778727E+02  0.7816164E-02  0.1312668E+00
        -11   -1    0    0    0    0  0.00000000000E+00  0.00000000000E+00  0.45593999997E+02  0.45594000000E+02  0.51100000000E-03 0. -1.
         11   -1    0    0    0    0 -0.00000000000E+00 -0.00000000000E+00 -0.45593999997E+02  0.45594000000E+02  0.51100000000E-03 0.  1.
    9900012    2    1    2    0    0  0.20664836585E+02 -0.33860401167E+02  0.17608564597E+02  0.47787265151E+02  0.19999973129E+02 0.  0.
        -12    1    1    2    0    0 -0.20664836585E+02  0.33860401167E+02 -0.17608564597E+02  0.43400734849E+02  0.00000000000E+00 0.  1.
         11    1    3    3    0    0  0.71881418025E+01 -0.30170985221E+01  0.31793809570E+01  0.84190694020E+01  0.51100000000E-03 0. -1.
        -11    1    3    3    0    0  0.17916307052E+01 -0.21663351139E+02  0.93700423784E+01  0.23670834746E+02  0.51100000000E-03 0.  1.
        -12    1    3    3    0    0  0.11685064077E+02 -0.91799515063E+01  0.50591412613E+01  0.15697361003E+02  0.00000000000E+00 0.  1.
</event>
<event>
 7    1 -0.3807360E-011  0.4778727E+02  0.7816164E-02  0.1312668E+00
        -11   -1    0    0    0    0  0.00000000000E+00  0.00000000000E+00  0.45593999997E+02  0.45594000000E+02  0.51100000000E-03 0. -1.
         11   -1    0    0    0    0 -0.00000000000E+00 -0.00000000000E+00 -0.45593999997E+02  0.45594000000E+02  0.51100000000E-03 0.  1.
    9900012    2    1    2    0    0 -0.10885710367E+02  0.27000907224E+02  0.32188130445E+02  0.47787269330E+02  0.19999992184E+02 0.  0.
        -12    1    1    2    0    0  0.10885710367E+02 -0.27000907224E+02 -0.32188130445E+02  0.43400730670E+02  0.00000000000E+00 0.  1.
         11    1    3    3    0    0 -0.35678056724E+01  0.12191994208E+02  0.29474237751E+01  0.13040754091E+02  0.51100000000E-03 0. -1.
        -11    1    3    3    0    0 -0.14703104268E+01 -0.81405632591E+00  0.53537744151E+01  0.56113635778E+01  0.51100000000E-03 0.  1.
         12    1    3    3    0    0 -0.58475942679E+01  0.15622969342E+02  0.23886932255E+02  0.29135151662E+02  0.00000000000E+00 0. -1.
</event>
<event>
 7    1  0.3807360E-011  0.4778727E+02  0.7816164E-02  0.1312668E+00
        -11   -1    0    0    0    0  0.00000000000E+00  0.00000000000E+00  0.45593999997E+02  0.45594000000E+02  0.51100000000E-03 0. -1.
         11   -1    0    0    0    0 -0.00000000000E+00 -0.00000000000E+00 -0.45593999997E+02  0.45594000000E+02  0.51100000000E-03 0.  1.
    9900012    2    1    2    0    0  0.68432282104E+01  0.16094038040E+02 -0.39721221416E+02  0.47787271163E+02  0.20000000542E+02 0.  0.
         12    1    1    2    0    0 -0.68432282104E+01 -0.16094038040E+02  0.39721221416E+02  0.43400728837E+02  0.00000000000E+00 0. -1.
         11    1    3    3    0    0  0.13937877348E+01  0.24177840615E+01  0.53507068473E+00  0.28415884496E+01  0.51100000000E-03 0. -1.
        -11    1    3    3    0    0 -0.39576852950E+01  0.68404074393E+01 -0.21157919294E+02  0.22585659077E+02  0.51100000000E-03 0.  1.
        -12    1    3    3    0    0  0.94071257706E+01  0.68358465395E+01 -0.19098372807E+02  0.22360023637E+02  0.00000000000E+00 0.  1.
</event>
<event>
 7    1  0.3807360E-011  0.4778727E+02  0.7816164E-02  0.1312668E+00
        -11   -1    0    0    0    0  0.00000000000E+00  0.00000000000E+00  0.45593999997E+02  0.45594000000E+02  0.51100000000E-03 0. -1.
         11   -1    0    0    0    0 -0.00000000000E+00 -0.00000000000E+00 -0.45593999997E+02  0.45594000000E+02  0.51100000000E-03 0.  1.
    9900012    2    1    2    0    0  0.31465110491E+02  0.78663052123E+01 -0.28839060185E+02  0.47787270418E+02  0.19999997142E+02 0.  0.
         12    1    1    2    0    0 -0.31465110491E+02 -0.78663052123E+01  0.28839060185E+02  0.43400729582E+02  0.00000000000E+00 0. -1.
         11    1    3    3    0    0  0.12053374743E+02  0.99412532370E+01 -0.69303534438E+01  0.17092166561E+02  0.51100000000E-03 0. -1.
        -11    1    3    3    0    0  0.11700576335E+01 -0.30043968952E+01 -0.36153861526E+01  0.48442184987E+01  0.51100000000E-03 0.  1.
        -12    1    3    3    0    0  0.18241678115E+02  0.92944887050E+00 -0.18293320589E+02  0.25850885358E+02  0.00000000000E+00 0.  1.
</event>
<event>
 7    1  0.3807360E-011  0.4778724E+02  0.7816164E-02  0.1312668E+00
        -11   -1    0    0    0    0  0.00000000000E+00  0.00000000000E+00  0.45593999997E+02  0.45594000000E+02  0.51100000000E-03 0. -1.
         11   -1    0    0    0    0 -0.00000000000E+00 -0.00000000000E+00 -0.45593999997E+02  0.45594000000E+02  0.51100000000E-03 0.  1.
    9900012    2    1    2    0    0 -0.23348447376E+02  0.28708081055E+01 -0.36472381114E+02  0.47787238277E+02  0.19999850597E+02 0.  0.
         12    1    1    2    0    0  0.23348447376E+02 -0.28708081055E+01  0.36472381114E+02  0.43400761723E+02  0.00000000000E+00 0. -1.
         11    1    3    3    0    0 -0.51189414021E+01  0.76622116003E+01 -0.58558792139E+01  0.10918075348E+02  0.51100000000E-03 0. -1.
        -11    1    3    3    0    0 -0.10970349642E+02 -0.69725051117E+00 -0.10978248938E+02  0.15535658324E+02  0.51100000000E-03 0.  1.
        -12    1    3    3    0    0 -0.72591563318E+01 -0.40941529836E+01 -0.19638252962E+02  0.21333504604E+02  0.00000000000E+00 0.  1.
</event>
<event>
 7    1  0.3807360E-011  0.4778727E+02  0.7816164E-02  0.1312668E+00
        -11   -1    0    0    0    0  0.00000000000E+00  0.00000000000E+00  0.45593999997E+02  0.45594000000E+02  0.51100000000E-03 0. -1.
         11   -1    0    0    0    0 -0.00000000000E+00 -0.00000000000E+00 -0.45593999997E+02  0.45594000000E+02  0.51100000000E-03 0.  1.
    9900012    2    1    2    0    0 -0.24934482819E+02  0.15945383404E+02  0.31743339067E+02  0.47787271199E+02  0.20000000704E+02 0.  0.
        -12    1    1    2    0    0  0.24934482819E+02 -0.15945383404E+02 -0.31743339067E+02  0.43400728801E+02  0.00000000000E+00 0.  1.
         11    1    3    3    0    0 -0.24068035150E+02  0.14146412363E+02  0.26115072370E+02  0.38228108819E+02  0.51100000000E-03 0. -1.
        -11    1    3    3    0    0 -0.29309222456E+01  0.27986580049E+01  0.59950346618E+01  0.72362443778E+01  0.51100000000E-03 0.  1.
        -12    1    3    3    0    0  0.20644745769E+01 -0.99968696403E+00 -0.36676796420E+00  0.23229180021E+01  0.00000000000E+00 0.  1.
</event>
<event>
 7    1  0.3807360E-011  0.4778727E+02  0.7816164E-02  0.1312668E+00
        -11   -1    0    0    0    0  0.00000000000E+00  0.00000000000E+00  0.45593999997E+02  0.45594000000E+02  0.51100000000E-03 0. -1.
         11   -1    0    0    0    0 -0.00000000000E+00 -0.00000000000E+00 -0.45593999997E+02  0.45594000000E+02  0.51100000000E-03 0.  1.
    9900012    2    1    2    0    0  0.14206324757E+02  0.13406418300E+02  0.38756571848E+02  0.47787267562E+02  0.19999984124E+02 0.  0.
        -12    1    1    2    0    0 -0.14206324757E+02 -0.13406418300E+02 -0.38756571848E+02  0.43400732438E+02  0.00000000000E+00 0.  1.
         11    1    3    3    0    0  0.11678773593E+02  0.14208839842E+02  0.38187860123E+02  0.42386289568E+02  0.51100000000E-03 0. -1.
        -11    1    3    3    0    0  0.31494234864E+01 -0.19462076842E+01  0.12802051335E+01  0.39173355858E+01  0.51100000000E-03 0.  1.
        -12    1    3    3    0    0 -0.62187232234E+00  0.11437861427E+01 -0.71149340910E+00  0.14836424086E+01  0.00000000000E+00 0.  1.
</event>
<event>
 7    1  0.3807360E-011  0.4778727E+02  0.7816164E-02  0.1312668E+00
        -11   -1    0    0    0    0  0.00000000000E+00  0.00000000000E+00  0.45593999997E+02  0.45594000000E+02  0.51100000000E-03 0. -1.
         11   -1    0    0    0    0 -0.00000000000E+00 -0.00000000000E+00 -0.45593999997E+02  0.45594000000E+02  0.51100000000E-03 0.  1.
    9900012    2    1    2    0    0  0.27416557791E+02 -0.21415828329E+00 -0.33643866056E+02  0.47787271572E+02  0.20000002406E+02 0.  0.
         12    1    1    2    0    0 -0.27416557791E+02  0.21415828329E+00  0.33643866056E+02  0.43400728428E+02  0.00000000000E+00 0. -1.
         11    1    3    3    0    0  0.19175036352E+01 -0.24325935083E+01 -0.77905930906E+01  0.83837743489E+01  0.51100000000E-03 0. -1.
        -11    1    3    3    0    0  0.96936715101E+01  0.44914462187E+01 -0.22688693639E+01  0.10921910315E+02  0.51100000000E-03 0.  1.
        -12    1    3    3    0    0  0.15805382645E+02 -0.22730109937E+01 -0.23584403602E+02  0.28481586908E+02  0.00000000000E+00 0.  1.
</event>
<event>
 7    1  0.3807360E-011  0.4778727E+02  0.7816164E-02  0.1312668E+00
        -11   -1    0    0    0    0  0.00000000000E+00  0.00000000000E+00  0.45593999997E+02  0.45594000000E+02  0.51100000000E-03 0.  1.
         11   -1    0    0    0    0 -0.00000000000E+00 -0.00000000000E+00 -0.45593999997E+02  0.45594000000E+02  0.51100000000E-03 0. -1.
    9900012    2    1    2    0    0 -0.32646338859E+01  0.40541401295E+02  0.15144642186E+02  0.47787271431E+02  0.20000001762E+02 0.  0.
         12    1    1    2    0    0  0.32646338859E+01 -0.40541401295E+02 -0.15144642186E+02  0.43400728569E+02  0.00000000000E+00 0. -1.
         11    1    3    3    0    0 -0.44312372205E+01  0.13997845299E+02  0.84927298663E-01  0.14682736436E+02  0.51100000000E-03 0. -1.
        -11    1    3    3    0    0 -0.38672738106E+01  0.22353939437E+02  0.13401124069E+02  0.26348520673E+02  0.51100000000E-03 0.  1.
        -12    1    3    3    0    0  0.50338771452E+01  0.41896165584E+01  0.16585908186E+01  0.67560143223E+01  0.00000000000E+00 0.  1.
</event>
<event>
 7    1  0.3807360E-011  0.4778727E+02  0.7816164E-02  0.1312668E+00
        -11   -1    0    0    0    0  0.00000000000E+00  0.00000000000E+00  0.45593999997E+02  0.45594000000E+02  0.51100000000E-03 0. -1.
         11   -1    0    0    0    0 -0.00000000000E+00 -0.00000000000E+00 -0.45593999997E+02  0.45594000000E+02  0.51100000000E-03 0.  1.
    9900012    2    1    2    0    0  0.15056182354E+01 -0.11794257288E+02 -0.41740292446E+02  0.47787269537E+02  0.19999993127E+02 0.  0.
         12    1    1    2    0    0 -0.15056182354E+01  0.11794257288E+02  0.41740292446E+02  0.43400730463E+02  0.00000000000E+00 0. -1.
         11    1    3    3    0    0  0.22134581177E+01  0.28246700564E+01 -0.30212080925E+01  0.46910400090E+01  0.51100000000E-03 0. -1.
        -11    1    3    3    0    0 -0.45477845641E+01 -0.26553167205E+01 -0.18983095166E+02  0.19700024204E+02  0.51100000000E-03 0.  1.
        -12    1    3    3    0    0  0.38399446818E+01 -0.11963610624E+02 -0.19735989188E+02  0.23396205324E+02  0.00000000000E+00 0.  1.
</event>
<event>
 7    1  0.3807360E-011  0.4778727E+02  0.7816164E-02  0.1312668E+00
        -11   -1    0    0    0    0  0.00000000000E+00  0.00000000000E+00  0.45593999997E+02  0.45594000000E+02  0.51100000000E-03 0. -1.
         11   -1    0    0    0    0 -0.00000000000E+00 -0.00000000000E+00 -0.45593999997E+02  0.45594000000E+02  0.51100000000E-03 0.  1.
    9900012    2    1    2    0    0  0.75273633457E+01  0.26895434009E+02  0.33220445395E+02  0.47787267728E+02  0.19999984879E+02 0.  0.
        -12    1    1    2    0    0 -0.75273633457E+01 -0.26895434009E+02 -0.33220445395E+02  0.43400732272E+02  0.00000000000E+00 0.  1.
         11    1    3    3    0    0  0.36844396191E+01  0.48916984068E+01  0.16677465434E+02  0.17766306936E+02  0.51100000000E-03 0. -1.
        -11    1    3    3    0    0 -0.23823471057E+01  0.19250081061E+01 -0.30904046206E+00  0.30784314527E+01  0.51100000000E-03 0.  1.
        -12    1    3    3    0    0  0.62252708323E+01  0.20078727496E+02  0.16852020424E+02  0.26942529339E+02  0.00000000000E+00 0.  1.
</event>
<event>
 7    1  0.3807360E-011  0.4778726E+02  0.7816164E-02  0.1312668E+00
        -11   -1    0    0    0    0  0.00000000000E+00  0.00000000000E+00  0.45593999997E+02  0.45594000000E+02  0.51100000000E-03 0. -1.
         11   -1    0    0    0    0 -0.00000000000E+00 -0.00000000000E+00 -0.45593999997E+02  0.45594000000E+02  0.51100000000E-03 0.  1.
    9900012    2    1    2    0    0  0.62853048019E+01 -0.14106377689E+02  0.40560193402E+02  0.47787259951E+02  0.19999949421E+02 0.  0.
        -12    1    1    2    0    0 -0.62853048019E+01  0.14106377689E+02 -0.40560193402E+02  0.43400740049E+02  0.00000000000E+00 0.  1.
         11    1    3    3    0    0  0.34201721411E+01 -0.61616777643E-01  0.34617925789E+01  0.48667630128E+01  0.51100000000E-03 0. -1.
        -11    1    3    3    0    0 -0.52115444726E+01 -0.10351571500E+02  0.14005937696E+02  0.18179150676E+02  0.51100000000E-03 0.  1.
         12    1    3    3    0    0  0.80766771334E+01 -0.36931894113E+01  0.23092463128E+02  0.24741346262E+02  0.00000000000E+00 0. -1.
</event>
<event>
 7    1  0.3807360E-011  0.4778727E+02  0.7816164E-02  0.1312668E+00
        -11   -1    0    0    0    0  0.00000000000E+00  0.00000000000E+00  0.45593999997E+02  0.45594000000E+02  0.51100000000E-03 0. -1.
         11   -1    0    0    0    0 -0.00000000000E+00 -0.00000000000E+00 -0.45593999997E+02  0.45594000000E+02  0.51100000000E-03 0.  1.
    9900012    2    1    2    0    0 -0.78579605064E+01 -0.42679032496E+02  0.61332934841E+00  0.47787268083E+02  0.19999986496E+02 0.  0.
        -12    1    1    2    0    0  0.78579605064E+01  0.42679032496E+02 -0.61332934841E+00  0.43400731917E+02  0.00000000000E+00 0.  1.
         11    1    3    3    0    0 -0.41641821409E+01 -0.24318233831E+02 -0.18705572955E+01  0.24742996876E+02  0.51100000000E-03 0. -1.
        -11    1    3    3    0    0 -0.59784422985E+01 -0.87199061937E+01  0.64357855325E+01  0.12377312795E+02  0.51100000000E-03 0.  1.
         12    1    3    3    0    0  0.22846639331E+01 -0.96408924710E+01 -0.39518988886E+01  0.10666958411E+02  0.00000000000E+00 0. -1.
</event>
<event>
 7    1  0.3807360E-011  0.4778727E+02  0.7816164E-02  0.1312668E+00
        -11   -1    0    0    0    0  0.00000000000E+00  0.00000000000E+00  0.45593999997E+02  0.45594000000E+02  0.51100000000E-03 0. -1.
         11   -1    0    0    0    0 -0.00000000000E+00 -0.00000000000E+00 -0.45593999997E+02  0.45594000000E+02  0.51100000000E-03 0.  1.
    9900012    2    1    2    0    0  0.88043560680E+01  0.31936353388E+02  0.28038826499E+02  0.47787272530E+02  0.20000006773E+02 0.  0.
        -12    1    1    2    0    0 -0.88043560680E+01 -0.31936353388E+02 -0.28038826499E+02  0.43400727470E+02  0.00000000000E+00 0.  1.
         11    1    3    3    0    0  0.36924488911E+01  0.65069181640E+01 -0.19090937408E+01  0.77213212586E+01  0.51100000000E-03 0.  1.
        -11    1    3    3    0    0 -0.12895629355E+01  0.66880860694E+01  0.77090920701E+01  0.10287058309E+02  0.51100000000E-03 0. -1.
        -12    1    3    3    0    0  0.64014701125E+01  0.18741349155E+02  0.22238828169E+02  0.29778892963E+02  0.00000000000E+00 0.  1.
</event>
<event>
 7    1  0.3807360E-011  0.4778729E+02  0.7816164E-02  0.1312668E+00
        -11   -1    0    0    0    0  0.00000000000E+00  0.00000000000E+00  0.45593999997E+02  0.45594000000E+02  0.51100000000E-03 0. -1.
         11   -1    0    0    0    0 -0.00000000000E+00 -0.00000000000E+00 -0.45593999997E+02  0.45594000000E+02  0.51100000000E-03 0.  1.
    9900012    2    1    2    0    0  0.82345966877E+01 -0.17105774568E+02 -0.39028266869E+02  0.47787288935E+02  0.20000081568E+02 0.  0.
         12    1    1    2    0    0 -0.82345966877E+01  0.17105774568E+02  0.39028266869E+02  0.43400711065E+02  0.00000000000E+00 0. -1.
         11    1    3    3    0    0 -0.72267634618E+00 -0.73860073760E+00 -0.54514922418E+00  0.11683236233E+01  0.51100000000E-03 0. -1.
        -11    1    3    3    0    0 -0.17573936662E+01 -0.14862348949E+02 -0.17627329717E+02  0.23123594054E+02  0.51100000000E-03 0.  1.
         12    1    3    3    0    0  0.10714666700E+02 -0.15048248816E+01 -0.20855787928E+02  0.23495371257E+02  0.00000000000E+00 0. -1.
</event>
<event>
 7    1  0.3807360E-011  0.4778727E+02  0.7816164E-02  0.1312668E+00
        -11   -1    0    0    0    0  0.00000000000E+00  0.00000000000E+00  0.45593999997E+02  0.45594000000E+02  0.51100000000E-03 0. -1.
         11   -1    0    0    0    0 -0.00000000000E+00 -0.00000000000E+00 -0.45593999997E+02  0.45594000000E+02  0.51100000000E-03 0.  1.
    9900012    2    1    2    0    0 -0.54940149626E+01  0.19699730711E+02  0.38280020041E+02  0.47787268153E+02  0.19999986819E+02 0.  0.
        -12    1    1    2    0    0  0.54940149626E+01 -0.19699730711E+02 -0.38280020041E+02  0.43400731847E+02  0.00000000000E+00 0.  1.
         11    1    3    3    0    0 -0.48699329568E+01  0.11226270225E+01  0.65764148275E+01  0.82598892656E+01  0.51100000000E-03 0.  1.
        -11    1    3    3    0    0 -0.23983694343E+01  0.17807231005E+02  0.17127103082E+02  0.24823120518E+02  0.51100000000E-03 0. -1.
         12    1    3    3    0    0  0.17742874285E+01  0.76987268393E+00  0.14576502131E+02  0.14704258370E+02  0.00000000000E+00 0. -1.
</event>
<event>
 7    1  0.3807360E-011  0.4778727E+02  0.7816164E-02  0.1312668E+00
        -11   -1    0    0    0    0  0.00000000000E+00  0.00000000000E+00  0.45593999997E+02  0.45594000000E+02  0.51100000000E-03 0. -1.
         11   -1    0    0    0    0 -0.00000000000E+00 -0.00000000000E+00 -0.45593999997E+02  0.45594000000E+02  0.51100000000E-03 0.  1.
    9900012    2    1    2    0    0 -0.20165273873E+02 -0.34703621652E+02 -0.16511918953E+02  0.47787273121E+02  0.20000009468E+02 0.  0.
         12    1    1    2    0    0  0.20165273873E+02  0.34703621652E+02  0.16511918953E+02  0.43400726879E+02  0.00000000000E+00 0. -1.
         11    1    3    3    0    0 -0.13537528021E+02 -0.17333425918E+02 -0.41269183190E+01  0.22377304888E+02  0.51100000000E-03 0. -1.
        -11    1    3    3    0    0 -0.14281404295E+01 -0.16544111326E+02 -0.74735377730E+01  0.18209914106E+02  0.51100000000E-03 0.  1.
         12    1    3    3    0    0 -0.51996054225E+01 -0.82608440804E+00 -0.49114628607E+01  0.72000541270E+01  0.00000000000E+00 0. -1.
</event>
<event>
 7    1  0.3807360E-011  0.4778727E+02  0.7816164E-02  0.1312668E+00
        -11   -1    0    0    0    0  0.00000000000E+00  0.00000000000E+00  0.45593999997E+02  0.45594000000E+02  0.51100000000E-03 0. -1.
         11   -1    0    0    0    0 -0.00000000000E+00 -0.00000000000E+00 -0.45593999997E+02  0.45594000000E+02  0.51100000000E-03 0.  1.
    9900012    2    1    2    0    0 -0.23921677730E+02  0.14204201167E+02 -0.33310923451E+02  0.47787267088E+02  0.19999981959E+02 0.  0.
         12    1    1    2    0    0  0.23921677730E+02 -0.14204201167E+02  0.33310923451E+02  0.43400732912E+02  0.00000000000E+00 0. -1.
         11    1    3    3    0    0  0.96261015431E+00 -0.66983244374E+00 -0.10809928955E+01  0.15949419153E+01  0.51100000000E-03 0. -1.
        -11    1    3    3    0    0 -0.23868774548E+02  0.73779427722E+01 -0.28000307298E+02  0.37525586565E+02  0.51100000000E-03 0.  1.
        -12    1    3    3    0    0 -0.10155133357E+01  0.74960908385E+01 -0.42296232577E+01  0.86667386078E+01  0.00000000000E+00 0.  1.
</event>
<event>
 7    1  0.1014550E-010  0.4778728E+02  0.7816164E-02  0.1312668E+00
        -11   -1    0    0    0    0  0.00000000000E+00  0.00000000000E+00  0.45593999997E+02  0.45594000000E+02  0.51100000000E-03 0. -1.
         11   -1    0    0    0    0 -0.00000000000E+00 -0.00000000000E+00 -0.45593999997E+02  0.45594000000E+02  0.51100000000E-03 0.  1.
    9900012    2    1    2    0    0  0.56024099491E+00 -0.43059331741E+02  0.54039226186E+01  0.47787282268E+02  0.20000051174E+02 0.  0.
        -12    1    1    2    0    0 -0.56024099491E+00  0.43059331741E+02 -0.54039226186E+01  0.43400717732E+02  0.00000000000E+00 0.  1.
         11    1    3    3    0    0 -0.54295644688E+01 -0.26686233586E+02 -0.82860793862E+00  0.27245583581E+02  0.51100000000E-03 0. -1.
        -11    1    3    3    0    0  0.35369219298E+01 -0.43300187251E+01 -0.17831980315E+01  0.58684473566E+01  0.51100000000E-03 0.  1.
         12    1    3    3    0    0  0.24528835338E+01 -0.12043079430E+02  0.80157285887E+01  0.14673251330E+02  0.00000000000E+00 0. -1.
</event>
<event>
 7    1  0.3807360E-011  0.4778728E+02  0.7816164E-02  0.1312668E+00
        -11   -1    0    0    0    0  0.00000000000E+00  0.00000000000E+00  0.45593999997E+02  0.45594000000E+02  0.51100000000E-03 0. -1.
         11   -1    0    0    0    0 -0.00000000000E+00 -0.00000000000E+00 -0.45593999997E+02  0.45594000000E+02  0.51100000000E-03 0.  1.
    9900012    2    1    2    0    0  0.97907551052E+01  0.16410467772E+02  0.38967424831E+02  0.47787279545E+02  0.20000038759E+02 0.  0.
        -12    1    1    2    0    0 -0.97907551052E+01 -0.16410467772E+02 -0.38967424831E+02  0.43400720455E+02  0.00000000000E+00 0.  1.
         11    1    3    3    0    0  0.30581543370E-01 -0.10411717789E+01  0.11462264757E+01  0.15488089937E+01  0.51100000000E-03 0. -1.
        -11    1    3    3    0    0 -0.32000394701E+01  0.86948677218E+01  0.22547145323E+02  0.24376520256E+02  0.51100000000E-03 0.  1.
         12    1    3    3    0    0  0.12960213032E+02  0.87567718289E+01  0.15274053032E+02  0.21861950296E+02  0.00000000000E+00 0. -1.
</event>
<event>
 7    1  0.3807360E-011  0.4778726E+02  0.7816164E-02  0.1312668E+00
        -11   -1    0    0    0    0  0.00000000000E+00  0.00000000000E+00  0.45593999997E+02  0.45594000000E+02  0.51100000000E-03 0. -1.
         11   -1    0    0    0    0 -0.00000000000E+00 -0.00000000000E+00 -0.45593999997E+02  0.45594000000E+02  0.51100000000E-03 0.  1.
    9900012    2    1    2    0    0 -0.32837128381E+02  0.19323148091E+02 -0.20783725065E+02  0.47787259453E+02  0.19999947150E+02 0.  0.
         12    1    1    2    0    0  0.32837128381E+02 -0.19323148091E+02  0.20783725065E+02  0.43400740547E+02  0.00000000000E+00 0. -1.
         11    1    3    3    0    0  0.31131378934E+00  0.46072666077E+01 -0.35216247941E+01  0.58073800738E+01  0.51100000000E-03 0. -1.
        -11    1    3    3    0    0 -0.18060580192E+02  0.10698849450E+02 -0.15848488599E+02  0.26302557434E+02  0.51100000000E-03 0.  1.
         12    1    3    3    0    0 -0.15087861978E+02  0.40170320332E+01 -0.14136116717E+01  0.15677321945E+02  0.00000000000E+00 0. -1.
</event>
<event>
 7    1  0.4295231E-011  0.4778727E+02  0.7816164E-02  0.1312668E+00
        -11   -1    0    0    0    0  0.00000000000E+00  0.00000000000E+00  0.45593999997E+02  0.45594000000E+02  0.51100000000E-03 0. -1.
         11   -1    0    0    0    0 -0.00000000000E+00 -0.00000000000E+00 -0.45593999997E+02  0.45594000000E+02  0.51100000000E-03 0.  1.
    9900012    2    1    2    0    0 -0.27275017017E+02  0.18007199269E+02 -0.28555873230E+02  0.47787266427E+02  0.19999978946E+02 0.  0.
         12    1    1    2    0    0  0.27275017017E+02 -0.18007199269E+02  0.28555873230E+02  0.43400733573E+02  0.00000000000E+00 0. -1.
         11    1    3    3    0    0 -0.20836751355E+01 -0.22516578278E+01 -0.12119794577E+01  0.32985693127E+01  0.51100000000E-03 0. -1.
        -11    1    3    3    0    0 -0.15329800690E+02  0.13827345411E+02 -0.25106758411E+02  0.32504577963E+02  0.51100000000E-03 0.  1.
         12    1    3    3    0    0 -0.98615411908E+01  0.64315116850E+01 -0.22371353611E+01  0.11984119151E+02  0.00000000000E+00 0. -1.
</event>
<event>
 7    1  0.3807360E-011  0.4778727E+02  0.7816164E-02  0.1312668E+00
        -11   -1    0    0    0    0  0.00000000000E+00  0.00000000000E+00  0.45593999997E+02  0.45594000000E+02  0.51100000000E-03 0. -1.
         11   -1    0    0    0    0 -0.00000000000E+00 -0.00000000000E+00 -0.45593999997E+02  0.45594000000E+02  0.51100000000E-03 0.  1.
    9900012    2    1    2    0    0 -0.74335035015E+01 -0.22218597207E+02  0.36533549367E+02  0.47787271141E+02  0.20000000441E+02 0.  0.
        -12    1    1    2    0    0  0.74335035015E+01  0.22218597207E+02 -0.36533549367E+02  0.43400728859E+02  0.00000000000E+00 0.  1.
         11    1    3    3    0    0 -0.43945610820E+00 -0.18887384088E+01  0.37916208038E+01  0.42587372576E+01  0.51100000000E-03 0. -1.
        -11    1    3    3    0    0  0.75004799258E+00 -0.36843439118E+01  0.21872643738E+02  0.22193456387E+02  0.51100000000E-03 0.  1.
         12    1    3    3    0    0 -0.77440953859E+01 -0.16645514886E+02  0.10869284825E+02  0.21335077496E+02  0.00000000000E+00 0. -1.
</event>
<event>
 7    1  0.3807360E-011  0.4778727E+02  0.7816164E-02  0.1312668E+00
        -11   -1    0    0    0    0  0.00000000000E+00  0.00000000000E+00  0.45593999997E+02  0.45594000000E+02  0.51100000000E-03 0. -1.
         11   -1    0    0    0    0 -0.00000000000E+00 -0.00000000000E+00 -0.45593999997E+02  0.45594000000E+02  0.51100000000E-03 0.  1.
    9900012    2    1    2    0    0 -0.15480421491E+02 -0.98333633296E+00  0.40534094503E+02  0.47787271699E+02  0.20000002986E+02 0.  0.
        -12    1    1    2    0    0  0.15480421491E+02  0.98333633296E+00 -0.40534094503E+02  0.43400728301E+02  0.00000000000E+00 0.  1.
         11    1    3    3    0    0 -0.91864463901E+01 -0.46878600540E+01  0.20007272847E+02  0.22509060314E+02  0.51100000000E-03 0. -1.
        -11    1    3    3    0    0 -0.77098085496E+01  0.61146243456E+01  0.20193165297E+02  0.22463163262E+02  0.51100000000E-03 0.  1.
        -12    1    3    3    0    0  0.14158334489E+01 -0.24101006246E+01  0.33365635881E+00  0.28150481242E+01  0.00000000000E+00 0.  1.
</event>
<event>
 7    1  0.3807360E-011  0.4778731E+02  0.7816164E-02  0.1312668E+00
        -11   -1    0    0    0    0  0.00000000000E+00  0.00000000000E+00  0.45593999997E+02  0.45594000000E+02  0.51100000000E-03 0. -1.
         11   -1    0    0    0    0 -0.00000000000E+00 -0.00000000000E+00 -0.45593999997E+02  0.45594000000E+02  0.51100000000E-03 0.  1.
    9900012    2    1    2    0    0 -0.10969241482E+02 -0.33503269632E+02 -0.25314559452E+02  0.47787305824E+02  0.20000158573E+02 0.  0.
         12    1    1    2    0    0  0.10969241482E+02  0.33503269632E+02  0.25314559452E+02  0.43400694176E+02  0.00000000000E+00 0. -1.
         11    1    3    3    0    0  0.13157488835E+01  0.16299191922E+01 -0.33744732837E+01  0.39717630722E+01  0.51100000000E-03 0. -1.
        -11    1    3    3    0    0 -0.31022898094E+01 -0.12344067868E+02 -0.38265592856E+01  0.13290702382E+02  0.51100000000E-03 0.  1.
        -12    1    3    3    0    0 -0.91827005557E+01 -0.22789120957E+02 -0.18113526883E+02  0.30524840370E+02  0.00000000000E+00 0.  1.
</event>
<event>
 7    1  0.3807360E-011  0.4778727E+02  0.7816164E-02  0.1312668E+00
        -11   -1    0    0    0    0  0.00000000000E+00  0.00000000000E+00  0.45593999997E+02  0.45594000000E+02  0.51100000000E-03 0. -1.
         11   -1    0    0    0    0 -0.00000000000E+00 -0.00000000000E+00 -0.45593999997E+02  0.45594000000E+02  0.51100000000E-03 0.  1.
    9900012    2    1    2    0    0  0.98722114170E+01  0.18030277328E+02  0.38223966689E+02  0.47787273183E+02  0.20000009751E+02 0.  0.
        -12    1    1    2    0    0 -0.98722114170E+01 -0.18030277328E+02 -0.38223966689E+02  0.43400726817E+02  0.00000000000E+00 0.  1.
         11    1    3    3    0    0  0.48307284713E+01  0.25915965843E+01  0.24098904478E+02  0.24714560642E+02  0.51100000000E-03 0. -1.
        -11    1    3    3    0    0  0.46618860156E+01  0.40827511350E+01  0.21356382498E+01  0.65546158582E+01  0.51100000000E-03 0.  1.
        -12    1    3    3    0    0  0.37959693008E+00  0.11355929609E+02  0.11989423961E+02  0.16518096683E+02  0.00000000000E+00 0.  1.
</event>
<event>
 7    1  0.3807360E-011  0.4778727E+02  0.7816164E-02  0.1312668E+00
        -11   -1    0    0    0    0  0.00000000000E+00  0.00000000000E+00  0.45593999997E+02  0.45594000000E+02  0.51100000000E-03 0. -1.
         11   -1    0    0    0    0 -0.00000000000E+00 -0.00000000000E+00 -0.45593999997E+02  0.45594000000E+02  0.51100000000E-03 0.  1.
    9900012    2    1    2    0    0 -0.11444195595E+01 -0.10780886531E+02  0.42024825833E+02  0.47787271933E+02  0.20000004050E+02 0.  0.
        -12    1    1    2    0    0  0.11444195595E+01  0.10780886531E+02 -0.42024825833E+02  0.43400728067E+02  0.00000000000E+00 0.  1.
         11    1    3    3    0    0 -0.14244086725E+01  0.24443492860E+01  0.70821867822E+01  0.76263460043E+01  0.51100000000E-03 0. -1.
        -11    1    3    3    0    0 -0.15967231669E+01 -0.25553995002E+01  0.25827775107E+02  0.26002952884E+02  0.51100000000E-03 0.  1.
        -12    1    3    3    0    0  0.18767122800E+01 -0.10669836316E+02  0.91148639436E+01  0.14157973044E+02  0.00000000000E+00 0.  1.
</event>
<event>
 7    1  0.3807360E-011  0.4778727E+02  0.7816164E-02  0.1312668E+00
        -11   -1    0    0    0    0  0.00000000000E+00  0.00000000000E+00  0.45593999997E+02  0.45594000000E+02  0.51100000000E-03 0. -1.
         11   -1    0    0    0    0 -0.00000000000E+00 -0.00000000000E+00 -0.45593999997E+02  0.45594000000E+02  0.51100000000E-03 0.  1.
    9900012    2    1    2    0    0 -0.40457284982E+01 -0.10614518283E+02 -0.41887795058E+02  0.47787270833E+02  0.19999999035E+02 0.  0.
         12    1    1    2    0    0  0.40457284982E+01  0.10614518283E+02  0.41887795058E+02  0.43400729167E+02  0.00000000000E+00 0. -1.
         11    1    3    3    0    0 -0.72436997827E+01 -0.72563998719E+01 -0.12073135966E+02  0.15839417223E+02  0.51100000000E-03 0. -1.
        -11    1    3    3    0    0 -0.24230247217E+00  0.30275111740E+01 -0.34165169573E+01  0.45713370886E+01  0.51100000000E-03 0.  1.
        -12    1    3    3    0    0  0.34402737566E+01 -0.63856295848E+01 -0.26398142134E+02  0.27376516521E+02  0.00000000000E+00 0.  1.
</event>
<event>
 7    1  0.3807360E-011  0.4778727E+02  0.7816164E-02  0.1312668E+00
        -11   -1    0    0    0    0  0.00000000000E+00  0.00000000000E+00  0.45593999997E+02  0.45594000000E+02  0.51100000000E-03 0. -1.
         11   -1    0    0    0    0 -0.00000000000E+00 -0.00000000000E+00 -0.45593999997E+02  0.45594000000E+02  0.51100000000E-03 0.  1.
    9900012    2    1    2    0    0 -0.78613345795E+01 -0.27235374068E+00  0.42681944611E+02  0.47787272428E+02  0.20000006310E+02 0.  0.
        -12    1    1    2    0    0  0.78613345795E+01  0.27235374068E+00 -0.42681944611E+02  0.43400727572E+02  0.00000000000E+00 0.  1.
         11    1    3    3    0    0 -0.24211069652E+01 -0.28679700972E+01  0.39691337662E+01  0.54626948048E+01  0.51100000000E-03 0. -1.
        -11    1    3    3    0    0  0.69633929761E+00  0.52357132222E+00 -0.14235429365E+01  0.16689787596E+01  0.51100000000E-03 0.  1.
         12    1    3    3    0    0 -0.61365669119E+01  0.20720450343E+01  0.40136353782E+02  0.40655598864E+02  0.00000000000E+00 0. -1.
</event>
<event>
 7    1  0.3807360E-011  0.4778727E+02  0.7816164E-02  0.1312668E+00
        -11   -1    0    0    0    0  0.00000000000E+00  0.00000000000E+00  0.45593999997E+02  0.45594000000E+02  0.51100000000E-03 0. -1.
         11   -1    0    0    0    0 -0.00000000000E+00 -0.00000000000E+00 -0.45593999997E+02  0.45594000000E+02  0.51100000000E-03 0.  1.
    9900012    2    1    2    0    0  0.35419519971E+02  0.25055414048E+02  0.11433344739E+01  0.47787269802E+02  0.19999994333E+02 0.  0.
         12    1    1    2    0    0 -0.35419519971E+02 -0.25055414048E+02 -0.11433344739E+01  0.43400730198E+02  0.00000000000E+00 0. -1.
         11    1    3    3    0    0  0.93255103607E+01  0.12266117463E+02  0.32092408070E+01  0.15739187016E+02  0.51100000000E-03 0. -1.
        -11    1    3    3    0    0  0.24983083843E+02  0.69117802856E+01 -0.79937152397E+00  0.25933880930E+02  0.51100000000E-03 0.  1.
         12    1    3    3    0    0  0.11109257670E+01  0.58775162987E+01 -0.12665348092E+01  0.61142018550E+01  0.00000000000E+00 0. -1.
</event>
<event>
 7    1  0.3819688E-011  0.4778727E+02  0.7816164E-02  0.1312668E+00
        -11   -1    0    0    0    0  0.00000000000E+00  0.00000000000E+00  0.45593999997E+02  0.45594000000E+02  0.51100000000E-03 0. -1.
         11   -1    0    0    0    0 -0.00000000000E+00 -0.00000000000E+00 -0.45593999997E+02  0.45594000000E+02  0.51100000000E-03 0.  1.
    9900012    2    1    2    0    0  0.64479861605E+00  0.34506955904E+02 -0.26314963175E+02  0.47787273533E+02  0.20000011345E+02 0.  0.
         12    1    1    2    0    0 -0.64479861605E+00 -0.34506955904E+02  0.26314963175E+02  0.43400726467E+02  0.00000000000E+00 0. -1.
         11    1    3    3    0    0 -0.27855854497E+01  0.27436144489E+01  0.58031229972E+00  0.39526787333E+01  0.51100000000E-03 0. -1.
        -11    1    3    3    0    0 -0.96191403030E+00  0.23527050926E+02 -0.24936732161E+02  0.34297055486E+02  0.51100000000E-03 0.  1.
         12    1    3    3    0    0  0.43922980961E+01  0.82362905287E+01 -0.19585433131E+01  0.95375393130E+01  0.00000000000E+00 0. -1.
</event>
<event>
 7    1  0.3807360E-011  0.4778727E+02  0.7816164E-02  0.1312668E+00
        -11   -1    0    0    0    0  0.00000000000E+00  0.00000000000E+00  0.45593999997E+02  0.45594000000E+02  0.51100000000E-03 0. -1.
         11   -1    0    0    0    0 -0.00000000000E+00 -0.00000000000E+00 -0.45593999997E+02  0.45594000000E+02  0.51100000000E-03 0.  1.
    9900012    2    1    2    0    0  0.23831104048E+01  0.64462010987E+01  0.42853126402E+02  0.47787272285E+02  0.20000005654E+02 0.  0.
        -12    1    1    2    0    0 -0.23831104048E+01 -0.64462010987E+01 -0.42853126402E+02  0.43400727715E+02  0.00000000000E+00 0.  1.
         11    1    3    3    0    0 -0.10285420020E+01  0.81584866405E+01  0.31345824702E+02  0.32406473573E+02  0.51100000000E-03 0. -1.
        -11    1    3    3    0    0  0.50386869536E+01  0.23907148586E+01  0.48373748687E+01  0.73826878326E+01  0.51100000000E-03 0.  1.
        -12    1    3    3    0    0 -0.16270345469E+01 -0.41030004004E+01  0.66699268314E+01  0.79981108794E+01  0.00000000000E+00 0.  1.
</event>
<event>
 7    1  0.3807360E-011  0.4778727E+02  0.7816164E-02  0.1312668E+00
        -11   -1    0    0    0    0  0.00000000000E+00  0.00000000000E+00  0.45593999997E+02  0.45594000000E+02  0.51100000000E-03 0. -1.
         11   -1    0    0    0    0 -0.00000000000E+00 -0.00000000000E+00 -0.45593999997E+02  0.45594000000E+02  0.51100000000E-03 0.  1.
    9900012    2    1    2    0    0 -0.44064285332E+01  0.37799354161E+02  0.20866617562E+02  0.47787268256E+02  0.19999987287E+02 0.  0.
        -12    1    1    2    0    0  0.44064285332E+01 -0.37799354161E+02 -0.20866617562E+02  0.43400731744E+02  0.00000000000E+00 0.  1.
         11    1    3    3    0    0 -0.37186545624E+01  0.26356122735E+02  0.48137118107E+01  0.27048944878E+02  0.51100000000E-03 0. -1.
        -11    1    3    3    0    0  0.16360338231E+01  0.93583430057E+00  0.48537673691E+01  0.52068657024E+01  0.51100000000E-03 0.  1.
        -12    1    3    3    0    0 -0.23238077939E+01  0.10507397126E+02  0.11199138382E+02  0.15531457676E+02  0.00000000000E+00 0.  1.
</event>
<event>
 7    1  0.3807360E-011  0.4778727E+02  0.7816164E-02  0.1312668E+00
        -11   -1    0    0    0    0  0.00000000000E+00  0.00000000000E+00  0.45593999997E+02  0.45594000000E+02  0.51100000000E-03 0. -1.
         11   -1    0    0    0    0 -0.00000000000E+00 -0.00000000000E+00 -0.45593999997E+02  0.45594000000E+02  0.51100000000E-03 0.  1.
    9900012    2    1    2    0    0  0.12173788199E+02  0.22384588247E+02 -0.35133354361E+02  0.47787268453E+02  0.19999988186E+02 0.  0.
         12    1    1    2    0    0 -0.12173788199E+02 -0.22384588247E+02  0.35133354361E+02  0.43400731547E+02  0.00000000000E+00 0. -1.
         11    1    3    3    0    0 -0.47312138478E+00  0.63960923205E+01 -0.45237961336E+01  0.78484758098E+01  0.51100000000E-03 0. -1.
        -11    1    3    3    0    0  0.47256384429E+01  0.16657043753E+02 -0.24039291802E+02  0.29625602371E+02  0.51100000000E-03 0.  1.
        -12    1    3    3    0    0  0.79212711411E+01 -0.66854782620E+00 -0.65702664260E+01  0.10313190272E+02  0.00000000000E+00 0.  1.
</event>
<event>
 7    1  0.3807360E-011  0.4778727E+02  0.7816164E-02  0.1312668E+00
        -11   -1    0    0    0    0  0.00000000000E+00  0.00000000000E+00  0.45593999997E+02  0.45594000000E+02  0.51100000000E-03 0. -1.
         11   -1    0    0    0    0 -0.00000000000E+00 -0.00000000000E+00 -0.45593999997E+02  0.45594000000E+02  0.51100000000E-03 0.  1.
    9900012    2    1    2    0    0  0.11537906009E+02  0.22216932770E+02  0.35452896007E+02  0.47787271757E+02  0.20000003248E+02 0.  0.
        -12    1    1    2    0    0 -0.11537906009E+02 -0.22216932770E+02 -0.35452896007E+02  0.43400728243E+02  0.00000000000E+00 0.  1.
         11    1    3    3    0    0  0.10717462486E+02  0.12693105025E+02  0.23077958049E+02  0.28435384036E+02  0.51100000000E-03 0. -1.
        -11    1    3    3    0    0  0.25114680325E+01  0.85971064794E+01  0.25117469882E+01  0.93019667109E+01  0.51100000000E-03 0.  1.
        -12    1    3    3    0    0 -0.16910245096E+01  0.92672126512E+00  0.98631909701E+01  0.10049921010E+02  0.00000000000E+00 0.  1.
</event>
<event>
 7    1  0.3807360E-011  0.4778727E+02  0.7816164E-02  0.1312668E+00
        -11   -1    0    0    0    0  0.00000000000E+00  0.00000000000E+00  0.45593999997E+02  0.45594000000E+02  0.51100000000E-03 0. -1.
         11   -1    0    0    0    0 -0.00000000000E+00 -0.00000000000E+00 -0.45593999997E+02  0.45594000000E+02  0.51100000000E-03 0.  1.
    9900012    2    1    2    0    0  0.92761829366E+01 -0.27906264254E+02 -0.31918898085E+02  0.47787271787E+02  0.20000003385E+02 0.  0.
         12    1    1    2    0    0 -0.92761829366E+01  0.27906264254E+02  0.31918898085E+02  0.43400728213E+02  0.00000000000E+00 0. -1.
         11    1    3    3    0    0  0.93275249994E+01 -0.10476509636E+02 -0.44418326657E+01  0.14713594206E+02  0.51100000000E-03 0. -1.
        -11    1    3    3    0    0 -0.20409398246E+01 -0.22909314653E+01 -0.57584519600E+01  0.65248426482E+01  0.51100000000E-03 0.  1.
        -12    1    3    3    0    0  0.19895977618E+01 -0.15138823153E+02 -0.21718613459E+02  0.26548834933E+02  0.00000000000E+00 0.  1.
</event>
<event>
 7    1  0.3807360E-011  0.4778727E+02  0.7816164E-02  0.1312668E+00
        -11   -1    0    0    0    0  0.00000000000E+00  0.00000000000E+00  0.45593999997E+02  0.45594000000E+02  0.51100000000E-03 0.  1.
         11   -1    0    0    0    0 -0.00000000000E+00 -0.00000000000E+00 -0.45593999997E+02  0.45594000000E+02  0.51100000000E-03 0. -1.
    9900012    2    1    2    0    0  0.27339714025E+02 -0.27979248657E+02 -0.18796942779E+02  0.47787269866E+02  0.19999994626E+02 0.  0.
         12    1    1    2    0    0 -0.27339714025E+02  0.27979248657E+02  0.18796942779E+02  0.43400730134E+02  0.00000000000E+00 0. -1.
         11    1    3    3    0    0  0.12347186695E+02 -0.12892246673E+02 -0.17175757800E+02  0.24772357575E+02  0.51100000000E-03 0.  1.
        -11    1    3    3    0    0  0.14931256969E+02 -0.12044797653E+02 -0.34110048982E+01  0.19484725809E+02  0.51100000000E-03 0. -1.
        -12    1    3    3    0    0  0.61270359885E-01 -0.30422043312E+01  0.17898199192E+01  0.35301864813E+01  0.00000000000E+00 0.  1.
</event>
<event>
 7    1  0.3807360E-011  0.4778727E+02  0.7816164E-02  0.1312668E+00
        -11   -1    0    0    0    0  0.00000000000E+00  0.00000000000E+00  0.45593999997E+02  0.45594000000E+02  0.51100000000E-03 0. -1.
         11   -1    0    0    0    0 -0.00000000000E+00 -0.00000000000E+00 -0.45593999997E+02  0.45594000000E+02  0.51100000000E-03 0.  1.
    9900012    2    1    2    0    0 -0.16648749438E+02 -0.33074529639E+02 -0.22638858240E+02  0.47787271077E+02  0.20000000147E+02 0.  0.
         12    1    1    2    0    0  0.16648749438E+02  0.33074529639E+02  0.22638858240E+02  0.43400728923E+02  0.00000000000E+00 0. -1.
         11    1    3    3    0    0 -0.58656653394E+00 -0.17051411008E+01 -0.93344109119E+01  0.95069865786E+01  0.51100000000E-03 0. -1.
        -11    1    3    3    0    0 -0.47463276216E+01 -0.59637889670E+01 -0.43247378625E+00  0.76342280927E+01  0.51100000000E-03 0.  1.
        -12    1    3    3    0    0 -0.11315855282E+02 -0.25405599571E+02 -0.12871973541E+02  0.30646056405E+02  0.00000000000E+00 0.  1.
</event>
<event>
 7    1  0.3807360E-011  0.4778727E+02  0.7816164E-02  0.1312668E+00
        -11   -1    0    0    0    0  0.00000000000E+00  0.00000000000E+00  0.45593999997E+02  0.45594000000E+02  0.51100000000E-03 0. -1.
         11   -1    0    0    0    0 -0.00000000000E+00 -0.00000000000E+00 -0.45593999997E+02  0.45594000000E+02  0.51100000000E-03 0.  1.
    9900012    2    1    2    0    0  0.47671263222E+01 -0.33336864579E+01 -0.43009119861E+02  0.47787270167E+02  0.19999996000E+02 0.  0.
         12    1    1    2    0    0 -0.47671263222E+01  0.33336864579E+01  0.43009119861E+02  0.43400729833E+02  0.00000000000E+00 0. -1.
         11    1    3    3    0    0  0.39773838015E+01  0.26119291982E+01 -0.15987878385E+02  0.16680947561E+02  0.51100000000E-03 0. -1.
        -11    1    3    3    0    0  0.40311658061E+01 -0.96631449236E+01 -0.18804513001E+02  0.21522926776E+02  0.51100000000E-03 0.  1.
        -12    1    3    3    0    0 -0.32414232854E+01  0.37175292675E+01 -0.82167284762E+01  0.95833958293E+01  0.00000000000E+00 0.  1.
</event>
<event>
 7    1  0.3807360E-011  0.4778727E+02  0.7816164E-02  0.1312668E+00
        -11   -1    0    0    0    0  0.00000000000E+00  0.00000000000E+00  0.45593999997E+02  0.45594000000E+02  0.51100000000E-03 0. -1.
         11   -1    0    0    0    0 -0.00000000000E+00 -0.00000000000E+00 -0.45593999997E+02  0.45594000000E+02  0.51100000000E-03 0.  1.
    9900012    2    1    2    0    0 -0.23669076250E+02 -0.32080131937E+02 -0.17154101152E+02  0.47787271642E+02  0.20000002727E+02 0.  0.
         12    1    1    2    0    0  0.23669076250E+02  0.32080131937E+02  0.17154101152E+02  0.43400728358E+02  0.00000000000E+00 0. -1.
         11    1    3    3    0    0 -0.64867782945E-02 -0.29401731060E+01  0.20485019514E+01  0.35834369643E+01  0.51100000000E-03 0. -1.
        -11    1    3    3    0    0 -0.40188748069E+01 -0.20462534009E+01  0.16166372582E+01  0.47908270663E+01  0.51100000000E-03 0.  1.
        -12    1    3    3    0    0 -0.19643714665E+02 -0.27093705430E+02 -0.20819240362E+02  0.39413007612E+02  0.00000000000E+00 0.  1.
</event>
<event>
 7    1  0.3807360E-011  0.4778728E+02  0.7816164E-02  0.1312668E+00
        -11   -1    0    0    0    0  0.00000000000E+00  0.00000000000E+00  0.45593999997E+02  0.45594000000E+02  0.51100000000E-03 0. -1.
         11   -1    0    0    0    0 -0.00000000000E+00 -0.00000000000E+00 -0.45593999997E+02  0.45594000000E+02  0.51100000000E-03 0.  1.
    9900012    2    1    2    0    0  0.11377281856E+02  0.23702541558E+02  0.34530709046E+02  0.47787275514E+02  0.20000020378E+02 0.  0.
        -12    1    1    2    0    0 -0.11377281856E+02 -0.23702541558E+02 -0.34530709046E+02  0.43400724486E+02  0.00000000000E+00 0.  1.
         11    1    3    3    0    0  0.45467284003E+01  0.14083908464E+02  0.18987153682E+02  0.24073662413E+02  0.51100000000E-03 0. -1.
        -11    1    3    3    0    0  0.73567549130E+01  0.17840302794E+01  0.13693103662E+02  0.15646267767E+02  0.51100000000E-03 0.  1.
        -12    1    3    3    0    0 -0.52620145751E+00  0.78346028141E+01  0.18504517016E+01  0.80673453334E+01  0.00000000000E+00 0.  1.
</event>
<event>
 7    1  0.3807360E-011  0.4778727E+02  0.7816164E-02  0.1312668E+00
        -11   -1    0    0    0    0  0.00000000000E+00  0.00000000000E+00  0.45593999997E+02  0.45594000000E+02  0.51100000000E-03 0. -1.
         11   -1    0    0    0    0 -0.00000000000E+00 -0.00000000000E+00 -0.45593999997E+02  0.45594000000E+02  0.51100000000E-03 0.  1.
    9900012    2    1    2    0    0  0.57485061358E+00  0.85706893648E+01 -0.42542173022E+02  0.47787266655E+02  0.19999979987E+02 0.  0.
         12    1    1    2    0    0 -0.57485061358E+00 -0.85706893648E+01  0.42542173022E+02  0.43400733345E+02  0.00000000000E+00 0. -1.
         11    1    3    3    0    0 -0.27052776295E+01  0.82931041501E+01 -0.22208534412E+02  0.23860282993E+02  0.51100000000E-03 0. -1.
        -11    1    3    3    0    0  0.17372521359E+01 -0.36996607825E+01 -0.19033267137E+02  0.19467172190E+02  0.51100000000E-03 0.  1.
         12    1    3    3    0    0  0.15428761071E+01  0.39772459973E+01 -0.13003714732E+01  0.44598114728E+01  0.00000000000E+00 0. -1.
</event>
<event>
 7    1  0.3807360E-011  0.4778727E+02  0.7816164E-02  0.1312668E+00
        -11   -1    0    0    0    0  0.00000000000E+00  0.00000000000E+00  0.45593999997E+02  0.45594000000E+02  0.51100000000E-03 0. -1.
         11   -1    0    0    0    0 -0.00000000000E+00 -0.00000000000E+00 -0.45593999997E+02  0.45594000000E+02  0.51100000000E-03 0.  1.
    9900012    2    1    2    0    0  0.41831406780E+01  0.14745736139E+02 -0.40604038937E+02  0.47787269843E+02  0.19999994522E+02 0.  0.
         12    1    1    2    0    0 -0.41831406780E+01 -0.14745736139E+02  0.40604038937E+02  0.43400730157E+02  0.00000000000E+00 0. -1.
         11    1    3    3    0    0  0.19578090356E+01 -0.40856220252E+01 -0.75627954433E+01  0.88159627228E+01  0.51100000000E-03 0. -1.
        -11    1    3    3    0    0  0.32738324230E+01  0.30471907058E+01 -0.10695760644E+02  0.11593215514E+02  0.51100000000E-03 0.  1.
         12    1    3    3    0    0 -0.10485007807E+01  0.15784167458E+02 -0.22345482849E+02  0.27378091606E+02  0.00000000000E+00 0. -1.
</event>
<event>
 7    1  0.3807360E-011  0.4778724E+02  0.7816164E-02  0.1312668E+00
        -11   -1    0    0    0    0  0.00000000000E+00  0.00000000000E+00  0.45593999997E+02  0.45594000000E+02  0.51100000000E-03 0. -1.
         11   -1    0    0    0    0 -0.00000000000E+00 -0.00000000000E+00 -0.45593999997E+02  0.45594000000E+02  0.51100000000E-03 0.  1.
    9900012    2    1    2    0    0  0.20916314974E+02 -0.58158803953E+01  0.37580699608E+02  0.47787243326E+02  0.19999873620E+02 0.  0.
        -12    1    1    2    0    0 -0.20916314974E+02  0.58158803953E+01 -0.37580699608E+02  0.43400756674E+02  0.00000000000E+00 0.  1.
         11    1    3    3    0    0  0.84731969135E+01 -0.10854731925E+02  0.22779434278E+02  0.26618093421E+02  0.51100000000E-03 0. -1.
        -11    1    3    3    0    0  0.62851757180E+01 -0.32410390093E+00  0.34237629798E+01  0.71645397862E+01  0.51100000000E-03 0.  1.
        -12    1    3    3    0    0  0.61579423425E+01  0.53629554307E+01  0.11377502350E+02  0.14004610119E+02  0.00000000000E+00 0.  1.
</event>
<event>
 7    1  0.3807360E-011  0.4778725E+02  0.7816164E-02  0.1312668E+00
        -11   -1    0    0    0    0  0.00000000000E+00  0.00000000000E+00  0.45593999997E+02  0.45594000000E+02  0.51100000000E-03 0. -1.
         11   -1    0    0    0    0 -0.00000000000E+00 -0.00000000000E+00 -0.45593999997E+02  0.45594000000E+02  0.51100000000E-03 0.  1.
    9900012    2    1    2    0    0 -0.14491249465E+02  0.18872305599E+02 -0.36296900790E+02  0.47787248433E+02  0.19999896903E+02 0.  0.
         12    1    1    2    0    0  0.14491249465E+02 -0.18872305599E+02  0.36296900790E+02  0.43400751567E+02  0.00000000000E+00 0. -1.
         11    1    3    3    0    0  0.16792329056E+01  0.62034262914E+00  0.20325440646E+00  0.18016550013E+01  0.51100000000E-03 0. -1.
        -11    1    3    3    0    0 -0.14680308503E+02  0.18464331290E+02 -0.37410449321E+02  0.44226515874E+02  0.51100000000E-03 0.  1.
        -12    1    3    3    0    0 -0.14901738672E+01 -0.21236831958E+00  0.91029412488E+00  0.17590775569E+01  0.00000000000E+00 0.  1.
</event>
<event>
 7    1  0.3807360E-011  0.4778728E+02  0.7816164E-02  0.1312668E+00
        -11   -1    0    0    0    0  0.00000000000E+00  0.00000000000E+00  0.45593999997E+02  0.45594000000E+02  0.51100000000E-03 0. -1.
         11   -1    0    0    0    0 -0.00000000000E+00 -0.00000000000E+00 -0.45593999997E+02  0.45594000000E+02  0.51100000000E-03 0.  1.
    9900012    2    1    2    0    0  0.40101337312E+01  0.36161242692E+02  0.23662337321E+02  0.47787275893E+02  0.20000022106E+02 0.  0.
        -12    1    1    2    0    0 -0.40101337312E+01 -0.36161242692E+02 -0.23662337321E+02  0.43400724107E+02  0.00000000000E+00 0.  1.
         11    1    3    3    0    0  0.36113766597E+01  0.25223568353E+01  0.17221533014E+01  0.47297079865E+01  0.51100000000E-03 0. -1.
        -11    1    3    3    0    0 -0.28519519457E+01  0.32100665994E+02  0.22651873124E+02  0.39391544060E+02  0.51100000000E-03 0.  1.
        -12    1    3    3    0    0  0.32507090172E+01  0.15382198628E+01 -0.71168910483E+00  0.36660238464E+01  0.00000000000E+00 0.  1.
</event>
<event>
 7    1  0.3807360E-011  0.4778726E+02  0.7816164E-02  0.1312668E+00
        -11   -1    0    0    0    0  0.00000000000E+00  0.00000000000E+00  0.45593999997E+02  0.45594000000E+02  0.51100000000E-03 0. -1.
         11   -1    0    0    0    0 -0.00000000000E+00 -0.00000000000E+00 -0.45593999997E+02  0.45594000000E+02  0.51100000000E-03 0.  1.
    9900012    2    1    2    0    0 -0.54913802900E+01 -0.30692085671E+01 -0.42942388688E+02  0.47787262161E+02  0.19999959498E+02 0.  0.
         12    1    1    2    0    0  0.54913802900E+01  0.30692085671E+01  0.42942388688E+02  0.43400737839E+02  0.00000000000E+00 0. -1.
         11    1    3    3    0    0  0.46952455274E+01 -0.42613654202E+01 -0.86623776011E+01  0.10735052481E+02  0.51100000000E-03 0. -1.
        -11    1    3    3    0    0 -0.77374103978E+01 -0.34991102838E+01 -0.17391613288E+02  0.19354056563E+02  0.51100000000E-03 0.  1.
        -12    1    3    3    0    0 -0.24492154197E+01  0.46912671370E+01 -0.16888397799E+02  0.17698153117E+02  0.00000000000E+00 0.  1.
</event>
<event>
 7    1  0.3807360E-011  0.4778726E+02  0.7816164E-02  0.1312668E+00
        -11   -1    0    0    0    0  0.00000000000E+00  0.00000000000E+00  0.45593999997E+02  0.45594000000E+02  0.51100000000E-03 0. -1.
         11   -1    0    0    0    0 -0.00000000000E+00 -0.00000000000E+00 -0.45593999997E+02  0.45594000000E+02  0.51100000000E-03 0.  1.
    9900012    2    1    2    0    0  0.33121175718E+02 -0.12647493911E+02  0.25033027420E+02  0.47787264465E+02  0.19999969999E+02 0.  0.
        -12    1    1    2    0    0 -0.33121175718E+02  0.12647493911E+02 -0.25033027420E+02  0.43400735535E+02  0.00000000000E+00 0.  1.
         11    1    3    3    0    0  0.25006748718E+02 -0.16269147935E+02  0.15833977829E+02  0.33774805848E+02  0.51100000000E-03 0. -1.
        -11    1    3    3    0    0  0.10250359609E+01  0.55826584372E+00  0.51731111595E+01  0.53031536658E+01  0.51100000000E-03 0.  1.
        -12    1    3    3    0    0  0.70893910399E+01  0.30633881803E+01  0.40259384320E+01  0.87093049504E+01  0.00000000000E+00 0.  1.
</event>
<event>
 7    1  0.3807360E-011  0.4778727E+02  0.7816164E-02  0.1312668E+00
        -11   -1    0    0    0    0  0.00000000000E+00  0.00000000000E+00  0.45593999997E+02  0.45594000000E+02  0.51100000000E-03 0. -1.
         11   -1    0    0    0    0 -0.00000000000E+00 -0.00000000000E+00 -0.45593999997E+02  0.45594000000E+02  0.51100000000E-03 0.  1.
    9900012    2    1    2    0    0  0.24629091679E+02  0.94588260852E+00 -0.35723055099E+02  0.47787268250E+02  0.19999987257E+02 0.  0.
         12    1    1    2    0    0 -0.24629091679E+02 -0.94588260852E+00  0.35723055099E+02  0.43400731750E+02  0.00000000000E+00 0. -1.
         11    1    3    3    0    0  0.16012698178E+01 -0.10260117199E+01  0.15970064542E+01  0.24833837711E+01  0.51100000000E-03 0. -1.
        -11    1    3    3    0    0  0.10137045336E+02 -0.40371610983E+01 -0.20928860326E+02  0.23602448023E+02  0.51100000000E-03 0.  1.
        -12    1    3    3    0    0  0.12890776526E+02  0.60090554268E+01 -0.16391201227E+02  0.21701436455E+02  0.00000000000E+00 0.  1.
</event>
<event>
 7    1  0.4979010E-011  0.4778727E+02  0.7816164E-02  0.1312668E+00
        -11   -1    0    0    0    0  0.00000000000E+00  0.00000000000E+00  0.45593999997E+02  0.45594000000E+02  0.51100000000E-03 0. -1.
         11   -1    0    0    0    0 -0.00000000000E+00 -0.00000000000E+00 -0.45593999997E+02  0.45594000000E+02  0.51100000000E-03 0.  1.
    9900012    2    1    2    0    0  0.88468271205E+01 -0.18632615018E+02 -0.38186153212E+02  0.47787274318E+02  0.20000014928E+02 0.  0.
         12    1    1    2    0    0 -0.88468271205E+01  0.18632615018E+02  0.38186153212E+02  0.43400725682E+02  0.00000000000E+00 0. -1.
         11    1    3    3    0    0 -0.28413241272E+01  0.87476976222E+00 -0.82622393928E+01  0.87808282626E+01  0.51100000000E-03 0. -1.
        -11    1    3    3    0    0  0.37910732785E+01 -0.12942696238E+02 -0.22861423004E+02  0.26542989367E+02  0.51100000000E-03 0.  1.
         12    1    3    3    0    0  0.78970779692E+01 -0.65646885429E+01 -0.70624908157E+01  0.12463456689E+02  0.00000000000E+00 0. -1.
</event>
<event>
 7    1  0.3807360E-011  0.4778728E+02  0.7816164E-02  0.1312668E+00
        -11   -1    0    0    0    0  0.00000000000E+00  0.00000000000E+00  0.45593999997E+02  0.45594000000E+02  0.51100000000E-03 0. -1.
         11   -1    0    0    0    0 -0.00000000000E+00 -0.00000000000E+00 -0.45593999997E+02  0.45594000000E+02  0.51100000000E-03 0.  1.
    9900012    2    1    2    0    0 -0.33279941018E+02 -0.13002435863E+02 -0.24637468758E+02  0.47787277894E+02  0.20000031229E+02 0.  0.
         12    1    1    2    0    0  0.33279941018E+02  0.13002435863E+02  0.24637468758E+02  0.43400722106E+02  0.00000000000E+00 0. -1.
         11    1    3    3    0    0 -0.48112469396E+01  0.19350283669E+00 -0.22910384323E+00  0.48205839162E+01  0.51100000000E-03 0. -1.
        -11    1    3    3    0    0 -0.26555290489E+02 -0.16681466370E+02 -0.22152517677E+02  0.38395166531E+02  0.51100000000E-03 0.  1.
        -12    1    3    3    0    0 -0.19134035889E+01  0.34855276704E+01 -0.22558472379E+01  0.45715274466E+01  0.00000000000E+00 0.  1.
</event>
<event>
 7    1  0.3807360E-011  0.4778727E+02  0.7816164E-02  0.1312668E+00
        -11   -1    0    0    0    0  0.00000000000E+00  0.00000000000E+00  0.45593999997E+02  0.45594000000E+02  0.51100000000E-03 0. -1.
         11   -1    0    0    0    0 -0.00000000000E+00 -0.00000000000E+00 -0.45593999997E+02  0.45594000000E+02  0.51100000000E-03 0.  1.
    9900012    2    1    2    0    0 -0.21691023310E+01  0.34046020427E+02 -0.26828840144E+02  0.47787272180E+02  0.20000005176E+02 0.  0.
         12    1    1    2    0    0  0.21691023310E+01 -0.34046020427E+02  0.26828840144E+02  0.43400727820E+02  0.00000000000E+00 0. -1.
         11    1    3    3    0    0  0.16316743574E+01  0.12203123797E+02 -0.15898834050E+01  0.12413956707E+02  0.51100000000E-03 0. -1.
        -11    1    3    3    0    0 -0.70248646435E+01  0.10251670061E+02 -0.99618329115E+01  0.15927447301E+02  0.51100000000E-03 0.  1.
         12    1    3    3    0    0  0.32240879552E+01  0.11591226569E+02 -0.15277123828E+02  0.19445868172E+02  0.00000000000E+00 0. -1.
</event>
<event>
 7    1  0.3807360E-011  0.4778726E+02  0.7816164E-02  0.1312668E+00
        -11   -1    0    0    0    0  0.00000000000E+00  0.00000000000E+00  0.45593999997E+02  0.45594000000E+02  0.51100000000E-03 0. -1.
         11   -1    0    0    0    0 -0.00000000000E+00 -0.00000000000E+00 -0.45593999997E+02  0.45594000000E+02  0.51100000000E-03 0.  1.
    9900012    2    1    2    0    0 -0.15448085588E+02 -0.30117795564E+02  0.27164297620E+02  0.47787262412E+02  0.19999960642E+02 0.  0.
        -12    1    1    2    0    0  0.15448085588E+02  0.30117795564E+02 -0.27164297620E+02  0.43400737588E+02  0.00000000000E+00 0.  1.
         11    1    3    3    0    0 -0.59070729477E+01 -0.98272331460E+01  0.15847942144E+02  0.19560810120E+02  0.51100000000E-03 0. -1.
        -11    1    3    3    0    0  0.11340068756E+01 -0.12721589011E+02  0.56854481244E+01  0.13980311842E+02  0.51100000000E-03 0.  1.
        -12    1    3    3    0    0 -0.10675019516E+02 -0.75689734071E+01  0.56309073516E+01  0.14246140450E+02  0.00000000000E+00 0.  1.
</event>
<event>
 7    1  0.3807360E-011  0.4778726E+02  0.7816164E-02  0.1312668E+00
        -11   -1    0    0    0    0  0.00000000000E+00  0.00000000000E+00  0.45593999997E+02  0.45594000000E+02  0.51100000000E-03 0. -1.
         11   -1    0    0    0    0 -0.00000000000E+00 -0.00000000000E+00 -0.45593999997E+02  0.45594000000E+02  0.51100000000E-03 0.  1.
    9900012    2    1    2    0    0 -0.37361954124E+02 -0.17096875339E+02  0.13978736301E+02  0.47787264627E+02  0.19999970743E+02 0.  0.
        -12    1    1    2    0    0  0.37361954124E+02  0.17096875339E+02 -0.13978736301E+02  0.43400735373E+02  0.00000000000E+00 0.  1.
         11    1    3    3    0    0 -0.66179492091E+01  0.18204411034E-01  0.73841734098E+01  0.99158257519E+01  0.51100000000E-03 0. -1.
        -11    1    3    3    0    0 -0.13939673223E+02 -0.41883089239E+01 -0.25592977273E+01  0.14778579984E+02  0.51100000000E-03 0.  1.
         12    1    3    3    0    0 -0.16804331692E+02 -0.12926770826E+02  0.91538606183E+01  0.23092858892E+02  0.00000000000E+00 0. -1.
</event>
<event>
 7    1  0.3807360E-011  0.4778727E+02  0.7816164E-02  0.1312668E+00
        -11   -1    0    0    0    0  0.00000000000E+00  0.00000000000E+00  0.45593999997E+02  0.45594000000E+02  0.51100000000E-03 0. -1.
         11   -1    0    0    0    0 -0.00000000000E+00 -0.00000000000E+00 -0.45593999997E+02  0.45594000000E+02  0.51100000000E-03 0.  1.
    9900012    2    1    2    0    0 -0.11031563273E+01 -0.25747618349E+02 -0.34920862576E+02  0.47787269043E+02  0.19999990875E+02 0.  0.
         12    1    1    2    0    0  0.11031563273E+01  0.25747618349E+02  0.34920862576E+02  0.43400730957E+02  0.00000000000E+00 0. -1.
         11    1    3    3    0    0 -0.43580246033E+01 -0.53621558318E+01 -0.92034053673E+01  0.11508595232E+02  0.51100000000E-03 0. -1.
        -11    1    3    3    0    0 -0.51146895376E+01 -0.11497014567E+02 -0.17529921072E+02  0.21578682213E+02  0.51100000000E-03 0.  1.
        -12    1    3    3    0    0  0.83695578137E+01 -0.88884479504E+01 -0.81875361374E+01  0.14699991597E+02  0.00000000000E+00 0.  1.
</event>
<event>
 7    1  0.3807360E-011  0.4778728E+02  0.7816164E-02  0.1312668E+00
        -11   -1    0    0    0    0  0.00000000000E+00  0.00000000000E+00  0.45593999997E+02  0.45594000000E+02  0.51100000000E-03 0. -1.
         11   -1    0    0    0    0 -0.00000000000E+00 -0.00000000000E+00 -0.45593999997E+02  0.45594000000E+02  0.51100000000E-03 0.  1.
    9900012    2    1    2    0    0 -0.34549789450E+02 -0.57297675576E+01 -0.25634050873E+02  0.47787277062E+02  0.20000027438E+02 0.  0.
         12    1    1    2    0    0  0.34549789450E+02  0.57297675576E+01  0.25634050873E+02  0.43400722938E+02  0.00000000000E+00 0. -1.
         11    1    3    3    0    0  0.19158610854E+00  0.15987692821E+01 -0.68527967546E+00  0.17499648422E+01  0.51100000000E-03 0. -1.
        -11    1    3    3    0    0 -0.18296557103E+00 -0.25545761849E+01 -0.55680636182E+01  0.61288390909E+01  0.51100000000E-03 0.  1.
        -12    1    3    3    0    0 -0.34558409988E+02 -0.47739606547E+01 -0.19380707580E+02  0.39908473129E+02  0.00000000000E+00 0.  1.
</event>
<event>
 7    1  0.3807360E-011  0.4778727E+02  0.7816164E-02  0.1312668E+00
        -11   -1    0    0    0    0  0.00000000000E+00  0.00000000000E+00  0.45593999997E+02  0.45594000000E+02  0.51100000000E-03 0. -1.
         11   -1    0    0    0    0 -0.00000000000E+00 -0.00000000000E+00 -0.45593999997E+02  0.45594000000E+02  0.51100000000E-03 0.  1.
    9900012    2    1    2    0    0  0.36700464333E+02  0.17441271072E+02  0.15247995456E+02  0.47787269773E+02  0.19999994201E+02 0.  0.
        -12    1    1    2    0    0 -0.36700464333E+02 -0.17441271072E+02 -0.15247995456E+02  0.43400730227E+02  0.00000000000E+00 0.  1.
         11    1    3    3    0    0  0.10373372858E+02 -0.82142597368E+00  0.10422027072E+01  0.10457905710E+02  0.51100000000E-03 0.  1.
        -11    1    3    3    0    0  0.18078606677E+02  0.84418829083E+01  0.14225037114E+02  0.24504144294E+02  0.51100000000E-03 0. -1.
        -12    1    3    3    0    0  0.82484847974E+01  0.98208141376E+01 -0.19244365107E-01  0.12825219769E+02  0.00000000000E+00 0.  1.
</event>
<event>
 7    1  0.3807360E-011  0.4778727E+02  0.7816164E-02  0.1312668E+00
        -11   -1    0    0    0    0  0.00000000000E+00  0.00000000000E+00  0.45593999997E+02  0.45594000000E+02  0.51100000000E-03 0. -1.
         11   -1    0    0    0    0 -0.00000000000E+00 -0.00000000000E+00 -0.45593999997E+02  0.45594000000E+02  0.51100000000E-03 0.  1.
    9900012    2    1    2    0    0  0.10258863225E+01 -0.36947770614E+02 -0.22747154662E+02  0.47787271419E+02  0.20000001709E+02 0.  0.
         12    1    1    2    0    0 -0.10258863225E+01  0.36947770614E+02  0.22747154662E+02  0.43400728581E+02  0.00000000000E+00 0. -1.
         11    1    3    3    0    0  0.43392447997E+01 -0.32457910696E+01 -0.66164586733E+01  0.85522938874E+01  0.51100000000E-03 0. -1.
        -11    1    3    3    0    0 -0.47589743621E+00 -0.11365207922E+02  0.27073665947E+00  0.11378388642E+02  0.51100000000E-03 0.  1.
        -12    1    3    3    0    0 -0.28374610410E+01 -0.22336771623E+02 -0.16401432648E+02  0.27856588890E+02  0.00000000000E+00 0.  1.
</event>
<event>
 7    1  0.3807360E-011  0.4778727E+02  0.7816164E-02  0.1312668E+00
        -11   -1    0    0    0    0  0.00000000000E+00  0.00000000000E+00  0.45593999997E+02  0.45594000000E+02  0.51100000000E-03 0. -1.
         11   -1    0    0    0    0 -0.00000000000E+00 -0.00000000000E+00 -0.45593999997E+02  0.45594000000E+02  0.51100000000E-03 0.  1.
    9900012    2    1    2    0    0 -0.27430999304E+02  0.18035006954E+02 -0.28388415237E+02  0.47787270533E+02  0.19999997667E+02 0.  0.
         12    1    1    2    0    0  0.27430999304E+02 -0.18035006954E+02  0.28388415237E+02  0.43400729467E+02  0.00000000000E+00 0. -1.
         11    1    3    3    0    0 -0.26095040294E+01  0.87101243324E+01 -0.20946323966E+01  0.93307696522E+01  0.51100000000E-03 0. -1.
        -11    1    3    3    0    0 -0.39603177296E+01  0.45915259821E+01 -0.94568333553E+01  0.11233784969E+02  0.51100000000E-03 0.  1.
        -12    1    3    3    0    0 -0.20861177545E+02  0.47333566393E+01 -0.16836949485E+02  0.27222715911E+02  0.00000000000E+00 0.  1.
</event>
<event>
 7    1  0.5660780E-011  0.4778727E+02  0.7816164E-02  0.1312668E+00
        -11   -1    0    0    0    0  0.00000000000E+00  0.00000000000E+00  0.45593999997E+02  0.45594000000E+02  0.51100000000E-03 0. -1.
         11   -1    0    0    0    0 -0.00000000000E+00 -0.00000000000E+00 -0.45593999997E+02  0.45594000000E+02  0.51100000000E-03 0.  1.
    9900012    2    1    2    0    0 -0.19989309879E+02 -0.18693619312E+02 -0.33683812552E+02  0.47787272582E+02  0.20000007010E+02 0.  0.
         12    1    1    2    0    0  0.19989309879E+02  0.18693619312E+02  0.33683812552E+02  0.43400727418E+02  0.00000000000E+00 0. -1.
         11    1    3    3    0    0 -0.13272406408E+02 -0.18061557088E+01 -0.15610491169E+02  0.20569550435E+02  0.51100000000E-03 0.  1.
        -11    1    3    3    0    0 -0.84670787523E+01 -0.11993595256E+02 -0.15729132686E+02  0.21516118727E+02  0.51100000000E-03 0. -1.
         12    1    3    3    0    0  0.17501752815E+01 -0.48938683467E+01 -0.23441886969E+01  0.57016034199E+01  0.00000000000E+00 0. -1.
</event>
<event>
 7    1  0.3807360E-011  0.4778727E+02  0.7816164E-02  0.1312668E+00
        -11   -1    0    0    0    0  0.00000000000E+00  0.00000000000E+00  0.45593999997E+02  0.45594000000E+02  0.51100000000E-03 0. -1.
         11   -1    0    0    0    0 -0.00000000000E+00 -0.00000000000E+00 -0.45593999997E+02  0.45594000000E+02  0.51100000000E-03 0.  1.
    9900012    2    1    2    0    0  0.26811280983E+02  0.27723768318E+02 -0.19904042087E+02  0.47787274095E+02  0.20000013908E+02 0.  0.
         12    1    1    2    0    0 -0.26811280983E+02 -0.27723768318E+02  0.19904042087E+02  0.43400725905E+02  0.00000000000E+00 0. -1.
         11    1    3    3    0    0  0.94009517321E+01  0.53028300430E+01 -0.46664220807E+01  0.11758970841E+02  0.51100000000E-03 0. -1.
        -11    1    3    3    0    0 -0.78496649642E+00  0.47676740643E+01 -0.85313598610E+01  0.98046412338E+01  0.51100000000E-03 0.  1.
         12    1    3    3    0    0  0.18195295747E+02  0.17653264211E+02 -0.67062601457E+01  0.26223662020E+02  0.00000000000E+00 0. -1.
</event>
<event>
 7    1  0.3807360E-011  0.4778727E+02  0.7816164E-02  0.1312668E+00
        -11   -1    0    0    0    0  0.00000000000E+00  0.00000000000E+00  0.45593999997E+02  0.45594000000E+02  0.51100000000E-03 0.  1.
         11   -1    0    0    0    0 -0.00000000000E+00 -0.00000000000E+00 -0.45593999997E+02  0.45594000000E+02  0.51100000000E-03 0. -1.
    9900012    2    1    2    0    0 -0.10601817657E+02  0.41999162453E+02  0.27009276633E+01  0.47787271957E+02  0.20000004162E+02 0.  0.
         12    1    1    2    0    0  0.10601817657E+02 -0.41999162453E+02 -0.27009276633E+01  0.43400728043E+02  0.00000000000E+00 0. -1.
         11    1    3    3    0    0 -0.30525048449E+01  0.28039550245E+02 -0.69586498323E+01  0.29050937533E+02  0.51100000000E-03 0. -1.
        -11    1    3    3    0    0 -0.25173671456E+01  0.66855520779E+01  0.34784160572E+01  0.79456354346E+01  0.51100000000E-03 0.  1.
         12    1    3    3    0    0 -0.50319456667E+01  0.72740601299E+01  0.61811614384E+01  0.10790698990E+02  0.00000000000E+00 0. -1.
</event>
<event>
 7    1  0.3807360E-011  0.4778726E+02  0.7816164E-02  0.1312668E+00
        -11   -1    0    0    0    0  0.00000000000E+00  0.00000000000E+00  0.45593999997E+02  0.45594000000E+02  0.51100000000E-03 0.  1.
         11   -1    0    0    0    0 -0.00000000000E+00 -0.00000000000E+00 -0.45593999997E+02  0.45594000000E+02  0.51100000000E-03 0. -1.
    9900012    2    1    2    0    0  0.43143411047E+02  0.26311816766E+01 -0.39174981361E+01  0.47787264690E+02  0.19999971028E+02 0.  0.
         12    1    1    2    0    0 -0.43143411047E+02 -0.26311816766E+01  0.39174981361E+01  0.43400735310E+02  0.00000000000E+00 0. -1.
         11    1    3    3    0    0  0.19147846336E+02 -0.10802573547E+01 -0.17709943614E+01  0.19259890876E+02  0.51100000000E-03 0. -1.
        -11    1    3    3    0    0  0.11347359830E+02  0.77083711023E+01 -0.56056103352E+01  0.14819056234E+02  0.51100000000E-03 0.  1.
        -12    1    3    3    0    0  0.12648204880E+02 -0.39969320711E+01  0.34591065605E+01  0.13708317580E+02  0.00000000000E+00 0.  1.
</event>
<event>
 7    1  0.3807360E-011  0.4778727E+02  0.7816164E-02  0.1312668E+00
        -11   -1    0    0    0    0  0.00000000000E+00  0.00000000000E+00  0.45593999997E+02  0.45594000000E+02  0.51100000000E-03 0. -1.
         11   -1    0    0    0    0 -0.00000000000E+00 -0.00000000000E+00 -0.45593999997E+02  0.45594000000E+02  0.51100000000E-03 0.  1.
    9900012    2    1    2    0    0 -0.33604483449E+02 -0.14789279787E+02 -0.23143878915E+02  0.47787271484E+02  0.20000002005E+02 0.  0.
         12    1    1    2    0    0  0.33604483449E+02  0.14789279787E+02  0.23143878915E+02  0.43400728516E+02  0.00000000000E+00 0. -1.
         11    1    3    3    0    0 -0.66895344667E+01 -0.68015478641E+01 -0.61340403079E+01  0.11341841803E+02  0.51100000000E-03 0. -1.
        -11    1    3    3    0    0 -0.26242984389E+02 -0.25373285668E+01 -0.11835272212E+02  0.28899929662E+02  0.51100000000E-03 0.  1.
        -12    1    3    3    0    0 -0.67196459304E+00 -0.54504033559E+01 -0.51745663952E+01  0.75455000188E+01  0.00000000000E+00 0.  1.
</event>
<event>
 7    1  0.3856906E-011  0.4778725E+02  0.7816164E-02  0.1312668E+00
        -11   -1    0    0    0    0  0.00000000000E+00  0.00000000000E+00  0.45593999997E+02  0.45594000000E+02  0.51100000000E-03 0. -1.
         11   -1    0    0    0    0 -0.00000000000E+00 -0.00000000000E+00 -0.45593999997E+02  0.45594000000E+02  0.51100000000E-03 0.  1.
    9900012    2    1    2    0    0  0.52794722876E+01 -0.57958886821E+01 -0.42686764216E+02  0.47787251245E+02  0.19999909725E+02 0.  0.
         12    1    1    2    0    0 -0.52794722876E+01  0.57958886821E+01  0.42686764216E+02  0.43400748755E+02  0.00000000000E+00 0. -1.
         11    1    3    3    0    0  0.41671086437E+01 -0.51493702523E+01 -0.64276027631E+01  0.92301075826E+01  0.51100000000E-03 0. -1.
        -11    1    3    3    0    0 -0.56237855482E+01 -0.22058507433E+01 -0.19903117014E+02  0.20799682895E+02  0.51100000000E-03 0.  1.
         12    1    3    3    0    0  0.67361491921E+01  0.15593323136E+01 -0.16356044440E+02  0.17757460768E+02  0.00000000000E+00 0. -1.
</event>
<event>
 7    1  0.3807360E-011  0.4778727E+02  0.7816164E-02  0.1312668E+00
        -11   -1    0    0    0    0  0.00000000000E+00  0.00000000000E+00  0.45593999997E+02  0.45594000000E+02  0.51100000000E-03 0. -1.
         11   -1    0    0    0    0 -0.00000000000E+00 -0.00000000000E+00 -0.45593999997E+02  0.45594000000E+02  0.51100000000E-03 0.  1.
    9900012    2    1    2    0    0 -0.19202845519E+02  0.20992883877E+02  0.32774580029E+02  0.47787267914E+02  0.19999985726E+02 0.  0.
        -12    1    1    2    0    0  0.19202845519E+02 -0.20992883877E+02 -0.32774580029E+02  0.43400732086E+02  0.00000000000E+00 0.  1.
         11    1    3    3    0    0 -0.13714730535E+01  0.31292133938E+01 -0.36097125272E+00  0.34355807816E+01  0.51100000000E-03 0.  1.
        -11    1    3    3    0    0 -0.17883149775E+02  0.14028928355E+02  0.33517723254E+02  0.40497600535E+02  0.51100000000E-03 0. -1.
         12    1    3    3    0    0  0.51777309450E-01  0.38347421287E+01 -0.38217197231E+00  0.38540865973E+01  0.00000000000E+00 0. -1.
</event>
<event>
 7    1  0.3807360E-011  0.4778727E+02  0.7816164E-02  0.1312668E+00
        -11   -1    0    0    0    0  0.00000000000E+00  0.00000000000E+00  0.45593999997E+02  0.45594000000E+02  0.51100000000E-03 0.  1.
         11   -1    0    0    0    0 -0.00000000000E+00 -0.00000000000E+00 -0.45593999997E+02  0.45594000000E+02  0.51100000000E-03 0. -1.
    9900012    2    1    2    0    0 -0.28728588656E+02  0.20142278800E+02  0.25545644409E+02  0.47787272475E+02  0.20000006521E+02 0.  0.
        -12    1    1    2    0    0  0.28728588656E+02 -0.20142278800E+02 -0.25545644409E+02  0.43400727525E+02  0.00000000000E+00 0.  1.
         11    1    3    3    0    0 -0.62306282399E+01  0.87079985818E+01  0.30897838914E+01  0.11144358767E+02  0.51100000000E-03 0. -1.
        -11    1    3    3    0    0 -0.15919972234E+02  0.12393123718E+02  0.99845561322E+01  0.22510584018E+02  0.51100000000E-03 0.  1.
        -12    1    3    3    0    0 -0.65779881817E+01 -0.95884349931E+00  0.12471304386E+02  0.14132329690E+02  0.00000000000E+00 0.  1.
</event>
<event>
 7    1  0.3807360E-011  0.4778726E+02  0.7816164E-02  0.1312668E+00
        -11   -1    0    0    0    0  0.00000000000E+00  0.00000000000E+00  0.45593999997E+02  0.45594000000E+02  0.51100000000E-03 0. -1.
         11   -1    0    0    0    0 -0.00000000000E+00 -0.00000000000E+00 -0.45593999997E+02  0.45594000000E+02  0.51100000000E-03 0.  1.
    9900012    2    1    2    0    0  0.42293119469E+02  0.67712885052E+01 -0.70046995931E+01  0.47787261310E+02  0.19999955619E+02 0.  0.
         12    1    1    2    0    0 -0.42293119469E+02 -0.67712885052E+01  0.70046995931E+01  0.43400738690E+02  0.00000000000E+00 0. -1.
         11    1    3    3    0    0  0.37890391528E+00  0.36316521841E+01  0.15252071710E+01  0.39571104279E+01  0.51100000000E-03 0. -1.
        -11    1    3    3    0    0  0.13318057322E+02  0.21054976308E+01 -0.69561075653E+01  0.15172053382E+02  0.51100000000E-03 0.  1.
        -12    1    3    3    0    0  0.28596158232E+02  0.10341386903E+01 -0.15737991988E+01  0.28658097501E+02  0.00000000000E+00 0.  1.
</event>
<event>
 7    1  0.3807360E-011  0.4778730E+02  0.7816164E-02  0.1312668E+00
        -11   -1    0    0    0    0  0.00000000000E+00  0.00000000000E+00  0.45593999997E+02  0.45594000000E+02  0.51100000000E-03 0. -1.
         11   -1    0    0    0    0 -0.00000000000E+00 -0.00000000000E+00 -0.45593999997E+02  0.45594000000E+02  0.51100000000E-03 0.  1.
    9900012    2    1    2    0    0 -0.15676098149E+02  0.27229720833E+02 -0.29940322752E+02  0.47787300970E+02  0.20000136442E+02 0.  0.
         12    1    1    2    0    0  0.15676098149E+02 -0.27229720833E+02  0.29940322752E+02  0.43400699030E+02  0.00000000000E+00 0. -1.
         11    1    3    3    0    0  0.21669811207E+01  0.70128804446E+01 -0.12761393759E+02  0.14721734621E+02  0.51100000000E-03 0. -1.
        -11    1    3    3    0    0 -0.53636820803E+01  0.73878177580E+01 -0.14604853869E+01  0.92456451646E+01  0.51100000000E-03 0.  1.
        -12    1    3    3    0    0 -0.12479397189E+02  0.12829022630E+02 -0.15718443606E+02  0.23819921185E+02  0.00000000000E+00 0.  1.
</event>
<event>
 7    1  0.3807360E-011  0.4778727E+02  0.7816164E-02  0.1312668E+00
        -11   -1    0    0    0    0  0.00000000000E+00  0.00000000000E+00  0.45593999997E+02  0.45594000000E+02  0.51100000000E-03 0. -1.
         11   -1    0    0    0    0 -0.00000000000E+00 -0.00000000000E+00 -0.45593999997E+02  0.45594000000E+02  0.51100000000E-03 0.  1.
    9900012    2    1    2    0    0 -0.23309999552E+02  0.12699727441E+02  0.34336334643E+02  0.47787273820E+02  0.20000012656E+02 0.  0.
        -12    1    1    2    0    0  0.23309999552E+02 -0.12699727441E+02 -0.34336334643E+02  0.43400726180E+02  0.00000000000E+00 0.  1.
         11    1    3    3    0    0 -0.19009676823E+02  0.14441068922E+02  0.20536578306E+02  0.31490686453E+02  0.51100000000E-03 0. -1.
        -11    1    3    3    0    0 -0.57629770114E+01  0.24999672542E+00  0.11737105246E+02  0.13077998403E+02  0.51100000000E-03 0.  1.
        -12    1    3    3    0    0  0.14626542823E+01 -0.19913382056E+01  0.20626510910E+01  0.32185889644E+01  0.00000000000E+00 0.  1.
</event>
<event>
 7    1  0.3807360E-011  0.4778728E+02  0.7816164E-02  0.1312668E+00
        -11   -1    0    0    0    0  0.00000000000E+00  0.00000000000E+00  0.45593999997E+02  0.45594000000E+02  0.51100000000E-03 0.  1.
         11   -1    0    0    0    0 -0.00000000000E+00 -0.00000000000E+00 -0.45593999997E+02  0.45594000000E+02  0.51100000000E-03 0. -1.
    9900012    2    1    2    0    0  0.40627060048E+02 -0.10336168773E+02 -0.11235145125E+02  0.47787275593E+02  0.20000020739E+02 0.  0.
         12    1    1    2    0    0 -0.40627060048E+02  0.10336168773E+02  0.11235145125E+02  0.43400724407E+02  0.00000000000E+00 0. -1.
         11    1    3    3    0    0  0.77246912000E+01  0.47910968887E+01 -0.66893291920E+01  0.11285946519E+02  0.51100000000E-03 0. -1.
        -11    1    3    3    0    0  0.10764450340E+02 -0.47836563303E+01 -0.12786258885E+01  0.11848697963E+02  0.51100000000E-03 0.  1.
         12    1    3    3    0    0  0.22137918509E+02 -0.10343609331E+02 -0.32671900445E+01  0.24652631111E+02  0.00000000000E+00 0. -1.
</event>
<event>
 7    1  0.3807360E-011  0.4778727E+02  0.7816164E-02  0.1312668E+00
        -11   -1    0    0    0    0  0.00000000000E+00  0.00000000000E+00  0.45593999997E+02  0.45594000000E+02  0.51100000000E-03 0. -1.
         11   -1    0    0    0    0 -0.00000000000E+00 -0.00000000000E+00 -0.45593999997E+02  0.45594000000E+02  0.51100000000E-03 0.  1.
    9900012    2    1    2    0    0  0.33879706194E+02  0.17849065583E+02  0.20425468060E+02  0.47787269828E+02  0.19999994455E+02 0.  0.
        -12    1    1    2    0    0 -0.33879706194E+02 -0.17849065583E+02 -0.20425468060E+02  0.43400730172E+02  0.00000000000E+00 0.  1.
         11    1    3    3    0    0  0.20488732023E+01 -0.29807232406E+00  0.14512133199E+01  0.25283885916E+01  0.51100000000E-03 0. -1.
        -11    1    3    3    0    0  0.13513438123E+02  0.17911564254E+02  0.75690055266E+01  0.23679674593E+02  0.51100000000E-03 0.  1.
        -12    1    3    3    0    0  0.18317394869E+02  0.23557365292E+00  0.11405249214E+02  0.21579206643E+02  0.00000000000E+00 0.  1.
</event>
<event>
 7    1  0.3807360E-011  0.4778727E+02  0.7816164E-02  0.1312668E+00
        -11   -1    0    0    0    0  0.00000000000E+00  0.00000000000E+00  0.45593999997E+02  0.45594000000E+02  0.51100000000E-03 0. -1.
         11   -1    0    0    0    0 -0.00000000000E+00 -0.00000000000E+00 -0.45593999997E+02  0.45594000000E+02  0.51100000000E-03 0.  1.
    9900012    2    1    2    0    0  0.81975894898E+01 -0.11994850130E+02 -0.40896773130E+02  0.47787274711E+02  0.20000016719E+02 0.  0.
         12    1    1    2    0    0 -0.81975894898E+01  0.11994850130E+02  0.40896773130E+02  0.43400725289E+02  0.00000000000E+00 0. -1.
         11    1    3    3    0    0  0.78734353685E+00 -0.73924334879E+01 -0.41073062285E+01  0.84934061150E+01  0.51100000000E-03 0. -1.
        -11    1    3    3    0    0  0.80202383378E+01 -0.71669728824E+00 -0.13858184591E+02  0.16027699724E+02  0.51100000000E-03 0.  1.
        -12    1    3    3    0    0 -0.60999238483E+00 -0.38857193544E+01 -0.22931282311E+02  0.23266168873E+02  0.00000000000E+00 0.  1.
</event>
<event>
 7    1  0.3807360E-011  0.4778727E+02  0.7816164E-02  0.1312668E+00
        -11   -1    0    0    0    0  0.00000000000E+00  0.00000000000E+00  0.45593999997E+02  0.45594000000E+02  0.51100000000E-03 0. -1.
         11   -1    0    0    0    0 -0.00000000000E+00 -0.00000000000E+00 -0.45593999997E+02  0.45594000000E+02  0.51100000000E-03 0.  1.
    9900012    2    1    2    0    0  0.10742429565E+02 -0.29002671634E+02  0.30447794344E+02  0.47787274945E+02  0.20000017784E+02 0.  0.
        -12    1    1    2    0    0 -0.10742429565E+02  0.29002671634E+02 -0.30447794344E+02  0.43400725055E+02  0.00000000000E+00 0.  1.
         11    1    3    3    0    0  0.14776095559E+02 -0.26399242912E+02  0.25680015983E+02  0.39682694559E+02  0.51100000000E-03 0. -1.
        -11    1    3    3    0    0 -0.14714313433E+01 -0.18829140094E+01 -0.27205566081E+00  0.24050966526E+01  0.51100000000E-03 0.  1.
        -12    1    3    3    0    0 -0.25622346509E+01 -0.72051471213E+00  0.50398340218E+01  0.56994837331E+01  0.00000000000E+00 0.  1.
</event>
<event>
 7    1  0.3807360E-011  0.4778727E+02  0.7816164E-02  0.1312668E+00
        -11   -1    0    0    0    0  0.00000000000E+00  0.00000000000E+00  0.45593999997E+02  0.45594000000E+02  0.51100000000E-03 0. -1.
         11   -1    0    0    0    0 -0.00000000000E+00 -0.00000000000E+00 -0.45593999997E+02  0.45594000000E+02  0.51100000000E-03 0.  1.
    9900012    2    1    2    0    0 -0.16688155734E+02  0.27138934664E+02 -0.29472137941E+02  0.47787271535E+02  0.20000002237E+02 0.  0.
         12    1    1    2    0    0  0.16688155734E+02 -0.27138934664E+02  0.29472137941E+02  0.43400728465E+02  0.00000000000E+00 0. -1.
         11    1    3    3    0    0  0.11737184542E+01  0.11493371637E+02 -0.38364078830E+01  0.12173464268E+02  0.51100000000E-03 0.  1.
        -11    1    3    3    0    0 -0.85320064029E+01  0.11948575940E+02 -0.15532178690E+02  0.21373164842E+02  0.51100000000E-03 0. -1.
         12    1    3    3    0    0 -0.93298677857E+01  0.36969870868E+01 -0.10103551368E+02  0.14240642425E+02  0.00000000000E+00 0. -1.
</event>
<event>
 7    1  0.3807360E-011  0.4778727E+02  0.7816164E-02  0.1312668E+00
        -11   -1    0    0    0    0  0.00000000000E+00  0.00000000000E+00  0.45593999997E+02  0.45594000000E+02  0.51100000000E-03 0. -1.
         11   -1    0    0    0    0 -0.00000000000E+00 -0.00000000000E+00 -0.45593999997E+02  0.45594000000E+02  0.51100000000E-03 0.  1.
    9900012    2    1    2    0    0  0.16933011660E+02  0.57140587031E+01  0.39550553839E+02  0.47787266599E+02  0.19999979734E+02 0.  0.
        -12    1    1    2    0    0 -0.16933011660E+02 -0.57140587031E+01 -0.39550553839E+02  0.43400733401E+02  0.00000000000E+00 0.  1.
         11    1    3    3    0    0  0.59762497119E+01  0.31633014187E+01  0.27511391118E+02  0.28330172573E+02  0.51100000000E-03 0. -1.
        -11    1    3    3    0    0 -0.10192936838E+01 -0.18144683670E+01  0.25321224616E+00  0.20965141954E+01  0.51100000000E-03 0.  1.
        -12    1    3    3    0    0  0.11976055632E+02  0.43652256514E+01  0.11785950475E+02  0.17360579831E+02  0.00000000000E+00 0.  1.
</event>
<event>
 7    1  0.3807360E-011  0.4778727E+02  0.7816164E-02  0.1312668E+00
        -11   -1    0    0    0    0  0.00000000000E+00  0.00000000000E+00  0.45593999997E+02  0.45594000000E+02  0.51100000000E-03 0. -1.
         11   -1    0    0    0    0 -0.00000000000E+00 -0.00000000000E+00 -0.45593999997E+02  0.45594000000E+02  0.51100000000E-03 0.  1.
    9900012    2    1    2    0    0  0.81239611201E+00  0.44869011815E+01  0.43160525365E+02  0.47787271671E+02  0.20000002857E+02 0.  0.
        -12    1    1    2    0    0 -0.81239611201E+00 -0.44869011815E+01 -0.43160525365E+02  0.43400728329E+02  0.00000000000E+00 0.  1.
         11    1    3    3    0    0 -0.16379197266E+01 -0.53023649385E+01  0.26040312587E+02  0.26625095960E+02  0.51100000000E-03 0. -1.
        -11    1    3    3    0    0 -0.93204904839E+00  0.27113775114E+01  0.68047945135E+00  0.29467500714E+01  0.51100000000E-03 0.  1.
        -12    1    3    3    0    0  0.33823648870E+01  0.70778886086E+01  0.16439733327E+02  0.18215425640E+02  0.00000000000E+00 0.  1.
</event>
<event>
 7    1  0.3807360E-011  0.4778727E+02  0.7816164E-02  0.1312668E+00
        -11   -1    0    0    0    0  0.00000000000E+00  0.00000000000E+00  0.45593999997E+02  0.45594000000E+02  0.51100000000E-03 0. -1.
         11   -1    0    0    0    0 -0.00000000000E+00 -0.00000000000E+00 -0.45593999997E+02  0.45594000000E+02  0.51100000000E-03 0.  1.
    9900012    2    1    2    0    0 -0.13199276946E+02 -0.34657587305E+02 -0.22544497136E+02  0.47787267048E+02  0.19999981777E+02 0.  0.
         12    1    1    2    0    0  0.13199276946E+02  0.34657587305E+02  0.22544497136E+02  0.43400732952E+02  0.00000000000E+00 0. -1.
         11    1    3    3    0    0  0.14351333772E+01 -0.48002085815E+01  0.60248520196E-01  0.50105129858E+01  0.51100000000E-03 0. -1.
        -11    1    3    3    0    0 -0.14503342762E+02 -0.16395781236E+02 -0.90935067794E+01  0.23703595918E+02  0.51100000000E-03 0.  1.
        -12    1    3    3    0    0 -0.13106756144E+00 -0.13461597487E+02 -0.13511238876E+02  0.19073158144E+02  0.00000000000E+00 0.  1.
</event>
<event>
 7    1  0.3807360E-011  0.4778724E+02  0.7816164E-02  0.1312668E+00
        -11   -1    0    0    0    0  0.00000000000E+00  0.00000000000E+00  0.45593999997E+02  0.45594000000E+02  0.51100000000E-03 0. -1.
         11   -1    0    0    0    0 -0.00000000000E+00 -0.00000000000E+00 -0.45593999997E+02  0.45594000000E+02  0.51100000000E-03 0.  1.
    9900012    2    1    2    0    0  0.29024102745E+01 -0.16791228092E+02  0.39915615398E+02  0.47787243338E+02  0.19999873674E+02 0.  0.
        -12    1    1    2    0    0 -0.29024102745E+01  0.16791228092E+02 -0.39915615398E+02  0.43400756662E+02  0.00000000000E+00 0.  1.
         11    1    3    3    0    0  0.62193439412E+01 -0.15794075739E+02  0.16812808606E+02  0.23891496416E+02  0.51100000000E-03 0.  1.
        -11    1    3    3    0    0  0.98963168446E+00  0.19880517308E-01  0.10346478304E+02  0.10393718279E+02  0.51100000000E-03 0. -1.
        -12    1    3    3    0    0 -0.43065653511E+01 -0.10170328703E+01  0.12756328488E+02  0.13502028643E+02  0.00000000000E+00 0.  1.
</event>
<event>
 7    1  0.3807360E-011  0.4778727E+02  0.7816164E-02  0.1312668E+00
        -11   -1    0    0    0    0  0.00000000000E+00  0.00000000000E+00  0.45593999997E+02  0.45594000000E+02  0.51100000000E-03 0. -1.
         11   -1    0    0    0    0 -0.00000000000E+00 -0.00000000000E+00 -0.45593999997E+02  0.45594000000E+02  0.51100000000E-03 0.  1.
    9900012    2    1    2    0    0  0.34593250962E+02  0.24679895622E+02 -0.88223111508E+01  0.47787269199E+02  0.19999991586E+02 0.  0.
         12    1    1    2    0    0 -0.34593250962E+02 -0.24679895622E+02  0.88223111508E+01  0.43400730801E+02  0.00000000000E+00 0. -1.
         11    1    3    3    0    0  0.86183590761E+01 -0.44074358246E+00 -0.29996854334E+00  0.86348334934E+01  0.51100000000E-03 0. -1.
        -11    1    3    3    0    0  0.27113248796E+02  0.22667050163E+02 -0.69282377354E+01  0.36012829682E+02  0.51100000000E-03 0.  1.
         12    1    3    3    0    0 -0.11383569098E+01  0.24535890415E+01 -0.15941048721E+01  0.31396060233E+01  0.00000000000E+00 0. -1.
</event>
<event>
 7    1  0.3807360E-011  0.4778725E+02  0.7816164E-02  0.1312668E+00
        -11   -1    0    0    0    0  0.00000000000E+00  0.00000000000E+00  0.45593999997E+02  0.45594000000E+02  0.51100000000E-03 0. -1.
         11   -1    0    0    0    0 -0.00000000000E+00 -0.00000000000E+00 -0.45593999997E+02  0.45594000000E+02  0.51100000000E-03 0.  1.
    9900012    2    1    2    0    0 -0.21323695284E+01  0.11076429136E+02 -0.41909311634E+02  0.47787254800E+02  0.19999925937E+02 0.  0.
         12    1    1    2    0    0  0.21323695284E+01 -0.11076429136E+02  0.41909311634E+02  0.43400745200E+02  0.00000000000E+00 0. -1.
         11    1    3    3    0    0 -0.16061029570E+01 -0.38394126304E+01 -0.69983466789E+01  0.81423284479E+01  0.51100000000E-03 0. -1.
        -11    1    3    3    0    0  0.37316330602E+01  0.11366279190E+01 -0.42945442892E+01  0.58017341576E+01  0.51100000000E-03 0.  1.
        -12    1    3    3    0    0 -0.42578996316E+01  0.13779213848E+02 -0.30616420666E+02  0.33843192195E+02  0.00000000000E+00 0.  1.
</event>
<event>
 7    1  0.3807360E-011  0.4778727E+02  0.7816164E-02  0.1312668E+00
        -11   -1    0    0    0    0  0.00000000000E+00  0.00000000000E+00  0.45593999997E+02  0.45594000000E+02  0.51100000000E-03 0. -1.
         11   -1    0    0    0    0 -0.00000000000E+00 -0.00000000000E+00 -0.45593999997E+02  0.45594000000E+02  0.51100000000E-03 0.  1.
    9900012    2    1    2    0    0  0.13983282619E+02 -0.14005673034E+02  0.38625538606E+02  0.47787270714E+02  0.19999998493E+02 0.  0.
        -12    1    1    2    0    0 -0.13983282619E+02  0.14005673034E+02 -0.38625538606E+02  0.43400729286E+02  0.00000000000E+00 0.  1.
         11    1    3    3    0    0  0.25586210138E+01 -0.28233272388E+00 -0.41747022490E+00  0.26077835242E+01  0.51100000000E-03 0. -1.
        -11    1    3    3    0    0  0.66512685170E+01  0.42302314780E-01  0.55793220274E+01  0.86815895386E+01  0.51100000000E-03 0.  1.
         12    1    3    3    0    0  0.47733930878E+01 -0.13765642625E+02  0.33463686804E+02  0.36497897651E+02  0.00000000000E+00 0. -1.
</event>
<event>
 7    1  0.3807360E-011  0.4778727E+02  0.7816164E-02  0.1312668E+00
        -11   -1    0    0    0    0  0.00000000000E+00  0.00000000000E+00  0.45593999997E+02  0.45594000000E+02  0.51100000000E-03 0.  1.
         11   -1    0    0    0    0 -0.00000000000E+00 -0.00000000000E+00 -0.45593999997E+02  0.45594000000E+02  0.51100000000E-03 0. -1.
    9900012    2    1    2    0    0 -0.37545201137E+02 -0.21368403395E+02 -0.41680584392E+01  0.47787268403E+02  0.19999987956E+02 0.  0.
        -12    1    1    2    0    0  0.37545201137E+02  0.21368403395E+02  0.41680584392E+01  0.43400731597E+02  0.00000000000E+00 0.  1.
         11    1    3    3    0    0 -0.15636848301E+02 -0.64209737724E+01 -0.62512638753E+01  0.18022714259E+02  0.51100000000E-03 0. -1.
        -11    1    3    3    0    0 -0.23369425799E+02 -0.15457830126E+02  0.25835192984E+01  0.28138037363E+02  0.51100000000E-03 0.  1.
         12    1    3    3    0    0  0.14610729635E+01  0.51040050346E+00 -0.50031386220E+00  0.16265167812E+01  0.00000000000E+00 0. -1.
</event>
<event>
 7    1  0.3807360E-011  0.4778730E+02  0.7816164E-02  0.1312668E+00
        -11   -1    0    0    0    0  0.00000000000E+00  0.00000000000E+00  0.45593999997E+02  0.45594000000E+02  0.51100000000E-03 0.  1.
         11   -1    0    0    0    0 -0.00000000000E+00 -0.00000000000E+00 -0.45593999997E+02  0.45594000000E+02  0.51100000000E-03 0. -1.
    9900012    2    1    2    0    0  0.10154340780E+02 -0.29709774317E+02  0.29963975215E+02  0.47787295659E+02  0.20000112225E+02 0.  0.
         12    1    1    2    0    0 -0.10154340780E+02  0.29709774317E+02 -0.29963975215E+02  0.43400704341E+02  0.00000000000E+00 0. -1.
         11    1    3    3    0    0  0.92849839365E+00  0.46654868829E+00 -0.21822711168E+00  0.10617910712E+01  0.51100000000E-03 0. -1.
        -11    1    3    3    0    0  0.88424072776E+01 -0.32252617138E+02  0.27407162304E+02  0.43238547900E+02  0.51100000000E-03 0.  1.
        -12    1    3    3    0    0  0.38343510900E+00  0.20762941328E+01  0.27750400233E+01  0.34869566874E+01  0.00000000000E+00 0.  1.
</event>
<event>
 7    1  0.3807360E-011  0.4778727E+02  0.7816164E-02  0.1312668E+00
        -11   -1    0    0    0    0  0.00000000000E+00  0.00000000000E+00  0.45593999997E+02  0.45594000000E+02  0.51100000000E-03 0. -1.
         11   -1    0    0    0    0 -0.00000000000E+00 -0.00000000000E+00 -0.45593999997E+02  0.45594000000E+02  0.51100000000E-03 0.  1.
    9900012    2    1    2    0    0  0.39641617783E+02 -0.33825450903E+01 -0.17341388346E+02  0.47787271648E+02  0.20000002752E+02 0.  0.
         12    1    1    2    0    0 -0.39641617783E+02  0.33825450903E+01  0.17341388346E+02  0.43400728352E+02  0.00000000000E+00 0. -1.
         11    1    3    3    0    0  0.11515195560E+02 -0.43371809752E+01 -0.93941246667E+00  0.12340719738E+02  0.51100000000E-03 0. -1.
        -11    1    3    3    0    0  0.38747045111E+01  0.32429449076E+01 -0.84071885840E+01  0.98087128039E+01  0.51100000000E-03 0.  1.
        -12    1    3    3    0    0  0.24251717712E+02 -0.22883090226E+01 -0.79947872951E+01  0.25637839106E+02  0.00000000000E+00 0.  1.
</event>
<event>
 7    1  0.3807360E-011  0.4778727E+02  0.7816164E-02  0.1312668E+00
        -11   -1    0    0    0    0  0.00000000000E+00  0.00000000000E+00  0.45593999997E+02  0.45594000000E+02  0.51100000000E-03 0. -1.
         11   -1    0    0    0    0 -0.00000000000E+00 -0.00000000000E+00 -0.45593999997E+02  0.45594000000E+02  0.51100000000E-03 0.  1.
    9900012    2    1    2    0    0 -0.23346321492E+02 -0.64167666760E+01  0.36019406356E+02  0.47787271251E+02  0.20000000940E+02 0.  0.
        -12    1    1    2    0    0  0.23346321492E+02  0.64167666760E+01 -0.36019406356E+02  0.43400728749E+02  0.00000000000E+00 0.  1.
         11    1    3    3    0    0 -0.28018700257E+01 -0.46295591893E+01  0.75629596218E+01  0.92995511951E+01  0.51100000000E-03 0. -1.
        -11    1    3    3    0    0 -0.75142725958E+01  0.69366373929E+01  0.10810047010E+02  0.14880804668E+02  0.51100000000E-03 0.  1.
        -12    1    3    3    0    0 -0.13030178870E+02 -0.87238448797E+01  0.17646399724E+02  0.23606915387E+02  0.00000000000E+00 0.  1.
</event>
<event>
 7    1  0.3807360E-011  0.4778728E+02  0.7816164E-02  0.1312668E+00
        -11   -1    0    0    0    0  0.00000000000E+00  0.00000000000E+00  0.45593999997E+02  0.45594000000E+02  0.51100000000E-03 0. -1.
         11   -1    0    0    0    0 -0.00000000000E+00 -0.00000000000E+00 -0.45593999997E+02  0.45594000000E+02  0.51100000000E-03 0.  1.
    9900012    2    1    2    0    0 -0.23775384923E+02  0.21934351166E+02  0.28935057605E+02  0.47787282864E+02  0.20000053889E+02 0.  0.
        -12    1    1    2    0    0  0.23775384923E+02 -0.21934351166E+02 -0.28935057605E+02  0.43400717136E+02  0.00000000000E+00 0.  1.
         11    1    3    3    0    0 -0.11549509170E+02  0.17017194137E+01  0.11869263690E+02  0.16648316186E+02  0.51100000000E-03 0. -1.
        -11    1    3    3    0    0 -0.12959465854E+02  0.11920290412E+02  0.12787751249E+02  0.21761609798E+02  0.51100000000E-03 0.  1.
        -12    1    3    3    0    0  0.73359010088E+00  0.83123413406E+01  0.42780426664E+01  0.93773568800E+01  0.00000000000E+00 0.  1.
</event>
<event>
 7    1  0.3807360E-011  0.4778728E+02  0.7816164E-02  0.1312668E+00
        -11   -1    0    0    0    0  0.00000000000E+00  0.00000000000E+00  0.45593999997E+02  0.45594000000E+02  0.51100000000E-03 0. -1.
         11   -1    0    0    0    0 -0.00000000000E+00 -0.00000000000E+00 -0.45593999997E+02  0.45594000000E+02  0.51100000000E-03 0.  1.
    9900012    2    1    2    0    0 -0.39338781338E+01 -0.13565120021E+02 -0.41038206063E+02  0.47787283011E+02  0.20000054559E+02 0.  0.
         12    1    1    2    0    0  0.39338781338E+01  0.13565120021E+02  0.41038206063E+02  0.43400716989E+02  0.00000000000E+00 0. -1.
         11    1    3    3    0    0  0.50315045237E-02 -0.22312095703E+01 -0.25607800579E+02  0.25704820019E+02  0.51100000000E-03 0. -1.
        -11    1    3    3    0    0 -0.25078776462E+00 -0.10405347303E+02 -0.14996509812E+02  0.18254573504E+02  0.51100000000E-03 0.  1.
         12    1    3    3    0    0 -0.36881218737E+01 -0.92856314785E+00 -0.43389567108E+00  0.38278894875E+01  0.00000000000E+00 0. -1.
</event>
<event>
 7    1  0.3807360E-011  0.4778727E+02  0.7816164E-02  0.1312668E+00
        -11   -1    0    0    0    0  0.00000000000E+00  0.00000000000E+00  0.45593999997E+02  0.45594000000E+02  0.51100000000E-03 0. -1.
         11   -1    0    0    0    0 -0.00000000000E+00 -0.00000000000E+00 -0.45593999997E+02  0.45594000000E+02  0.51100000000E-03 0.  1.
    9900012    2    1    2    0    0 -0.79406853834E+01 -0.97627068269E+01  0.41536228509E+02  0.47787271807E+02  0.20000003478E+02 0.  0.
        -12    1    1    2    0    0  0.79406853834E+01  0.97627068269E+01 -0.41536228509E+02  0.43400728193E+02  0.00000000000E+00 0.  1.
         11    1    3    3    0    0 -0.44418947739E+01 -0.12841479744E+02  0.36124713918E+02  0.38595712030E+02  0.51100000000E-03 0. -1.
        -11    1    3    3    0    0 -0.23523666293E+00 -0.64843196836E+00 -0.92148264419E+00  0.11510563973E+01  0.51100000000E-03 0.  1.
         12    1    3    3    0    0 -0.32635539466E+01  0.37272048858E+01  0.63329972348E+01  0.80405033797E+01  0.00000000000E+00 0. -1.
</event>
<event>
 7    1  0.3807360E-011  0.4778727E+02  0.7816164E-02  0.1312668E+00
        -11   -1    0    0    0    0  0.00000000000E+00  0.00000000000E+00  0.45593999997E+02  0.45594000000E+02  0.51100000000E-03 0. -1.
         11   -1    0    0    0    0 -0.00000000000E+00 -0.00000000000E+00 -0.45593999997E+02  0.45594000000E+02  0.51100000000E-03 0.  1.
    9900012    2    1    2    0    0  0.31454640644E+02  0.74511057675E+01 -0.28960490994E+02  0.47787269202E+02  0.19999991597E+02 0.  0.
         12    1    1    2    0    0 -0.31454640644E+02 -0.74511057675E+01  0.28960490994E+02  0.43400730798E+02  0.00000000000E+00 0. -1.
         11    1    3    3    0    0  0.20477054113E+01  0.15154359321E+01  0.21605596940E+01  0.33403086636E+01  0.51100000000E-03 0. -1.
        -11    1    3    3    0    0  0.28206514294E+02  0.60667705707E+01 -0.31898494732E+02  0.43010779117E+02  0.51100000000E-03 0.  1.
        -12    1    3    3    0    0  0.12004209385E+01 -0.13110073533E+00  0.77744404398E+00  0.14361814210E+01  0.00000000000E+00 0.  1.
</event>
<event>
 7    1  0.3807360E-011  0.4778723E+02  0.7816164E-02  0.1312668E+00
        -11   -1    0    0    0    0  0.00000000000E+00  0.00000000000E+00  0.45593999997E+02  0.45594000000E+02  0.51100000000E-03 0.  1.
         11   -1    0    0    0    0 -0.00000000000E+00 -0.00000000000E+00 -0.45593999997E+02  0.45594000000E+02  0.51100000000E-03 0. -1.
    9900012    2    1    2    0    0 -0.37570400083E+02  0.21658620636E+02  0.17310131088E+01  0.47787225622E+02  0.19999792900E+02 0.  0.
        -12    1    1    2    0    0  0.37570400083E+02 -0.21658620636E+02 -0.17310131088E+01  0.43400774378E+02  0.00000000000E+00 0.  1.
         11    1    3    3    0    0 -0.27062183644E+02  0.14467357059E+02 -0.54765572756E+01  0.31171443401E+02  0.51100000000E-03 0. -1.
        -11    1    3    3    0    0 -0.85299007625E+01  0.85657979017E+01  0.42784395422E+01  0.12823304796E+02  0.51100000000E-03 0.  1.
        -12    1    3    3    0    0 -0.19783156763E+01 -0.13745343254E+01  0.29291308422E+01  0.37924774247E+01  0.00000000000E+00 0.  1.
</event>
<event>
 7    1  0.3807360E-011  0.4778727E+02  0.7816164E-02  0.1312668E+00
        -11   -1    0    0    0    0  0.00000000000E+00  0.00000000000E+00  0.45593999997E+02  0.45594000000E+02  0.51100000000E-03 0. -1.
         11   -1    0    0    0    0 -0.00000000000E+00 -0.00000000000E+00 -0.45593999997E+02  0.45594000000E+02  0.51100000000E-03 0.  1.
    9900012    2    1    2    0    0 -0.88523111001E+01 -0.42811790078E+01  0.42272114562E+02  0.47787267574E+02  0.19999984179E+02 0.  0.
        -12    1    1    2    0    0  0.88523111001E+01  0.42811790078E+01 -0.42272114562E+02  0.43400732426E+02  0.00000000000E+00 0.  1.
         11    1    3    3    0    0  0.52205376126E+01 -0.30146423461E+00  0.13380431431E+02  0.14365961130E+02  0.51100000000E-03 0. -1.
        -11    1    3    3    0    0 -0.65400449371E+01 -0.51034977456E+01  0.96408923058E+01  0.12718674527E+02  0.51100000000E-03 0.  1.
        -12    1    3    3    0    0 -0.75328037756E+01  0.11237829724E+01  0.19250790825E+02  0.20702631917E+02  0.00000000000E+00 0.  1.
</event>
<event>
 7    1  0.3807360E-011  0.4778726E+02  0.7816164E-02  0.1312668E+00
        -11   -1    0    0    0    0  0.00000000000E+00  0.00000000000E+00  0.45593999997E+02  0.45594000000E+02  0.51100000000E-03 0.  1.
         11   -1    0    0    0    0 -0.00000000000E+00 -0.00000000000E+00 -0.45593999997E+02  0.45594000000E+02  0.51100000000E-03 0. -1.
    9900012    2    1    2    0    0 -0.11106087007E+02  0.41845264406E+02 -0.30419303569E+01  0.47787255051E+02  0.19999927079E+02 0.  0.
         12    1    1    2    0    0  0.11106087007E+02 -0.41845264406E+02  0.30419303569E+01  0.43400744949E+02  0.00000000000E+00 0. -1.
         11    1    3    3    0    0 -0.79475253387E+00  0.48656641986E+01 -0.56065448012E+01  0.74659001167E+01  0.51100000000E-03 0. -1.
        -11    1    3    3    0    0 -0.86917407205E+01  0.10922501378E+02  0.26799884316E+01  0.14213716311E+02  0.51100000000E-03 0.  1.
         12    1    3    3    0    0 -0.16195937525E+01  0.26057098829E+02 -0.11537398724E+00  0.26107638623E+02  0.00000000000E+00 0. -1.
</event>
<event>
 7    1  0.3807360E-011  0.4778727E+02  0.7816164E-02  0.1312668E+00
        -11   -1    0    0    0    0  0.00000000000E+00  0.00000000000E+00  0.45593999997E+02  0.45594000000E+02  0.51100000000E-03 0.  1.
         11   -1    0    0    0    0 -0.00000000000E+00 -0.00000000000E+00 -0.45593999997E+02  0.45594000000E+02  0.51100000000E-03 0. -1.
    9900012    2    1    2    0    0 -0.41710087239E+02 -0.66980814018E+01  0.99512558317E+01  0.47787272304E+02  0.20000005742E+02 0.  0.
         12    1    1    2    0    0  0.41710087239E+02  0.66980814018E+01 -0.99512558317E+01  0.43400727696E+02  0.00000000000E+00 0. -1.
         11    1    3    3    0    0 -0.18496297096E+01 -0.64532971003E+01  0.74655322581E+00  0.67545181551E+01  0.51100000000E-03 0. -1.
        -11    1    3    3    0    0 -0.21900034085E+02 -0.16079243538E+01  0.44800036931E+01  0.22411321849E+02  0.51100000000E-03 0.  1.
        -12    1    3    3    0    0 -0.17960423444E+02  0.13631400523E+01  0.47246989128E+01  0.18621432300E+02  0.00000000000E+00 0.  1.
</event>
<event>
 7    1  0.3807360E-011  0.4778727E+02  0.7816164E-02  0.1312668E+00
        -11   -1    0    0    0    0  0.00000000000E+00  0.00000000000E+00  0.45593999997E+02  0.45594000000E+02  0.51100000000E-03 0.  1.
         11   -1    0    0    0    0 -0.00000000000E+00 -0.00000000000E+00 -0.45593999997E+02  0.45594000000E+02  0.51100000000E-03 0. -1.
    9900012    2    1    2    0    0 -0.12017876883E+02  0.39183606625E+02  0.14277216892E+02  0.47787270569E+02  0.19999997834E+02 0.  0.
        -12    1    1    2    0    0  0.12017876883E+02 -0.39183606625E+02 -0.14277216892E+02  0.43400729431E+02  0.00000000000E+00 0.  1.
         11    1    3    3    0    0 -0.11563018273E+02  0.27916115346E+02  0.15433098643E+02  0.33929241394E+02  0.51100000000E-03 0. -1.
        -11    1    3    3    0    0 -0.32308398020E+01  0.14812413204E+01 -0.96910980924E+00  0.36839619649E+01  0.51100000000E-03 0.  1.
         12    1    3    3    0    0  0.27759811924E+01  0.97862499590E+01 -0.18677194244E+00  0.10174067210E+02  0.00000000000E+00 0. -1.
</event>
<event>
 7    1  0.3807360E-011  0.4778727E+02  0.7816164E-02  0.1312668E+00
        -11   -1    0    0    0    0  0.00000000000E+00  0.00000000000E+00  0.45593999997E+02  0.45594000000E+02  0.51100000000E-03 0. -1.
         11   -1    0    0    0    0 -0.00000000000E+00 -0.00000000000E+00 -0.45593999997E+02  0.45594000000E+02  0.51100000000E-03 0.  1.
    9900012    2    1    2    0    0  0.27645144559E+01 -0.30581450498E+01 -0.43204496292E+02  0.47787270845E+02  0.19999999090E+02 0.  0.
         12    1    1    2    0    0 -0.27645144559E+01  0.30581450498E+01  0.43204496292E+02  0.43400729155E+02  0.00000000000E+00 0. -1.
         11    1    3    3    0    0  0.45032371347E+01 -0.80686445866E+00 -0.10715650640E+02  0.11651409522E+02  0.51100000000E-03 0. -1.
        -11    1    3    3    0    0 -0.52099541617E+01 -0.33790280964E+01 -0.31826213410E+02  0.32426367566E+02  0.51100000000E-03 0.  1.
         12    1    3    3    0    0  0.34712314829E+01  0.11277475052E+01 -0.66263224189E+00  0.37094937568E+01  0.00000000000E+00 0. -1.
</event>
<event>
 7    1  0.3807360E-011  0.4778727E+02  0.7816164E-02  0.1312668E+00
        -11   -1    0    0    0    0  0.00000000000E+00  0.00000000000E+00  0.45593999997E+02  0.45594000000E+02  0.51100000000E-03 0. -1.
         11   -1    0    0    0    0 -0.00000000000E+00 -0.00000000000E+00 -0.45593999997E+02  0.45594000000E+02  0.51100000000E-03 0.  1.
    9900012    2    1    2    0    0 -0.52994405158E+01 -0.21786617638E+02  0.37160227627E+02  0.47787270799E+02  0.19999998881E+02 0.  0.
        -12    1    1    2    0    0  0.52994405158E+01  0.21786617638E+02 -0.37160227627E+02  0.43400729201E+02  0.00000000000E+00 0.  1.
         11    1    3    3    0    0 -0.76996951794E+01 -0.92456204016E+01  0.15719926325E+02  0.19796032087E+02  0.51100000000E-03 0. -1.
        -11    1    3    3    0    0  0.17212299836E+00 -0.28651520435E+01 -0.13201167278E+01  0.31593402785E+01  0.51100000000E-03 0.  1.
        -12    1    3    3    0    0  0.22281316652E+01 -0.96758451928E+01  0.22760418029E+02  0.24831898433E+02  0.00000000000E+00 0.  1.
</event>
<event>
 7    1  0.3807360E-011  0.4778728E+02  0.7816164E-02  0.1312668E+00
        -11   -1    0    0    0    0  0.00000000000E+00  0.00000000000E+00  0.45593999997E+02  0.45594000000E+02  0.51100000000E-03 0. -1.
         11   -1    0    0    0    0 -0.00000000000E+00 -0.00000000000E+00 -0.45593999997E+02  0.45594000000E+02  0.51100000000E-03 0.  1.
    9900012    2    1    2    0    0 -0.53382818054E+01 -0.38440370000E+02  0.19428423255E+02  0.47787275023E+02  0.20000018139E+02 0.  0.
        -12    1    1    2    0    0  0.53382818054E+01  0.38440370000E+02 -0.19428423255E+02  0.43400724977E+02  0.00000000000E+00 0.  1.
         11    1    3    3    0    0 -0.26570879979E+01 -0.26006056221E+02  0.62802544003E+01  0.26885250090E+02  0.51100000000E-03 0.  1.
        -11    1    3    3    0    0  0.23473785148E+01 -0.71997906405E+01  0.24220030892E+01  0.79506773538E+01  0.51100000000E-03 0. -1.
        -12    1    3    3    0    0 -0.50285723223E+01 -0.52345231382E+01  0.10726165766E+02  0.12951347579E+02  0.00000000000E+00 0.  1.
</event>
<event>
 7    1  0.3807360E-011  0.4778727E+02  0.7816164E-02  0.1312668E+00
        -11   -1    0    0    0    0  0.00000000000E+00  0.00000000000E+00  0.45593999997E+02  0.45594000000E+02  0.51100000000E-03 0. -1.
         11   -1    0    0    0    0 -0.00000000000E+00 -0.00000000000E+00 -0.45593999997E+02  0.45594000000E+02  0.51100000000E-03 0.  1.
    9900012    2    1    2    0    0 -0.18388553773E+02 -0.41864872183E+01 -0.39089098451E+02  0.47787271863E+02  0.20000003733E+02 0.  0.
         12    1    1    2    0    0  0.18388553773E+02  0.41864872183E+01  0.39089098451E+02  0.43400728137E+02  0.00000000000E+00 0. -1.
         11    1    3    3    0    0 -0.37132803481E+01  0.41119721657E+01 -0.21803378098E+01  0.59540439418E+01  0.51100000000E-03 0. -1.
        -11    1    3    3    0    0 -0.15885343008E+02 -0.69130393176E+01 -0.35548992795E+02  0.39545734588E+02  0.51100000000E-03 0.  1.
         12    1    3    3    0    0  0.12100695827E+01 -0.13854200664E+01 -0.13597678458E+01  0.22874933333E+01  0.00000000000E+00 0. -1.
</event>
<event>
 7    1  0.3807360E-011  0.4778729E+02  0.7816164E-02  0.1312668E+00
        -11   -1    0    0    0    0  0.00000000000E+00  0.00000000000E+00  0.45593999997E+02  0.45594000000E+02  0.51100000000E-03 0. -1.
         11   -1    0    0    0    0 -0.00000000000E+00 -0.00000000000E+00 -0.45593999997E+02  0.45594000000E+02  0.51100000000E-03 0.  1.
    9900012    2    1    2    0    0  0.26463829618E+02  0.25385569957E+02 -0.23213362385E+02  0.47787289944E+02  0.20000086172E+02 0.  0.
         12    1    1    2    0    0 -0.26463829618E+02 -0.25385569957E+02  0.23213362385E+02  0.43400710056E+02  0.00000000000E+00 0. -1.
         11    1    3    3    0    0  0.25575996286E+01  0.56331162268E+01  0.24553261726E+01  0.66559703395E+01  0.51100000000E-03 0. -1.
        -11    1    3    3    0    0  0.55814984924E+01  0.77633651327E+01 -0.11894844414E+02  0.15261398609E+02  0.51100000000E-03 0.  1.
        -12    1    3    3    0    0  0.18324731497E+02  0.11989088598E+02 -0.13773844144E+02  0.25869920996E+02  0.00000000000E+00 0.  1.
</event>
<event>
 7    1  0.3807360E-011  0.4778727E+02  0.7816164E-02  0.1312668E+00
        -11   -1    0    0    0    0  0.00000000000E+00  0.00000000000E+00  0.45593999997E+02  0.45594000000E+02  0.51100000000E-03 0. -1.
         11   -1    0    0    0    0 -0.00000000000E+00 -0.00000000000E+00 -0.45593999997E+02  0.45594000000E+02  0.51100000000E-03 0.  1.
    9900012    2    1    2    0    0 -0.19507718225E+02 -0.32010898178E+02 -0.21871778655E+02  0.47787269891E+02  0.19999994740E+02 0.  0.
         12    1    1    2    0    0  0.19507718225E+02  0.32010898178E+02  0.21871778655E+02  0.43400730109E+02  0.00000000000E+00 0. -1.
         11    1    3    3    0    0 -0.66775709433E+01  0.63292277234E+00 -0.45305417583E+01  0.80942173077E+01  0.51100000000E-03 0. -1.
        -11    1    3    3    0    0 -0.31791219013E+01 -0.43338442887E+01 -0.49874770889E+01  0.73323904939E+01  0.51100000000E-03 0.  1.
        -12    1    3    3    0    0 -0.96510253799E+01 -0.28309976662E+02 -0.12353759807E+02  0.32360662089E+02  0.00000000000E+00 0.  1.
</event>
<event>
 7    1  0.3807360E-011  0.4778727E+02  0.7816164E-02  0.1312668E+00
        -11   -1    0    0    0    0  0.00000000000E+00  0.00000000000E+00  0.45593999997E+02  0.45594000000E+02  0.51100000000E-03 0. -1.
         11   -1    0    0    0    0 -0.00000000000E+00 -0.00000000000E+00 -0.45593999997E+02  0.45594000000E+02  0.51100000000E-03 0.  1.
    9900012    2    1    2    0    0 -0.23221455354E+02  0.35181806317E+02  0.10326073001E+02  0.47787271111E+02  0.20000000304E+02 0.  0.
        -12    1    1    2    0    0  0.23221455354E+02 -0.35181806317E+02 -0.10326073001E+02  0.43400728889E+02  0.00000000000E+00 0.  1.
         11    1    3    3    0    0 -0.63500171480E+01  0.66000713418E+01  0.52915867275E+01  0.10577549331E+02  0.51100000000E-03 0. -1.
        -11    1    3    3    0    0 -0.16297322662E+02  0.11908694388E+02  0.27622467989E+01  0.20372769464E+02  0.51100000000E-03 0.  1.
        -12    1    3    3    0    0 -0.57411554409E+00  0.16673040587E+02  0.22722394744E+01  0.16836952316E+02  0.00000000000E+00 0.  1.
</event>
<event>
 7    1  0.3807360E-011  0.4778728E+02  0.7816164E-02  0.1312668E+00
        -11   -1    0    0    0    0  0.00000000000E+00  0.00000000000E+00  0.45593999997E+02  0.45594000000E+02  0.51100000000E-03 0.  1.
         11   -1    0    0    0    0 -0.00000000000E+00 -0.00000000000E+00 -0.45593999997E+02  0.45594000000E+02  0.51100000000E-03 0. -1.
    9900012    2    1    2    0    0 -0.94317415282E+01 -0.36069401118E+02  0.22218539119E+02  0.47787275054E+02  0.20000018281E+02 0.  0.
        -12    1    1    2    0    0  0.94317415282E+01  0.36069401118E+02 -0.22218539119E+02  0.43400724946E+02  0.00000000000E+00 0.  1.
         11    1    3    3    0    0 -0.78534450402E+01 -0.23078635435E+02  0.72499982741E+01  0.25433491458E+02  0.51100000000E-03 0. -1.
        -11    1    3    3    0    0 -0.13661939223E+01 -0.14748963210E+02  0.13688912261E+02  0.20168904799E+02  0.51100000000E-03 0.  1.
        -12    1    3    3    0    0 -0.21210256568E+00  0.17581975277E+01  0.12796285840E+01  0.21848787970E+01  0.00000000000E+00 0.  1.
</event>
<event>
 7    1  0.3807360E-011  0.4778727E+02  0.7816164E-02  0.1312668E+00
        -11   -1    0    0    0    0  0.00000000000E+00  0.00000000000E+00  0.45593999997E+02  0.45594000000E+02  0.51100000000E-03 0.  1.
         11   -1    0    0    0    0 -0.00000000000E+00 -0.00000000000E+00 -0.45593999997E+02  0.45594000000E+02  0.51100000000E-03 0. -1.
    9900012    2    1    2    0    0  0.37331278985E+02  0.84033988666E+01  0.20478817511E+02  0.47787268787E+02  0.19999989710E+02 0.  0.
        -12    1    1    2    0    0 -0.37331278985E+02 -0.84033988666E+01 -0.20478817511E+02  0.43400731213E+02  0.00000000000E+00 0.  1.
         11    1    3    3    0    0  0.58498412286E-01  0.10267666745E+01  0.22039322694E+01  0.24320751587E+01  0.51100000000E-03 0. -1.
        -11    1    3    3    0    0  0.13453601102E+02 -0.72444413406E-02  0.15087902629E+02  0.20214950930E+02  0.51100000000E-03 0.  1.
         12    1    3    3    0    0  0.23819179471E+02  0.73838766335E+01  0.31869826122E+01  0.25140242699E+02  0.00000000000E+00 0. -1.
</event>
<event>
 7    1  0.3807360E-011  0.4778727E+02  0.7816164E-02  0.1312668E+00
        -11   -1    0    0    0    0  0.00000000000E+00  0.00000000000E+00  0.45593999997E+02  0.45594000000E+02  0.51100000000E-03 0. -1.
         11   -1    0    0    0    0 -0.00000000000E+00 -0.00000000000E+00 -0.45593999997E+02  0.45594000000E+02  0.51100000000E-03 0.  1.
    9900012    2    1    2    0    0  0.86841093505E+01  0.28120820329E+02  0.31897169384E+02  0.47787266068E+02  0.19999977308E+02 0.  0.
        -12    1    1    2    0    0 -0.86841093505E+01 -0.28120820329E+02 -0.31897169384E+02  0.43400733932E+02  0.00000000000E+00 0.  1.
         11    1    3    3    0    0  0.94315519637E+01  0.16036680649E+02  0.18013672877E+02  0.25896364792E+02  0.51100000000E-03 0. -1.
        -11    1    3    3    0    0  0.14125007083E+01  0.48429864021E+01 -0.10514272268E+01  0.51531713552E+01  0.51100000000E-03 0.  1.
        -12    1    3    3    0    0 -0.21599433215E+01  0.72411532783E+01  0.14934923734E+02  0.16737729920E+02  0.00000000000E+00 0.  1.
</event>
<event>
 7    1  0.4086303E-011  0.4778728E+02  0.7816164E-02  0.1312668E+00
        -11   -1    0    0    0    0  0.00000000000E+00  0.00000000000E+00  0.45593999997E+02  0.45594000000E+02  0.51100000000E-03 0. -1.
         11   -1    0    0    0    0 -0.00000000000E+00 -0.00000000000E+00 -0.45593999997E+02  0.45594000000E+02  0.51100000000E-03 0.  1.
    9900012    2    1    2    0    0 -0.84527311683E+01 -0.21071395591E+02 -0.36988785351E+02  0.47787278600E+02  0.20000034447E+02 0.  0.
         12    1    1    2    0    0  0.84527311683E+01  0.21071395591E+02  0.36988785351E+02  0.43400721400E+02  0.00000000000E+00 0. -1.
         11    1    3    3    0    0 -0.26637609023E+01  0.54839698465E+00 -0.50760465032E-01  0.27200989474E+01  0.51100000000E-03 0. -1.
        -11    1    3    3    0    0 -0.98178608456E+01 -0.17023745887E+02 -0.26877636788E+02  0.33295730585E+02  0.51100000000E-03 0.  1.
         12    1    3    3    0    0  0.40288905797E+01 -0.45960466885E+01 -0.10060388097E+02  0.11771449067E+02  0.00000000000E+00 0. -1.
</event>
<event>
 7    1  0.3854155E-011  0.4778728E+02  0.7816164E-02  0.1312668E+00
        -11   -1    0    0    0    0  0.00000000000E+00  0.00000000000E+00  0.45593999997E+02  0.45594000000E+02  0.51100000000E-03 0. -1.
         11   -1    0    0    0    0 -0.00000000000E+00 -0.00000000000E+00 -0.45593999997E+02  0.45594000000E+02  0.51100000000E-03 0.  1.
    9900012    2    1    2    0    0  0.10906688003E+02  0.58649595161E+01 -0.41596500349E+02  0.47787280713E+02  0.20000044083E+02 0.  0.
         12    1    1    2    0    0 -0.10906688003E+02 -0.58649595161E+01  0.41596500349E+02  0.43400719287E+02  0.00000000000E+00 0. -1.
         11    1    3    3    0    0  0.10809012273E+02 -0.38100469415E+01 -0.16000334429E+02  0.19681511784E+02  0.51100000000E-03 0. -1.
        -11    1    3    3    0    0  0.32468865261E+01  0.53450328553E+01 -0.13979164891E+02  0.15314329879E+02  0.51100000000E-03 0.  1.
         12    1    3    3    0    0 -0.31492107966E+01  0.43299736024E+01 -0.11617001029E+02  0.12791439049E+02  0.00000000000E+00 0. -1.
</event>
<event>
 7    1  0.3807360E-011  0.4778727E+02  0.7816164E-02  0.1312668E+00
        -11   -1    0    0    0    0  0.00000000000E+00  0.00000000000E+00  0.45593999997E+02  0.45594000000E+02  0.51100000000E-03 0. -1.
         11   -1    0    0    0    0 -0.00000000000E+00 -0.00000000000E+00 -0.45593999997E+02  0.45594000000E+02  0.51100000000E-03 0.  1.
    9900012    2    1    2    0    0  0.66689106134E+01 -0.38497284733E+01 -0.42712157861E+02  0.47787271812E+02  0.20000003501E+02 0.  0.
         12    1    1    2    0    0 -0.66689106134E+01  0.38497284733E+01  0.42712157861E+02  0.43400728188E+02  0.00000000000E+00 0. -1.
         11    1    3    3    0    0  0.50001881884E+01  0.41029019762E+01 -0.11113478170E+02  0.12858657933E+02  0.51100000000E-03 0. -1.
        -11    1    3    3    0    0 -0.18311928032E+01 -0.18957164368E+01 -0.25535909756E+02  0.25671573680E+02  0.51100000000E-03 0.  1.
        -12    1    3    3    0    0  0.34999152282E+01 -0.60569140127E+01 -0.60627699351E+01  0.92570401991E+01  0.00000000000E+00 0.  1.
</event>
<event>
 7    1  0.3807360E-011  0.4778721E+02  0.7816164E-02  0.1312668E+00
        -11   -1    0    0    0    0  0.00000000000E+00  0.00000000000E+00  0.45593999997E+02  0.45594000000E+02  0.51100000000E-03 0. -1.
         11   -1    0    0    0    0 -0.00000000000E+00 -0.00000000000E+00 -0.45593999997E+02  0.45594000000E+02  0.51100000000E-03 0.  1.
    9900012    2    1    2    0    0 -0.34853530300E+02 -0.63770317155E+01 -0.25063793101E+02  0.47787207006E+02  0.19999708022E+02 0.  0.
         12    1    1    2    0    0  0.34853530300E+02  0.63770317155E+01  0.25063793101E+02  0.43400792994E+02  0.00000000000E+00 0. -1.
         11    1    3    3    0    0 -0.52165507358E+01 -0.53015422710E+01  0.18853997151E+01  0.76729058626E+01  0.51100000000E-03 0. -1.
        -11    1    3    3    0    0 -0.98466419633E+01 -0.75511218499E+00 -0.79425392561E+01  0.12673219104E+02  0.51100000000E-03 0.  1.
         12    1    3    3    0    0 -0.19790337601E+02 -0.32037725955E+00 -0.19006653560E+02  0.27441082040E+02  0.00000000000E+00 0. -1.
</event>
<event>
 7    1  0.3807360E-011  0.4778725E+02  0.7816164E-02  0.1312668E+00
        -11   -1    0    0    0    0  0.00000000000E+00  0.00000000000E+00  0.45593999997E+02  0.45594000000E+02  0.51100000000E-03 0. -1.
         11   -1    0    0    0    0 -0.00000000000E+00 -0.00000000000E+00 -0.45593999997E+02  0.45594000000E+02  0.51100000000E-03 0.  1.
    9900012    2    1    2    0    0  0.29339984248E+02  0.11117711568E+02 -0.29986444891E+02  0.47787250429E+02  0.19999906004E+02 0.  0.
         12    1    1    2    0    0 -0.29339984248E+02 -0.11117711568E+02  0.29986444891E+02  0.43400749571E+02  0.00000000000E+00 0. -1.
         11    1    3    3    0    0  0.10357301537E+02  0.70079447695E+01 -0.96610030287E+01  0.15802530329E+02  0.51100000000E-03 0. -1.
        -11    1    3    3    0    0  0.21020435665E+02  0.27375536651E+01 -0.14557098029E+02  0.25715015437E+02  0.51100000000E-03 0.  1.
         12    1    3    3    0    0 -0.20377529540E+01  0.13722131334E+01 -0.57683438328E+01  0.62697046628E+01  0.00000000000E+00 0. -1.
</event>
<event>
 7    1  0.3807360E-011  0.4778727E+02  0.7816164E-02  0.1312668E+00
        -11   -1    0    0    0    0  0.00000000000E+00  0.00000000000E+00  0.45593999997E+02  0.45594000000E+02  0.51100000000E-03 0. -1.
         11   -1    0    0    0    0 -0.00000000000E+00 -0.00000000000E+00 -0.45593999997E+02  0.45594000000E+02  0.51100000000E-03 0.  1.
    9900012    2    1    2    0    0  0.37703132984E+02  0.21231270310E+02  0.33660611461E+01  0.47787269091E+02  0.19999991093E+02 0.  0.
        -12    1    1    2    0    0 -0.37703132984E+02 -0.21231270310E+02 -0.33660611461E+01  0.43400730909E+02  0.00000000000E+00 0.  1.
         11    1    3    3    0    0 -0.52546103217E+00  0.18626678080E+01 -0.14181799443E+01  0.23993489273E+01  0.51100000000E-03 0.  1.
        -11    1    3    3    0    0  0.37236789450E+02  0.17853547778E+02  0.76497778228E+01  0.41998175648E+02  0.51100000000E-03 0. -1.
         12    1    3    3    0    0  0.99180456659E+00  0.15150547240E+01 -0.28655367324E+01  0.33897445154E+01  0.00000000000E+00 0. -1.
</event>
<event>
 7    1  0.3807360E-011  0.4778727E+02  0.7816164E-02  0.1312668E+00
        -11   -1    0    0    0    0  0.00000000000E+00  0.00000000000E+00  0.45593999997E+02  0.45594000000E+02  0.51100000000E-03 0.  1.
         11   -1    0    0    0    0 -0.00000000000E+00 -0.00000000000E+00 -0.45593999997E+02  0.45594000000E+02  0.51100000000E-03 0. -1.
    9900012    2    1    2    0    0 -0.18715996472E+02  0.37846151359E+02 -0.10050053051E+02  0.47787271170E+02  0.20000000572E+02 0.  0.
         12    1    1    2    0    0  0.18715996472E+02 -0.37846151359E+02  0.10050053051E+02  0.43400728830E+02  0.00000000000E+00 0. -1.
         11    1    3    3    0    0 -0.10051379845E+02  0.20135571420E+02 -0.12687145073E+02  0.25834765793E+02  0.51100000000E-03 0. -1.
        -11    1    3    3    0    0 -0.45642747736E+01  0.17636283912E+01  0.24807874306E+01  0.54861002404E+01  0.51100000000E-03 0.  1.
        -12    1    3    3    0    0 -0.41003418531E+01  0.15946951548E+02  0.15630459155E+00  0.16466405137E+02  0.00000000000E+00 0.  1.
</event>
<event>
 7    1  0.3807360E-011  0.4778727E+02  0.7816164E-02  0.1312668E+00
        -11   -1    0    0    0    0  0.00000000000E+00  0.00000000000E+00  0.45593999997E+02  0.45594000000E+02  0.51100000000E-03 0. -1.
         11   -1    0    0    0    0 -0.00000000000E+00 -0.00000000000E+00 -0.45593999997E+02  0.45594000000E+02  0.51100000000E-03 0.  1.
    9900012    2    1    2    0    0 -0.62683783484E+01 -0.35314571783E+02  0.24437921870E+02  0.47787267603E+02  0.19999984307E+02 0.  0.
        -12    1    1    2    0    0  0.62683783484E+01  0.35314571783E+02 -0.24437921870E+02  0.43400732397E+02  0.00000000000E+00 0.  1.
         11    1    3    3    0    0 -0.51690378611E+01 -0.12274308957E+02  0.20391415926E+02  0.24355439977E+02  0.51100000000E-03 0. -1.
        -11    1    3    3    0    0 -0.53686800258E+00 -0.75308734423E+01  0.16519500987E+01  0.77285976377E+01  0.51100000000E-03 0.  1.
         12    1    3    3    0    0 -0.56247248473E+00 -0.15509389383E+02  0.23945558455E+01  0.15703229987E+02  0.00000000000E+00 0. -1.
</event>
<event>
 7    1  0.3807360E-011  0.4778727E+02  0.7816164E-02  0.1312668E+00
        -11   -1    0    0    0    0  0.00000000000E+00  0.00000000000E+00  0.45593999997E+02  0.45594000000E+02  0.51100000000E-03 0.  1.
         11   -1    0    0    0    0 -0.00000000000E+00 -0.00000000000E+00 -0.45593999997E+02  0.45594000000E+02  0.51100000000E-03 0. -1.
    9900012    2    1    2    0    0 -0.29732224565E+02 -0.21885784824E+02 -0.22817334532E+02  0.47787268323E+02  0.19999987591E+02 0.  0.
         12    1    1    2    0    0  0.29732224565E+02  0.21885784824E+02  0.22817334532E+02  0.43400731677E+02  0.00000000000E+00 0. -1.
         11    1    3    3    0    0 -0.15614239626E+02 -0.11482184844E+02 -0.22409957257E+02  0.29628554343E+02  0.51100000000E-03 0. -1.
        -11    1    3    3    0    0 -0.93317905228E+01 -0.47068231535E+01 -0.17527204103E+01  0.10597571781E+02  0.51100000000E-03 0.  1.
         12    1    3    3    0    0 -0.47861944166E+01 -0.56967768263E+01  0.13453431357E+01  0.75611421991E+01  0.00000000000E+00 0. -1.
</event>
<event>
 7    1  0.3807360E-011  0.4778730E+02  0.7816164E-02  0.1312668E+00
        -11   -1    0    0    0    0  0.00000000000E+00  0.00000000000E+00  0.45593999997E+02  0.45594000000E+02  0.51100000000E-03 0. -1.
         11   -1    0    0    0    0 -0.00000000000E+00 -0.00000000000E+00 -0.45593999997E+02  0.45594000000E+02  0.51100000000E-03 0.  1.
    9900012    2    1    2    0    0  0.15486869619E+00  0.40021039401E+02  0.16790267137E+02  0.47787301278E+02  0.20000137845E+02 0.  0.
        -12    1    1    2    0    0 -0.15486869619E+00 -0.40021039401E+02 -0.16790267137E+02  0.43400698722E+02  0.00000000000E+00 0.  1.
         11    1    3    3    0    0  0.56018536363E+01  0.15667266476E+02  0.96556461963E+01  0.19237346665E+02  0.51100000000E-03 0. -1.
        -11    1    3    3    0    0 -0.25356783159E+01  0.46128418033E+01 -0.31156102832E+01  0.61167803395E+01  0.51100000000E-03 0.  1.
         12    1    3    3    0    0 -0.29113066242E+01  0.19740931122E+02  0.10250231224E+02  0.22433174273E+02  0.00000000000E+00 0. -1.
</event>
<event>
 7    1  0.3807360E-011  0.4778729E+02  0.7816164E-02  0.1312668E+00
        -11   -1    0    0    0    0  0.00000000000E+00  0.00000000000E+00  0.45593999997E+02  0.45594000000E+02  0.51100000000E-03 0. -1.
         11   -1    0    0    0    0 -0.00000000000E+00 -0.00000000000E+00 -0.45593999997E+02  0.45594000000E+02  0.51100000000E-03 0.  1.
    9900012    2    1    2    0    0  0.55535055703E+01  0.23059232940E+02 -0.36346282750E+02  0.47787286669E+02  0.20000071237E+02 0.  0.
         12    1    1    2    0    0 -0.55535055703E+01 -0.23059232940E+02  0.36346282750E+02  0.43400713331E+02  0.00000000000E+00 0. -1.
         11    1    3    3    0    0 -0.21220477076E+01  0.10911283187E+02 -0.65813284193E+01  0.12917936030E+02  0.51100000000E-03 0.  1.
        -11    1    3    3    0    0 -0.17812672857E+00 -0.54801422135E-01  0.91324403075E+00  0.93206611789E+00  0.51100000000E-03 0. -1.
        -12    1    3    3    0    0  0.78536800064E+01  0.12202751175E+02 -0.30678198362E+02  0.33937284520E+02  0.00000000000E+00 0.  1.
</event>
<event>
 7    1  0.3807360E-011  0.4778724E+02  0.7816164E-02  0.1312668E+00
        -11   -1    0    0    0    0  0.00000000000E+00  0.00000000000E+00  0.45593999997E+02  0.45594000000E+02  0.51100000000E-03 0. -1.
         11   -1    0    0    0    0 -0.00000000000E+00 -0.00000000000E+00 -0.45593999997E+02  0.45594000000E+02  0.51100000000E-03 0.  1.
    9900012    2    1    2    0    0  0.26731556339E+02  0.31461326846E+02  0.13387873024E+02  0.47787235775E+02  0.19999839190E+02 0.  0.
        -12    1    1    2    0    0 -0.26731556339E+02 -0.31461326846E+02 -0.13387873024E+02  0.43400764225E+02  0.00000000000E+00 0.  1.
         11    1    3    3    0    0  0.78020722734E+01  0.46668186063E+01 -0.28857235490E+00  0.90958672994E+01  0.51100000000E-03 0.  1.
        -11    1    3    3    0    0  0.28590993097E+01  0.12305196615E+02  0.11253184065E+02  0.16918228762E+02  0.51100000000E-03 0. -1.
         12    1    3    3    0    0  0.16070384756E+02  0.14489311625E+02  0.24232613147E+01  0.21773139713E+02  0.00000000000E+00 0. -1.
</event>
<event>
 7    1  0.3807360E-011  0.4778727E+02  0.7816164E-02  0.1312668E+00
        -11   -1    0    0    0    0  0.00000000000E+00  0.00000000000E+00  0.45593999997E+02  0.45594000000E+02  0.51100000000E-03 0. -1.
         11   -1    0    0    0    0 -0.00000000000E+00 -0.00000000000E+00 -0.45593999997E+02  0.45594000000E+02  0.51100000000E-03 0.  1.
    9900012    2    1    2    0    0 -0.43099595720E+01 -0.31545098258E+02 -0.29494990377E+02  0.47787269212E+02  0.19999991644E+02 0.  0.
         12    1    1    2    0    0  0.43099595720E+01  0.31545098258E+02  0.29494990377E+02  0.43400730788E+02  0.00000000000E+00 0. -1.
         11    1    3    3    0    0  0.55639653357E+01 -0.41677171665E+01 -0.47418310634E+01  0.84150186412E+01  0.51100000000E-03 0. -1.
        -11    1    3    3    0    0 -0.21195293109E+01 -0.17412346395E+02 -0.11013375835E+02  0.20711751713E+02  0.51100000000E-03 0.  1.
        -12    1    3    3    0    0 -0.77543955968E+01 -0.99650346964E+01 -0.13739783478E+02  0.18660498857E+02  0.00000000000E+00 0.  1.
</event>
<event>
 7    1  0.3807360E-011  0.4778728E+02  0.7816164E-02  0.1312668E+00
        -11   -1    0    0    0    0  0.00000000000E+00  0.00000000000E+00  0.45593999997E+02  0.45594000000E+02  0.51100000000E-03 0. -1.
         11   -1    0    0    0    0 -0.00000000000E+00 -0.00000000000E+00 -0.45593999997E+02  0.45594000000E+02  0.51100000000E-03 0.  1.
    9900012    2    1    2    0    0 -0.17232088314E+02  0.23270344135E+02  0.32329068294E+02  0.47787280645E+02  0.20000043771E+02 0.  0.
        -12    1    1    2    0    0  0.17232088314E+02 -0.23270344135E+02 -0.32329068294E+02  0.43400719355E+02  0.00000000000E+00 0.  1.
         11    1    3    3    0    0 -0.61414663925E+01  0.11345114583E+02  0.10763490714E+02  0.16801248970E+02  0.51100000000E-03 0. -1.
        -11    1    3    3    0    0 -0.65654589561E+01  0.52529294294E+00  0.49424315212E+00  0.66049572697E+01  0.51100000000E-03 0.  1.
        -12    1    3    3    0    0 -0.45251629651E+01  0.11399936609E+02  0.21071334428E+02  0.24381074404E+02  0.00000000000E+00 0.  1.
</event>
<event>
 7    1  0.3807360E-011  0.4778727E+02  0.7816164E-02  0.1312668E+00
        -11   -1    0    0    0    0  0.00000000000E+00  0.00000000000E+00  0.45593999997E+02  0.45594000000E+02  0.51100000000E-03 0. -1.
         11   -1    0    0    0    0 -0.00000000000E+00 -0.00000000000E+00 -0.45593999997E+02  0.45594000000E+02  0.51100000000E-03 0.  1.
    9900012    2    1    2    0    0  0.23521041673E+02 -0.22987336561E+02 -0.28319005746E+02  0.47787272702E+02  0.20000007558E+02 0.  0.
         12    1    1    2    0    0 -0.23521041673E+02  0.22987336561E+02  0.28319005746E+02  0.43400727298E+02  0.00000000000E+00 0. -1.
         11    1    3    3    0    0 -0.78686867371E+00 -0.45478839952E+01 -0.11137543825E+01  0.47479322056E+01  0.51100000000E-03 0. -1.
        -11    1    3    3    0    0  0.12858165326E+02 -0.19235615063E+01 -0.81467949373E+01  0.15342841081E+02  0.51100000000E-03 0.  1.
        -12    1    3    3    0    0  0.11449745021E+02 -0.16515891060E+02 -0.19058456426E+02  0.27696499416E+02  0.00000000000E+00 0.  1.
</event>
<event>
 7    1  0.3807360E-011  0.4778727E+02  0.7816164E-02  0.1312668E+00
        -11   -1    0    0    0    0  0.00000000000E+00  0.00000000000E+00  0.45593999997E+02  0.45594000000E+02  0.51100000000E-03 0. -1.
         11   -1    0    0    0    0 -0.00000000000E+00 -0.00000000000E+00 -0.45593999997E+02  0.45594000000E+02  0.51100000000E-03 0.  1.
    9900012    2    1    2    0    0  0.24729790348E+01 -0.31660863809E+02 -0.29582046611E+02  0.47787269544E+02  0.19999993158E+02 0.  0.
         12    1    1    2    0    0 -0.24729790348E+01  0.31660863809E+02  0.29582046611E+02  0.43400730456E+02  0.00000000000E+00 0. -1.
         11    1    3    3    0    0  0.31496356627E+01 -0.12270155783E+00 -0.17388630416E+00  0.31568175728E+01  0.51100000000E-03 0. -1.
        -11    1    3    3    0    0 -0.31766781681E+01 -0.16763143348E+02 -0.89359520856E+01  0.19259945457E+02  0.51100000000E-03 0.  1.
        -12    1    3    3    0    0  0.25000215402E+01 -0.14775018903E+02 -0.20472208221E+02  0.25370506513E+02  0.00000000000E+00 0.  1.
</event>
<event>
 7    1  0.3807360E-011  0.4778727E+02  0.7816164E-02  0.1312668E+00
        -11   -1    0    0    0    0  0.00000000000E+00  0.00000000000E+00  0.45593999997E+02  0.45594000000E+02  0.51100000000E-03 0. -1.
         11   -1    0    0    0    0 -0.00000000000E+00 -0.00000000000E+00 -0.45593999997E+02  0.45594000000E+02  0.51100000000E-03 0.  1.
    9900012    2    1    2    0    0  0.96443465496E+01  0.24047808861E+02  0.34818286005E+02  0.47787267614E+02  0.19999984357E+02 0.  0.
        -12    1    1    2    0    0 -0.96443465496E+01 -0.24047808861E+02 -0.34818286005E+02  0.43400732386E+02  0.00000000000E+00 0.  1.
         11    1    3    3    0    0  0.14910992797E+01  0.18489373017E+02  0.29959633365E+02  0.35237195167E+02  0.51100000000E-03 0. -1.
        -11    1    3    3    0    0  0.34850990883E+00  0.22615625430E+01 -0.72823997420E+00  0.24013450426E+01  0.51100000000E-03 0.  1.
         12    1    3    3    0    0  0.78047373610E+01  0.32968733012E+01  0.55868926135E+01  0.10148727404E+02  0.00000000000E+00 0. -1.
</event>
<event>
 7    1  0.5132363E-011  0.4778728E+02  0.7816164E-02  0.1312668E+00
        -11   -1    0    0    0    0  0.00000000000E+00  0.00000000000E+00  0.45593999997E+02  0.45594000000E+02  0.51100000000E-03 0. -1.
         11   -1    0    0    0    0 -0.00000000000E+00 -0.00000000000E+00 -0.45593999997E+02  0.45594000000E+02  0.51100000000E-03 0.  1.
    9900012    2    1    2    0    0 -0.24723742581E+02 -0.91371633184E+01 -0.34480016885E+02  0.47787276906E+02  0.20000026724E+02 0.  0.
         12    1    1    2    0    0  0.24723742581E+02  0.91371633184E+01  0.34480016885E+02  0.43400723094E+02  0.00000000000E+00 0. -1.
         11    1    3    3    0    0 -0.72033931682E+01  0.60511814385E+01 -0.10392534858E+02  0.14018218538E+02  0.51100000000E-03 0. -1.
        -11    1    3    3    0    0 -0.92006317733E+01 -0.52827555031E+01 -0.91619881071E+01  0.14017887040E+02  0.51100000000E-03 0.  1.
         12    1    3    3    0    0 -0.83197176395E+01 -0.99055892539E+01 -0.14925493920E+02  0.19751171328E+02  0.00000000000E+00 0. -1.
</event>
<event>
 7    1  0.3807360E-011  0.4778727E+02  0.7816164E-02  0.1312668E+00
        -11   -1    0    0    0    0  0.00000000000E+00  0.00000000000E+00  0.45593999997E+02  0.45594000000E+02  0.51100000000E-03 0. -1.
         11   -1    0    0    0    0 -0.00000000000E+00 -0.00000000000E+00 -0.45593999997E+02  0.45594000000E+02  0.51100000000E-03 0.  1.
    9900012    2    1    2    0    0 -0.14337594957E+02 -0.23697188708E+02 -0.33414074775E+02  0.47787265273E+02  0.19999973685E+02 0.  0.
         12    1    1    2    0    0  0.14337594957E+02  0.23697188708E+02  0.33414074775E+02  0.43400734727E+02  0.00000000000E+00 0. -1.
         11    1    3    3    0    0 -0.39482182569E+00  0.14204097624E+01 -0.39468476272E+01  0.42132000452E+01  0.51100000000E-03 0. -1.
        -11    1    3    3    0    0 -0.34529985845E+01  0.46615160054E+00 -0.74633505711E+01  0.82366315049E+01  0.51100000000E-03 0.  1.
         12    1    3    3    0    0 -0.10489774547E+02 -0.25583750071E+02 -0.22003876576E+02  0.35337433723E+02  0.00000000000E+00 0. -1.
</event>
<event>
 7    1  0.3807360E-011  0.4778727E+02  0.7816164E-02  0.1312668E+00
        -11   -1    0    0    0    0  0.00000000000E+00  0.00000000000E+00  0.45593999997E+02  0.45594000000E+02  0.51100000000E-03 0. -1.
         11   -1    0    0    0    0 -0.00000000000E+00 -0.00000000000E+00 -0.45593999997E+02  0.45594000000E+02  0.51100000000E-03 0.  1.
    9900012    2    1    2    0    0  0.17226278596E+01  0.33594576392E+02 -0.27423717169E+02  0.47787271053E+02  0.20000000040E+02 0.  0.
         12    1    1    2    0    0 -0.17226278596E+01 -0.33594576392E+02  0.27423717169E+02  0.43400728947E+02  0.00000000000E+00 0. -1.
         11    1    3    3    0    0  0.94622518106E+00  0.98860787624E+01 -0.17525722442E+01  0.10084711455E+02  0.51100000000E-03 0. -1.
        -11    1    3    3    0    0  0.19286411467E+01  0.97804275763E+01 -0.19308408246E+01  0.10154041895E+02  0.51100000000E-03 0.  1.
        -12    1    3    3    0    0 -0.11522384682E+01  0.13928070054E+02 -0.23740304100E+02  0.27548517704E+02  0.00000000000E+00 0.  1.
</event>
<event>
 7    1  0.3807360E-011  0.4778727E+02  0.7816164E-02  0.1312668E+00
        -11   -1    0    0    0    0  0.00000000000E+00  0.00000000000E+00  0.45593999997E+02  0.45594000000E+02  0.51100000000E-03 0.  1.
         11   -1    0    0    0    0 -0.00000000000E+00 -0.00000000000E+00 -0.45593999997E+02  0.45594000000E+02  0.51100000000E-03 0. -1.
    9900012    2    1    2    0    0 -0.33471568731E+02  0.16920551640E+02 -0.21839700614E+02  0.47787268393E+02  0.19999987912E+02 0.  0.
         12    1    1    2    0    0  0.33471568731E+02 -0.16920551640E+02  0.21839700614E+02  0.43400731607E+02  0.00000000000E+00 0. -1.
         11    1    3    3    0    0 -0.31661452197E+01  0.10385352646E+01  0.25678790582E+01  0.42067843024E+01  0.51100000000E-03 0. -1.
        -11    1    3    3    0    0 -0.15156237070E+02  0.30093594832E+01 -0.15189054031E+02  0.21667374766E+02  0.51100000000E-03 0.  1.
        -12    1    3    3    0    0 -0.15149186441E+02  0.12872656893E+02 -0.92185256409E+01  0.21913109325E+02  0.00000000000E+00 0.  1.
</event>
<event>
 7    1  0.3807360E-011  0.4778727E+02  0.7816164E-02  0.1312668E+00
        -11   -1    0    0    0    0  0.00000000000E+00  0.00000000000E+00  0.45593999997E+02  0.45594000000E+02  0.51100000000E-03 0. -1.
         11   -1    0    0    0    0 -0.00000000000E+00 -0.00000000000E+00 -0.45593999997E+02  0.45594000000E+02  0.51100000000E-03 0.  1.
    9900012    2    1    2    0    0 -0.24960449720E+02  0.29625315967E+02  0.19568847037E+02  0.47787272233E+02  0.20000005418E+02 0.  0.
        -12    1    1    2    0    0  0.24960449720E+02 -0.29625315967E+02 -0.19568847037E+02  0.43400727767E+02  0.00000000000E+00 0.  1.
         11    1    3    3    0    0 -0.12863758007E+02  0.16708738326E+02  0.10018438068E+02  0.23345819928E+02  0.51100000000E-03 0. -1.
        -11    1    3    3    0    0  0.14648207070E+01  0.73653156110E+01  0.12890191507E+01  0.76193926520E+01  0.51100000000E-03 0.  1.
        -12    1    3    3    0    0 -0.13561512420E+02  0.55512620299E+01  0.82613898189E+01  0.16822059653E+02  0.00000000000E+00 0.  1.
</event>
<event>
 7    1  0.3807360E-011  0.4778727E+02  0.7816164E-02  0.1312668E+00
        -11   -1    0    0    0    0  0.00000000000E+00  0.00000000000E+00  0.45593999997E+02  0.45594000000E+02  0.51100000000E-03 0. -1.
         11   -1    0    0    0    0 -0.00000000000E+00 -0.00000000000E+00 -0.45593999997E+02  0.45594000000E+02  0.51100000000E-03 0.  1.
    9900012    2    1    2    0    0  0.72518756065E+01  0.20650965443E+01  0.42740718956E+02  0.47787269817E+02  0.19999994402E+02 0.  0.
        -12    1    1    2    0    0 -0.72518756065E+01 -0.20650965443E+01 -0.42740718956E+02  0.43400730183E+02  0.00000000000E+00 0.  1.
         11    1    3    3    0    0  0.71018812716E+01 -0.21747564334E+00  0.18394814307E+02  0.19719361219E+02  0.51100000000E-03 0. -1.
        -11    1    3    3    0    0 -0.38089184924E+01 -0.15552143590E+01  0.21447918282E+02  0.21838950311E+02  0.51100000000E-03 0.  1.
         12    1    3    3    0    0  0.39589128274E+01  0.38377865467E+01  0.28979863675E+01  0.62289582868E+01  0.00000000000E+00 0. -1.
</event>
<event>
 7    1  0.3807360E-011  0.4778727E+02  0.7816164E-02  0.1312668E+00
        -11   -1    0    0    0    0  0.00000000000E+00  0.00000000000E+00  0.45593999997E+02  0.45594000000E+02  0.51100000000E-03 0. -1.
         11   -1    0    0    0    0 -0.00000000000E+00 -0.00000000000E+00 -0.45593999997E+02  0.45594000000E+02  0.51100000000E-03 0.  1.
    9900012    2    1    2    0    0 -0.11834816565E+02  0.17657178523E+02 -0.37838923043E+02  0.47787274965E+02  0.20000017875E+02 0.  0.
         12    1    1    2    0    0  0.11834816565E+02 -0.17657178523E+02  0.37838923043E+02  0.43400725035E+02  0.00000000000E+00 0. -1.
         11    1    3    3    0    0  0.47204003271E-01  0.44433935564E+01 -0.47363083877E+00  0.44688142664E+01  0.51100000000E-03 0. -1.
        -11    1    3    3    0    0 -0.10206778295E+02  0.15143426588E+02 -0.26677377331E+02  0.32329307965E+02  0.51100000000E-03 0.  1.
         12    1    3    3    0    0 -0.16752422739E+01 -0.19296416217E+01 -0.10687914873E+02  0.10989152733E+02  0.00000000000E+00 0. -1.
</event>
<event>
 7    1  0.3807360E-011  0.4778726E+02  0.7816164E-02  0.1312668E+00
        -11   -1    0    0    0    0  0.00000000000E+00  0.00000000000E+00  0.45593999997E+02  0.45594000000E+02  0.51100000000E-03 0. -1.
         11   -1    0    0    0    0 -0.00000000000E+00 -0.00000000000E+00 -0.45593999997E+02  0.45594000000E+02  0.51100000000E-03 0.  1.
    9900012    2    1    2    0    0 -0.54362234101E+01 -0.32353412042E+01  0.42937217091E+02  0.47787256121E+02  0.19999931960E+02 0.  0.
        -12    1    1    2    0    0  0.54362234101E+01  0.32353412042E+01 -0.42937217091E+02  0.43400743879E+02  0.00000000000E+00 0.  1.
         11    1    3    3    0    0 -0.95679700935E+01  0.71397388153E+00  0.13559306589E+02  0.16610557060E+02  0.51100000000E-03 0. -1.
        -11    1    3    3    0    0  0.14010064168E+01 -0.10958153423E+01  0.25757468468E+02  0.25818807339E+02  0.51100000000E-03 0.  1.
        -12    1    3    3    0    0  0.27307402666E+01 -0.28534997434E+01  0.36204420339E+01  0.53578917225E+01  0.00000000000E+00 0.  1.
</event>
<event>
 7    1  0.3807360E-011  0.4778726E+02  0.7816164E-02  0.1312668E+00
        -11   -1    0    0    0    0  0.00000000000E+00  0.00000000000E+00  0.45593999997E+02  0.45594000000E+02  0.51100000000E-03 0. -1.
         11   -1    0    0    0    0 -0.00000000000E+00 -0.00000000000E+00 -0.45593999997E+02  0.45594000000E+02  0.51100000000E-03 0.  1.
    9900012    2    1    2    0    0 -0.26635097288E+02  0.30242782532E+02 -0.16111166918E+02  0.47787262653E+02  0.19999961742E+02 0.  0.
         12    1    1    2    0    0  0.26635097288E+02 -0.30242782532E+02  0.16111166918E+02  0.43400737347E+02  0.00000000000E+00 0. -1.
         11    1    3    3    0    0 -0.10591448718E+02  0.11303804535E+02  0.17102681722E+01  0.15584601387E+02  0.51100000000E-03 0. -1.
        -11    1    3    3    0    0  0.42884164277E+00  0.45347898867E+01 -0.53111389205E+01  0.69968865480E+01  0.51100000000E-03 0.  1.
         12    1    3    3    0    0 -0.16472490213E+02  0.14404188110E+02 -0.12510296169E+02  0.25205774719E+02  0.00000000000E+00 0. -1.
</event>
<event>
 7    1  0.3807360E-011  0.4778728E+02  0.7816164E-02  0.1312668E+00
        -11   -1    0    0    0    0  0.00000000000E+00  0.00000000000E+00  0.45593999997E+02  0.45594000000E+02  0.51100000000E-03 0.  1.
         11   -1    0    0    0    0 -0.00000000000E+00 -0.00000000000E+00 -0.45593999997E+02  0.45594000000E+02  0.51100000000E-03 0. -1.
    9900012    2    1    2    0    0 -0.35234483197E+02  0.24750732218E+02  0.54364813401E+01  0.47787275573E+02  0.20000020647E+02 0.  0.
        -12    1    1    2    0    0  0.35234483197E+02 -0.24750732218E+02 -0.54364813401E+01  0.43400724427E+02  0.00000000000E+00 0.  1.
         11    1    3    3    0    0 -0.88615337373E+00  0.75931507003E+00 -0.23114769660E+01  0.25893538196E+01  0.51100000000E-03 0. -1.
        -11    1    3    3    0    0 -0.23112394565E+02  0.10089653050E+02  0.10106140533E+02  0.27168326373E+02  0.51100000000E-03 0.  1.
         12    1    3    3    0    0 -0.11235935258E+02  0.13901764098E+02 -0.23581822268E+01  0.18029595380E+02  0.00000000000E+00 0. -1.
</event>
<event>
 7    1  0.3807360E-011  0.4778728E+02  0.7816164E-02  0.1312668E+00
        -11   -1    0    0    0    0  0.00000000000E+00  0.00000000000E+00  0.45593999997E+02  0.45594000000E+02  0.51100000000E-03 0. -1.
         11   -1    0    0    0    0 -0.00000000000E+00 -0.00000000000E+00 -0.45593999997E+02  0.45594000000E+02  0.51100000000E-03 0.  1.
    9900012    2    1    2    0    0  0.35927090152E+02 -0.84858420496E+01  0.22822298452E+02  0.47787278477E+02  0.20000033887E+02 0.  0.
        -12    1    1    2    0    0 -0.35927090152E+02  0.84858420496E+01 -0.22822298452E+02  0.43400721523E+02  0.00000000000E+00 0.  1.
         11    1    3    3    0    0  0.28881853307E+02 -0.28269066892E+01  0.13262955051E+02  0.31907034159E+02  0.51100000000E-03 0. -1.
        -11    1    3    3    0    0  0.17595634173E+01 -0.30662260159E+01 -0.11006188931E+01  0.37025893114E+01  0.51100000000E-03 0.  1.
        -12    1    3    3    0    0  0.52856734274E+01 -0.25927093445E+01  0.10659962295E+02  0.12177655006E+02  0.00000000000E+00 0.  1.
</event>
<event>
 7    1  0.3807360E-011  0.4778727E+02  0.7816164E-02  0.1312668E+00
        -11   -1    0    0    0    0  0.00000000000E+00  0.00000000000E+00  0.45593999997E+02  0.45594000000E+02  0.51100000000E-03 0. -1.
         11   -1    0    0    0    0 -0.00000000000E+00 -0.00000000000E+00 -0.45593999997E+02  0.45594000000E+02  0.51100000000E-03 0.  1.
    9900012    2    1    2    0    0 -0.22609786488E+02 -0.72831729438E+01 -0.36323219159E+02  0.47787270706E+02  0.19999998459E+02 0.  0.
         12    1    1    2    0    0  0.22609786488E+02  0.72831729438E+01  0.36323219159E+02  0.43400729294E+02  0.00000000000E+00 0. -1.
         11    1    3    3    0    0 -0.10366091134E+02 -0.91609465066E+01 -0.91592191107E+01  0.16591265210E+02  0.51100000000E-03 0. -1.
        -11    1    3    3    0    0 -0.82734855858E+01 -0.30425355708E+01 -0.18250874149E+02  0.20268250884E+02  0.51100000000E-03 0.  1.
        -12    1    3    3    0    0 -0.39702097686E+01  0.49203091336E+01 -0.89131258988E+01  0.10927754612E+02  0.00000000000E+00 0.  1.
</event>
<event>
 7    1  0.3807360E-011  0.4778727E+02  0.7816164E-02  0.1312668E+00
        -11   -1    0    0    0    0  0.00000000000E+00  0.00000000000E+00  0.45593999997E+02  0.45594000000E+02  0.51100000000E-03 0. -1.
         11   -1    0    0    0    0 -0.00000000000E+00 -0.00000000000E+00 -0.45593999997E+02  0.45594000000E+02  0.51100000000E-03 0.  1.
    9900012    2    1    2    0    0 -0.97736941499E+01  0.38280709018E+02 -0.17963460003E+02  0.47787266417E+02  0.19999978901E+02 0.  0.
         12    1    1    2    0    0  0.97736941499E+01 -0.38280709018E+02  0.17963460003E+02  0.43400733583E+02  0.00000000000E+00 0. -1.
         11    1    3    3    0    0 -0.22676476948E+01  0.71645724020E+01 -0.11738827287E+02  0.13938198955E+02  0.51100000000E-03 0. -1.
        -11    1    3    3    0    0  0.13133940986E+01  0.13188561677E+02 -0.16866550433E+01  0.13360687432E+02  0.51100000000E-03 0.  1.
        -12    1    3    3    0    0 -0.88194405538E+01  0.17927574940E+02 -0.45379776728E+01  0.20488380030E+02  0.00000000000E+00 0.  1.
</event>
<event>
 7    1  0.3807360E-011  0.4778727E+02  0.7816164E-02  0.1312668E+00
        -11   -1    0    0    0    0  0.00000000000E+00  0.00000000000E+00  0.45593999997E+02  0.45594000000E+02  0.51100000000E-03 0. -1.
         11   -1    0    0    0    0 -0.00000000000E+00 -0.00000000000E+00 -0.45593999997E+02  0.45594000000E+02  0.51100000000E-03 0.  1.
    9900012    2    1    2    0    0 -0.22485774752E+02 -0.12071887667E+02 -0.35103886574E+02  0.47787269699E+02  0.19999993866E+02 0.  0.
         12    1    1    2    0    0  0.22485774752E+02  0.12071887667E+02  0.35103886574E+02  0.43400730301E+02  0.00000000000E+00 0. -1.
         11    1    3    3    0    0  0.34434452880E+00  0.35472189990E+01 -0.25899109601E+01  0.44055618057E+01  0.51100000000E-03 0. -1.
        -11    1    3    3    0    0 -0.69434621803E+01 -0.11499061510E+01 -0.59610771494E+01  0.92232528019E+01  0.51100000000E-03 0.  1.
         12    1    3    3    0    0 -0.15886657101E+02 -0.14469200515E+02 -0.26552898464E+02  0.34158455092E+02  0.00000000000E+00 0. -1.
</event>
<event>
 7    1  0.3807360E-011  0.4778726E+02  0.7816164E-02  0.1312668E+00
        -11   -1    0    0    0    0  0.00000000000E+00  0.00000000000E+00  0.45593999997E+02  0.45594000000E+02  0.51100000000E-03 0. -1.
         11   -1    0    0    0    0 -0.00000000000E+00 -0.00000000000E+00 -0.45593999997E+02  0.45594000000E+02  0.51100000000E-03 0.  1.
    9900012    2    1    2    0    0 -0.64366042391E+01 -0.16710995602E+02 -0.39533993819E+02  0.47787263654E+02  0.19999966302E+02 0.  0.
         12    1    1    2    0    0  0.64366042391E+01  0.16710995602E+02  0.39533993819E+02  0.43400736346E+02  0.00000000000E+00 0. -1.
         11    1    3    3    0    0  0.27972719381E+01 -0.64909052012E+01 -0.57845776675E+01  0.91333411016E+01  0.51100000000E-03 0. -1.
        -11    1    3    3    0    0 -0.93544757775E+01 -0.99832093292E+01 -0.34893330495E+02  0.37479530398E+02  0.51100000000E-03 0.  1.
         12    1    3    3    0    0  0.12059960032E+00 -0.23688107158E+00  0.11439143435E+01  0.11743921538E+01  0.00000000000E+00 0. -1.
</event>
<event>
 7    1  0.3807360E-011  0.4778727E+02  0.7816164E-02  0.1312668E+00
        -11   -1    0    0    0    0  0.00000000000E+00  0.00000000000E+00  0.45593999997E+02  0.45594000000E+02  0.51100000000E-03 0. -1.
         11   -1    0    0    0    0 -0.00000000000E+00 -0.00000000000E+00 -0.45593999997E+02  0.45594000000E+02  0.51100000000E-03 0.  1.
    9900012    2    1    2    0    0  0.18997527250E+02  0.20240160197E+02  0.33362452118E+02  0.47787270309E+02  0.19999996646E+02 0.  0.
        -12    1    1    2    0    0 -0.18997527250E+02 -0.20240160197E+02 -0.33362452118E+02  0.43400729691E+02  0.00000000000E+00 0.  1.
         11    1    3    3    0    0  0.73641096329E+01  0.16537859254E+02  0.21763764296E+02  0.28308873803E+02  0.51100000000E-03 0. -1.
        -11    1    3    3    0    0  0.47223980301E+01  0.24206184846E+01 -0.66004158797E+00  0.53475314082E+01  0.51100000000E-03 0.  1.
        -12    1    3    3    0    0  0.69110195867E+01  0.12816824578E+01  0.12258729411E+02  0.14130865098E+02  0.00000000000E+00 0.  1.
</event>
<event>
 7    1  0.3807360E-011  0.4778727E+02  0.7816164E-02  0.1312668E+00
        -11   -1    0    0    0    0  0.00000000000E+00  0.00000000000E+00  0.45593999997E+02  0.45594000000E+02  0.51100000000E-03 0. -1.
         11   -1    0    0    0    0 -0.00000000000E+00 -0.00000000000E+00 -0.45593999997E+02  0.45594000000E+02  0.51100000000E-03 0.  1.
    9900012    2    1    2    0    0 -0.22339832399E+01  0.92992882257E+01 -0.42333863102E+02  0.47787269502E+02  0.19999992965E+02 0.  0.
         12    1    1    2    0    0  0.22339832399E+01 -0.92992882257E+01  0.42333863102E+02  0.43400730498E+02  0.00000000000E+00 0. -1.
         11    1    3    3    0    0 -0.13783140537E+01 -0.17445642956E+01 -0.12967942305E+02  0.13157157068E+02  0.51100000000E-03 0. -1.
        -11    1    3    3    0    0  0.31513354729E+01 -0.92323476050E+00 -0.76948886458E+00  0.33727423648E+01  0.51100000000E-03 0.  1.
        -12    1    3    3    0    0 -0.40070046590E+01  0.11967087282E+02 -0.28596431933E+02  0.31257370069E+02  0.00000000000E+00 0.  1.
</event>
<event>
 7    1  0.3807360E-011  0.4778727E+02  0.7816164E-02  0.1312668E+00
        -11   -1    0    0    0    0  0.00000000000E+00  0.00000000000E+00  0.45593999997E+02  0.45594000000E+02  0.51100000000E-03 0. -1.
         11   -1    0    0    0    0 -0.00000000000E+00 -0.00000000000E+00 -0.45593999997E+02  0.45594000000E+02  0.51100000000E-03 0.  1.
    9900012    2    1    2    0    0  0.36828796022E+02  0.22338732384E+02  0.53145095815E+01  0.47787271975E+02  0.20000004245E+02 0.  0.
        -12    1    1    2    0    0 -0.36828796022E+02 -0.22338732384E+02 -0.53145095815E+01  0.43400728025E+02  0.00000000000E+00 0.  1.
         11    1    3    3    0    0  0.33734564108E+02  0.13268972679E+02  0.34324700954E+01  0.36412474548E+02  0.51100000000E-03 0. -1.
        -11    1    3    3    0    0  0.60975401374E+00  0.35410762990E+01 -0.20624798413E+01  0.41430477513E+01  0.51100000000E-03 0.  1.
        -12    1    3    3    0    0  0.24844779001E+01  0.55286834067E+01  0.39445193274E+01  0.72317496757E+01  0.00000000000E+00 0.  1.
</event>
<event>
 7    1  0.3807360E-011  0.4778727E+02  0.7816164E-02  0.1312668E+00
        -11   -1    0    0    0    0  0.00000000000E+00  0.00000000000E+00  0.45593999997E+02  0.45594000000E+02  0.51100000000E-03 0. -1.
         11   -1    0    0    0    0 -0.00000000000E+00 -0.00000000000E+00 -0.45593999997E+02  0.45594000000E+02  0.51100000000E-03 0.  1.
    9900012    2    1    2    0    0 -0.60530587680E+01 -0.12030802089E+02 -0.41258257036E+02  0.47787268520E+02  0.19999988488E+02 0.  0.
         12    1    1    2    0    0  0.60530587680E+01  0.12030802089E+02  0.41258257036E+02  0.43400731480E+02  0.00000000000E+00 0. -1.
         11    1    3    3    0    0 -0.12492765615E+01 -0.11364488420E+02 -0.18173729520E+02  0.21470834495E+02  0.51100000000E-03 0. -1.
        -11    1    3    3    0    0  0.24761717957E+01 -0.25194537592E+01 -0.22982814343E+01  0.42144005290E+01  0.51100000000E-03 0.  1.
        -12    1    3    3    0    0 -0.72799540022E+01  0.18531400898E+01 -0.20786246082E+02  0.22102033496E+02  0.00000000000E+00 0.  1.
</event>
<event>
 7    1  0.3807360E-011  0.4778727E+02  0.7816164E-02  0.1312668E+00
        -11   -1    0    0    0    0  0.00000000000E+00  0.00000000000E+00  0.45593999997E+02  0.45594000000E+02  0.51100000000E-03 0. -1.
         11   -1    0    0    0    0 -0.00000000000E+00 -0.00000000000E+00 -0.45593999997E+02  0.45594000000E+02  0.51100000000E-03 0.  1.
    9900012    2    1    2    0    0  0.36466909599E+02 -0.10757762750E+02 -0.20929842010E+02  0.47787271416E+02  0.20000001693E+02 0.  0.
         12    1    1    2    0    0 -0.36466909599E+02  0.10757762750E+02  0.20929842010E+02  0.43400728584E+02  0.00000000000E+00 0. -1.
         11    1    3    3    0    0  0.14424174664E+02 -0.26719433422E+01 -0.78586491013E+01  0.16641948862E+02  0.51100000000E-03 0.  1.
        -11    1    3    3    0    0 -0.54379702115E+00 -0.50357406347E+00  0.25500598152E+01  0.26555804187E+01  0.51100000000E-03 0. -1.
         12    1    3    3    0    0  0.22586531956E+02 -0.75822453444E+01 -0.15621252724E+02  0.28489742135E+02  0.00000000000E+00 0. -1.
</event>
<event>
 7    1  0.3807360E-011  0.4778727E+02  0.7816164E-02  0.1312668E+00
        -11   -1    0    0    0    0  0.00000000000E+00  0.00000000000E+00  0.45593999997E+02  0.45594000000E+02  0.51100000000E-03 0. -1.
         11   -1    0    0    0    0 -0.00000000000E+00 -0.00000000000E+00 -0.45593999997E+02  0.45594000000E+02  0.51100000000E-03 0.  1.
    9900012    2    1    2    0    0 -0.28203859819E+02 -0.24390803555E+02 -0.22209333217E+02  0.47787268569E+02  0.19999988715E+02 0.  0.
         12    1    1    2    0    0  0.28203859819E+02  0.24390803555E+02  0.22209333217E+02  0.43400731431E+02  0.00000000000E+00 0. -1.
         11    1    3    3    0    0 -0.12712264947E+02 -0.45925395061E+01 -0.57498843366E+01  0.14688576151E+02  0.51100000000E-03 0. -1.
        -11    1    3    3    0    0  0.18883055101E+01 -0.44184386584E+01 -0.58791954372E+01  0.75929728781E+01  0.51100000000E-03 0.  1.
        -12    1    3    3    0    0 -0.17379900383E+02 -0.15379825390E+02 -0.10580253443E+02  0.25505719540E+02  0.00000000000E+00 0.  1.
</event>
<event>
 7    1  0.3807360E-011  0.4778729E+02  0.7816164E-02  0.1312668E+00
        -11   -1    0    0    0    0  0.00000000000E+00  0.00000000000E+00  0.45593999997E+02  0.45594000000E+02  0.51100000000E-03 0. -1.
         11   -1    0    0    0    0 -0.00000000000E+00 -0.00000000000E+00 -0.45593999997E+02  0.45594000000E+02  0.51100000000E-03 0.  1.
    9900012    2    1    2    0    0 -0.40042847093E+01 -0.10265918533E+02  0.41978547126E+02  0.47787288045E+02  0.20000077514E+02 0.  0.
        -12    1    1    2    0    0  0.40042847093E+01  0.10265918533E+02 -0.41978547126E+02  0.43400711955E+02  0.00000000000E+00 0.  1.
         11    1    3    3    0    0  0.25937159640E+01 -0.65534619703E+01  0.22513331856E+02  0.23590789258E+02  0.51100000000E-03 0. -1.
        -11    1    3    3    0    0 -0.64757319440E+01  0.30638366346E+01  0.12927328289E+02  0.14779648713E+02  0.51100000000E-03 0.  1.
         12    1    3    3    0    0 -0.12226872930E+00 -0.67762931976E+01  0.65378869806E+01  0.94168500738E+01  0.00000000000E+00 0. -1.
</event>
<event>
 7    1  0.3807360E-011  0.4778727E+02  0.7816164E-02  0.1312668E+00
        -11   -1    0    0    0    0  0.00000000000E+00  0.00000000000E+00  0.45593999997E+02  0.45594000000E+02  0.51100000000E-03 0. -1.
         11   -1    0    0    0    0 -0.00000000000E+00 -0.00000000000E+00 -0.45593999997E+02  0.45594000000E+02  0.51100000000E-03 0.  1.
    9900012    2    1    2    0    0  0.37883013155E+02 -0.10291095828E+01  0.21152810326E+02  0.47787272622E+02  0.20000007194E+02 0.  0.
        -12    1    1    2    0    0 -0.37883013155E+02  0.10291095828E+01 -0.21152810326E+02  0.43400727378E+02  0.00000000000E+00 0.  1.
         11    1    3    3    0    0  0.20092516486E+02 -0.78102699032E+01  0.62960347847E+01  0.22457728936E+02  0.51100000000E-03 0. -1.
        -11    1    3    3    0    0  0.15542099937E+02  0.66999043940E+01  0.92484623345E+01  0.19286773840E+02  0.51100000000E-03 0.  1.
        -12    1    3    3    0    0  0.22483967321E+01  0.81255926462E-01  0.56083132063E+01  0.60427698458E+01  0.00000000000E+00 0.  1.
</event>
<event>
 7    1  0.3807360E-011  0.4778726E+02  0.7816164E-02  0.1312668E+00
        -11   -1    0    0    0    0  0.00000000000E+00  0.00000000000E+00  0.45593999997E+02  0.45594000000E+02  0.51100000000E-03 0. -1.
         11   -1    0    0    0    0 -0.00000000000E+00 -0.00000000000E+00 -0.45593999997E+02  0.45594000000E+02  0.51100000000E-03 0.  1.
    9900012    2    1    2    0    0  0.29978542647E+02  0.25620297555E+02  0.18124876802E+02  0.47787264693E+02  0.19999971043E+02 0.  0.
        -12    1    1    2    0    0 -0.29978542647E+02 -0.25620297555E+02 -0.18124876802E+02  0.43400735307E+02  0.00000000000E+00 0.  1.
         11    1    3    3    0    0  0.16226320266E+02  0.12663726442E+02  0.16552308394E+02  0.26412920138E+02  0.51100000000E-03 0. -1.
        -11    1    3    3    0    0  0.11127094306E+02  0.38508423109E+01  0.40192315011E-01  0.11774668992E+02  0.51100000000E-03 0.  1.
        -12    1    3    3    0    0  0.26251280754E+01  0.91057288020E+01  0.15323760932E+01  0.95996755632E+01  0.00000000000E+00 0.  1.
</event>
<event>
 7    1  0.3807360E-011  0.4778727E+02  0.7816164E-02  0.1312668E+00
        -11   -1    0    0    0    0  0.00000000000E+00  0.00000000000E+00  0.45593999997E+02  0.45594000000E+02  0.51100000000E-03 0. -1.
         11   -1    0    0    0    0 -0.00000000000E+00 -0.00000000000E+00 -0.45593999997E+02  0.45594000000E+02  0.51100000000E-03 0.  1.
    9900012    2    1    2    0    0 -0.15754088294E+02  0.15148318864E+02  0.37496144485E+02  0.47787265978E+02  0.19999976900E+02 0.  0.
        -12    1    1    2    0    0  0.15754088294E+02 -0.15148318864E+02 -0.37496144485E+02  0.43400734022E+02  0.00000000000E+00 0.  1.
         11    1    3    3    0    0 -0.16780187779E+01 -0.11486974016E+01 -0.17498648432E+00  0.20410471014E+01  0.51100000000E-03 0. -1.
        -11    1    3    3    0    0 -0.56054991613E+01  0.91475093140E+01  0.31011919765E+02  0.32815205550E+02  0.51100000000E-03 0.  1.
         12    1    3    3    0    0 -0.84705703546E+01  0.71495069520E+01  0.66592112048E+01  0.12931013327E+02  0.00000000000E+00 0. -1.
</event>
<event>
 7    1  0.3807360E-011  0.4778723E+02  0.7816164E-02  0.1312668E+00
        -11   -1    0    0    0    0  0.00000000000E+00  0.00000000000E+00  0.45593999997E+02  0.45594000000E+02  0.51100000000E-03 0. -1.
         11   -1    0    0    0    0 -0.00000000000E+00 -0.00000000000E+00 -0.45593999997E+02  0.45594000000E+02  0.51100000000E-03 0.  1.
    9900012    2    1    2    0    0  0.75086661858E+01  0.33982442004E+02  0.25931451398E+02  0.47787232679E+02  0.19999825076E+02 0.  0.
        -12    1    1    2    0    0 -0.75086661858E+01 -0.33982442004E+02 -0.25931451398E+02  0.43400767321E+02  0.00000000000E+00 0.  1.
         11    1    3    3    0    0  0.58424046970E+01  0.79600294058E+01  0.53320440567E+01  0.11221695722E+02  0.51100000000E-03 0. -1.
        -11    1    3    3    0    0 -0.61831969268E+01  0.17682048157E+02  0.13512378245E+02  0.23096993687E+02  0.51100000000E-03 0.  1.
        -12    1    3    3    0    0  0.78494584155E+01  0.83403644405E+01  0.70870290962E+01  0.13468543270E+02  0.00000000000E+00 0.  1.
</event>
<event>
 7    1  0.3807360E-011  0.4778727E+02  0.7816164E-02  0.1312668E+00
        -11   -1    0    0    0    0  0.00000000000E+00  0.00000000000E+00  0.45593999997E+02  0.45594000000E+02  0.51100000000E-03 0. -1.
         11   -1    0    0    0    0 -0.00000000000E+00 -0.00000000000E+00 -0.45593999997E+02  0.45594000000E+02  0.51100000000E-03 0.  1.
    9900012    2    1    2    0    0 -0.23982473727E+02  0.34146634530E+02  0.11936145721E+02  0.47787271084E+02  0.20000000179E+02 0.  0.
        -12    1    1    2    0    0  0.23982473727E+02 -0.34146634530E+02 -0.11936145721E+02  0.43400728916E+02  0.00000000000E+00 0.  1.
         11    1    3    3    0    0 -0.15271872367E+02  0.29959851982E+02  0.15555954640E+02  0.37051458020E+02  0.51100000000E-03 0. -1.
        -11    1    3    3    0    0 -0.43462319466E+01  0.35728881002E+01 -0.13850205257E+01  0.57942681701E+01  0.51100000000E-03 0.  1.
         12    1    3    3    0    0 -0.43643694138E+01  0.61389444752E+00 -0.22347883930E+01  0.49415448935E+01  0.00000000000E+00 0. -1.
</event>
<event>
 7    1  0.3807360E-011  0.4778727E+02  0.7816164E-02  0.1312668E+00
        -11   -1    0    0    0    0  0.00000000000E+00  0.00000000000E+00  0.45593999997E+02  0.45594000000E+02  0.51100000000E-03 0. -1.
         11   -1    0    0    0    0 -0.00000000000E+00 -0.00000000000E+00 -0.45593999997E+02  0.45594000000E+02  0.51100000000E-03 0.  1.
    9900012    2    1    2    0    0  0.88206165681E+01  0.98262257769E+01 -0.41343261775E+02  0.47787270930E+02  0.19999999478E+02 0.  0.
         12    1    1    2    0    0 -0.88206165681E+01 -0.98262257769E+01  0.41343261775E+02  0.43400729070E+02  0.00000000000E+00 0. -1.
         11    1    3    3    0    0  0.24514762246E+01  0.39519875038E+01 -0.18168406232E+02  0.18754170901E+02  0.51100000000E-03 0. -1.
        -11    1    3    3    0    0 -0.25626937375E+01  0.25219594271E+01 -0.17641860441E+02  0.18004524948E+02  0.51100000000E-03 0.  1.
         12    1    3    3    0    0  0.89318340810E+01  0.33522788460E+01 -0.55329951018E+01  0.11028575081E+02  0.00000000000E+00 0. -1.
</event>
<event>
 7    1  0.3807360E-011  0.4778727E+02  0.7816164E-02  0.1312668E+00
        -11   -1    0    0    0    0  0.00000000000E+00  0.00000000000E+00  0.45593999997E+02  0.45594000000E+02  0.51100000000E-03 0. -1.
         11   -1    0    0    0    0 -0.00000000000E+00 -0.00000000000E+00 -0.45593999997E+02  0.45594000000E+02  0.51100000000E-03 0.  1.
    9900012    2    1    2    0    0  0.24109399226E+02  0.27688816387E+00  0.36087164336E+02  0.47787271574E+02  0.20000002414E+02 0.  0.
        -12    1    1    2    0    0 -0.24109399226E+02 -0.27688816387E+00 -0.36087164336E+02  0.43400728426E+02  0.00000000000E+00 0.  1.
         11    1    3    3    0    0  0.10401684456E+02 -0.47719187599E+01  0.14403389094E+02  0.18396300330E+02  0.51100000000E-03 0. -1.
        -11    1    3    3    0    0  0.14412630360E+02  0.49014893805E+01  0.11241899142E+02  0.18924291496E+02  0.51100000000E-03 0.  1.
        -12    1    3    3    0    0 -0.70491559098E+00  0.14731754323E+00  0.10441876100E+02  0.10466679748E+02  0.00000000000E+00 0.  1.
</event>
<event>
 7    1  0.3807360E-011  0.4778727E+02  0.7816164E-02  0.1312668E+00
        -11   -1    0    0    0    0  0.00000000000E+00  0.00000000000E+00  0.45593999997E+02  0.45594000000E+02  0.51100000000E-03 0. -1.
         11   -1    0    0    0    0 -0.00000000000E+00 -0.00000000000E+00 -0.45593999997E+02  0.45594000000E+02  0.51100000000E-03 0.  1.
    9900012    2    1    2    0    0 -0.10690367954E+02  0.11118648834E+02 -0.40567413632E+02  0.47787269964E+02  0.19999995072E+02 0.  0.
         12    1    1    2    0    0  0.10690367954E+02 -0.11118648834E+02  0.40567413632E+02  0.43400730036E+02  0.00000000000E+00 0. -1.
         11    1    3    3    0    0 -0.74312285110E+01  0.13872502021E+02 -0.39019854478E+02  0.42073964791E+02  0.51100000000E-03 0.  1.
        -11    1    3    3    0    0 -0.25179910640E+01  0.94993901037E-01 -0.38801246787E+00  0.25494816681E+01  0.51100000000E-03 0. -1.
        -12    1    3    3    0    0 -0.74114837853E+00 -0.28488470880E+01 -0.11595466867E+01  0.31638235047E+01  0.00000000000E+00 0.  1.
</event>
<event>
 7    1  0.3807360E-011  0.4778727E+02  0.7816164E-02  0.1312668E+00
        -11   -1    0    0    0    0  0.00000000000E+00  0.00000000000E+00  0.45593999997E+02  0.45594000000E+02  0.51100000000E-03 0. -1.
         11   -1    0    0    0    0 -0.00000000000E+00 -0.00000000000E+00 -0.45593999997E+02  0.45594000000E+02  0.51100000000E-03 0.  1.
    9900012    2    1    2    0    0  0.37086785414E+01  0.96957152099E+01 -0.42140975605E+02  0.47787274028E+02  0.20000013602E+02 0.  0.
         12    1    1    2    0    0 -0.37086785414E+01 -0.96957152099E+01  0.42140975605E+02  0.43400725972E+02  0.00000000000E+00 0. -1.
         11    1    3    3    0    0  0.20884064185E+01 -0.32746440795E+01 -0.10177530782E+02  0.10893432347E+02  0.51100000000E-03 0. -1.
        -11    1    3    3    0    0  0.25744694794E+01  0.42904551579E+01 -0.25611704127E+02  0.26095886402E+02  0.51100000000E-03 0.  1.
         12    1    3    3    0    0 -0.95419735651E+00  0.86799041315E+01 -0.63517406964E+01  0.10797955279E+02  0.00000000000E+00 0. -1.
</event>
<event>
 7    1  0.3807360E-011  0.4778727E+02  0.7816164E-02  0.1312668E+00
        -11   -1    0    0    0    0  0.00000000000E+00  0.00000000000E+00  0.45593999997E+02  0.45594000000E+02  0.51100000000E-03 0. -1.
         11   -1    0    0    0    0 -0.00000000000E+00 -0.00000000000E+00 -0.45593999997E+02  0.45594000000E+02  0.51100000000E-03 0.  1.
    9900012    2    1    2    0    0  0.16562377268E+02  0.39299792937E+02  0.80521548517E+01  0.47787271165E+02  0.20000000548E+02 0.  0.
        -12    1    1    2    0    0 -0.16562377268E+02 -0.39299792937E+02 -0.80521548517E+01  0.43400728835E+02  0.00000000000E+00 0.  1.
         11    1    3    3    0    0  0.15819126505E+02  0.19330180861E+02  0.37971913349E+01  0.25264982046E+02  0.51100000000E-03 0. -1.
        -11    1    3    3    0    0  0.88671884901E+00  0.67705917943E+01  0.61469192030E+01  0.91875894287E+01  0.51100000000E-03 0.  1.
         12    1    3    3    0    0 -0.14346808603E+00  0.13199020282E+02 -0.18919556861E+01  0.13334699690E+02  0.00000000000E+00 0. -1.
</event>
<event>
 7    1  0.3807360E-011  0.4778727E+02  0.7816164E-02  0.1312668E+00
        -11   -1    0    0    0    0  0.00000000000E+00  0.00000000000E+00  0.45593999997E+02  0.45594000000E+02  0.51100000000E-03 0. -1.
         11   -1    0    0    0    0 -0.00000000000E+00 -0.00000000000E+00 -0.45593999997E+02  0.45594000000E+02  0.51100000000E-03 0.  1.
    9900012    2    1    2    0    0 -0.19192742916E+02 -0.25255583149E+02 -0.29621234370E+02  0.47787269748E+02  0.19999994087E+02 0.  0.
         12    1    1    2    0    0  0.19192742916E+02  0.25255583149E+02  0.29621234370E+02  0.43400730252E+02  0.00000000000E+00 0. -1.
         11    1    3    3    0    0 -0.12271610745E+01 -0.35324264073E+01 -0.82235057331E+01  0.90338257360E+01  0.51100000000E-03 0.  1.
        -11    1    3    3    0    0 -0.15295895327E+02 -0.20896287610E+02 -0.23721491605E+02  0.35118775804E+02  0.51100000000E-03 0. -1.
         12    1    3    3    0    0 -0.26696865139E+01 -0.82686913145E+00  0.23237629682E+01  0.36346682071E+01  0.00000000000E+00 0. -1.
</event>
<event>
 7    1  0.3807360E-011  0.4778727E+02  0.7816164E-02  0.1312668E+00
        -11   -1    0    0    0    0  0.00000000000E+00  0.00000000000E+00  0.45593999997E+02  0.45594000000E+02  0.51100000000E-03 0. -1.
         11   -1    0    0    0    0 -0.00000000000E+00 -0.00000000000E+00 -0.45593999997E+02  0.45594000000E+02  0.51100000000E-03 0.  1.
    9900012    2    1    2    0    0 -0.63212747131E+01  0.26409527672E+02 -0.33855600448E+02  0.47787270195E+02  0.19999996128E+02 0.  0.
         12    1    1    2    0    0  0.63212747131E+01 -0.26409527672E+02  0.33855600448E+02  0.43400729805E+02  0.00000000000E+00 0. -1.
         11    1    3    3    0    0 -0.40627449336E+00  0.10755952809E+02 -0.52947577600E+01  0.11995417449E+02  0.51100000000E-03 0. -1.
        -11    1    3    3    0    0  0.34375276898E+01  0.59638909542E+01 -0.15821165223E+02  0.17253807151E+02  0.51100000000E-03 0.  1.
         12    1    3    3    0    0 -0.93525279095E+01  0.96896839092E+01 -0.12739677465E+02  0.18538045595E+02  0.00000000000E+00 0. -1.
</event>
<event>
 7    1  0.3807360E-011  0.4778727E+02  0.7816164E-02  0.1312668E+00
        -11   -1    0    0    0    0  0.00000000000E+00  0.00000000000E+00  0.45593999997E+02  0.45594000000E+02  0.51100000000E-03 0. -1.
         11   -1    0    0    0    0 -0.00000000000E+00 -0.00000000000E+00 -0.45593999997E+02  0.45594000000E+02  0.51100000000E-03 0.  1.
    9900012    2    1    2    0    0 -0.17082490771E+02 -0.21934194170E+02 -0.33327212239E+02  0.47787269125E+02  0.19999991251E+02 0.  0.
         12    1    1    2    0    0  0.17082490771E+02  0.21934194170E+02  0.33327212239E+02  0.43400730875E+02  0.00000000000E+00 0. -1.
         11    1    3    3    0    0  0.19997852913E+01 -0.46687928624E+00 -0.10636483640E+01  0.23126749842E+01  0.51100000000E-03 0. -1.
        -11    1    3    3    0    0 -0.95937547427E+01 -0.17776860079E+02 -0.27785225183E+02  0.34352228793E+02  0.51100000000E-03 0.  1.
         12    1    3    3    0    0 -0.94885213199E+01 -0.36904548047E+01 -0.44783386924E+01  0.11122365349E+02  0.00000000000E+00 0. -1.
</event>
<event>
 7    1  0.3807360E-011  0.4778728E+02  0.7816164E-02  0.1312668E+00
        -11   -1    0    0    0    0  0.00000000000E+00  0.00000000000E+00  0.45593999997E+02  0.45594000000E+02  0.51100000000E-03 0. -1.
         11   -1    0    0    0    0 -0.00000000000E+00 -0.00000000000E+00 -0.45593999997E+02  0.45594000000E+02  0.51100000000E-03 0.  1.
    9900012    2    1    2    0    0  0.36617451658E+01  0.16043029178E+02 -0.40160126430E+02  0.47787275147E+02  0.20000018707E+02 0.  0.
         12    1    1    2    0    0 -0.36617451658E+01 -0.16043029178E+02  0.40160126430E+02  0.43400724853E+02  0.00000000000E+00 0. -1.
         11    1    3    3    0    0  0.41632870290E+01  0.60071999035E+01 -0.10291405624E+02  0.12622695415E+02  0.51100000000E-03 0. -1.
        -11    1    3    3    0    0 -0.79713703942E+01  0.63203836263E+01 -0.15222109453E+02  0.18308539308E+02  0.51100000000E-03 0.  1.
        -12    1    3    3    0    0  0.74698285311E+01  0.37154456480E+01 -0.14646611353E+02  0.16856040424E+02  0.00000000000E+00 0.  1.
</event>
<event>
 7    1  0.3807360E-011  0.4778727E+02  0.7816164E-02  0.1312668E+00
        -11   -1    0    0    0    0  0.00000000000E+00  0.00000000000E+00  0.45593999997E+02  0.45594000000E+02  0.51100000000E-03 0. -1.
         11   -1    0    0    0    0 -0.00000000000E+00 -0.00000000000E+00 -0.45593999997E+02  0.45594000000E+02  0.51100000000E-03 0.  1.
    9900012    2    1    2    0    0 -0.14613814383E+02 -0.11120913955E+02 -0.39324102305E+02  0.47787270512E+02  0.19999997571E+02 0.  0.
         12    1    1    2    0    0  0.14613814383E+02  0.11120913955E+02  0.39324102305E+02  0.43400729488E+02  0.00000000000E+00 0. -1.
         11    1    3    3    0    0 -0.43874722010E+01 -0.12093321858E+02 -0.18531814161E+02  0.22559398978E+02  0.51100000000E-03 0. -1.
        -11    1    3    3    0    0 -0.10252219576E+02 -0.22419900401E+01 -0.12422414180E+02  0.16261946375E+02  0.51100000000E-03 0.  1.
        -12    1    3    3    0    0  0.25877394486E-01  0.32143979437E+01 -0.83698739638E+01  0.89659251586E+01  0.00000000000E+00 0.  1.
</event>
<event>
 7    1  0.3807360E-011  0.4778727E+02  0.7816164E-02  0.1312668E+00
        -11   -1    0    0    0    0  0.00000000000E+00  0.00000000000E+00  0.45593999997E+02  0.45594000000E+02  0.51100000000E-03 0. -1.
         11   -1    0    0    0    0 -0.00000000000E+00 -0.00000000000E+00 -0.45593999997E+02  0.45594000000E+02  0.51100000000E-03 0.  1.
    9900012    2    1    2    0    0  0.17581941132E+02 -0.12649978572E+02  0.37609525567E+02  0.47787273909E+02  0.20000013061E+02 0.  0.
        -12    1    1    2    0    0 -0.17581941132E+02  0.12649978572E+02 -0.37609525567E+02  0.43400726091E+02  0.00000000000E+00 0.  1.
         11    1    3    3    0    0  0.28594143884E+01 -0.60210632756E+01  0.36590129459E+01  0.76038036280E+01  0.51100000000E-03 0. -1.
        -11    1    3    3    0    0 -0.11978997201E+01 -0.53797887610E+01  0.80666528090E+01  0.97697481367E+01  0.51100000000E-03 0.  1.
         12    1    3    3    0    0  0.15920426463E+02 -0.12491265351E+01  0.25883859812E+02  0.30413722144E+02  0.00000000000E+00 0. -1.
</event>
<event>
 7    1  0.3807360E-011  0.4778727E+02  0.7816164E-02  0.1312668E+00
        -11   -1    0    0    0    0  0.00000000000E+00  0.00000000000E+00  0.45593999997E+02  0.45594000000E+02  0.51100000000E-03 0. -1.
         11   -1    0    0    0    0 -0.00000000000E+00 -0.00000000000E+00 -0.45593999997E+02  0.45594000000E+02  0.51100000000E-03 0.  1.
    9900012    2    1    2    0    0  0.65689146368E+01  0.23276598780E+02  0.36037106828E+02  0.47787265457E+02  0.19999974527E+02 0.  0.
        -12    1    1    2    0    0 -0.65689146368E+01 -0.23276598780E+02 -0.36037106828E+02  0.43400734543E+02  0.00000000000E+00 0.  1.
         11    1    3    3    0    0  0.72355965382E+01  0.62308094872E+01  0.66962848210E+01  0.11662635842E+02  0.51100000000E-03 0. -1.
        -11    1    3    3    0    0  0.40266034809E+01  0.25993577901E+01  0.12797965009E+02  0.13665946917E+02  0.51100000000E-03 0.  1.
         12    1    3    3    0    0 -0.46932853823E+01  0.14446431503E+02  0.16542856998E+02  0.22458682698E+02  0.00000000000E+00 0. -1.
</event>
<event>
 7    1  0.3807360E-011  0.4778727E+02  0.7816164E-02  0.1312668E+00
        -11   -1    0    0    0    0  0.00000000000E+00  0.00000000000E+00  0.45593999997E+02  0.45594000000E+02  0.51100000000E-03 0. -1.
         11   -1    0    0    0    0 -0.00000000000E+00 -0.00000000000E+00 -0.45593999997E+02  0.45594000000E+02  0.51100000000E-03 0.  1.
    9900012    2    1    2    0    0 -0.34422718548E+02 -0.18512847482E+02 -0.18867271035E+02  0.47787274310E+02  0.20000014888E+02 0.  0.
         12    1    1    2    0    0  0.34422718548E+02  0.18512847482E+02  0.18867271035E+02  0.43400725690E+02  0.00000000000E+00 0. -1.
         11    1    3    3    0    0 -0.17523109177E+02 -0.76061770069E+01 -0.19537752330E+02  0.27324660112E+02  0.51100000000E-03 0. -1.
        -11    1    3    3    0    0 -0.50029595401E+01 -0.15420318383E+01  0.94535450439E+00  0.53198836219E+01  0.51100000000E-03 0.  1.
        -12    1    3    3    0    0 -0.11896649832E+02 -0.93646386368E+01 -0.27487320916E+00  0.15142730576E+02  0.00000000000E+00 0.  1.
</event>
<event>
 7    1  0.3807360E-011  0.4778727E+02  0.7816164E-02  0.1312668E+00
        -11   -1    0    0    0    0  0.00000000000E+00  0.00000000000E+00  0.45593999997E+02  0.45594000000E+02  0.51100000000E-03 0. -1.
         11   -1    0    0    0    0 -0.00000000000E+00 -0.00000000000E+00 -0.45593999997E+02  0.45594000000E+02  0.51100000000E-03 0.  1.
    9900012    2    1    2    0    0 -0.32809471757E+01  0.17350745289E+01  0.43241742740E+02  0.47787269439E+02  0.19999992681E+02 0.  0.
        -12    1    1    2    0    0  0.32809471757E+01 -0.17350745289E+01 -0.43241742740E+02  0.43400730561E+02  0.00000000000E+00 0.  1.
         11    1    3    3    0    0 -0.47400254556E+01  0.38753128846E+01  0.17533039706E+02  0.18571305093E+02  0.51100000000E-03 0. -1.
        -11    1    3    3    0    0  0.26787725066E+00 -0.53588502678E+01  0.25177807119E+02  0.25743173969E+02  0.51100000000E-03 0.  1.
        -12    1    3    3    0    0  0.11912010292E+01  0.32186119121E+01  0.53089591579E+00  0.34727903775E+01  0.00000000000E+00 0.  1.
</event>
<event>
 7    1  0.3807360E-011  0.4778727E+02  0.7816164E-02  0.1312668E+00
        -11   -1    0    0    0    0  0.00000000000E+00  0.00000000000E+00  0.45593999997E+02  0.45594000000E+02  0.51100000000E-03 0. -1.
         11   -1    0    0    0    0 -0.00000000000E+00 -0.00000000000E+00 -0.45593999997E+02  0.45594000000E+02  0.51100000000E-03 0.  1.
    9900012    2    1    2    0    0  0.22240531390E+02 -0.56425768089E+00  0.37264775679E+02  0.47787272706E+02  0.20000007576E+02 0.  0.
        -12    1    1    2    0    0 -0.22240531390E+02  0.56425768089E+00 -0.37264775679E+02  0.43400727294E+02  0.00000000000E+00 0.  1.
         11    1    3    3    0    0  0.15700284598E+02  0.20549196029E+01  0.30741856257E+02  0.34580100598E+02  0.51100000000E-03 0.  1.
        -11    1    3    3    0    0 -0.27927024040E+00 -0.30896398070E+01  0.54732972859E+01  0.62913312935E+01  0.51100000000E-03 0. -1.
        -12    1    3    3    0    0  0.68195170322E+01  0.47046252322E+00  0.10496221365E+01  0.69158408142E+01  0.00000000000E+00 0.  1.
</event>
<event>
 7    1  0.3807360E-011  0.4778727E+02  0.7816164E-02  0.1312668E+00
        -11   -1    0    0    0    0  0.00000000000E+00  0.00000000000E+00  0.45593999997E+02  0.45594000000E+02  0.51100000000E-03 0.  1.
         11   -1    0    0    0    0 -0.00000000000E+00 -0.00000000000E+00 -0.45593999997E+02  0.45594000000E+02  0.51100000000E-03 0. -1.
    9900012    2    1    2    0    0  0.73862653779E+01 -0.17267742123E+02  0.39126604525E+02  0.47787274016E+02  0.20000013550E+02 0.  0.
        -12    1    1    2    0    0 -0.73862653779E+01  0.17267742123E+02 -0.39126604525E+02  0.43400725984E+02  0.00000000000E+00 0.  1.
         11    1    3    3    0    0  0.13440782743E+01 -0.79490041748E+01  0.62792063727E+01  0.10218691047E+02  0.51100000000E-03 0. -1.
        -11    1    3    3    0    0  0.50710860052E+01  0.29346842625E+01  0.89878297262E+01  0.10728903413E+02  0.51100000000E-03 0.  1.
         12    1    3    3    0    0  0.97110109846E+00 -0.12253422211E+02  0.23859568426E+02  0.26839679557E+02  0.00000000000E+00 0. -1.
</event>
<event>
 7    1  0.3807360E-011  0.4778727E+02  0.7816164E-02  0.1312668E+00
        -11   -1    0    0    0    0  0.00000000000E+00  0.00000000000E+00  0.45593999997E+02  0.45594000000E+02  0.51100000000E-03 0. -1.
         11   -1    0    0    0    0 -0.00000000000E+00 -0.00000000000E+00 -0.45593999997E+02  0.45594000000E+02  0.51100000000E-03 0.  1.
    9900012    2    1    2    0    0 -0.15134128900E+02 -0.38148099204E+02 -0.14117503929E+02  0.47787271347E+02  0.20000001378E+02 0.  0.
         12    1    1    2    0    0  0.15134128900E+02  0.38148099204E+02  0.14117503929E+02  0.43400728653E+02  0.00000000000E+00 0. -1.
         11    1    3    3    0    0 -0.29993392468E+01 -0.18247482416E+02 -0.67057405650E+00  0.18504494596E+02  0.51100000000E-03 0. -1.
        -11    1    3    3    0    0 -0.68688583214E+01 -0.19018026757E+02 -0.12733892008E+02  0.23895994691E+02  0.51100000000E-03 0.  1.
        -12    1    3    3    0    0 -0.52659313318E+01 -0.88259003142E+00 -0.71303786534E+00  0.53867820591E+01  0.00000000000E+00 0.  1.
</event>
<event>
 7    1  0.3807360E-011  0.4778727E+02  0.7816164E-02  0.1312668E+00
        -11   -1    0    0    0    0  0.00000000000E+00  0.00000000000E+00  0.45593999997E+02  0.45594000000E+02  0.51100000000E-03 0.  1.
         11   -1    0    0    0    0 -0.00000000000E+00 -0.00000000000E+00 -0.45593999997E+02  0.45594000000E+02  0.51100000000E-03 0. -1.
    9900012    2    1    2    0    0  0.11817643438E+02 -0.41302195430E+02  0.61721432878E+01  0.47787269631E+02  0.19999993557E+02 0.  0.
        -12    1    1    2    0    0 -0.11817643438E+02  0.41302195430E+02 -0.61721432878E+01  0.43400730369E+02  0.00000000000E+00 0.  1.
         11    1    3    3    0    0  0.92116973111E+00 -0.21411553413E+01 -0.30690403480E+01  0.38538433787E+01  0.51100000000E-03 0. -1.
        -11    1    3    3    0    0  0.11759623441E+02 -0.19214950066E+02  0.80868223747E+01  0.23935324228E+02  0.51100000000E-03 0.  1.
         12    1    3    3    0    0 -0.86314973438E+00 -0.19946090023E+02  0.11543612610E+01  0.19998102024E+02  0.00000000000E+00 0. -1.
</event>
<event>
 7    1  0.3807360E-011  0.4778726E+02  0.7816164E-02  0.1312668E+00
        -11   -1    0    0    0    0  0.00000000000E+00  0.00000000000E+00  0.45593999997E+02  0.45594000000E+02  0.51100000000E-03 0. -1.
         11   -1    0    0    0    0 -0.00000000000E+00 -0.00000000000E+00 -0.45593999997E+02  0.45594000000E+02  0.51100000000E-03 0.  1.
    9900012    2    1    2    0    0 -0.19232762184E+00  0.32231692060E+02  0.29063809448E+02  0.47787262880E+02  0.19999962774E+02 0.  0.
        -12    1    1    2    0    0  0.19232762184E+00 -0.32231692060E+02 -0.29063809448E+02  0.43400737120E+02  0.00000000000E+00 0.  1.
         11    1    3    3    0    0  0.22249927107E+01  0.77846770106E+01  0.19727974345E+01  0.83332897886E+01  0.51100000000E-03 0.  1.
        -11    1    3    3    0    0  0.26035647083E+01  0.18424992113E+02  0.25309055343E+02  0.31413487010E+02  0.51100000000E-03 0. -1.
         12    1    3    3    0    0 -0.50208850408E+01  0.60220229363E+01  0.17819566713E+01  0.80404860809E+01  0.00000000000E+00 0. -1.
</event>
<event>
 7    1  0.3807360E-011  0.4778728E+02  0.7816164E-02  0.1312668E+00
        -11   -1    0    0    0    0  0.00000000000E+00  0.00000000000E+00  0.45593999997E+02  0.45594000000E+02  0.51100000000E-03 0. -1.
         11   -1    0    0    0    0 -0.00000000000E+00 -0.00000000000E+00 -0.45593999997E+02  0.45594000000E+02  0.51100000000E-03 0.  1.
    9900012    2    1    2    0    0 -0.42029063176E+02 -0.74475678799E+01  0.78558542864E+01  0.47787275751E+02  0.20000021459E+02 0.  0.
        -12    1    1    2    0    0  0.42029063176E+02  0.74475678799E+01 -0.78558542864E+01  0.43400724249E+02  0.00000000000E+00 0.  1.
         11    1    3    3    0    0 -0.26608108090E+02 -0.31011735666E+01  0.79352041691E+01  0.27938793086E+02  0.51100000000E-03 0. -1.
        -11    1    3    3    0    0 -0.38590860089E+01 -0.54910319601E+01  0.36582011654E+01  0.76437172134E+01  0.51100000000E-03 0.  1.
         12    1    3    3    0    0 -0.11561869077E+02  0.11446376468E+01 -0.37375510481E+01  0.12204765452E+02  0.00000000000E+00 0. -1.
</event>
<event>
 7    1  0.3807360E-011  0.4778727E+02  0.7816164E-02  0.1312668E+00
        -11   -1    0    0    0    0  0.00000000000E+00  0.00000000000E+00  0.45593999997E+02  0.45594000000E+02  0.51100000000E-03 0. -1.
         11   -1    0    0    0    0 -0.00000000000E+00 -0.00000000000E+00 -0.45593999997E+02  0.45594000000E+02  0.51100000000E-03 0.  1.
    9900012    2    1    2    0    0 -0.10678577538E+02 -0.17680320046E+01  0.42029339972E+02  0.47787269893E+02  0.19999994749E+02 0.  0.
        -12    1    1    2    0    0  0.10678577538E+02  0.17680320046E+01 -0.42029339972E+02  0.43400730107E+02  0.00000000000E+00 0.  1.
         11    1    3    3    0    0 -0.12068725933E+02  0.13363653595E+01  0.21249259444E+02  0.24473884963E+02  0.51100000000E-03 0. -1.
        -11    1    3    3    0    0  0.16496308297E+01  0.18701272190E+01  0.65126054616E+00  0.25773626539E+01  0.51100000000E-03 0.  1.
        -12    1    3    3    0    0 -0.25948243456E+00 -0.49745245831E+01  0.20128819982E+02  0.20736022276E+02  0.00000000000E+00 0.  1.
</event>
<event>
 7    1  0.3807360E-011  0.4778727E+02  0.7816164E-02  0.1312668E+00
        -11   -1    0    0    0    0  0.00000000000E+00  0.00000000000E+00  0.45593999997E+02  0.45594000000E+02  0.51100000000E-03 0. -1.
         11   -1    0    0    0    0 -0.00000000000E+00 -0.00000000000E+00 -0.45593999997E+02  0.45594000000E+02  0.51100000000E-03 0.  1.
    9900012    2    1    2    0    0  0.13068410138E+02  0.12554148486E+02  0.39436446604E+02  0.47787270646E+02  0.19999998182E+02 0.  0.
        -12    1    1    2    0    0 -0.13068410138E+02 -0.12554148486E+02 -0.39436446604E+02  0.43400729354E+02  0.00000000000E+00 0.  1.
         11    1    3    3    0    0 -0.18844344197E+01  0.10594622639E+01  0.10883126848E+02  0.11095765121E+02  0.51100000000E-03 0. -1.
        -11    1    3    3    0    0  0.12316040106E+02  0.11055156166E+02  0.29525071146E+02  0.33847173415E+02  0.51100000000E-03 0.  1.
        -12    1    3    3    0    0  0.26368044519E+01  0.43953005592E+00 -0.97175138987E+00  0.28443321099E+01  0.00000000000E+00 0.  1.
</event>
<event>
 7    1  0.4204918E-011  0.4778724E+02  0.7816164E-02  0.1312668E+00
        -11   -1    0    0    0    0  0.00000000000E+00  0.00000000000E+00  0.45593999997E+02  0.45594000000E+02  0.51100000000E-03 0. -1.
         11   -1    0    0    0    0 -0.00000000000E+00 -0.00000000000E+00 -0.45593999997E+02  0.45594000000E+02  0.51100000000E-03 0.  1.
    9900012    2    1    2    0    0  0.20588420038E+02  0.15093138288E+02 -0.35099002411E+02  0.47787241559E+02  0.19999865563E+02 0.  0.
         12    1    1    2    0    0 -0.20588420038E+02 -0.15093138288E+02  0.35099002411E+02  0.43400758441E+02  0.00000000000E+00 0. -1.
         11    1    3    3    0    0 -0.22238292959E+01  0.16513883396E+01 -0.76517158130E+00  0.28736715183E+01  0.51100000000E-03 0. -1.
        -11    1    3    3    0    0  0.14052725085E+02  0.12922518158E+02 -0.28754576247E+02  0.34515159181E+02  0.51100000000E-03 0.  1.
         12    1    3    3    0    0  0.87595242486E+01  0.51923179081E+00 -0.55792545823E+01  0.10398410860E+02  0.00000000000E+00 0. -1.
</event>
<event>
 7    1  0.3807360E-011  0.4778727E+02  0.7816164E-02  0.1312668E+00
        -11   -1    0    0    0    0  0.00000000000E+00  0.00000000000E+00  0.45593999997E+02  0.45594000000E+02  0.51100000000E-03 0. -1.
         11   -1    0    0    0    0 -0.00000000000E+00 -0.00000000000E+00 -0.45593999997E+02  0.45594000000E+02  0.51100000000E-03 0.  1.
    9900012    2    1    2    0    0 -0.18438748534E+02  0.23349402731E+02  0.31598120203E+02  0.47787271253E+02  0.20000000951E+02 0.  0.
        -12    1    1    2    0    0  0.18438748534E+02 -0.23349402731E+02 -0.31598120203E+02  0.43400728747E+02  0.00000000000E+00 0.  1.
         11    1    3    3    0    0 -0.10941007194E+02  0.13714783355E+02  0.12024582519E+02  0.21269497077E+02  0.51100000000E-03 0.  1.
        -11    1    3    3    0    0 -0.17327483246E+01  0.10141695904E+02  0.17630573486E+02  0.20413072631E+02  0.51100000000E-03 0. -1.
        -12    1    3    3    0    0 -0.57649930154E+01 -0.50707652724E+00  0.19429641980E+01  0.61047015444E+01  0.00000000000E+00 0.  1.
</event>
<event>
 7    1  0.3807360E-011  0.4778727E+02  0.7816164E-02  0.1312668E+00
        -11   -1    0    0    0    0  0.00000000000E+00  0.00000000000E+00  0.45593999997E+02  0.45594000000E+02  0.51100000000E-03 0. -1.
         11   -1    0    0    0    0 -0.00000000000E+00 -0.00000000000E+00 -0.45593999997E+02  0.45594000000E+02  0.51100000000E-03 0.  1.
    9900012    2    1    2    0    0  0.12061072133E+02  0.10852074321E+02 -0.40254018915E+02  0.47787274005E+02  0.20000013500E+02 0.  0.
         12    1    1    2    0    0 -0.12061072133E+02 -0.10852074321E+02  0.40254018915E+02  0.43400725995E+02  0.00000000000E+00 0. -1.
         11    1    3    3    0    0 -0.22727305126E+01  0.46476593210E+01 -0.48875345179E+01  0.71171648198E+01  0.51100000000E-03 0. -1.
        -11    1    3    3    0    0  0.10189362166E+02  0.52272266540E+01 -0.10813113595E+02  0.15750251608E+02  0.51100000000E-03 0.  1.
        -12    1    3    3    0    0  0.41444404795E+01  0.97718834639E+00 -0.24553370801E+02  0.24919857577E+02  0.00000000000E+00 0.  1.
</event>
<event>
 7    1  0.3807360E-011  0.4778727E+02  0.7816164E-02  0.1312668E+00
        -11   -1    0    0    0    0  0.00000000000E+00  0.00000000000E+00  0.45593999997E+02  0.45594000000E+02  0.51100000000E-03 0. -1.
         11   -1    0    0    0    0 -0.00000000000E+00 -0.00000000000E+00 -0.45593999997E+02  0.45594000000E+02  0.51100000000E-03 0.  1.
    9900012    2    1    2    0    0  0.16446006500E+02 -0.21352042248E+02  0.34018268779E+02  0.47787269031E+02  0.19999990819E+02 0.  0.
        -12    1    1    2    0    0 -0.16446006500E+02  0.21352042248E+02 -0.34018268779E+02  0.43400730969E+02  0.00000000000E+00 0.  1.
         11    1    3    3    0    0  0.26451784548E+01 -0.17558532006E+01  0.68669299689E+01  0.75653629773E+01  0.51100000000E-03 0. -1.
        -11    1    3    3    0    0  0.11767658348E+02 -0.68269544496E+01  0.48499248724E+01  0.14443228918E+02  0.51100000000E-03 0.  1.
         12    1    3    3    0    0  0.20331696965E+01 -0.12769234598E+02  0.22301413937E+02  0.25778677135E+02  0.00000000000E+00 0. -1.
</event>
<event>
 7    1  0.3807360E-011  0.4778728E+02  0.7816164E-02  0.1312668E+00
        -11   -1    0    0    0    0  0.00000000000E+00  0.00000000000E+00  0.45593999997E+02  0.45594000000E+02  0.51100000000E-03 0. -1.
         11   -1    0    0    0    0 -0.00000000000E+00 -0.00000000000E+00 -0.45593999997E+02  0.45594000000E+02  0.51100000000E-03 0.  1.
    9900012    2    1    2    0    0 -0.42765563987E+01 -0.21297830313E+02 -0.37573071762E+02  0.47787283044E+02  0.20000054711E+02 0.  0.
         12    1    1    2    0    0  0.42765563987E+01  0.21297830313E+02  0.37573071762E+02  0.43400716956E+02  0.00000000000E+00 0. -1.
         11    1    3    3    0    0 -0.51724993815E+01 -0.12298269230E+02 -0.79377326336E+01  0.15524489541E+02  0.51100000000E-03 0. -1.
        -11    1    3    3    0    0 -0.39133603739E+01 -0.45866341469E+01 -0.17066616726E+02  0.18100304112E+02  0.51100000000E-03 0.  1.
        -12    1    3    3    0    0  0.48093033567E+01 -0.44129269365E+01 -0.12568722402E+02  0.14162489391E+02  0.00000000000E+00 0.  1.
</event>
<event>
 7    1  0.3807360E-011  0.4778727E+02  0.7816164E-02  0.1312668E+00
        -11   -1    0    0    0    0  0.00000000000E+00  0.00000000000E+00  0.45593999997E+02  0.45594000000E+02  0.51100000000E-03 0. -1.
         11   -1    0    0    0    0 -0.00000000000E+00 -0.00000000000E+00 -0.45593999997E+02  0.45594000000E+02  0.51100000000E-03 0.  1.
    9900012    2    1    2    0    0 -0.13050108803E+00  0.36959352261E+02 -0.22751104641E+02  0.47787268296E+02  0.19999987468E+02 0.  0.
         12    1    1    2    0    0  0.13050108803E+00 -0.36959352261E+02  0.22751104641E+02  0.43400731704E+02  0.00000000000E+00 0. -1.
         11    1    3    3    0    0  0.17647831908E+01  0.34387826879E+02 -0.12566945708E+02  0.36654675307E+02  0.51100000000E-03 0. -1.
        -11    1    3    3    0    0 -0.91272570791E+00  0.30972679663E+01 -0.61344669166E+01  0.69323748951E+01  0.51100000000E-03 0.  1.
        -12    1    3    3    0    0 -0.98255857093E+00 -0.52574258441E+00 -0.40496920161E+01  0.42002180938E+01  0.00000000000E+00 0.  1.
</event>
<event>
 7    1  0.3807360E-011  0.4778727E+02  0.7816164E-02  0.1312668E+00
        -11   -1    0    0    0    0  0.00000000000E+00  0.00000000000E+00  0.45593999997E+02  0.45594000000E+02  0.51100000000E-03 0. -1.
         11   -1    0    0    0    0 -0.00000000000E+00 -0.00000000000E+00 -0.45593999997E+02  0.45594000000E+02  0.51100000000E-03 0.  1.
    9900012    2    1    2    0    0 -0.15598200421E+02 -0.83471207398E+00  0.40492254471E+02  0.47787271057E+02  0.20000000056E+02 0.  0.
        -12    1    1    2    0    0  0.15598200421E+02  0.83471207398E+00 -0.40492254471E+02  0.43400728943E+02  0.00000000000E+00 0.  1.
         11    1    3    3    0    0 -0.15828147821E+02 -0.14907331536E+01  0.17248135746E+02  0.23457423894E+02  0.51100000000E-03 0. -1.
        -11    1    3    3    0    0  0.16821306570E+01 -0.18007540031E+01  0.29850834932E+01  0.38707883241E+01  0.51100000000E-03 0.  1.
         12    1    3    3    0    0 -0.14521832576E+01  0.24567750827E+01  0.20259035232E+02  0.20459058839E+02  0.00000000000E+00 0. -1.
</event>
<event>
 7    1  0.3807360E-011  0.4778727E+02  0.7816164E-02  0.1312668E+00
        -11   -1    0    0    0    0  0.00000000000E+00  0.00000000000E+00  0.45593999997E+02  0.45594000000E+02  0.51100000000E-03 0. -1.
         11   -1    0    0    0    0 -0.00000000000E+00 -0.00000000000E+00 -0.45593999997E+02  0.45594000000E+02  0.51100000000E-03 0.  1.
    9900012    2    1    2    0    0 -0.12591131431E+02 -0.11756654774E+02 -0.39835504607E+02  0.47787274781E+02  0.20000017037E+02 0.  0.
         12    1    1    2    0    0  0.12591131431E+02  0.11756654774E+02  0.39835504607E+02  0.43400725219E+02  0.00000000000E+00 0. -1.
         11    1    3    3    0    0 -0.30134590847E+01 -0.18451381388E+01 -0.20867355229E+00  0.35396349132E+01  0.51100000000E-03 0. -1.
        -11    1    3    3    0    0 -0.55989711466E+01  0.34961937965E+00 -0.38182740751E+01  0.67860097837E+01  0.51100000000E-03 0.  1.
        -12    1    3    3    0    0 -0.39787012000E+01 -0.10261136015E+02 -0.35808556980E+02  0.37461630084E+02  0.00000000000E+00 0.  1.
</event>
<event>
 7    1  0.3807360E-011  0.4778726E+02  0.7816164E-02  0.1312668E+00
        -11   -1    0    0    0    0  0.00000000000E+00  0.00000000000E+00  0.45593999997E+02  0.45594000000E+02  0.51100000000E-03 0. -1.
         11   -1    0    0    0    0 -0.00000000000E+00 -0.00000000000E+00 -0.45593999997E+02  0.45594000000E+02  0.51100000000E-03 0.  1.
    9900012    2    1    2    0    0  0.22296862481E+02 -0.11179844117E+02  0.35517391227E+02  0.47787261867E+02  0.19999958155E+02 0.  0.
        -12    1    1    2    0    0 -0.22296862481E+02  0.11179844117E+02 -0.35517391227E+02  0.43400738133E+02  0.00000000000E+00 0.  1.
         11    1    3    3    0    0  0.14265576678E+02 -0.79027348594E+01  0.10674874971E+02  0.19491353266E+02  0.51100000000E-03 0. -1.
        -11    1    3    3    0    0 -0.19434505070E+01 -0.22394214285E+01  0.27953000171E+01  0.40750105097E+01  0.51100000000E-03 0.  1.
         12    1    3    3    0    0  0.99747363096E+01 -0.10376878290E+01  0.22047216238E+02  0.24220898091E+02  0.00000000000E+00 0. -1.
</event>
<event>
 7    1  0.3807360E-011  0.4778727E+02  0.7816164E-02  0.1312668E+00
        -11   -1    0    0    0    0  0.00000000000E+00  0.00000000000E+00  0.45593999997E+02  0.45594000000E+02  0.51100000000E-03 0. -1.
         11   -1    0    0    0    0 -0.00000000000E+00 -0.00000000000E+00 -0.45593999997E+02  0.45594000000E+02  0.51100000000E-03 0.  1.
    9900012    2    1    2    0    0  0.18780713766E+02  0.66100669979E+01 -0.38564426395E+02  0.47787272144E+02  0.20000005012E+02 0.  0.
         12    1    1    2    0    0 -0.18780713766E+02 -0.66100669979E+01  0.38564426395E+02  0.43400727856E+02  0.00000000000E+00 0. -1.
         11    1    3    3    0    0  0.21176327905E+00 -0.34273265899E+01 -0.52435858051E+01  0.62679026474E+01  0.51100000000E-03 0. -1.
        -11    1    3    3    0    0  0.14948156262E+02  0.43553820949E+01 -0.13578375137E+02  0.20658872197E+02  0.51100000000E-03 0.  1.
        -12    1    3    3    0    0  0.36207942256E+01  0.56820114929E+01 -0.19742465453E+02  0.20860497300E+02  0.00000000000E+00 0.  1.
</event>
<event>
 7    1  0.3807360E-011  0.4778727E+02  0.7816164E-02  0.1312668E+00
        -11   -1    0    0    0    0  0.00000000000E+00  0.00000000000E+00  0.45593999997E+02  0.45594000000E+02  0.51100000000E-03 0. -1.
         11   -1    0    0    0    0 -0.00000000000E+00 -0.00000000000E+00 -0.45593999997E+02  0.45594000000E+02  0.51100000000E-03 0.  1.
    9900012    2    1    2    0    0 -0.84911164471E+01  0.70545145463E+01  0.41973299325E+02  0.47787273160E+02  0.20000009646E+02 0.  0.
        -12    1    1    2    0    0  0.84911164471E+01 -0.70545145463E+01 -0.41973299325E+02  0.43400726840E+02  0.00000000000E+00 0.  1.
         11    1    3    3    0    0 -0.50121503523E+01  0.73620978511E+01  0.31534745234E+02  0.32768312333E+02  0.51100000000E-03 0. -1.
        -11    1    3    3    0    0 -0.70443719574E+01  0.64466570346E+00  0.62820831126E+01  0.94606204151E+01  0.51100000000E-03 0.  1.
         12    1    3    3    0    0  0.35654058626E+01 -0.95224900827E+00  0.41564709788E+01  0.55583404121E+01  0.00000000000E+00 0. -1.
</event>
<event>
 7    1  0.3807360E-011  0.4778727E+02  0.7816164E-02  0.1312668E+00
        -11   -1    0    0    0    0  0.00000000000E+00  0.00000000000E+00  0.45593999997E+02  0.45594000000E+02  0.51100000000E-03 0. -1.
         11   -1    0    0    0    0 -0.00000000000E+00 -0.00000000000E+00 -0.45593999997E+02  0.45594000000E+02  0.51100000000E-03 0.  1.
    9900012    2    1    2    0    0 -0.22511385932E+02 -0.10895383722E+02 -0.35470428207E+02  0.47787272353E+02  0.20000005968E+02 0.  0.
         12    1    1    2    0    0  0.22511385932E+02  0.10895383722E+02  0.35470428207E+02  0.43400727647E+02  0.00000000000E+00 0. -1.
         11    1    3    3    0    0 -0.19029783866E+01 -0.55857422488E+01 -0.79556049111E+01  0.99052255387E+01  0.51100000000E-03 0. -1.
        -11    1    3    3    0    0 -0.13638189835E+02 -0.27241036293E+01 -0.60505088344E+01  0.15166727398E+02  0.51100000000E-03 0.  1.
        -12    1    3    3    0    0 -0.69702177110E+01 -0.25855378435E+01 -0.21464314462E+02  0.22715319417E+02  0.00000000000E+00 0.  1.
</event>
<event>
 7    1  0.3807360E-011  0.4778727E+02  0.7816164E-02  0.1312668E+00
        -11   -1    0    0    0    0  0.00000000000E+00  0.00000000000E+00  0.45593999997E+02  0.45594000000E+02  0.51100000000E-03 0. -1.
         11   -1    0    0    0    0 -0.00000000000E+00 -0.00000000000E+00 -0.45593999997E+02  0.45594000000E+02  0.51100000000E-03 0.  1.
    9900012    2    1    2    0    0 -0.19984773794E+02  0.31340507010E+02  0.22405460200E+02  0.47787271780E+02  0.20000003353E+02 0.  0.
        -12    1    1    2    0    0  0.19984773794E+02 -0.31340507010E+02 -0.22405460200E+02  0.43400728220E+02  0.00000000000E+00 0.  1.
         11    1    3    3    0    0 -0.51274911044E+01  0.19496727117E+02  0.47329387044E+01  0.20707830459E+02  0.51100000000E-03 0. -1.
        -11    1    3    3    0    0 -0.71141007683E+00 -0.73925446139E+00  0.28676607915E+01  0.30456657946E+01  0.51100000000E-03 0.  1.
         12    1    3    3    0    0 -0.14145872613E+02  0.12583034355E+02  0.14804860704E+02  0.24033775526E+02  0.00000000000E+00 0. -1.
</event>
<event>
 7    1  0.3807360E-011  0.4778727E+02  0.7816164E-02  0.1312668E+00
        -11   -1    0    0    0    0  0.00000000000E+00  0.00000000000E+00  0.45593999997E+02  0.45594000000E+02  0.51100000000E-03 0.  1.
         11   -1    0    0    0    0 -0.00000000000E+00 -0.00000000000E+00 -0.45593999997E+02  0.45594000000E+02  0.51100000000E-03 0. -1.
    9900012    2    1    2    0    0  0.39704851275E+02  0.15379322975E+02  0.84038514526E+01  0.47787268333E+02  0.19999987639E+02 0.  0.
         12    1    1    2    0    0 -0.39704851275E+02 -0.15379322975E+02 -0.84038514526E+01  0.43400731667E+02  0.00000000000E+00 0. -1.
         11    1    3    3    0    0  0.17065847491E+02  0.14689857406E+02  0.19431346128E+01  0.22601124609E+02  0.51100000000E-03 0. -1.
        -11    1    3    3    0    0  0.80252734693E+01 -0.13497985715E+01 -0.17156289165E+01  0.83168716042E+01  0.51100000000E-03 0.  1.
        -12    1    3    3    0    0  0.14613730315E+02  0.20392641408E+01  0.81763457563E+01  0.16869272120E+02  0.00000000000E+00 0.  1.
</event>
<event>
 7    1  0.3807360E-011  0.4778727E+02  0.7816164E-02  0.1312668E+00
        -11   -1    0    0    0    0  0.00000000000E+00  0.00000000000E+00  0.45593999997E+02  0.45594000000E+02  0.51100000000E-03 0. -1.
         11   -1    0    0    0    0 -0.00000000000E+00 -0.00000000000E+00 -0.45593999997E+02  0.45594000000E+02  0.51100000000E-03 0.  1.
    9900012    2    1    2    0    0  0.37680318011E+02 -0.11585226770E+02 -0.18154875305E+02  0.47787270259E+02  0.19999996419E+02 0.  0.
         12    1    1    2    0    0 -0.37680318011E+02  0.11585226770E+02  0.18154875305E+02  0.43400729741E+02  0.00000000000E+00 0. -1.
         11    1    3    3    0    0  0.89187622669E+01 -0.96848878731E+01 -0.12749310171E+02  0.18327200648E+02  0.51100000000E-03 0.  1.
        -11    1    3    3    0    0  0.16588904524E+02 -0.22833253249E+01 -0.38526315854E+01  0.17182784939E+02  0.51100000000E-03 0. -1.
        -12    1    3    3    0    0  0.12172651220E+02  0.38298642821E+00 -0.15529335486E+01  0.12277284673E+02  0.00000000000E+00 0.  1.
</event>
<event>
 7    1  0.3807360E-011  0.4778723E+02  0.7816164E-02  0.1312668E+00
        -11   -1    0    0    0    0  0.00000000000E+00  0.00000000000E+00  0.45593999997E+02  0.45594000000E+02  0.51100000000E-03 0.  1.
         11   -1    0    0    0    0 -0.00000000000E+00 -0.00000000000E+00 -0.45593999997E+02  0.45594000000E+02  0.51100000000E-03 0. -1.
    9900012    2    1    2    0    0  0.20705799487E+02 -0.38108613922E+02 -0.16217120151E+01  0.47787233448E+02  0.19999828580E+02 0.  0.
        -12    1    1    2    0    0 -0.20705799487E+02  0.38108613922E+02  0.16217120151E+01  0.43400766552E+02  0.00000000000E+00 0.  1.
         11    1    3    3    0    0  0.15397275638E+01 -0.11013574013E+02 -0.73485717811E+01  0.13329331603E+02  0.51100000000E-03 0.  1.
        -11    1    3    3    0    0  0.48133030793E+01 -0.12291511249E+02  0.38670528314E+01  0.13755116618E+02  0.51100000000E-03 0. -1.
        -12    1    3    3    0    0  0.14352768844E+02 -0.14803528661E+02  0.18598069347E+01  0.20702785226E+02  0.00000000000E+00 0.  1.
</event>
<event>
 7    1  0.3807360E-011  0.4778727E+02  0.7816164E-02  0.1312668E+00
        -11   -1    0    0    0    0  0.00000000000E+00  0.00000000000E+00  0.45593999997E+02  0.45594000000E+02  0.51100000000E-03 0. -1.
         11   -1    0    0    0    0 -0.00000000000E+00 -0.00000000000E+00 -0.45593999997E+02  0.45594000000E+02  0.51100000000E-03 0.  1.
    9900012    2    1    2    0    0  0.19815055777E+02 -0.22085434288E+01 -0.38550086131E+02  0.47787271432E+02  0.20000001766E+02 0.  0.
         12    1    1    2    0    0 -0.19815055777E+02  0.22085434288E+01  0.38550086131E+02  0.43400728568E+02  0.00000000000E+00 0. -1.
         11    1    3    3    0    0  0.15962330080E+02  0.14469366123E+01 -0.18544260181E+02  0.24510797479E+02  0.51100000000E-03 0. -1.
        -11    1    3    3    0    0  0.68263814705E+00  0.32792803509E+01 -0.10882527061E+02  0.11386354550E+02  0.51100000000E-03 0.  1.
        -12    1    3    3    0    0  0.31700875498E+01 -0.69347603920E+01 -0.91232988897E+01  0.11890119402E+02  0.00000000000E+00 0.  1.
</event>
<event>
 7    1  0.3807360E-011  0.4778731E+02  0.7816164E-02  0.1312668E+00
        -11   -1    0    0    0    0  0.00000000000E+00  0.00000000000E+00  0.45593999997E+02  0.45594000000E+02  0.51100000000E-03 0. -1.
         11   -1    0    0    0    0 -0.00000000000E+00 -0.00000000000E+00 -0.45593999997E+02  0.45594000000E+02  0.51100000000E-03 0.  1.
    9900012    2    1    2    0    0  0.30860463072E+02  0.25782243746E+02 -0.16325684714E+02  0.47787305824E+02  0.20000158572E+02 0.  0.
         12    1    1    2    0    0 -0.30860463072E+02 -0.25782243746E+02  0.16325684714E+02  0.43400694176E+02  0.00000000000E+00 0. -1.
         11    1    3    3    0    0  0.94381949726E+01  0.14631399224E+02 -0.15400544982E+01  0.17479391743E+02  0.51100000000E-03 0. -1.
        -11    1    3    3    0    0  0.12634893806E+02  0.29600175445E+01 -0.26748018401E+01  0.13249785300E+02  0.51100000000E-03 0.  1.
        -12    1    3    3    0    0  0.87873742940E+01  0.81908269779E+01 -0.12110828376E+02  0.17058128781E+02  0.00000000000E+00 0.  1.
</event>
<event>
 7    1  0.3807360E-011  0.4778727E+02  0.7816164E-02  0.1312668E+00
        -11   -1    0    0    0    0  0.00000000000E+00  0.00000000000E+00  0.45593999997E+02  0.45594000000E+02  0.51100000000E-03 0. -1.
         11   -1    0    0    0    0 -0.00000000000E+00 -0.00000000000E+00 -0.45593999997E+02  0.45594000000E+02  0.51100000000E-03 0.  1.
    9900012    2    1    2    0    0  0.57094825724E+01 -0.38746604271E+02  0.18700956269E+02  0.47787270753E+02  0.19999998671E+02 0.  0.
        -12    1    1    2    0    0 -0.57094825724E+01  0.38746604271E+02 -0.18700956269E+02  0.43400729247E+02  0.00000000000E+00 0.  1.
         11    1    3    3    0    0  0.45743812786E+00 -0.13813954040E+02  0.55709300581E+01  0.14902007846E+02  0.51100000000E-03 0. -1.
        -11    1    3    3    0    0  0.66377459051E+01 -0.47643765545E+01 -0.98440629862E+00  0.82297029518E+01  0.51100000000E-03 0.  1.
        -12    1    3    3    0    0 -0.13857014605E+01 -0.20168273676E+02  0.14114432510E+02  0.24655559955E+02  0.00000000000E+00 0.  1.
</event>
<event>
 7    1  0.3807360E-011  0.4778727E+02  0.7816164E-02  0.1312668E+00
        -11   -1    0    0    0    0  0.00000000000E+00  0.00000000000E+00  0.45593999997E+02  0.45594000000E+02  0.51100000000E-03 0. -1.
         11   -1    0    0    0    0 -0.00000000000E+00 -0.00000000000E+00 -0.45593999997E+02  0.45594000000E+02  0.51100000000E-03 0.  1.
    9900012    2    1    2    0    0 -0.12598807955E+01 -0.23547523648E+02 -0.36435561752E+02  0.47787270401E+02  0.19999997066E+02 0.  0.
         12    1    1    2    0    0  0.12598807955E+01  0.23547523648E+02  0.36435561752E+02  0.43400729599E+02  0.00000000000E+00 0. -1.
         11    1    3    3    0    0  0.46125240196E+01 -0.48719145618E+01 -0.28561793890E+01  0.72916863819E+01  0.51100000000E-03 0. -1.
        -11    1    3    3    0    0 -0.17544822355E+01 -0.16749336929E+02 -0.19841700507E+02  0.26025210369E+02  0.51100000000E-03 0.  1.
        -12    1    3    3    0    0 -0.41179225796E+01 -0.19262721563E+01 -0.13737681856E+02  0.14470373650E+02  0.00000000000E+00 0.  1.
</event>
<event>
 7    1  0.3807360E-011  0.4778727E+02  0.7816164E-02  0.1312668E+00
        -11   -1    0    0    0    0  0.00000000000E+00  0.00000000000E+00  0.45593999997E+02  0.45594000000E+02  0.51100000000E-03 0. -1.
         11   -1    0    0    0    0 -0.00000000000E+00 -0.00000000000E+00 -0.45593999997E+02  0.45594000000E+02  0.51100000000E-03 0.  1.
    9900012    2    1    2    0    0  0.11624479679E+02  0.29247009864E+02  0.29884897734E+02  0.47787271591E+02  0.20000002493E+02 0.  0.
        -12    1    1    2    0    0 -0.11624479679E+02 -0.29247009864E+02 -0.29884897734E+02  0.43400728409E+02  0.00000000000E+00 0.  1.
         11    1    3    3    0    0  0.29132583788E+01  0.82685891631E+01  0.13176593018E+02  0.15826536101E+02  0.51100000000E-03 0. -1.
        -11    1    3    3    0    0  0.42952728984E+01  0.20695885941E+02  0.87938176536E+01  0.22893236847E+02  0.51100000000E-03 0.  1.
         12    1    3    3    0    0  0.44159484020E+01  0.28253476077E+00  0.79144870633E+01  0.90674986438E+01  0.00000000000E+00 0. -1.
</event>
<event>
 7    1  0.3807360E-011  0.4778727E+02  0.7816164E-02  0.1312668E+00
        -11   -1    0    0    0    0  0.00000000000E+00  0.00000000000E+00  0.45593999997E+02  0.45594000000E+02  0.51100000000E-03 0.  1.
         11   -1    0    0    0    0 -0.00000000000E+00 -0.00000000000E+00 -0.45593999997E+02  0.45594000000E+02  0.51100000000E-03 0. -1.
    9900012    2    1    2    0    0 -0.12745740031E+02 -0.37328193167E+02  0.18104571837E+02  0.47787269414E+02  0.19999992564E+02 0.  0.
        -12    1    1    2    0    0  0.12745740031E+02  0.37328193167E+02 -0.18104571837E+02  0.43400730586E+02  0.00000000000E+00 0.  1.
         11    1    3    3    0    0 -0.14483571172E+02 -0.27392475674E+02  0.88018468238E+01  0.32211706959E+02  0.51100000000E-03 0. -1.
        -11    1    3    3    0    0 -0.67676596045E+00  0.92616999541E+00  0.18719646776E+01  0.21954623752E+01  0.51100000000E-03 0.  1.
         12    1    3    3    0    0  0.24145971016E+01 -0.10861887488E+02  0.74307603357E+01  0.13380100079E+02  0.00000000000E+00 0. -1.
</event>
<event>
 7    1  0.3807360E-011  0.4778727E+02  0.7816164E-02  0.1312668E+00
        -11   -1    0    0    0    0  0.00000000000E+00  0.00000000000E+00  0.45593999997E+02  0.45594000000E+02  0.51100000000E-03 0. -1.
         11   -1    0    0    0    0 -0.00000000000E+00 -0.00000000000E+00 -0.45593999997E+02  0.45594000000E+02  0.51100000000E-03 0.  1.
    9900012    2    1    2    0    0  0.11889694402E+02  0.18078313636E+02 -0.37622238527E+02  0.47787273178E+02  0.20000009728E+02 0.  0.
         12    1    1    2    0    0 -0.11889694402E+02 -0.18078313636E+02  0.37622238527E+02  0.43400726822E+02  0.00000000000E+00 0. -1.
         11    1    3    3    0    0 -0.52574497048E+00  0.75828394969E+01 -0.21869597280E+02  0.23152864791E+02  0.51100000000E-03 0. -1.
        -11    1    3    3    0    0  0.81501466624E+01  0.31481041409E+01 -0.13077375529E+02  0.15727466461E+02  0.51100000000E-03 0.  1.
         12    1    3    3    0    0  0.42652927103E+01  0.73473699987E+01 -0.26752657182E+01  0.89069419255E+01  0.00000000000E+00 0. -1.
</event>
<event>
 7    1  0.3807360E-011  0.4778728E+02  0.7816164E-02  0.1312668E+00
        -11   -1    0    0    0    0  0.00000000000E+00  0.00000000000E+00  0.45593999997E+02  0.45594000000E+02  0.51100000000E-03 0. -1.
         11   -1    0    0    0    0 -0.00000000000E+00 -0.00000000000E+00 -0.45593999997E+02  0.45594000000E+02  0.51100000000E-03 0.  1.
    9900012    2    1    2    0    0  0.14167676484E+01  0.26246439910E+02  0.34536067543E+02  0.47787276505E+02  0.20000024897E+02 0.  0.
        -12    1    1    2    0    0 -0.14167676484E+01 -0.26246439910E+02 -0.34536067543E+02  0.43400723495E+02  0.00000000000E+00 0.  1.
         11    1    3    3    0    0  0.15353310268E+01 -0.22906956409E+00  0.12708171893E+01  0.20061632079E+01  0.51100000000E-03 0. -1.
        -11    1    3    3    0    0 -0.26519050598E+01  0.24733885539E+02  0.34444964898E+02  0.42488272515E+02  0.51100000000E-03 0.  1.
        -12    1    3    3    0    0  0.25333416814E+01  0.17416239360E+01 -0.11797145437E+01  0.32928407818E+01  0.00000000000E+00 0.  1.
</event>
<event>
 7    1  0.3807360E-011  0.4778727E+02  0.7816164E-02  0.1312668E+00
        -11   -1    0    0    0    0  0.00000000000E+00  0.00000000000E+00  0.45593999997E+02  0.45594000000E+02  0.51100000000E-03 0. -1.
         11   -1    0    0    0    0 -0.00000000000E+00 -0.00000000000E+00 -0.45593999997E+02  0.45594000000E+02  0.51100000000E-03 0.  1.
    9900012    2    1    2    0    0  0.27626240763E+02 -0.32690230624E+02 -0.71946271275E+01  0.47787274011E+02  0.20000013524E+02 0.  0.
         12    1    1    2    0    0 -0.27626240763E+02  0.32690230624E+02  0.71946271275E+01  0.43400725989E+02  0.00000000000E+00 0. -1.
         11    1    3    3    0    0  0.83557790684E+01 -0.17062120811E+02  0.41798333830E+01  0.19452660944E+02  0.51100000000E-03 0. -1.
        -11    1    3    3    0    0  0.13409064016E+02 -0.13163244670E+02 -0.52586993026E+01  0.19512250681E+02  0.51100000000E-03 0.  1.
         12    1    3    3    0    0  0.58613976786E+01 -0.24648651418E+01 -0.61157612079E+01  0.88223623858E+01  0.00000000000E+00 0. -1.
</event>
<event>
 7    1  0.3807360E-011  0.4778732E+02  0.7816164E-02  0.1312668E+00
        -11   -1    0    0    0    0  0.00000000000E+00  0.00000000000E+00  0.45593999997E+02  0.45594000000E+02  0.51100000000E-03 0. -1.
         11   -1    0    0    0    0 -0.00000000000E+00 -0.00000000000E+00 -0.45593999997E+02  0.45594000000E+02  0.51100000000E-03 0.  1.
    9900012    2    1    2    0    0  0.30173225138E+02  0.77046902137E+01 -0.30229681105E+02  0.47787315832E+02  0.20000204203E+02 0.  0.
         12    1    1    2    0    0 -0.30173225138E+02 -0.77046902137E+01  0.30229681105E+02  0.43400684168E+02  0.00000000000E+00 0. -1.
         11    1    3    3    0    0  0.10272680959E+01  0.33802041104E+01 -0.67248291691E+01  0.75963403809E+01  0.51100000000E-03 0.  1.
        -11    1    3    3    0    0  0.75063686073E+01 -0.46046866752E+01 -0.37953331620E+01  0.95892264087E+01  0.51100000000E-03 0. -1.
         12    1    3    3    0    0  0.21639588435E+02  0.89291727786E+01 -0.19709518774E+02  0.30601749042E+02  0.00000000000E+00 0. -1.
</event>
<event>
 7    1  0.3807360E-011  0.4778727E+02  0.7816164E-02  0.1312668E+00
        -11   -1    0    0    0    0  0.00000000000E+00  0.00000000000E+00  0.45593999997E+02  0.45594000000E+02  0.51100000000E-03 0. -1.
         11   -1    0    0    0    0 -0.00000000000E+00 -0.00000000000E+00 -0.45593999997E+02  0.45594000000E+02  0.51100000000E-03 0.  1.
    9900012    2    1    2    0    0 -0.60116647091E+01  0.27335930934E+02 -0.33169714120E+02  0.47787272271E+02  0.20000005591E+02 0.  0.
         12    1    1    2    0    0  0.60116647091E+01 -0.27335930934E+02  0.33169714120E+02  0.43400727729E+02  0.00000000000E+00 0. -1.
         11    1    3    3    0    0 -0.75221310434E+01  0.33413842400E+01 -0.80906885960E+01  0.11541514038E+02  0.51100000000E-03 0. -1.
        -11    1    3    3    0    0 -0.34523584114E+00  0.41949698038E+01 -0.11282888302E+02  0.12042446934E+02  0.51100000000E-03 0.  1.
        -12    1    3    3    0    0  0.18557021755E+01  0.19799576890E+02 -0.13796137222E+02  0.24203311299E+02  0.00000000000E+00 0.  1.
</event>
<event>
 7    1  0.3807360E-011  0.4778729E+02  0.7816164E-02  0.1312668E+00
        -11   -1    0    0    0    0  0.00000000000E+00  0.00000000000E+00  0.45593999997E+02  0.45594000000E+02  0.51100000000E-03 0. -1.
         11   -1    0    0    0    0 -0.00000000000E+00 -0.00000000000E+00 -0.45593999997E+02  0.45594000000E+02  0.51100000000E-03 0.  1.
    9900012    2    1    2    0    0 -0.16091631456E+02 -0.80055645020E+00 -0.40299385368E+02  0.47787286244E+02  0.20000069300E+02 0.  0.
         12    1    1    2    0    0  0.16091631456E+02  0.80055645020E+00  0.40299385368E+02  0.43400713756E+02  0.00000000000E+00 0. -1.
         11    1    3    3    0    0 -0.19013750514E+02 -0.34840715359E+01 -0.27478632682E+02  0.33596677178E+02  0.51100000000E-03 0.  1.
        -11    1    3    3    0    0  0.19528256875E+01  0.28013625792E+00 -0.12551956505E+01  0.23382730531E+01  0.51100000000E-03 0. -1.
        -12    1    3    3    0    0  0.96929337007E+00  0.24033788277E+01 -0.11565557035E+02  0.11852336012E+02  0.00000000000E+00 0.  1.
</event>
<event>
 7    1  0.3807360E-011  0.4778727E+02  0.7816164E-02  0.1312668E+00
        -11   -1    0    0    0    0  0.00000000000E+00  0.00000000000E+00  0.45593999997E+02  0.45594000000E+02  0.51100000000E-03 0.  1.
         11   -1    0    0    0    0 -0.00000000000E+00 -0.00000000000E+00 -0.45593999997E+02  0.45594000000E+02  0.51100000000E-03 0. -1.
    9900012    2    1    2    0    0 -0.13501167819E+01  0.43333011823E+02 -0.20126733261E+01  0.47787267485E+02  0.19999983770E+02 0.  0.
         12    1    1    2    0    0  0.13501167819E+01 -0.43333011823E+02  0.20126733261E+01  0.43400732515E+02  0.00000000000E+00 0. -1.
         11    1    3    3    0    0 -0.14460281141E+01 -0.65581323989E+00  0.21817346575E+00  0.16027127736E+01  0.51100000000E-03 0. -1.
        -11    1    3    3    0    0  0.66817392467E+01  0.20989730942E+02  0.96429919955E+00  0.22048680631E+02  0.51100000000E-03 0.  1.
         12    1    3    3    0    0 -0.65858279144E+01  0.22999094121E+02 -0.31951459914E+01  0.24135874080E+02  0.00000000000E+00 0. -1.
</event>
<event>
 7    1  0.3807360E-011  0.4778727E+02  0.7816164E-02  0.1312668E+00
        -11   -1    0    0    0    0  0.00000000000E+00  0.00000000000E+00  0.45593999997E+02  0.45594000000E+02  0.51100000000E-03 0. -1.
         11   -1    0    0    0    0 -0.00000000000E+00 -0.00000000000E+00 -0.45593999997E+02  0.45594000000E+02  0.51100000000E-03 0.  1.
    9900012    2    1    2    0    0  0.40247617822E+01 -0.18603684645E+01  0.43173642657E+02  0.47787273065E+02  0.20000009213E+02 0.  0.
        -12    1    1    2    0    0 -0.40247617822E+01  0.18603684645E+01 -0.43173642657E+02  0.43400726935E+02  0.00000000000E+00 0.  1.
         11    1    3    3    0    0  0.36403541784E+01 -0.11544005888E+01  0.45044055708E+01  0.59054626466E+01  0.51100000000E-03 0. -1.
        -11    1    3    3    0    0 -0.15146968411E+01  0.64428086597E+01  0.28786674074E+02  0.29537716473E+02  0.51100000000E-03 0.  1.
        -12    1    3    3    0    0  0.18991044449E+01 -0.71487765354E+01  0.98825630118E+01  0.12344093945E+02  0.00000000000E+00 0.  1.
</event>
<event>
 7    1  0.3807360E-011  0.4778727E+02  0.7816164E-02  0.1312668E+00
        -11   -1    0    0    0    0  0.00000000000E+00  0.00000000000E+00  0.45593999997E+02  0.45594000000E+02  0.51100000000E-03 0.  1.
         11   -1    0    0    0    0 -0.00000000000E+00 -0.00000000000E+00 -0.45593999997E+02  0.45594000000E+02  0.51100000000E-03 0. -1.
    9900012    2    1    2    0    0  0.32723894056E+02 -0.28322643346E+02 -0.32554313713E+01  0.47787271876E+02  0.20000003793E+02 0.  0.
         12    1    1    2    0    0 -0.32723894056E+02  0.28322643346E+02  0.32554313713E+01  0.43400728124E+02  0.00000000000E+00 0. -1.
         11    1    3    3    0    0  0.10577671810E+02 -0.11037154648E+02  0.37845390751E+01  0.15748925676E+02  0.51100000000E-03 0.  1.
        -11    1    3    3    0    0  0.57872899233E+01  0.16722728169E+01  0.12079127028E-01  0.60240656700E+01  0.51100000000E-03 0. -1.
        -12    1    3    3    0    0  0.16358932322E+02 -0.18957761514E+02 -0.70520495734E+01  0.26014280531E+02  0.00000000000E+00 0.  1.
</event>
<event>
 7    1  0.3807360E-011  0.4778726E+02  0.7816164E-02  0.1312668E+00
        -11   -1    0    0    0    0  0.00000000000E+00  0.00000000000E+00  0.45593999997E+02  0.45594000000E+02  0.51100000000E-03 0. -1.
         11   -1    0    0    0    0 -0.00000000000E+00 -0.00000000000E+00 -0.45593999997E+02  0.45594000000E+02  0.51100000000E-03 0.  1.
    9900012    2    1    2    0    0  0.68638264904E+01  0.34373115726E+02 -0.25592992102E+02  0.47787257569E+02  0.19999938560E+02 0.  0.
         12    1    1    2    0    0 -0.68638264904E+01 -0.34373115726E+02  0.25592992102E+02  0.43400742431E+02  0.00000000000E+00 0. -1.
         11    1    3    3    0    0 -0.27020222260E+01  0.11872442369E+02 -0.53004159289E+01  0.13279692059E+02  0.51100000000E-03 0.  1.
        -11    1    3    3    0    0  0.36208341491E+01 -0.52411525303E+00 -0.51443982562E+01  0.63126832974E+01  0.51100000000E-03 0. -1.
         12    1    3    3    0    0  0.59450145673E+01  0.23024788611E+02 -0.15148177917E+02  0.28194882212E+02  0.00000000000E+00 0. -1.
</event>
<event>
 7    1  0.3807360E-011  0.4778727E+02  0.7816164E-02  0.1312668E+00
        -11   -1    0    0    0    0  0.00000000000E+00  0.00000000000E+00  0.45593999997E+02  0.45594000000E+02  0.51100000000E-03 0. -1.
         11   -1    0    0    0    0 -0.00000000000E+00 -0.00000000000E+00 -0.45593999997E+02  0.45594000000E+02  0.51100000000E-03 0.  1.
    9900012    2    1    2    0    0  0.27610562198E+02  0.62864331367E+01  0.32890133131E+02  0.47787271391E+02  0.20000001579E+02 0.  0.
        -12    1    1    2    0    0 -0.27610562198E+02 -0.62864331367E+01 -0.32890133131E+02  0.43400728609E+02  0.00000000000E+00 0.  1.
         11    1    3    3    0    0  0.94360248020E+01 -0.34338249796E+01  0.68613611006E+01  0.12161743069E+02  0.51100000000E-03 0. -1.
        -11    1    3    3    0    0  0.11625360935E+02 -0.97080168739E+00  0.10776117920E+02  0.15881315766E+02  0.51100000000E-03 0.  1.
         12    1    3    3    0    0  0.65491764610E+01  0.10691059804E+02  0.15252654110E+02  0.19744212556E+02  0.00000000000E+00 0. -1.
</event>
<event>
 7    1  0.3807360E-011  0.4778727E+02  0.7816164E-02  0.1312668E+00
        -11   -1    0    0    0    0  0.00000000000E+00  0.00000000000E+00  0.45593999997E+02  0.45594000000E+02  0.51100000000E-03 0. -1.
         11   -1    0    0    0    0 -0.00000000000E+00 -0.00000000000E+00 -0.45593999997E+02  0.45594000000E+02  0.51100000000E-03 0.  1.
    9900012    2    1    2    0    0 -0.19886505314E+02  0.36124221801E+02  0.13534811183E+02  0.47787267194E+02  0.19999982444E+02 0.  0.
        -12    1    1    2    0    0  0.19886505314E+02 -0.36124221801E+02 -0.13534811183E+02  0.43400732806E+02  0.00000000000E+00 0.  1.
         11    1    3    3    0    0 -0.13644228615E+02  0.12213179125E+02  0.32759033009E+01  0.18602641251E+02  0.51100000000E-03 0. -1.
        -11    1    3    3    0    0 -0.49167654990E+01  0.32610233741E+01  0.52428843850E+01  0.78928254355E+01  0.51100000000E-03 0.  1.
         12    1    3    3    0    0 -0.13255112005E+01  0.20650019302E+02  0.50160234971E+01  0.21291800507E+02  0.00000000000E+00 0. -1.
</event>
<event>
 7    1  0.3807360E-011  0.4778724E+02  0.7816164E-02  0.1312668E+00
        -11   -1    0    0    0    0  0.00000000000E+00  0.00000000000E+00  0.45593999997E+02  0.45594000000E+02  0.51100000000E-03 0. -1.
         11   -1    0    0    0    0 -0.00000000000E+00 -0.00000000000E+00 -0.45593999997E+02  0.45594000000E+02  0.51100000000E-03 0.  1.
    9900012    2    1    2    0    0  0.20732328547E+01  0.28444826534E+01 -0.43257788538E+02  0.47787243725E+02  0.19999875438E+02 0.  0.
         12    1    1    2    0    0 -0.20732328547E+01 -0.28444826534E+01  0.43257788538E+02  0.43400756275E+02  0.00000000000E+00 0. -1.
         11    1    3    3    0    0  0.71520738267E+01  0.12616219687E+01 -0.16007056981E+02  0.17577534624E+02  0.51100000000E-03 0. -1.
        -11    1    3    3    0    0 -0.52664141380E+01  0.61761113253E+01 -0.13981148196E+02  0.16166384076E+02  0.51100000000E-03 0.  1.
         12    1    3    3    0    0  0.18757316598E+00 -0.45932506406E+01 -0.13269583361E+02  0.14043325024E+02  0.00000000000E+00 0. -1.
</event>
<event>
 7    1  0.3807360E-011  0.4778728E+02  0.7816164E-02  0.1312668E+00
        -11   -1    0    0    0    0  0.00000000000E+00  0.00000000000E+00  0.45593999997E+02  0.45594000000E+02  0.51100000000E-03 0. -1.
         11   -1    0    0    0    0 -0.00000000000E+00 -0.00000000000E+00 -0.45593999997E+02  0.45594000000E+02  0.51100000000E-03 0.  1.
    9900012    2    1    2    0    0 -0.18306696472E+01 -0.90578817080E+01  0.42405498148E+02  0.47787275978E+02  0.20000022495E+02 0.  0.
        -12    1    1    2    0    0  0.18306696472E+01  0.90578817080E+01 -0.42405498148E+02  0.43400724022E+02  0.00000000000E+00 0.  1.
         11    1    3    3    0    0  0.22423782930E+01 -0.30396978901E+00  0.34387094318E+01  0.41164767531E+01  0.51100000000E-03 0. -1.
        -11    1    3    3    0    0  0.62226989566E+01 -0.22058157976E+01  0.79106147798E+01  0.10303661101E+02  0.51100000000E-03 0.  1.
         12    1    3    3    0    0 -0.10295746897E+02 -0.65480961214E+01  0.31056173937E+02  0.33367138124E+02  0.00000000000E+00 0. -1.
</event>
<event>
 7    1  0.3807360E-011  0.4778727E+02  0.7816164E-02  0.1312668E+00
        -11   -1    0    0    0    0  0.00000000000E+00  0.00000000000E+00  0.45593999997E+02  0.45594000000E+02  0.51100000000E-03 0. -1.
         11   -1    0    0    0    0 -0.00000000000E+00 -0.00000000000E+00 -0.45593999997E+02  0.45594000000E+02  0.51100000000E-03 0.  1.
    9900012    2    1    2    0    0  0.83461165262E+01 -0.14124543314E+02  0.40180377912E+02  0.47787272425E+02  0.20000006294E+02 0.  0.
        -12    1    1    2    0    0 -0.83461165262E+01  0.14124543314E+02 -0.40180377912E+02  0.43400727575E+02  0.00000000000E+00 0.  1.
         11    1    3    3    0    0  0.90488798224E+01 -0.12466963237E+02  0.18956175873E+02  0.24426297353E+02  0.51100000000E-03 0. -1.
        -11    1    3    3    0    0 -0.12231386604E+01 -0.53670718272E+01  0.16089967139E+02  0.17005545301E+02  0.51100000000E-03 0.  1.
        -12    1    3    3    0    0  0.52037536424E+00  0.37094917501E+01  0.51342349003E+01  0.63554297711E+01  0.00000000000E+00 0.  1.
</event>
<event>
 7    1  0.3807360E-011  0.4778727E+02  0.7816164E-02  0.1312668E+00
        -11   -1    0    0    0    0  0.00000000000E+00  0.00000000000E+00  0.45593999997E+02  0.45594000000E+02  0.51100000000E-03 0.  1.
         11   -1    0    0    0    0 -0.00000000000E+00 -0.00000000000E+00 -0.45593999997E+02  0.45594000000E+02  0.51100000000E-03 0. -1.
    9900012    2    1    2    0    0 -0.21794035332E+02  0.37410393258E+02 -0.30175628939E+01  0.47787272061E+02  0.20000004636E+02 0.  0.
        -12    1    1    2    0    0  0.21794035332E+02 -0.37410393258E+02  0.30175628939E+01  0.43400727939E+02  0.00000000000E+00 0.  1.
         11    1    3    3    0    0 -0.73119676654E+01  0.30700682241E+01 -0.12660306645E+01  0.80307548801E+01  0.51100000000E-03 0.  1.
        -11    1    3    3    0    0  0.11891346573E+01  0.12347101280E+02  0.17427105515E+01  0.12526052514E+02  0.51100000000E-03 0. -1.
         12    1    3    3    0    0 -0.15671202324E+02  0.21993223753E+02 -0.34942427810E+01  0.27230464667E+02  0.00000000000E+00 0. -1.
</event>
<event>
 7    1  0.3807360E-011  0.4778726E+02  0.7816164E-02  0.1312668E+00
        -11   -1    0    0    0    0  0.00000000000E+00  0.00000000000E+00  0.45593999997E+02  0.45594000000E+02  0.51100000000E-03 0. -1.
         11   -1    0    0    0    0 -0.00000000000E+00 -0.00000000000E+00 -0.45593999997E+02  0.45594000000E+02  0.51100000000E-03 0.  1.
    9900012    2    1    2    0    0 -0.40136528307E+01  0.27324581728E+02 -0.33479572232E+02  0.47787263456E+02  0.19999965403E+02 0.  0.
         12    1    1    2    0    0  0.40136528307E+01 -0.27324581728E+02  0.33479572232E+02  0.43400736544E+02  0.00000000000E+00 0. -1.
         11    1    3    3    0    0 -0.14762274348E+01 -0.49724277249E+00  0.54005136930E+00  0.16486823699E+01  0.51100000000E-03 0. -1.
        -11    1    3    3    0    0  0.57159848997E+01  0.11726046527E+02 -0.15328695889E+02  0.20128128787E+02  0.51100000000E-03 0.  1.
        -12    1    3    3    0    0 -0.82534102956E+01  0.16095777973E+02 -0.18690927713E+02  0.26010452300E+02  0.00000000000E+00 0.  1.
</event>
<event>
 7    1  0.3807360E-011  0.4778727E+02  0.7816164E-02  0.1312668E+00
        -11   -1    0    0    0    0  0.00000000000E+00  0.00000000000E+00  0.45593999997E+02  0.45594000000E+02  0.51100000000E-03 0. -1.
         11   -1    0    0    0    0 -0.00000000000E+00 -0.00000000000E+00 -0.45593999997E+02  0.45594000000E+02  0.51100000000E-03 0.  1.
    9900012    2    1    2    0    0 -0.62465916785E+01  0.16999186326E+02 -0.39441493772E+02  0.47787266431E+02  0.19999978967E+02 0.  0.
         12    1    1    2    0    0  0.62465916785E+01 -0.16999186326E+02  0.39441493772E+02  0.43400733569E+02  0.00000000000E+00 0. -1.
         11    1    3    3    0    0  0.97219006032E+00  0.12338734302E+02 -0.33177544578E+02  0.35411000864E+02  0.51100000000E-03 0.  1.
        -11    1    3    3    0    0 -0.16104705234E+01  0.41953726583E+01 -0.86238358977E+00  0.45758575990E+01  0.51100000000E-03 0. -1.
        -12    1    3    3    0    0 -0.56083112154E+01  0.46507936639E+00 -0.54015656036E+01  0.78004079686E+01  0.00000000000E+00 0.  1.
</event>
<event>
 7    1  0.3807360E-011  0.4778727E+02  0.7816164E-02  0.1312668E+00
        -11   -1    0    0    0    0  0.00000000000E+00  0.00000000000E+00  0.45593999997E+02  0.45594000000E+02  0.51100000000E-03 0. -1.
         11   -1    0    0    0    0 -0.00000000000E+00 -0.00000000000E+00 -0.45593999997E+02  0.45594000000E+02  0.51100000000E-03 0.  1.
    9900012    2    1    2    0    0  0.19884511145E+02 -0.28510833263E+02  0.25987723946E+02  0.47787271979E+02  0.20000004262E+02 0.  0.
        -12    1    1    2    0    0 -0.19884511145E+02  0.28510833263E+02 -0.25987723946E+02  0.43400728021E+02  0.00000000000E+00 0.  1.
         11    1    3    3    0    0  0.13479421224E+02 -0.82807094250E+01  0.11386453495E+02  0.19491440905E+02  0.51100000000E-03 0. -1.
        -11    1    3    3    0    0  0.69124562496E+01 -0.18047107501E+02  0.73001540628E+01  0.20658470180E+02  0.51100000000E-03 0.  1.
        -12    1    3    3    0    0 -0.50736632810E+00 -0.21830163369E+01  0.73011163883E+01  0.76373608945E+01  0.00000000000E+00 0.  1.
</event>
<event>
 7    1  0.3807360E-011  0.4778727E+02  0.7816164E-02  0.1312668E+00
        -11   -1    0    0    0    0  0.00000000000E+00  0.00000000000E+00  0.45593999997E+02  0.45594000000E+02  0.51100000000E-03 0.  1.
         11   -1    0    0    0    0 -0.00000000000E+00 -0.00000000000E+00 -0.45593999997E+02  0.45594000000E+02  0.51100000000E-03 0. -1.
    9900012    2    1    2    0    0 -0.93071617078E+01 -0.38923122333E+02 -0.16792578957E+02  0.47787269369E+02  0.19999992362E+02 0.  0.
         12    1    1    2    0    0  0.93071617078E+01  0.38923122333E+02  0.16792578957E+02  0.43400730631E+02  0.00000000000E+00 0. -1.
         11    1    3    3    0    0 -0.56621437352E+01 -0.91760558507E+01 -0.67551074167E+01  0.12723653136E+02  0.51100000000E-03 0. -1.
        -11    1    3    3    0    0  0.38044894435E+01 -0.56065021294E+01  0.20197007749E+01  0.70700917627E+01  0.51100000000E-03 0.  1.
        -12    1    3    3    0    0 -0.74495074160E+01 -0.24140564353E+02 -0.12057172316E+02  0.27993524471E+02  0.00000000000E+00 0.  1.
</event>
<event>
 7    1  0.3807360E-011  0.4778727E+02  0.7816164E-02  0.1312668E+00
        -11   -1    0    0    0    0  0.00000000000E+00  0.00000000000E+00  0.45593999997E+02  0.45594000000E+02  0.51100000000E-03 0. -1.
         11   -1    0    0    0    0 -0.00000000000E+00 -0.00000000000E+00 -0.45593999997E+02  0.45594000000E+02  0.51100000000E-03 0.  1.
    9900012    2    1    2    0    0  0.18506196473E+02 -0.23796908869E+02 -0.31222603671E+02  0.47787272361E+02  0.20000006005E+02 0.  0.
         12    1    1    2    0    0 -0.18506196473E+02  0.23796908869E+02  0.31222603671E+02  0.43400727639E+02  0.00000000000E+00 0. -1.
         11    1    3    3    0    0  0.20453806715E+02 -0.12482173588E+02 -0.19010066531E+02  0.30586688222E+02  0.51100000000E-03 0. -1.
        -11    1    3    3    0    0  0.37454992138E+00 -0.61176916338E+01 -0.81943615263E+01  0.10232985862E+02  0.51100000000E-03 0.  1.
         12    1    3    3    0    0 -0.23221601639E+01 -0.51970436469E+01 -0.40181756136E+01  0.69675982775E+01  0.00000000000E+00 0. -1.
</event>
<event>
 7    1  0.3807360E-011  0.4778727E+02  0.7816164E-02  0.1312668E+00
        -11   -1    0    0    0    0  0.00000000000E+00  0.00000000000E+00  0.45593999997E+02  0.45594000000E+02  0.51100000000E-03 0. -1.
         11   -1    0    0    0    0 -0.00000000000E+00 -0.00000000000E+00 -0.45593999997E+02  0.45594000000E+02  0.51100000000E-03 0.  1.
    9900012    2    1    2    0    0 -0.42621301053E+02  0.16011048687E+01 -0.80302341501E+01  0.47787268431E+02  0.19999988082E+02 0.  0.
         12    1    1    2    0    0  0.42621301053E+02 -0.16011048687E+01  0.80302341501E+01  0.43400731569E+02  0.00000000000E+00 0. -1.
         11    1    3    3    0    0 -0.21845245674E+01  0.26149913565E+01 -0.31145655121E+01  0.46163671832E+01  0.51100000000E-03 0. -1.
        -11    1    3    3    0    0 -0.82832922006E+01 -0.11229069280E+01 -0.70659851441E+01  0.10945409813E+02  0.51100000000E-03 0.  1.
        -12    1    3    3    0    0 -0.32153484285E+02  0.10902044016E+00  0.21503165060E+01  0.32225491435E+02  0.00000000000E+00 0.  1.
</event>
<event>
 7    1  0.3807360E-011  0.4778727E+02  0.7816164E-02  0.1312668E+00
        -11   -1    0    0    0    0  0.00000000000E+00  0.00000000000E+00  0.45593999997E+02  0.45594000000E+02  0.51100000000E-03 0. -1.
         11   -1    0    0    0    0 -0.00000000000E+00 -0.00000000000E+00 -0.45593999997E+02  0.45594000000E+02  0.51100000000E-03 0.  1.
    9900012    2    1    2    0    0  0.13576867530E+02  0.12002966999E+02 -0.39436289052E+02  0.47787269097E+02  0.19999991123E+02 0.  0.
         12    1    1    2    0    0 -0.13576867530E+02 -0.12002966999E+02  0.39436289052E+02  0.43400730903E+02  0.00000000000E+00 0. -1.
         11    1    3    3    0    0  0.85789332577E+01  0.66713776762E+01 -0.11748660827E+02  0.16004262164E+02  0.51100000000E-03 0. -1.
        -11    1    3    3    0    0 -0.23235984852E+01 -0.32874368495E+01 -0.48849153838E+01  0.63299881143E+01  0.51100000000E-03 0.  1.
         12    1    3    3    0    0  0.73215327580E+01  0.86190261719E+01 -0.22802712841E+02  0.25453018819E+02  0.00000000000E+00 0. -1.
</event>
<event>
 7    1  0.3807360E-011  0.4778733E+02  0.7816164E-02  0.1312668E+00
        -11   -1    0    0    0    0  0.00000000000E+00  0.00000000000E+00  0.45593999997E+02  0.45594000000E+02  0.51100000000E-03 0. -1.
         11   -1    0    0    0    0 -0.00000000000E+00 -0.00000000000E+00 -0.45593999997E+02  0.45594000000E+02  0.51100000000E-03 0.  1.
    9900012    2    1    2    0    0 -0.14837670689E+02 -0.40715709619E+02 -0.23859969379E+01  0.47787326472E+02  0.20000252716E+02 0.  0.
        -12    1    1    2    0    0  0.14837670689E+02  0.40715709619E+02  0.23859969379E+01  0.43400673528E+02  0.00000000000E+00 0.  1.
         11    1    3    3    0    0 -0.10334518447E+01 -0.57324212056E+01 -0.48556671726E+01  0.75832829003E+01  0.51100000000E-03 0. -1.
        -11    1    3    3    0    0 -0.10326026990E+02 -0.32482668825E+02 -0.18313794821E+01  0.34133627971E+02  0.51100000000E-03 0.  1.
        -12    1    3    3    0    0 -0.34781918546E+01 -0.25006195888E+01  0.43010497167E+01  0.60704156012E+01  0.00000000000E+00 0.  1.
</event>
<event>
 7    1  0.3807360E-011  0.4778725E+02  0.7816164E-02  0.1312668E+00
        -11   -1    0    0    0    0  0.00000000000E+00  0.00000000000E+00  0.45593999997E+02  0.45594000000E+02  0.51100000000E-03 0. -1.
         11   -1    0    0    0    0 -0.00000000000E+00 -0.00000000000E+00 -0.45593999997E+02  0.45594000000E+02  0.51100000000E-03 0.  1.
    9900012    2    1    2    0    0 -0.68520585474E+01 -0.37435670939E+02  0.20862534801E+02  0.47787245130E+02  0.19999881845E+02 0.  0.
        -12    1    1    2    0    0  0.68520585474E+01  0.37435670939E+02 -0.20862534801E+02  0.43400754870E+02  0.00000000000E+00 0.  1.
         11    1    3    3    0    0 -0.20883111343E+01 -0.46118693180E+01  0.75149722246E+01  0.90611914116E+01  0.51100000000E-03 0. -1.
        -11    1    3    3    0    0 -0.53622300339E+01 -0.33744185668E+02  0.10610746225E+02  0.35777248540E+02  0.51100000000E-03 0.  1.
        -12    1    3    3    0    0  0.59848262083E+00  0.92038404767E+00  0.27368163510E+01  0.29488051786E+01  0.00000000000E+00 0.  1.
</event>
<event>
 7    1  0.3807360E-011  0.4778727E+02  0.7816164E-02  0.1312668E+00
        -11   -1    0    0    0    0  0.00000000000E+00  0.00000000000E+00  0.45593999997E+02  0.45594000000E+02  0.51100000000E-03 0. -1.
         11   -1    0    0    0    0 -0.00000000000E+00 -0.00000000000E+00 -0.45593999997E+02  0.45594000000E+02  0.51100000000E-03 0.  1.
    9900012    2    1    2    0    0  0.26816995161E+01 -0.99242449560E+01  0.42165637884E+02  0.47787272260E+02  0.20000005542E+02 0.  0.
        -12    1    1    2    0    0 -0.26816995161E+01  0.99242449560E+01 -0.42165637884E+02  0.43400727740E+02  0.00000000000E+00 0.  1.
         11    1    3    3    0    0  0.18181220124E+01 -0.17995374441E+01  0.16199233949E+01  0.30278795767E+01  0.51100000000E-03 0. -1.
        -11    1    3    3    0    0  0.80262525867E+01 -0.84709596054E+01  0.27480456198E+02  0.29855541535E+02  0.51100000000E-03 0.  1.
         12    1    3    3    0    0 -0.71626750830E+01  0.34625209352E+00  0.13065258290E+02  0.14903851148E+02  0.00000000000E+00 0. -1.
</event>
<event>
 7    1  0.3807360E-011  0.4778727E+02  0.7816164E-02  0.1312668E+00
        -11   -1    0    0    0    0  0.00000000000E+00  0.00000000000E+00  0.45593999997E+02  0.45594000000E+02  0.51100000000E-03 0. -1.
         11   -1    0    0    0    0 -0.00000000000E+00 -0.00000000000E+00 -0.45593999997E+02  0.45594000000E+02  0.51100000000E-03 0.  1.
    9900012    2    1    2    0    0  0.11096607653E+02  0.49948327772E+00 -0.41955208441E+02  0.47787266132E+02  0.19999977601E+02 0.  0.
         12    1    1    2    0    0 -0.11096607653E+02 -0.49948327772E+00  0.41955208441E+02  0.43400733868E+02  0.00000000000E+00 0. -1.
         11    1    3    3    0    0  0.51133639326E+01  0.15933320665E+01 -0.97977351285E+01  0.11166056228E+02  0.51100000000E-03 0. -1.
        -11    1    3    3    0    0  0.67364547765E+01  0.67752095503E+01 -0.19124395536E+02  0.21378161574E+02  0.51100000000E-03 0.  1.
         12    1    3    3    0    0 -0.75321105594E+00 -0.78690583390E+01 -0.13033077777E+02  0.15243048330E+02  0.00000000000E+00 0. -1.
</event>
<event>
 7    1  0.3807360E-011  0.4778727E+02  0.7816164E-02  0.1312668E+00
        -11   -1    0    0    0    0  0.00000000000E+00  0.00000000000E+00  0.45593999997E+02  0.45594000000E+02  0.51100000000E-03 0. -1.
         11   -1    0    0    0    0 -0.00000000000E+00 -0.00000000000E+00 -0.45593999997E+02  0.45594000000E+02  0.51100000000E-03 0.  1.
    9900012    2    1    2    0    0 -0.10035649460E+01  0.12731341856E+02 -0.41479258686E+02  0.47787272942E+02  0.20000008651E+02 0.  0.
         12    1    1    2    0    0  0.10035649460E+01 -0.12731341856E+02  0.41479258686E+02  0.43400727058E+02  0.00000000000E+00 0. -1.
         11    1    3    3    0    0  0.61487779587E+01  0.40491707726E+01 -0.14312200049E+02  0.16094791854E+02  0.51100000000E-03 0. -1.
        -11    1    3    3    0    0  0.18089584217E+01 -0.49044682062E+00 -0.10485313157E+02  0.10651509795E+02  0.51100000000E-03 0.  1.
        -12    1    3    3    0    0 -0.89613013265E+01  0.91726179043E+01 -0.16681745480E+02  0.21040971293E+02  0.00000000000E+00 0.  1.
</event>
<event>
 7    1  0.3807360E-011  0.4778727E+02  0.7816164E-02  0.1312668E+00
        -11   -1    0    0    0    0  0.00000000000E+00  0.00000000000E+00  0.45593999997E+02  0.45594000000E+02  0.51100000000E-03 0.  1.
         11   -1    0    0    0    0 -0.00000000000E+00 -0.00000000000E+00 -0.45593999997E+02  0.45594000000E+02  0.51100000000E-03 0. -1.
    9900012    2    1    2    0    0 -0.16030534350E+02 -0.37386363633E+02  0.15129611454E+02  0.47787270052E+02  0.19999995475E+02 0.  0.
         12    1    1    2    0    0  0.16030534350E+02  0.37386363633E+02 -0.15129611454E+02  0.43400729948E+02  0.00000000000E+00 0. -1.
         11    1    3    3    0    0  0.58078438223E+00 -0.25859995684E+01  0.72919641579E+01  0.77587012965E+01  0.51100000000E-03 0. -1.
        -11    1    3    3    0    0 -0.74911048612E+01 -0.20876539252E+02  0.73868920574E+01  0.23377611463E+02  0.51100000000E-03 0.  1.
        -12    1    3    3    0    0 -0.91202138711E+01 -0.13923824813E+02  0.45075523848E+00  0.16650957292E+02  0.00000000000E+00 0.  1.
</event>
<event>
 7    1  0.3807360E-011  0.4778727E+02  0.7816164E-02  0.1312668E+00
        -11   -1    0    0    0    0  0.00000000000E+00  0.00000000000E+00  0.45593999997E+02  0.45594000000E+02  0.51100000000E-03 0. -1.
         11   -1    0    0    0    0 -0.00000000000E+00 -0.00000000000E+00 -0.45593999997E+02  0.45594000000E+02  0.51100000000E-03 0.  1.
    9900012    2    1    2    0    0 -0.28255477091E+02  0.27003081578E+02  0.18870212472E+02  0.47787270524E+02  0.19999997626E+02 0.  0.
        -12    1    1    2    0    0  0.28255477091E+02 -0.27003081578E+02 -0.18870212472E+02  0.43400729476E+02  0.00000000000E+00 0.  1.
         11    1    3    3    0    0 -0.20106651370E+02  0.97079647156E+01  0.15084334556E+02  0.26945484919E+02  0.51100000000E-03 0. -1.
        -11    1    3    3    0    0 -0.56146581211E+01  0.58424527874E+01 -0.10176138286E+01  0.81666503877E+01  0.51100000000E-03 0.  1.
        -12    1    3    3    0    0 -0.25341675994E+01  0.11452664075E+02  0.48034917439E+01  0.12675135217E+02  0.00000000000E+00 0.  1.
</event>
<event>
 7    1  0.3807360E-011  0.4778727E+02  0.7816164E-02  0.1312668E+00
        -11   -1    0    0    0    0  0.00000000000E+00  0.00000000000E+00  0.45593999997E+02  0.45594000000E+02  0.51100000000E-03 0. -1.
         11   -1    0    0    0    0 -0.00000000000E+00 -0.00000000000E+00 -0.45593999997E+02  0.45594000000E+02  0.51100000000E-03 0.  1.
    9900012    2    1    2    0    0 -0.11407357088E+02  0.19689346766E+02  0.36957068467E+02  0.47787273261E+02  0.20000010107E+02 0.  0.
        -12    1    1    2    0    0  0.11407357088E+02 -0.19689346766E+02 -0.36957068467E+02  0.43400726739E+02  0.00000000000E+00 0.  1.
         11    1    3    3    0    0 -0.27351779860E+01  0.66650074916E+01  0.11551994348E+02  0.13614407705E+02  0.51100000000E-03 0. -1.
        -11    1    3    3    0    0 -0.83709392317E+01 -0.77984672934E+00  0.13688824594E+02  0.16064392412E+02  0.51100000000E-03 0.  1.
        -12    1    3    3    0    0 -0.30123986985E+00  0.13804186004E+02  0.11716249525E+02  0.18108473144E+02  0.00000000000E+00 0.  1.
</event>
<event>
 7    1  0.3807360E-011  0.4778727E+02  0.7816164E-02  0.1312668E+00
        -11   -1    0    0    0    0  0.00000000000E+00  0.00000000000E+00  0.45593999997E+02  0.45594000000E+02  0.51100000000E-03 0. -1.
         11   -1    0    0    0    0 -0.00000000000E+00 -0.00000000000E+00 -0.45593999997E+02  0.45594000000E+02  0.51100000000E-03 0.  1.
    9900012    2    1    2    0    0 -0.43422090122E+01  0.12732582263E+02  0.41263178211E+02  0.47787270671E+02  0.19999998300E+02 0.  0.
        -12    1    1    2    0    0  0.43422090122E+01 -0.12732582263E+02 -0.41263178211E+02  0.43400729329E+02  0.00000000000E+00 0.  1.
         11    1    3    3    0    0  0.93019801245E+00  0.39273572280E+01  0.16725539503E+01  0.43688488320E+01  0.51100000000E-03 0. -1.
        -11    1    3    3    0    0 -0.24381370496E+01  0.11008970210E+02  0.16104792516E+02  0.19659762959E+02  0.51100000000E-03 0.  1.
         12    1    3    3    0    0 -0.28342699751E+01 -0.22037451746E+01  0.23485831744E+02  0.23758658881E+02  0.00000000000E+00 0. -1.
</event>
<event>
 7    1  0.3807360E-011  0.4778727E+02  0.7816164E-02  0.1312668E+00
        -11   -1    0    0    0    0  0.00000000000E+00  0.00000000000E+00  0.45593999997E+02  0.45594000000E+02  0.51100000000E-03 0. -1.
         11   -1    0    0    0    0 -0.00000000000E+00 -0.00000000000E+00 -0.45593999997E+02  0.45594000000E+02  0.51100000000E-03 0.  1.
    9900012    2    1    2    0    0 -0.90150400948E+01 -0.24987518571E+02 -0.34321655091E+02  0.47787273734E+02  0.20000012263E+02 0.  0.
         12    1    1    2    0    0  0.90150400948E+01  0.24987518571E+02  0.34321655091E+02  0.43400726266E+02  0.00000000000E+00 0. -1.
         11    1    3    3    0    0  0.31747570165E+00  0.10797791737E+00  0.86461651190E+00  0.92736833326E+00  0.51100000000E-03 0. -1.
        -11    1    3    3    0    0 -0.12859873187E+02 -0.15952842868E+02 -0.28050679973E+02  0.34737734255E+02  0.51100000000E-03 0.  1.
        -12    1    3    3    0    0  0.35273573909E+01 -0.91426536201E+01 -0.71355916301E+01  0.12122171146E+02  0.00000000000E+00 0.  1.
</event>
<event>
 7    1  0.3807360E-011  0.4778727E+02  0.7816164E-02  0.1312668E+00
        -11   -1    0    0    0    0  0.00000000000E+00  0.00000000000E+00  0.45593999997E+02  0.45594000000E+02  0.51100000000E-03 0. -1.
         11   -1    0    0    0    0 -0.00000000000E+00 -0.00000000000E+00 -0.45593999997E+02  0.45594000000E+02  0.51100000000E-03 0.  1.
    9900012    2    1    2    0    0  0.43051027831E+02 -0.29666449921E+01 -0.46294003900E+01  0.47787270423E+02  0.19999997167E+02 0.  0.
         12    1    1    2    0    0 -0.43051027831E+02  0.29666449921E+01  0.46294003900E+01  0.43400729577E+02  0.00000000000E+00 0. -1.
         11    1    3    3    0    0  0.43219232535E+01  0.31922902648E+01 -0.21221897358E+01  0.57769738860E+01  0.51100000000E-03 0. -1.
        -11    1    3    3    0    0  0.37400199054E+02 -0.41840443931E+01 -0.56632350031E+01  0.38057237784E+02  0.51100000000E-03 0.  1.
         12    1    3    3    0    0  0.13289055236E+01 -0.19748908639E+01  0.31560243489E+01  0.39530587531E+01  0.00000000000E+00 0. -1.
</event>
<event>
 7    1  0.3807360E-011  0.4778727E+02  0.7816164E-02  0.1312668E+00
        -11   -1    0    0    0    0  0.00000000000E+00  0.00000000000E+00  0.45593999997E+02  0.45594000000E+02  0.51100000000E-03 0. -1.
         11   -1    0    0    0    0 -0.00000000000E+00 -0.00000000000E+00 -0.45593999997E+02  0.45594000000E+02  0.51100000000E-03 0.  1.
    9900012    2    1    2    0    0 -0.45592926362E+01 -0.26725505597E+01  0.43077758462E+02  0.47787274776E+02  0.20000017014E+02 0.  0.
        -12    1    1    2    0    0  0.45592926362E+01  0.26725505597E+01 -0.43077758462E+02  0.43400725224E+02  0.00000000000E+00 0.  1.
         11    1    3    3    0    0 -0.16717482718E+01 -0.71570775041E+01  0.10342843878E+02  0.12688298563E+02  0.51100000000E-03 0. -1.
        -11    1    3    3    0    0  0.83341380720E+00  0.44700545360E+01  0.38002468119E+01  0.59260308994E+01  0.51100000000E-03 0.  1.
         12    1    3    3    0    0 -0.37209581715E+01  0.14472408419E-01  0.28934667773E+02  0.29172945314E+02  0.00000000000E+00 0. -1.
</event>
<event>
 7    1  0.3807360E-011  0.4778724E+02  0.7816164E-02  0.1312668E+00
        -11   -1    0    0    0    0  0.00000000000E+00  0.00000000000E+00  0.45593999997E+02  0.45594000000E+02  0.51100000000E-03 0. -1.
         11   -1    0    0    0    0 -0.00000000000E+00 -0.00000000000E+00 -0.45593999997E+02  0.45594000000E+02  0.51100000000E-03 0.  1.
    9900012    2    1    2    0    0 -0.30960418616E+02 -0.20423005181E+02  0.22538398623E+02  0.47787238785E+02  0.19999852918E+02 0.  0.
        -12    1    1    2    0    0  0.30960418616E+02  0.20423005181E+02 -0.22538398623E+02  0.43400761215E+02  0.00000000000E+00 0.  1.
         11    1    3    3    0    0 -0.16482687535E+02 -0.37352338614E+01  0.87130632188E+01  0.19014426925E+02  0.51100000000E-03 0. -1.
        -11    1    3    3    0    0 -0.10059036068E+00  0.17202410047E+01  0.20717343053E+00  0.17355888414E+01  0.51100000000E-03 0.  1.
        -12    1    3    3    0    0 -0.14377140721E+02 -0.18408012324E+02  0.13618161974E+02  0.27037223019E+02  0.00000000000E+00 0.  1.
</event>
<event>
 7    1  0.3807360E-011  0.4778726E+02  0.7816164E-02  0.1312668E+00
        -11   -1    0    0    0    0  0.00000000000E+00  0.00000000000E+00  0.45593999997E+02  0.45594000000E+02  0.51100000000E-03 0. -1.
         11   -1    0    0    0    0 -0.00000000000E+00 -0.00000000000E+00 -0.45593999997E+02  0.45594000000E+02  0.51100000000E-03 0.  1.
    9900012    2    1    2    0    0  0.20183530195E+02 -0.25827423663E+02  0.28446323095E+02  0.47787262658E+02  0.19999961764E+02 0.  0.
        -12    1    1    2    0    0 -0.20183530195E+02  0.25827423663E+02 -0.28446323095E+02  0.43400737342E+02  0.00000000000E+00 0.  1.
         11    1    3    3    0    0  0.10661267510E+02 -0.14454891049E+02  0.13681417266E+02  0.22578478222E+02  0.51100000000E-03 0. -1.
        -11    1    3    3    0    0 -0.19789388220E+01 -0.38518689126E+01  0.95943729378E+01  0.10526399447E+02  0.51100000000E-03 0.  1.
         12    1    3    3    0    0  0.11501201506E+02 -0.75206637013E+01  0.51705328908E+01  0.14682384989E+02  0.00000000000E+00 0. -1.
</event>
<event>
 7    1  0.3807360E-011  0.4778726E+02  0.7816164E-02  0.1312668E+00
        -11   -1    0    0    0    0  0.00000000000E+00  0.00000000000E+00  0.45593999997E+02  0.45594000000E+02  0.51100000000E-03 0. -1.
         11   -1    0    0    0    0 -0.00000000000E+00 -0.00000000000E+00 -0.45593999997E+02  0.45594000000E+02  0.51100000000E-03 0.  1.
    9900012    2    1    2    0    0  0.26117257179E+02 -0.34227906537E+02 -0.54738970888E+01  0.47787259710E+02  0.19999948320E+02 0.  0.
         12    1    1    2    0    0 -0.26117257179E+02  0.34227906537E+02  0.54738970888E+01  0.43400740290E+02  0.00000000000E+00 0. -1.
         11    1    3    3    0    0  0.10350335400E+02 -0.13574902919E+02  0.18710031641E+01  0.17172888087E+02  0.51100000000E-03 0. -1.
        -11    1    3    3    0    0 -0.14463090552E+01 -0.63380249653E+01 -0.48029013940E+01  0.80827119463E+01  0.51100000000E-03 0.  1.
        -12    1    3    3    0    0  0.17213230834E+02 -0.14314978652E+02 -0.25419988589E+01  0.22531659676E+02  0.00000000000E+00 0.  1.
</event>
<event>
 7    1  0.3807360E-011  0.4778727E+02  0.7816164E-02  0.1312668E+00
        -11   -1    0    0    0    0  0.00000000000E+00  0.00000000000E+00  0.45593999997E+02  0.45594000000E+02  0.51100000000E-03 0. -1.
         11   -1    0    0    0    0 -0.00000000000E+00 -0.00000000000E+00 -0.45593999997E+02  0.45594000000E+02  0.51100000000E-03 0.  1.
    9900012    2    1    2    0    0  0.10716336915E+02 -0.93931694938E+01 -0.40994531564E+02  0.47787272723E+02  0.20000007656E+02 0.  0.
         12    1    1    2    0    0 -0.10716336915E+02  0.93931694938E+01  0.40994531564E+02  0.43400727277E+02  0.00000000000E+00 0. -1.
         11    1    3    3    0    0  0.56135571584E+01  0.77863129038E+00 -0.25377193898E+01  0.62095338488E+01  0.51100000000E-03 0. -1.
        -11    1    3    3    0    0  0.34005380248E+01 -0.52363450804E+01 -0.58513262269E+01  0.85569262901E+01  0.51100000000E-03 0.  1.
        -12    1    3    3    0    0  0.17022417318E+01 -0.49354557038E+01 -0.32605485947E+02  0.33020812585E+02  0.00000000000E+00 0.  1.
</event>
<event>
 7    1  0.3807360E-011  0.4778727E+02  0.7816164E-02  0.1312668E+00
        -11   -1    0    0    0    0  0.00000000000E+00  0.00000000000E+00  0.45593999997E+02  0.45594000000E+02  0.51100000000E-03 0. -1.
         11   -1    0    0    0    0 -0.00000000000E+00 -0.00000000000E+00 -0.45593999997E+02  0.45594000000E+02  0.51100000000E-03 0.  1.
    9900012    2    1    2    0    0 -0.10989043162E+01  0.12816392132E+02  0.41450641693E+02  0.47787271956E+02  0.20000004158E+02 0.  0.
        -12    1    1    2    0    0  0.10989043162E+01 -0.12816392132E+02 -0.41450641693E+02  0.43400728044E+02  0.00000000000E+00 0.  1.
         11    1    3    3    0    0  0.28781956603E+01 -0.95250789552E-01  0.76649377368E+01  0.81880616597E+01  0.51100000000E-03 0. -1.
        -11    1    3    3    0    0 -0.57109287174E+01  0.41835731791E+01  0.32433413781E+01  0.77869284648E+01  0.51100000000E-03 0.  1.
         12    1    3    3    0    0  0.17338287409E+01  0.87280697425E+01  0.30542362578E+02  0.31812281832E+02  0.00000000000E+00 0. -1.
</event>
<event>
 7    1  0.3807360E-011  0.4778727E+02  0.7816164E-02  0.1312668E+00
        -11   -1    0    0    0    0  0.00000000000E+00  0.00000000000E+00  0.45593999997E+02  0.45594000000E+02  0.51100000000E-03 0. -1.
         11   -1    0    0    0    0 -0.00000000000E+00 -0.00000000000E+00 -0.45593999997E+02  0.45594000000E+02  0.51100000000E-03 0.  1.
    9900012    2    1    2    0    0 -0.16633073819E+02 -0.24450927034E+02 -0.31766589079E+02  0.47787272365E+02  0.20000006022E+02 0.  0.
         12    1    1    2    0    0  0.16633073819E+02  0.24450927034E+02  0.31766589079E+02  0.43400727635E+02  0.00000000000E+00 0. -1.
         11    1    3    3    0    0 -0.27550278674E+01  0.27090208279E+01 -0.37542953898E+01  0.53873654537E+01  0.51100000000E-03 0. -1.
        -11    1    3    3    0    0 -0.71951188924E+01 -0.11496860574E+02 -0.67226333205E+01  0.15137415168E+02  0.51100000000E-03 0.  1.
        -12    1    3    3    0    0 -0.66829270597E+01 -0.15663087287E+02 -0.21289660369E+02  0.27262491744E+02  0.00000000000E+00 0.  1.
</event>
<event>
 7    1  0.3807360E-011  0.4778727E+02  0.7816164E-02  0.1312668E+00
        -11   -1    0    0    0    0  0.00000000000E+00  0.00000000000E+00  0.45593999997E+02  0.45594000000E+02  0.51100000000E-03 0. -1.
         11   -1    0    0    0    0 -0.00000000000E+00 -0.00000000000E+00 -0.45593999997E+02  0.45594000000E+02  0.51100000000E-03 0.  1.
    9900012    2    1    2    0    0 -0.71267193847E+01  0.36188241784E+02  0.22874531894E+02  0.47787272103E+02  0.20000004825E+02 0.  0.
        -12    1    1    2    0    0  0.71267193847E+01 -0.36188241784E+02 -0.22874531894E+02  0.43400727897E+02  0.00000000000E+00 0.  1.
         11    1    3    3    0    0 -0.43958259958E+01  0.15630623778E+02  0.19107622503E+02  0.25074706854E+02  0.51100000000E-03 0. -1.
        -11    1    3    3    0    0 -0.28537915499E+01  0.15065538742E+01  0.13889872135E+01  0.35132771775E+01  0.51100000000E-03 0.  1.
        -12    1    3    3    0    0  0.12289816100E+00  0.19051064132E+02  0.23779221779E+01  0.19199288071E+02  0.00000000000E+00 0.  1.
</event>
<event>
 7    1  0.3807360E-011  0.4778727E+02  0.7816164E-02  0.1312668E+00
        -11   -1    0    0    0    0  0.00000000000E+00  0.00000000000E+00  0.45593999997E+02  0.45594000000E+02  0.51100000000E-03 0. -1.
         11   -1    0    0    0    0 -0.00000000000E+00 -0.00000000000E+00 -0.45593999997E+02  0.45594000000E+02  0.51100000000E-03 0.  1.
    9900012    2    1    2    0    0 -0.39854036955E+01  0.53878201733E+01 -0.42880195970E+02  0.47787271259E+02  0.20000000977E+02 0.  0.
         12    1    1    2    0    0  0.39854036955E+01 -0.53878201733E+01  0.42880195970E+02  0.43400728741E+02  0.00000000000E+00 0. -1.
         11    1    3    3    0    0 -0.38464999579E+01 -0.38233471720E+00 -0.40454857657E+01  0.55953281498E+01  0.51100000000E-03 0. -1.
        -11    1    3    3    0    0  0.39679808042E+01  0.75095928112E+01 -0.35808803415E+02  0.36802299631E+02  0.51100000000E-03 0.  1.
        -12    1    3    3    0    0 -0.41068845418E+01 -0.17394379207E+01 -0.30259067895E+01  0.53896434779E+01  0.00000000000E+00 0.  1.
</event>
<event>
 7    1  0.3807360E-011  0.4778727E+02  0.7816164E-02  0.1312668E+00
        -11   -1    0    0    0    0  0.00000000000E+00  0.00000000000E+00  0.45593999997E+02  0.45594000000E+02  0.51100000000E-03 0. -1.
         11   -1    0    0    0    0 -0.00000000000E+00 -0.00000000000E+00 -0.45593999997E+02  0.45594000000E+02  0.51100000000E-03 0.  1.
    9900012    2    1    2    0    0 -0.27554100045E+02  0.11887317279E+02 -0.31354214960E+02  0.47787268012E+02  0.19999986172E+02 0.  0.
         12    1    1    2    0    0  0.27554100045E+02 -0.11887317279E+02  0.31354214960E+02  0.43400731988E+02  0.00000000000E+00 0. -1.
         11    1    3    3    0    0 -0.65632334080E+01  0.65072863566E+01 -0.23231425041E+01  0.95298373465E+01  0.51100000000E-03 0. -1.
        -11    1    3    3    0    0  0.10198815436E+01  0.75627985013E+00  0.29130010407E+00  0.13026793875E+01  0.51100000000E-03 0.  1.
        -12    1    3    3    0    0 -0.22010748180E+02  0.46237510724E+01 -0.29322372560E+02  0.36954751278E+02  0.00000000000E+00 0.  1.
</event>
<event>
 7    1  0.4347267E-011  0.4778727E+02  0.7816164E-02  0.1312668E+00
        -11   -1    0    0    0    0  0.00000000000E+00  0.00000000000E+00  0.45593999997E+02  0.45594000000E+02  0.51100000000E-03 0. -1.
         11   -1    0    0    0    0 -0.00000000000E+00 -0.00000000000E+00 -0.45593999997E+02  0.45594000000E+02  0.51100000000E-03 0.  1.
    9900012    2    1    2    0    0  0.16743777871E+02 -0.58438141408E+00 -0.40036585662E+02  0.47787265093E+02  0.19999972863E+02 0.  0.
         12    1    1    2    0    0 -0.16743777871E+02  0.58438141408E+00  0.40036585662E+02  0.43400734907E+02  0.00000000000E+00 0. -1.
         11    1    3    3    0    0  0.75887587831E+01  0.61508844132E+01 -0.87922481139E+01  0.13142536517E+02  0.51100000000E-03 0. -1.
        -11    1    3    3    0    0  0.97125783492E+01 -0.17272364430E+01 -0.22155794376E+02  0.24252767855E+02  0.51100000000E-03 0.  1.
         12    1    3    3    0    0 -0.55755926107E+00 -0.50080293842E+01 -0.90885431716E+01  0.10391960721E+02  0.00000000000E+00 0. -1.
</event>
<event>
 7    1  0.3807360E-011  0.4778726E+02  0.7816164E-02  0.1312668E+00
        -11   -1    0    0    0    0  0.00000000000E+00  0.00000000000E+00  0.45593999997E+02  0.45594000000E+02  0.51100000000E-03 0. -1.
         11   -1    0    0    0    0 -0.00000000000E+00 -0.00000000000E+00 -0.45593999997E+02  0.45594000000E+02  0.51100000000E-03 0.  1.
    9900012    2    1    2    0    0 -0.27122419930E+02  0.21358169002E+02 -0.26302602947E+02  0.47787263051E+02  0.19999963553E+02 0.  0.
         12    1    1    2    0    0  0.27122419930E+02 -0.21358169002E+02  0.26302602947E+02  0.43400736949E+02  0.00000000000E+00 0. -1.
         11    1    3    3    0    0 -0.29018002126E+01 -0.24760281540E+01 -0.81347409592E+00  0.39003718104E+01  0.51100000000E-03 0. -1.
        -11    1    3    3    0    0 -0.16611118102E+01 -0.11094306298E+01 -0.74066562870E+00  0.21304259206E+01  0.51100000000E-03 0.  1.
        -12    1    3    3    0    0 -0.22559507907E+02  0.24943627786E+02 -0.24748463222E+02  0.41756465320E+02  0.00000000000E+00 0.  1.
</event>
<event>
 7    1  0.3807360E-011  0.4778727E+02  0.7816164E-02  0.1312668E+00
        -11   -1    0    0    0    0  0.00000000000E+00  0.00000000000E+00  0.45593999997E+02  0.45594000000E+02  0.51100000000E-03 0. -1.
         11   -1    0    0    0    0 -0.00000000000E+00 -0.00000000000E+00 -0.45593999997E+02  0.45594000000E+02  0.51100000000E-03 0.  1.
    9900012    2    1    2    0    0  0.10085163788E+02 -0.52590744664E+01  0.41883826849E+02  0.47787270232E+02  0.19999996296E+02 0.  0.
        -12    1    1    2    0    0 -0.10085163788E+02  0.52590744664E+01 -0.41883826849E+02  0.43400729768E+02  0.00000000000E+00 0.  1.
         11    1    3    3    0    0  0.40386003877E+01  0.37860980029E+01  0.10063006700E+02  0.11485161526E+02  0.51100000000E-03 0.  1.
        -11    1    3    3    0    0 -0.28123574143E+01 -0.63630174493E+01  0.20674995444E+02  0.21814050109E+02  0.51100000000E-03 0. -1.
         12    1    3    3    0    0  0.88589208145E+01 -0.26821550200E+01  0.11145824705E+02  0.14488058597E+02  0.00000000000E+00 0. -1.
</event>
<event>
 7    1  0.3807360E-011  0.4778727E+02  0.7816164E-02  0.1312668E+00
        -11   -1    0    0    0    0  0.00000000000E+00  0.00000000000E+00  0.45593999997E+02  0.45594000000E+02  0.51100000000E-03 0. -1.
         11   -1    0    0    0    0 -0.00000000000E+00 -0.00000000000E+00 -0.45593999997E+02  0.45594000000E+02  0.51100000000E-03 0.  1.
    9900012    2    1    2    0    0  0.25388557446E+02  0.29401112103E+02  0.19355089310E+02  0.47787265856E+02  0.19999976342E+02 0.  0.
        -12    1    1    2    0    0 -0.25388557446E+02 -0.29401112103E+02 -0.19355089310E+02  0.43400734144E+02  0.00000000000E+00 0.  1.
         11    1    3    3    0    0  0.18831594289E+02  0.24585611569E+02  0.92736825508E+01  0.32327734656E+02  0.51100000000E-03 0. -1.
        -11    1    3    3    0    0 -0.15017820148E+01  0.28085016987E+01  0.15098487011E+01  0.35245814465E+01  0.51100000000E-03 0.  1.
         12    1    3    3    0    0  0.80587451710E+01  0.20069988356E+01  0.85715580582E+01  0.11934949753E+02  0.00000000000E+00 0. -1.
</event>
<event>
 7    1  0.3807360E-011  0.4778727E+02  0.7816164E-02  0.1312668E+00
        -11   -1    0    0    0    0  0.00000000000E+00  0.00000000000E+00  0.45593999997E+02  0.45594000000E+02  0.51100000000E-03 0. -1.
         11   -1    0    0    0    0 -0.00000000000E+00 -0.00000000000E+00 -0.45593999997E+02  0.45594000000E+02  0.51100000000E-03 0.  1.
    9900012    2    1    2    0    0  0.59667068104E+01  0.17935090809E+01 -0.42951194593E+02  0.47787269799E+02  0.19999994322E+02 0.  0.
         12    1    1    2    0    0 -0.59667068104E+01 -0.17935090809E+01  0.42951194593E+02  0.43400730201E+02  0.00000000000E+00 0. -1.
         11    1    3    3    0    0  0.38033646942E+01 -0.51353634545E+01 -0.50173322582E+01  0.81247254758E+01  0.51100000000E-03 0. -1.
        -11    1    3    3    0    0 -0.32326834339E+01  0.84664409740E+00 -0.13672943532E+02  0.14075383956E+02  0.51100000000E-03 0.  1.
         12    1    3    3    0    0  0.53960255501E+01  0.60822284380E+01 -0.24260918803E+02  0.25587160368E+02  0.00000000000E+00 0. -1.
</event>
<event>
 7    1  0.3807360E-011  0.4778727E+02  0.7816164E-02  0.1312668E+00
        -11   -1    0    0    0    0  0.00000000000E+00  0.00000000000E+00  0.45593999997E+02  0.45594000000E+02  0.51100000000E-03 0. -1.
         11   -1    0    0    0    0 -0.00000000000E+00 -0.00000000000E+00 -0.45593999997E+02  0.45594000000E+02  0.51100000000E-03 0.  1.
    9900012    2    1    2    0    0 -0.12247948143E+02 -0.41037342639E+02 -0.70389953719E+01  0.47787272121E+02  0.20000004906E+02 0.  0.
         12    1    1    2    0    0  0.12247948143E+02  0.41037342639E+02  0.70389953719E+01  0.43400727879E+02  0.00000000000E+00 0. -1.
         11    1    3    3    0    0 -0.13432264231E+02 -0.13287865572E+02 -0.49835574796E+01  0.19540443681E+02  0.51100000000E-03 0.  1.
        -11    1    3    3    0    0  0.89818630498E+00 -0.56247104563E+01  0.13653955909E+01  0.58573382808E+01  0.51100000000E-03 0. -1.
        -12    1    3    3    0    0  0.28612978303E+00 -0.22124766611E+02 -0.34208334832E+01  0.22389490159E+02  0.00000000000E+00 0.  1.
</event>
<event>
 7    1  0.3807360E-011  0.4778728E+02  0.7816164E-02  0.1312668E+00
        -11   -1    0    0    0    0  0.00000000000E+00  0.00000000000E+00  0.45593999997E+02  0.45594000000E+02  0.51100000000E-03 0. -1.
         11   -1    0    0    0    0 -0.00000000000E+00 -0.00000000000E+00 -0.45593999997E+02  0.45594000000E+02  0.51100000000E-03 0.  1.
    9900012    2    1    2    0    0 -0.72081083390E+01  0.29355136233E+02  0.31143885338E+02  0.47787280616E+02  0.20000043642E+02 0.  0.
        -12    1    1    2    0    0  0.72081083390E+01 -0.29355136233E+02 -0.31143885338E+02  0.43400719384E+02  0.00000000000E+00 0.  1.
         11    1    3    3    0    0 -0.51091683784E+01  0.11095359130E+02  0.98517899020E+01  0.15692939823E+02  0.51100000000E-03 0. -1.
        -11    1    3    3    0    0  0.78485490681E+00 -0.22326454939E+01  0.57365158932E+01  0.62055070687E+01  0.51100000000E-03 0.  1.
        -12    1    3    3    0    0 -0.28837948674E+01  0.20492422597E+02  0.15555579543E+02  0.25888833725E+02  0.00000000000E+00 0.  1.
</event>
<event>
 7    1  0.3807360E-011  0.4778727E+02  0.7816164E-02  0.1312668E+00
        -11   -1    0    0    0    0  0.00000000000E+00  0.00000000000E+00  0.45593999997E+02  0.45594000000E+02  0.51100000000E-03 0. -1.
         11   -1    0    0    0    0 -0.00000000000E+00 -0.00000000000E+00 -0.45593999997E+02  0.45594000000E+02  0.51100000000E-03 0.  1.
    9900012    2    1    2    0    0 -0.24546181172E+02  0.72184002900E+01  0.35057135603E+02  0.47787273398E+02  0.20000010731E+02 0.  0.
        -12    1    1    2    0    0  0.24546181172E+02 -0.72184002900E+01 -0.35057135603E+02  0.43400726602E+02  0.00000000000E+00 0.  1.
         11    1    3    3    0    0 -0.68597957794E+01 -0.47955694051E+01  0.12430325896E+02  0.14985569265E+02  0.51100000000E-03 0.  1.
        -11    1    3    3    0    0 -0.14909892252E+02  0.58088675731E+01  0.19753583791E+02  0.25421485053E+02  0.51100000000E-03 0. -1.
        -12    1    3    3    0    0 -0.27764931406E+01  0.62051021220E+01  0.28732259161E+01  0.73802190800E+01  0.00000000000E+00 0.  1.
</event>
<event>
 7    1  0.3807360E-011  0.4778727E+02  0.7816164E-02  0.1312668E+00
        -11   -1    0    0    0    0  0.00000000000E+00  0.00000000000E+00  0.45593999997E+02  0.45594000000E+02  0.51100000000E-03 0. -1.
         11   -1    0    0    0    0 -0.00000000000E+00 -0.00000000000E+00 -0.45593999997E+02  0.45594000000E+02  0.51100000000E-03 0.  1.
    9900012    2    1    2    0    0  0.33177425583E+02 -0.11250681674E+02 -0.25618432626E+02  0.47787268478E+02  0.19999988298E+02 0.  0.
         12    1    1    2    0    0 -0.33177425583E+02  0.11250681674E+02  0.25618432626E+02  0.43400731522E+02  0.00000000000E+00 0. -1.
         11    1    3    3    0    0 -0.37613197669E+00  0.68156499128E+00  0.69125845741E+00  0.10410785836E+01  0.51100000000E-03 0. -1.
        -11    1    3    3    0    0  0.29292015192E+02 -0.93209033620E+01 -0.14632303412E+02  0.34044172730E+02  0.51100000000E-03 0.  1.
        -12    1    3    3    0    0  0.42615423679E+01 -0.26113433033E+01 -0.11677387672E+02  0.12702017164E+02  0.00000000000E+00 0.  1.
</event>
<event>
 7    1  0.3807360E-011  0.4778727E+02  0.7816164E-02  0.1312668E+00
        -11   -1    0    0    0    0  0.00000000000E+00  0.00000000000E+00  0.45593999997E+02  0.45594000000E+02  0.51100000000E-03 0. -1.
         11   -1    0    0    0    0 -0.00000000000E+00 -0.00000000000E+00 -0.45593999997E+02  0.45594000000E+02  0.51100000000E-03 0.  1.
    9900012    2    1    2    0    0  0.59574069429E+01  0.26061637646E+02 -0.34189527763E+02  0.47787268866E+02  0.19999990070E+02 0.  0.
         12    1    1    2    0    0 -0.59574069429E+01 -0.26061637646E+02  0.34189527763E+02  0.43400731134E+02  0.00000000000E+00 0. -1.
         11    1    3    3    0    0 -0.37840128047E+01  0.65611684808E+01 -0.14771779264E+02  0.16600396008E+02  0.51100000000E-03 0.  1.
        -11    1    3    3    0    0  0.31971227245E+01 -0.55954584307E-01 -0.56783515767E+00  0.32476393978E+01  0.51100000000E-03 0. -1.
        -12    1    3    3    0    0  0.65442970231E+01  0.19556423749E+02 -0.18849913342E+02  0.27939233461E+02  0.00000000000E+00 0.  1.
</event>
<event>
 7    1  0.3807360E-011  0.4778728E+02  0.7816164E-02  0.1312668E+00
        -11   -1    0    0    0    0  0.00000000000E+00  0.00000000000E+00  0.45593999997E+02  0.45594000000E+02  0.51100000000E-03 0. -1.
         11   -1    0    0    0    0 -0.00000000000E+00 -0.00000000000E+00 -0.45593999997E+02  0.45594000000E+02  0.51100000000E-03 0.  1.
    9900012    2    1    2    0    0 -0.30925529403E+02 -0.27730950061E+02  0.12578881113E+02  0.47787283299E+02  0.20000055874E+02 0.  0.
        -12    1    1    2    0    0  0.30925529403E+02  0.27730950061E+02 -0.12578881113E+02  0.43400716701E+02  0.00000000000E+00 0.  1.
         11    1    3    3    0    0 -0.20469526877E+02 -0.22637399156E+02  0.60136616950E+01  0.31106550731E+02  0.51100000000E-03 0. -1.
        -11    1    3    3    0    0 -0.10567676163E+02 -0.38698816402E+01  0.86951895875E+01  0.14221746925E+02  0.51100000000E-03 0.  1.
        -12    1    3    3    0    0  0.11167363730E+00 -0.12236692645E+01 -0.21299701694E+01  0.24589856430E+01  0.00000000000E+00 0.  1.
</event>
<event>
 7    1  0.3807360E-011  0.4778727E+02  0.7816164E-02  0.1312668E+00
        -11   -1    0    0    0    0  0.00000000000E+00  0.00000000000E+00  0.45593999997E+02  0.45594000000E+02  0.51100000000E-03 0. -1.
         11   -1    0    0    0    0 -0.00000000000E+00 -0.00000000000E+00 -0.45593999997E+02  0.45594000000E+02  0.51100000000E-03 0.  1.
    9900012    2    1    2    0    0  0.14175792244E+02 -0.42918314144E+01  0.40795221389E+02  0.47787274306E+02  0.20000014870E+02 0.  0.
        -12    1    1    2    0    0 -0.14175792244E+02  0.42918314144E+01 -0.40795221389E+02  0.43400725694E+02  0.00000000000E+00 0.  1.
         11    1    3    3    0    0  0.54878282036E+00  0.18896107464E+01  0.10298307689E+02  0.10484604565E+02  0.51100000000E-03 0. -1.
        -11    1    3    3    0    0  0.11222612465E+02 -0.61567853564E+00  0.74808537813E+01  0.13501454150E+02  0.51100000000E-03 0.  1.
        -12    1    3    3    0    0  0.24043969584E+01 -0.55657636252E+01  0.23016059918E+02  0.23801215592E+02  0.00000000000E+00 0.  1.
</event>
<event>
 7    1  0.3807360E-011  0.4778727E+02  0.7816164E-02  0.1312668E+00
        -11   -1    0    0    0    0  0.00000000000E+00  0.00000000000E+00  0.45593999997E+02  0.45594000000E+02  0.51100000000E-03 0.  1.
         11   -1    0    0    0    0 -0.00000000000E+00 -0.00000000000E+00 -0.45593999997E+02  0.45594000000E+02  0.51100000000E-03 0. -1.
    9900012    2    1    2    0    0  0.17016526552E+02  0.35918154081E+02 -0.17434079758E+02  0.47787272984E+02  0.20000008844E+02 0.  0.
         12    1    1    2    0    0 -0.17016526552E+02 -0.35918154081E+02  0.17434079758E+02  0.43400727016E+02  0.00000000000E+00 0. -1.
         11    1    3    3    0    0  0.26600507573E+01  0.23913988638E+01  0.80158525638E-01  0.35778602834E+01  0.51100000000E-03 0. -1.
        -11    1    3    3    0    0  0.36853248054E+01  0.15055922656E+02  0.15792500716E+01  0.15580643665E+02  0.51100000000E-03 0.  1.
         12    1    3    3    0    0  0.10671150990E+02  0.18470832561E+02 -0.19093488355E+02  0.28628769036E+02  0.00000000000E+00 0. -1.
</event>
<event>
 7    1  0.3807360E-011  0.4778727E+02  0.7816164E-02  0.1312668E+00
        -11   -1    0    0    0    0  0.00000000000E+00  0.00000000000E+00  0.45593999997E+02  0.45594000000E+02  0.51100000000E-03 0. -1.
         11   -1    0    0    0    0 -0.00000000000E+00 -0.00000000000E+00 -0.45593999997E+02  0.45594000000E+02  0.51100000000E-03 0.  1.
    9900012    2    1    2    0    0  0.29178792234E+02 -0.28732598230E+02  0.14375652589E+02  0.47787268386E+02  0.19999987878E+02 0.  0.
        -12    1    1    2    0    0 -0.29178792234E+02  0.28732598230E+02 -0.14375652589E+02  0.43400731614E+02  0.00000000000E+00 0.  1.
         11    1    3    3    0    0  0.12412409953E+02 -0.60440697777E+01  0.47324882087E+01  0.14594353196E+02  0.51100000000E-03 0. -1.
        -11    1    3    3    0    0 -0.17754363784E+01  0.63544040537E+00  0.11551995785E+01  0.22114350928E+01  0.51100000000E-03 0.  1.
         12    1    3    3    0    0  0.18541818660E+02 -0.23323968858E+02  0.84879648016E+01  0.30981480097E+02  0.00000000000E+00 0. -1.
</event>
<event>
 7    1  0.3807360E-011  0.4778727E+02  0.7816164E-02  0.1312668E+00
        -11   -1    0    0    0    0  0.00000000000E+00  0.00000000000E+00  0.45593999997E+02  0.45594000000E+02  0.51100000000E-03 0. -1.
         11   -1    0    0    0    0 -0.00000000000E+00 -0.00000000000E+00 -0.45593999997E+02  0.45594000000E+02  0.51100000000E-03 0.  1.
    9900012    2    1    2    0    0 -0.16904337157E+02 -0.21895948233E+02  0.33442995484E+02  0.47787272924E+02  0.20000008569E+02 0.  0.
        -12    1    1    2    0    0  0.16904337157E+02  0.21895948233E+02 -0.33442995484E+02  0.43400727076E+02  0.00000000000E+00 0.  1.
         11    1    3    3    0    0 -0.32663688635E+01 -0.58934079471E+01  0.82363919673E+00  0.67882107047E+01  0.51100000000E-03 0. -1.
        -11    1    3    3    0    0 -0.58789260563E+01 -0.64213682415E+01  0.35109829741E+01  0.93873714838E+01  0.51100000000E-03 0.  1.
         12    1    3    3    0    0 -0.77590422374E+01 -0.95811720448E+01  0.29108373314E+02  0.31611690735E+02  0.00000000000E+00 0. -1.
</event>
<event>
 7    1  0.3807360E-011  0.4778726E+02  0.7816164E-02  0.1312668E+00
        -11   -1    0    0    0    0  0.00000000000E+00  0.00000000000E+00  0.45593999997E+02  0.45594000000E+02  0.51100000000E-03 0. -1.
         11   -1    0    0    0    0 -0.00000000000E+00 -0.00000000000E+00 -0.45593999997E+02  0.45594000000E+02  0.51100000000E-03 0.  1.
    9900012    2    1    2    0    0  0.17833217913E+02 -0.13813401790E+02  0.37078163132E+02  0.47787263700E+02  0.19999966513E+02 0.  0.
        -12    1    1    2    0    0 -0.17833217913E+02  0.13813401790E+02 -0.37078163132E+02  0.43400736300E+02  0.00000000000E+00 0.  1.
         11    1    3    3    0    0  0.47605201756E+01 -0.37392234308E+01  0.26683949723E+02  0.27361972102E+02  0.51100000000E-03 0. -1.
        -11    1    3    3    0    0  0.56694078450E+01 -0.16858112211E+01  0.14202716047E+01  0.60828707432E+01  0.51100000000E-03 0.  1.
         12    1    3    3    0    0  0.74032898920E+01 -0.83883671379E+01  0.89739418044E+01  0.14342420855E+02  0.00000000000E+00 0. -1.
</event>
<event>
 7    1  0.3807360E-011  0.4778727E+02  0.7816164E-02  0.1312668E+00
        -11   -1    0    0    0    0  0.00000000000E+00  0.00000000000E+00  0.45593999997E+02  0.45594000000E+02  0.51100000000E-03 0. -1.
         11   -1    0    0    0    0 -0.00000000000E+00 -0.00000000000E+00 -0.45593999997E+02  0.45594000000E+02  0.51100000000E-03 0.  1.
    9900012    2    1    2    0    0  0.16651633465E+02  0.34414708228E+01 -0.39931222799E+02  0.47787272210E+02  0.20000005315E+02 0.  0.
         12    1    1    2    0    0 -0.16651633465E+02 -0.34414708228E+01  0.39931222799E+02  0.43400727790E+02  0.00000000000E+00 0. -1.
         11    1    3    3    0    0  0.12074300858E+02  0.65215065575E+01 -0.11015718624E+02  0.17597296555E+02  0.51100000000E-03 0.  1.
        -11    1    3    3    0    0 -0.74945696892E+00  0.12169503991E+01 -0.94263583959E+01  0.95340907742E+01  0.51100000000E-03 0. -1.
        -12    1    3    3    0    0  0.53267895762E+01 -0.42969861337E+01 -0.19489145779E+02  0.20655884881E+02  0.00000000000E+00 0.  1.
</event>
<event>
 7    1  0.3807360E-011  0.4778726E+02  0.7816164E-02  0.1312668E+00
        -11   -1    0    0    0    0  0.00000000000E+00  0.00000000000E+00  0.45593999997E+02  0.45594000000E+02  0.51100000000E-03 0. -1.
         11   -1    0    0    0    0 -0.00000000000E+00 -0.00000000000E+00 -0.45593999997E+02  0.45594000000E+02  0.51100000000E-03 0.  1.
    9900012    2    1    2    0    0 -0.71317443957E+01  0.16467919850E+02  0.39516705386E+02  0.47787260757E+02  0.19999953095E+02 0.  0.
        -12    1    1    2    0    0  0.71317443957E+01 -0.16467919850E+02 -0.39516705386E+02  0.43400739243E+02  0.00000000000E+00 0.  1.
         11    1    3    3    0    0 -0.27385605865E+01  0.15194651717E+02  0.12488019192E+02  0.19857688145E+02  0.51100000000E-03 0. -1.
        -11    1    3    3    0    0 -0.34726190821E-01 -0.32782675074E+00 -0.14636593447E+00  0.36069313096E+00  0.51100000000E-03 0.  1.
         12    1    3    3    0    0 -0.43584576184E+01  0.16010948843E+01  0.27175052128E+02  0.27568879481E+02  0.00000000000E+00 0. -1.
</event>
<event>
 7    1  0.3807360E-011  0.4778728E+02  0.7816164E-02  0.1312668E+00
        -11   -1    0    0    0    0  0.00000000000E+00  0.00000000000E+00  0.45593999997E+02  0.45594000000E+02  0.51100000000E-03 0. -1.
         11   -1    0    0    0    0 -0.00000000000E+00 -0.00000000000E+00 -0.45593999997E+02  0.45594000000E+02  0.51100000000E-03 0.  1.
    9900012    2    1    2    0    0  0.13311797861E+02 -0.67704076385E+01  0.40750219419E+02  0.47787276912E+02  0.20000026752E+02 0.  0.
        -12    1    1    2    0    0 -0.13311797861E+02  0.67704076385E+01 -0.40750219419E+02  0.43400723088E+02  0.00000000000E+00 0.  1.
         11    1    3    3    0    0  0.82747736822E+01 -0.10906386327E+02  0.13000773851E+02  0.18879652094E+02  0.51100000000E-03 0. -1.
        -11    1    3    3    0    0  0.48462129151E+01  0.17687765660E+01  0.13321730068E+02  0.14285756628E+02  0.51100000000E-03 0.  1.
         12    1    3    3    0    0  0.19081126372E+00  0.23672021224E+01  0.14427715500E+02  0.14621868190E+02  0.00000000000E+00 0. -1.
</event>
<event>
 7    1  0.3807360E-011  0.4778727E+02  0.7816164E-02  0.1312668E+00
        -11   -1    0    0    0    0  0.00000000000E+00  0.00000000000E+00  0.45593999997E+02  0.45594000000E+02  0.51100000000E-03 0. -1.
         11   -1    0    0    0    0 -0.00000000000E+00 -0.00000000000E+00 -0.45593999997E+02  0.45594000000E+02  0.51100000000E-03 0.  1.
    9900012    2    1    2    0    0  0.17082215090E+02  0.15374194220E+02 -0.36816507144E+02  0.47787272834E+02  0.20000008160E+02 0.  0.
         12    1    1    2    0    0 -0.17082215090E+02 -0.15374194220E+02  0.36816507144E+02  0.43400727166E+02  0.00000000000E+00 0. -1.
         11    1    3    3    0    0  0.63733692208E+01 -0.21795074853E+01 -0.11007053889E+02  0.12904469136E+02  0.51100000000E-03 0. -1.
        -11    1    3    3    0    0 -0.11427684972E+01  0.53193847328E+01 -0.11162617317E+02  0.12417962772E+02  0.51100000000E-03 0.  1.
         12    1    3    3    0    0  0.11851614366E+02  0.12234316972E+02 -0.14646835937E+02  0.22464840926E+02  0.00000000000E+00 0. -1.
</event>
<event>
 7    1  0.3807360E-011  0.4778726E+02  0.7816164E-02  0.1312668E+00
        -11   -1    0    0    0    0  0.00000000000E+00  0.00000000000E+00  0.45593999997E+02  0.45594000000E+02  0.51100000000E-03 0.  1.
         11   -1    0    0    0    0 -0.00000000000E+00 -0.00000000000E+00 -0.45593999997E+02  0.45594000000E+02  0.51100000000E-03 0. -1.
    9900012    2    1    2    0    0 -0.32526442862E+02  0.10116588987E+02 -0.26894411217E+02  0.47787260229E+02  0.19999950689E+02 0.  0.
         12    1    1    2    0    0  0.32526442862E+02 -0.10116588987E+02  0.26894411217E+02  0.43400739771E+02  0.00000000000E+00 0. -1.
         11    1    3    3    0    0 -0.10877180355E+02  0.79319174472E+01 -0.11350676076E+02  0.17608697127E+02  0.51100000000E-03 0.  1.
        -11    1    3    3    0    0 -0.47960083367E+01  0.95586513959E-01  0.24922332090E+01  0.54057431845E+01  0.51100000000E-03 0. -1.
        -12    1    3    3    0    0 -0.16853254170E+02  0.20890850254E+01 -0.18035968350E+02  0.24772819918E+02  0.00000000000E+00 0.  1.
</event>
<event>
 7    1  0.3807360E-011  0.4778727E+02  0.7816164E-02  0.1312668E+00
        -11   -1    0    0    0    0  0.00000000000E+00  0.00000000000E+00  0.45593999997E+02  0.45594000000E+02  0.51100000000E-03 0. -1.
         11   -1    0    0    0    0 -0.00000000000E+00 -0.00000000000E+00 -0.45593999997E+02  0.45594000000E+02  0.51100000000E-03 0.  1.
    9900012    2    1    2    0    0  0.16546059682E+02 -0.19780597096E+02 -0.34908153968E+02  0.47787270445E+02  0.19999997266E+02 0.  0.
         12    1    1    2    0    0 -0.16546059682E+02  0.19780597096E+02  0.34908153968E+02  0.43400729555E+02  0.00000000000E+00 0. -1.
         11    1    3    3    0    0 -0.34531297577E+01 -0.32640559379E+01 -0.54324419674E+01  0.72173119844E+01  0.51100000000E-03 0. -1.
        -11    1    3    3    0    0  0.10288465690E+02 -0.26432197150E+01 -0.14423549046E+02  0.17913065178E+02  0.51100000000E-03 0.  1.
        -12    1    3    3    0    0  0.97107237493E+01 -0.13873321443E+02 -0.15052162954E+02  0.22656893282E+02  0.00000000000E+00 0.  1.
</event>
<event>
 7    1  0.3807360E-011  0.4778727E+02  0.7816164E-02  0.1312668E+00
        -11   -1    0    0    0    0  0.00000000000E+00  0.00000000000E+00  0.45593999997E+02  0.45594000000E+02  0.51100000000E-03 0.  1.
         11   -1    0    0    0    0 -0.00000000000E+00 -0.00000000000E+00 -0.45593999997E+02  0.45594000000E+02  0.51100000000E-03 0. -1.
    9900012    2    1    2    0    0 -0.24318444648E+01 -0.31572943452E+02 -0.29679259872E+02  0.47787273136E+02  0.20000009538E+02 0.  0.
         12    1    1    2    0    0  0.24318444648E+01  0.31572943452E+02  0.29679259872E+02  0.43400726864E+02  0.00000000000E+00 0. -1.
         11    1    3    3    0    0  0.33442781468E+01 -0.70187800024E+01 -0.94797524931E+01  0.12260227430E+02  0.51100000000E-03 0. -1.
        -11    1    3    3    0    0 -0.55838221153E+01 -0.26127384936E+02 -0.16249296997E+02  0.31270736578E+02  0.51100000000E-03 0.  1.
        -12    1    3    3    0    0 -0.19230049643E+00  0.15732214862E+01 -0.39502103827E+01  0.42563091280E+01  0.00000000000E+00 0.  1.
</event>
<event>
 7    1  0.3807360E-011  0.4778727E+02  0.7816164E-02  0.1312668E+00
        -11   -1    0    0    0    0  0.00000000000E+00  0.00000000000E+00  0.45593999997E+02  0.45594000000E+02  0.51100000000E-03 0. -1.
         11   -1    0    0    0    0 -0.00000000000E+00 -0.00000000000E+00 -0.45593999997E+02  0.45594000000E+02  0.51100000000E-03 0.  1.
    9900012    2    1    2    0    0 -0.19011699513E+02  0.17726704996E+02 -0.34755472284E+02  0.47787266803E+02  0.19999980659E+02 0.  0.
         12    1    1    2    0    0  0.19011699513E+02 -0.17726704996E+02  0.34755472284E+02  0.43400733197E+02  0.00000000000E+00 0. -1.
         11    1    3    3    0    0 -0.96894190980E+01  0.10246997430E+01 -0.28203066940E+01  0.10143420633E+02  0.51100000000E-03 0. -1.
        -11    1    3    3    0    0 -0.56881690687E+01  0.86919113084E+01 -0.12108849403E+02  0.15953959499E+02  0.51100000000E-03 0.  1.
        -12    1    3    3    0    0 -0.36341113459E+01  0.80100939451E+01 -0.19826316187E+02  0.21689886671E+02  0.00000000000E+00 0.  1.
</event>
<event>
 7    1  0.3807360E-011  0.4778728E+02  0.7816164E-02  0.1312668E+00
        -11   -1    0    0    0    0  0.00000000000E+00  0.00000000000E+00  0.45593999997E+02  0.45594000000E+02  0.51100000000E-03 0. -1.
         11   -1    0    0    0    0 -0.00000000000E+00 -0.00000000000E+00 -0.45593999997E+02  0.45594000000E+02  0.51100000000E-03 0.  1.
    9900012    2    1    2    0    0  0.41519511460E+01  0.38636494200E+02  0.19328872785E+02  0.47787277592E+02  0.20000029855E+02 0.  0.
        -12    1    1    2    0    0 -0.41519511460E+01 -0.38636494200E+02 -0.19328872785E+02  0.43400722408E+02  0.00000000000E+00 0.  1.
         11    1    3    3    0    0 -0.13378478193E+01  0.61582624687E+01 -0.65296521059E+00  0.63356449749E+01  0.51100000000E-03 0. -1.
        -11    1    3    3    0    0 -0.43903091270E+01  0.34937592517E+01  0.41513725826E+01  0.69796176485E+01  0.51100000000E-03 0.  1.
         12    1    3    3    0    0  0.98801080923E+01  0.28984472479E+02  0.15830465413E+02  0.34472014969E+02  0.00000000000E+00 0. -1.
</event>
<event>
 7    1  0.3807360E-011  0.4778727E+02  0.7816164E-02  0.1312668E+00
        -11   -1    0    0    0    0  0.00000000000E+00  0.00000000000E+00  0.45593999997E+02  0.45594000000E+02  0.51100000000E-03 0. -1.
         11   -1    0    0    0    0 -0.00000000000E+00 -0.00000000000E+00 -0.45593999997E+02  0.45594000000E+02  0.51100000000E-03 0.  1.
    9900012    2    1    2    0    0  0.22519703047E+02  0.13083888280E+02  0.34717401745E+02  0.47787272567E+02  0.20000006940E+02 0.  0.
        -12    1    1    2    0    0 -0.22519703047E+02 -0.13083888280E+02 -0.34717401745E+02  0.43400727433E+02  0.00000000000E+00 0.  1.
         11    1    3    3    0    0  0.14314757430E+02  0.69569222757E+01  0.22612533540E+02  0.27652083488E+02  0.51100000000E-03 0. -1.
        -11    1    3    3    0    0 -0.17040917902E-01 -0.34210375984E+01  0.18494696302E+01  0.38890007479E+01  0.51100000000E-03 0.  1.
         12    1    3    3    0    0  0.82219865346E+01  0.95480036024E+01  0.10255398574E+02  0.16246188331E+02  0.00000000000E+00 0. -1.
</event>
<event>
 7    1  0.3807360E-011  0.4778726E+02  0.7816164E-02  0.1312668E+00
        -11   -1    0    0    0    0  0.00000000000E+00  0.00000000000E+00  0.45593999997E+02  0.45594000000E+02  0.51100000000E-03 0. -1.
         11   -1    0    0    0    0 -0.00000000000E+00 -0.00000000000E+00 -0.45593999997E+02  0.45594000000E+02  0.51100000000E-03 0.  1.
    9900012    2    1    2    0    0  0.61402400512E+01  0.66873433915E+01  0.42440554907E+02  0.47787264864E+02  0.19999971822E+02 0.  0.
        -12    1    1    2    0    0 -0.61402400512E+01 -0.66873433915E+01 -0.42440554907E+02  0.43400735136E+02  0.00000000000E+00 0.  1.
         11    1    3    3    0    0 -0.47724632253E+01  0.36616783781E+01  0.63907269467E+01  0.87764278012E+01  0.51100000000E-03 0. -1.
        -11    1    3    3    0    0  0.46555781500E+01  0.62525254241E+01  0.20854108230E+02  0.22263474851E+02  0.51100000000E-03 0.  1.
        -12    1    3    3    0    0  0.62571251265E+01 -0.32268604107E+01  0.15195719730E+02  0.16747362212E+02  0.00000000000E+00 0.  1.
</event>
<event>
 7    1  0.3807360E-011  0.4778727E+02  0.7816164E-02  0.1312668E+00
        -11   -1    0    0    0    0  0.00000000000E+00  0.00000000000E+00  0.45593999997E+02  0.45594000000E+02  0.51100000000E-03 0. -1.
         11   -1    0    0    0    0 -0.00000000000E+00 -0.00000000000E+00 -0.45593999997E+02  0.45594000000E+02  0.51100000000E-03 0.  1.
    9900012    2    1    2    0    0  0.19110009654E+02 -0.37986478340E+02  0.86866746718E+01  0.47787270485E+02  0.19999997447E+02 0.  0.
        -12    1    1    2    0    0 -0.19110009654E+02  0.37986478340E+02 -0.86866746718E+01  0.43400729515E+02  0.00000000000E+00 0.  1.
         11    1    3    3    0    0  0.11768560814E+01 -0.11320179872E+02 -0.27082591275E+01  0.11698979884E+02  0.51100000000E-03 0. -1.
        -11    1    3    3    0    0  0.12888714585E+01  0.11382929975E+01 -0.51823757859E-01  0.17203448921E+01  0.51100000000E-03 0.  1.
        -12    1    3    3    0    0  0.16644282114E+02 -0.27804591466E+02  0.11446757557E+02  0.34367945709E+02  0.00000000000E+00 0.  1.
</event>
<event>
 7    1  0.3807360E-011  0.4778727E+02  0.7816164E-02  0.1312668E+00
        -11   -1    0    0    0    0  0.00000000000E+00  0.00000000000E+00  0.45593999997E+02  0.45594000000E+02  0.51100000000E-03 0. -1.
         11   -1    0    0    0    0 -0.00000000000E+00 -0.00000000000E+00 -0.45593999997E+02  0.45594000000E+02  0.51100000000E-03 0.  1.
    9900012    2    1    2    0    0 -0.15131489396E+02  0.77625022752E+01 -0.39929998114E+02  0.47787272330E+02  0.20000005860E+02 0.  0.
         12    1    1    2    0    0  0.15131489396E+02 -0.77625022752E+01  0.39929998114E+02  0.43400727670E+02  0.00000000000E+00 0. -1.
         11    1    3    3    0    0 -0.29280735573E+01 -0.51606212731E+01 -0.15582462903E+02  0.16673895078E+02  0.51100000000E-03 0. -1.
        -11    1    3    3    0    0 -0.85829623570E+01  0.35414106314E+01 -0.10822487475E+02  0.14259560564E+02  0.51100000000E-03 0.  1.
         12    1    3    3    0    0 -0.36204534821E+01  0.93817129168E+01 -0.13525047736E+02  0.16853816687E+02  0.00000000000E+00 0. -1.
</event>
<event>
 7    1  0.4500862E-011  0.4778728E+02  0.7816164E-02  0.1312668E+00
        -11   -1    0    0    0    0  0.00000000000E+00  0.00000000000E+00  0.45593999997E+02  0.45594000000E+02  0.51100000000E-03 0. -1.
         11   -1    0    0    0    0 -0.00000000000E+00 -0.00000000000E+00 -0.45593999997E+02  0.45594000000E+02  0.51100000000E-03 0.  1.
    9900012    2    1    2    0    0  0.14384823680E+02  0.16291250009E+01 -0.40915096067E+02  0.47787282417E+02  0.20000051852E+02 0.  0.
         12    1    1    2    0    0 -0.14384823680E+02 -0.16291250009E+01  0.40915096067E+02  0.43400717583E+02  0.00000000000E+00 0. -1.
         11    1    3    3    0    0  0.14786494729E+01  0.55902319481E+01 -0.91570736091E+01  0.10830008995E+02  0.51100000000E-03 0. -1.
        -11    1    3    3    0    0  0.52711763216E+01 -0.35197615050E+01 -0.27465207791E+02  0.28187083214E+02  0.51100000000E-03 0.  1.
         12    1    3    3    0    0  0.76349978853E+01 -0.44134544215E+00 -0.42928146666E+01  0.87701902072E+01  0.00000000000E+00 0. -1.
</event>
<event>
 7    1  0.3807360E-011  0.4778727E+02  0.7816164E-02  0.1312668E+00
        -11   -1    0    0    0    0  0.00000000000E+00  0.00000000000E+00  0.45593999997E+02  0.45594000000E+02  0.51100000000E-03 0.  1.
         11   -1    0    0    0    0 -0.00000000000E+00 -0.00000000000E+00 -0.45593999997E+02  0.45594000000E+02  0.51100000000E-03 0. -1.
    9900012    2    1    2    0    0 -0.37957126337E+02 -0.47015105928E+01 -0.20512812479E+02  0.47787272847E+02  0.20000008220E+02 0.  0.
         12    1    1    2    0    0  0.37957126337E+02  0.47015105928E+01  0.20512812479E+02  0.43400727153E+02  0.00000000000E+00 0. -1.
         11    1    3    3    0    0 -0.46233157295E+01  0.48232999732E+01 -0.23090179858E+01  0.70690052543E+01  0.51100000000E-03 0. -1.
        -11    1    3    3    0    0 -0.19439354523E+02 -0.47732037917E+01 -0.16489515787E+02  0.25934072373E+02  0.51100000000E-03 0.  1.
        -12    1    3    3    0    0 -0.13894456084E+02 -0.47516067744E+01 -0.17142787057E+01  0.14784195220E+02  0.00000000000E+00 0.  1.
</event>
<event>
 7    1  0.3807360E-011  0.4778727E+02  0.7816164E-02  0.1312668E+00
        -11   -1    0    0    0    0  0.00000000000E+00  0.00000000000E+00  0.45593999997E+02  0.45594000000E+02  0.51100000000E-03 0. -1.
         11   -1    0    0    0    0 -0.00000000000E+00 -0.00000000000E+00 -0.45593999997E+02  0.45594000000E+02  0.51100000000E-03 0.  1.
    9900012    2    1    2    0    0  0.21149666058E+01  0.17092797065E+02  0.39837001105E+02  0.47787268989E+02  0.19999990630E+02 0.  0.
        -12    1    1    2    0    0 -0.21149666058E+01 -0.17092797065E+02 -0.39837001105E+02  0.43400731011E+02  0.00000000000E+00 0.  1.
         11    1    3    3    0    0 -0.61631482067E+00  0.40292209614E+01 -0.93819871385E+00  0.41826645337E+01  0.51100000000E-03 0. -1.
        -11    1    3    3    0    0 -0.27325543160E+01  0.40812136467E+01  0.14191181611E+02  0.15017083395E+02  0.51100000000E-03 0.  1.
         12    1    3    3    0    0  0.54638357425E+01  0.89823624564E+01  0.26584018207E+02  0.28587521060E+02  0.00000000000E+00 0. -1.
</event>
<event>
 7    1  0.3807360E-011  0.4778727E+02  0.7816164E-02  0.1312668E+00
        -11   -1    0    0    0    0  0.00000000000E+00  0.00000000000E+00  0.45593999997E+02  0.45594000000E+02  0.51100000000E-03 0. -1.
         11   -1    0    0    0    0 -0.00000000000E+00 -0.00000000000E+00 -0.45593999997E+02  0.45594000000E+02  0.51100000000E-03 0.  1.
    9900012    2    1    2    0    0  0.14284311880E+01 -0.33569490968E+02  0.27471290704E+02  0.47787274747E+02  0.20000016882E+02 0.  0.
        -12    1    1    2    0    0 -0.14284311880E+01  0.33569490968E+02 -0.27471290704E+02  0.43400725253E+02  0.00000000000E+00 0.  1.
         11    1    3    3    0    0 -0.56125992301E+00 -0.13595998982E+02  0.58832471586E+01  0.14824938395E+02  0.51100000000E-03 0. -1.
        -11    1    3    3    0    0  0.72782359811E+01 -0.52256236940E+01  0.55389637170E+01  0.10533754378E+02  0.51100000000E-03 0.  1.
        -12    1    3    3    0    0 -0.52885448700E+01 -0.14747868292E+02  0.16049079829E+02  0.22428581974E+02  0.00000000000E+00 0.  1.
</event>
<event>
 7    1  0.3807360E-011  0.4778727E+02  0.7816164E-02  0.1312668E+00
        -11   -1    0    0    0    0  0.00000000000E+00  0.00000000000E+00  0.45593999997E+02  0.45594000000E+02  0.51100000000E-03 0. -1.
         11   -1    0    0    0    0 -0.00000000000E+00 -0.00000000000E+00 -0.45593999997E+02  0.45594000000E+02  0.51100000000E-03 0.  1.
    9900012    2    1    2    0    0  0.45568401447E+01  0.20081830741E+02  0.38204428263E+02  0.47787273544E+02  0.20000011398E+02 0.  0.
        -12    1    1    2    0    0 -0.45568401447E+01 -0.20081830741E+02 -0.38204428263E+02  0.43400726456E+02  0.00000000000E+00 0.  1.
         11    1    3    3    0    0 -0.24914936965E+01  0.18493076419E+02  0.21258202353E+02  0.28286261397E+02  0.51100000000E-03 0. -1.
        -11    1    3    3    0    0 -0.31387897568E+00 -0.13706049483E+01  0.47257279790E+01  0.49304749394E+01  0.51100000000E-03 0.  1.
        -12    1    3    3    0    0  0.73622128169E+01  0.29593592697E+01  0.12220497931E+02  0.14570537208E+02  0.00000000000E+00 0.  1.
</event>
<event>
 7    1  0.3807360E-011  0.4778727E+02  0.7816164E-02  0.1312668E+00
        -11   -1    0    0    0    0  0.00000000000E+00  0.00000000000E+00  0.45593999997E+02  0.45594000000E+02  0.51100000000E-03 0. -1.
         11   -1    0    0    0    0 -0.00000000000E+00 -0.00000000000E+00 -0.45593999997E+02  0.45594000000E+02  0.51100000000E-03 0.  1.
    9900012    2    1    2    0    0  0.26036924576E+02 -0.10053979374E+02  0.33235813658E+02  0.47787271295E+02  0.20000001141E+02 0.  0.
        -12    1    1    2    0    0 -0.26036924576E+02  0.10053979374E+02 -0.33235813658E+02  0.43400728705E+02  0.00000000000E+00 0.  1.
         11    1    3    3    0    0  0.54574524506E+01  0.15527727065E+01  0.10262122105E+02  0.11726296972E+02  0.51100000000E-03 0. -1.
        -11    1    3    3    0    0  0.28963616248E+01 -0.34467000584E+01 -0.15351654808E+01  0.47566148960E+01  0.51100000000E-03 0.  1.
         12    1    3    3    0    0  0.17683110501E+02 -0.81600520226E+01  0.24508857034E+02  0.31304359426E+02  0.00000000000E+00 0. -1.
</event>
<event>
 7    1  0.3807360E-011  0.4778727E+02  0.7816164E-02  0.1312668E+00
        -11   -1    0    0    0    0  0.00000000000E+00  0.00000000000E+00  0.45593999997E+02  0.45594000000E+02  0.51100000000E-03 0. -1.
         11   -1    0    0    0    0 -0.00000000000E+00 -0.00000000000E+00 -0.45593999997E+02  0.45594000000E+02  0.51100000000E-03 0.  1.
    9900012    2    1    2    0    0 -0.18190366920E+01 -0.20398708586E+02 -0.38264958150E+02  0.47787271565E+02  0.20000002375E+02 0.  0.
         12    1    1    2    0    0  0.18190366920E+01  0.20398708586E+02  0.38264958150E+02  0.43400728435E+02  0.00000000000E+00 0. -1.
         11    1    3    3    0    0  0.41024425220E+01  0.56636604992E+00 -0.97634035716E+01  0.10605416291E+02  0.51100000000E-03 0.  1.
        -11    1    3    3    0    0 -0.17955269735E+01 -0.65050319426E+00 -0.72391775087E+01  0.74868393052E+01  0.51100000000E-03 0. -1.
        -12    1    3    3    0    0 -0.41259522405E+01 -0.20314571442E+02 -0.21262377069E+02  0.29695015969E+02  0.00000000000E+00 0.  1.
</event>
<event>
 7    1  0.3807360E-011  0.4778727E+02  0.7816164E-02  0.1312668E+00
        -11   -1    0    0    0    0  0.00000000000E+00  0.00000000000E+00  0.45593999997E+02  0.45594000000E+02  0.51100000000E-03 0. -1.
         11   -1    0    0    0    0 -0.00000000000E+00 -0.00000000000E+00 -0.45593999997E+02  0.45594000000E+02  0.51100000000E-03 0.  1.
    9900012    2    1    2    0    0 -0.75124117371E+01 -0.88153904768E+01 -0.41826739265E+02  0.47787267784E+02  0.19999985135E+02 0.  0.
         12    1    1    2    0    0  0.75124117371E+01  0.88153904768E+01  0.41826739265E+02  0.43400732216E+02  0.00000000000E+00 0. -1.
         11    1    3    3    0    0 -0.44033471311E+01 -0.10614894981E+02 -0.16188049665E+02  0.19852415814E+02  0.51100000000E-03 0. -1.
        -11    1    3    3    0    0 -0.24606513491E+01 -0.18117797338E+01 -0.23479762974E+02  0.23677766374E+02  0.51100000000E-03 0.  1.
        -12    1    3    3    0    0 -0.64841325687E+00  0.36112842384E+01 -0.21589266254E+01  0.42570855965E+01  0.00000000000E+00 0.  1.
</event>
<event>
 7    1  0.3807360E-011  0.4778727E+02  0.7816164E-02  0.1312668E+00
        -11   -1    0    0    0    0  0.00000000000E+00  0.00000000000E+00  0.45593999997E+02  0.45594000000E+02  0.51100000000E-03 0.  1.
         11   -1    0    0    0    0 -0.00000000000E+00 -0.00000000000E+00 -0.45593999997E+02  0.45594000000E+02  0.51100000000E-03 0. -1.
    9900012    2    1    2    0    0  0.26452576933E+02 -0.22388614811E+02  0.26127271587E+02  0.47787271664E+02  0.20000002823E+02 0.  0.
        -12    1    1    2    0    0 -0.26452576933E+02  0.22388614811E+02 -0.26127271587E+02  0.43400728336E+02  0.00000000000E+00 0.  1.
         11    1    3    3    0    0  0.13929396776E+02 -0.68238085100E+01  0.66561568357E+01  0.16878888625E+02  0.51100000000E-03 0. -1.
        -11    1    3    3    0    0  0.94048221457E+01 -0.16820699739E+02  0.11964511050E+02  0.22683389170E+02  0.51100000000E-03 0.  1.
        -12    1    3    3    0    0  0.31183580117E+01  0.12558934383E+01  0.75066037010E+01  0.82249938688E+01  0.00000000000E+00 0.  1.
</event>
<event>
 7    1  0.3807360E-011  0.4778727E+02  0.7816164E-02  0.1312668E+00
        -11   -1    0    0    0    0  0.00000000000E+00  0.00000000000E+00  0.45593999997E+02  0.45594000000E+02  0.51100000000E-03 0. -1.
         11   -1    0    0    0    0 -0.00000000000E+00 -0.00000000000E+00 -0.45593999997E+02  0.45594000000E+02  0.51100000000E-03 0.  1.
    9900012    2    1    2    0    0  0.18077662525E+02  0.50929954520E+01 -0.39126498010E+02  0.47787270380E+02  0.19999996972E+02 0.  0.
         12    1    1    2    0    0 -0.18077662525E+02 -0.50929954520E+01  0.39126498010E+02  0.43400729620E+02  0.00000000000E+00 0. -1.
         11    1    3    3    0    0  0.72647632422E+01 -0.31569140604E+00 -0.83997542035E+01  0.11110009765E+02  0.51100000000E-03 0. -1.
        -11    1    3    3    0    0  0.17389409255E+01  0.95934833075E+01 -0.12097711960E+02  0.15537486040E+02  0.51100000000E-03 0.  1.
        -12    1    3    3    0    0  0.90739583573E+01 -0.41847964494E+01 -0.18629031846E+02  0.21139774576E+02  0.00000000000E+00 0.  1.
</event>
<event>
 7    1  0.3807360E-011  0.4778727E+02  0.7816164E-02  0.1312668E+00
        -11   -1    0    0    0    0  0.00000000000E+00  0.00000000000E+00  0.45593999997E+02  0.45594000000E+02  0.51100000000E-03 0. -1.
         11   -1    0    0    0    0 -0.00000000000E+00 -0.00000000000E+00 -0.45593999997E+02  0.45594000000E+02  0.51100000000E-03 0.  1.
    9900012    2    1    2    0    0 -0.66133582314E+01  0.31488881949E+02 -0.29126225528E+02  0.47787271815E+02  0.20000003515E+02 0.  0.
         12    1    1    2    0    0  0.66133582314E+01 -0.31488881949E+02  0.29126225528E+02  0.43400728185E+02  0.00000000000E+00 0. -1.
         11    1    3    3    0    0  0.27886405428E+00 -0.88725820165E+00 -0.42992848231E+01  0.43987319228E+01  0.51100000000E-03 0. -1.
        -11    1    3    3    0    0  0.31764711766E+01  0.15975991379E+02 -0.10232295748E+02  0.19235959717E+02  0.51100000000E-03 0.  1.
        -12    1    3    3    0    0 -0.10068693462E+02  0.16400148771E+02 -0.14594644956E+02  0.24152580176E+02  0.00000000000E+00 0.  1.
</event>
<event>
 7    1  0.3807360E-011  0.4778727E+02  0.7816164E-02  0.1312668E+00
        -11   -1    0    0    0    0  0.00000000000E+00  0.00000000000E+00  0.45593999997E+02  0.45594000000E+02  0.51100000000E-03 0. -1.
         11   -1    0    0    0    0 -0.00000000000E+00 -0.00000000000E+00 -0.45593999997E+02  0.45594000000E+02  0.51100000000E-03 0.  1.
    9900012    2    1    2    0    0  0.12100756535E+02 -0.23314353172E+02  0.34549041181E+02  0.47787267067E+02  0.19999981867E+02 0.  0.
        -12    1    1    2    0    0 -0.12100756535E+02  0.23314353172E+02 -0.34549041181E+02  0.43400732933E+02  0.00000000000E+00 0.  1.
         11    1    3    3    0    0  0.13213634295E+02 -0.15162654754E+02  0.19890294140E+02  0.28286569812E+02  0.51100000000E-03 0. -1.
        -11    1    3    3    0    0 -0.43686616486E+00 -0.56821107841E+01  0.12300964921E+01  0.58301262980E+01  0.51100000000E-03 0.  1.
        -12    1    3    3    0    0 -0.67601159440E+00 -0.24695876345E+01  0.13428650548E+02  0.13670570958E+02  0.00000000000E+00 0.  1.
</event>
<event>
 7    1  0.3807360E-011  0.4778727E+02  0.7816164E-02  0.1312668E+00
        -11   -1    0    0    0    0  0.00000000000E+00  0.00000000000E+00  0.45593999997E+02  0.45594000000E+02  0.51100000000E-03 0.  1.
         11   -1    0    0    0    0 -0.00000000000E+00 -0.00000000000E+00 -0.45593999997E+02  0.45594000000E+02  0.51100000000E-03 0. -1.
    9900012    2    1    2    0    0  0.27235210867E+02 -0.29016445142E+02 -0.17317985226E+02  0.47787269454E+02  0.19999992748E+02 0.  0.
         12    1    1    2    0    0 -0.27235210867E+02  0.29016445142E+02  0.17317985226E+02  0.43400730546E+02  0.00000000000E+00 0. -1.
         11    1    3    3    0    0  0.11314260934E+01 -0.94236562100E+01 -0.18197253996E+01  0.96642031311E+01  0.51100000000E-03 0.  1.
        -11    1    3    3    0    0  0.95860761465E+00 -0.57494271218E+01 -0.82756456516E+00  0.58872492863E+01  0.51100000000E-03 0. -1.
        -12    1    3    3    0    0  0.25145177159E+02 -0.13843361810E+02 -0.14670695261E+02  0.32235817037E+02  0.00000000000E+00 0.  1.
</event>
<event>
 7    1  0.3807360E-011  0.4778727E+02  0.7816164E-02  0.1312668E+00
        -11   -1    0    0    0    0  0.00000000000E+00  0.00000000000E+00  0.45593999997E+02  0.45594000000E+02  0.51100000000E-03 0. -1.
         11   -1    0    0    0    0 -0.00000000000E+00 -0.00000000000E+00 -0.45593999997E+02  0.45594000000E+02  0.51100000000E-03 0.  1.
    9900012    2    1    2    0    0  0.15995406850E+02  0.10090932731E+02 -0.39063322628E+02  0.47787272605E+02  0.20000007116E+02 0.  0.
         12    1    1    2    0    0 -0.15995406850E+02 -0.10090932731E+02  0.39063322628E+02  0.43400727395E+02  0.00000000000E+00 0. -1.
         11    1    3    3    0    0 -0.25351242653E+01 -0.13111593217E+01 -0.56762128173E+00  0.29100151181E+01  0.51100000000E-03 0. -1.
        -11    1    3    3    0    0  0.82461343807E+01  0.78809897440E+00 -0.14189899339E+02  0.16430857425E+02  0.51100000000E-03 0.  1.
         12    1    3    3    0    0  0.10284396735E+02  0.10613993078E+02 -0.24305802007E+02  0.28446400062E+02  0.00000000000E+00 0. -1.
</event>
<event>
 7    1  0.3807360E-011  0.4778728E+02  0.7816164E-02  0.1312668E+00
        -11   -1    0    0    0    0  0.00000000000E+00  0.00000000000E+00  0.45593999997E+02  0.45594000000E+02  0.51100000000E-03 0. -1.
         11   -1    0    0    0    0 -0.00000000000E+00 -0.00000000000E+00 -0.45593999997E+02  0.45594000000E+02  0.51100000000E-03 0.  1.
    9900012    2    1    2    0    0 -0.90794379624E+01 -0.28851282241E+02 -0.31125389596E+02  0.47787279290E+02  0.20000037593E+02 0.  0.
         12    1    1    2    0    0  0.90794379624E+01  0.28851282241E+02  0.31125389596E+02  0.43400720710E+02  0.00000000000E+00 0. -1.
         11    1    3    3    0    0  0.54441483132E+00 -0.71425630787E+01 -0.11772175011E+02  0.13780301143E+02  0.51100000000E-03 0. -1.
        -11    1    3    3    0    0 -0.74781943865E+01 -0.17312159448E+02 -0.21556802904E+02  0.28641403732E+02  0.51100000000E-03 0.  1.
         12    1    3    3    0    0 -0.21456584072E+01 -0.43965597137E+01  0.22035883189E+01  0.53655744143E+01  0.00000000000E+00 0. -1.
</event>
<event>
 7    1  0.4499105E-011  0.4778724E+02  0.7816164E-02  0.1312668E+00
        -11   -1    0    0    0    0  0.00000000000E+00  0.00000000000E+00  0.45593999997E+02  0.45594000000E+02  0.51100000000E-03 0. -1.
         11   -1    0    0    0    0 -0.00000000000E+00 -0.00000000000E+00 -0.45593999997E+02  0.45594000000E+02  0.51100000000E-03 0.  1.
    9900012    2    1    2    0    0 -0.23021169705E+02 -0.23664127338E+02 -0.28171983989E+02  0.47787241261E+02  0.19999864204E+02 0.  0.
         12    1    1    2    0    0  0.23021169705E+02  0.23664127338E+02  0.28171983989E+02  0.43400758739E+02  0.00000000000E+00 0. -1.
         11    1    3    3    0    0 -0.10928775754E+02 -0.13372570250E+02 -0.21560631526E+02  0.27624710073E+02  0.51100000000E-03 0. -1.
        -11    1    3    3    0    0 -0.90795425695E+01 -0.12354373030E+02 -0.59805123249E+01  0.16457070036E+02  0.51100000000E-03 0.  1.
         12    1    3    3    0    0 -0.30128513817E+01  0.20628159430E+01 -0.63084013841E+00  0.37054611512E+01  0.00000000000E+00 0. -1.
</event>
<event>
 7    1  0.3807360E-011  0.4778728E+02  0.7816164E-02  0.1312668E+00
        -11   -1    0    0    0    0  0.00000000000E+00  0.00000000000E+00  0.45593999997E+02  0.45594000000E+02  0.51100000000E-03 0. -1.
         11   -1    0    0    0    0 -0.00000000000E+00 -0.00000000000E+00 -0.45593999997E+02  0.45594000000E+02  0.51100000000E-03 0.  1.
    9900012    2    1    2    0    0  0.30897860528E+02  0.55723105506E+01  0.29964880758E+02  0.47787279857E+02  0.20000040181E+02 0.  0.
        -12    1    1    2    0    0 -0.30897860528E+02 -0.55723105506E+01 -0.29964880758E+02  0.43400720143E+02  0.00000000000E+00 0.  1.
         11    1    3    3    0    0  0.25738309241E+01  0.41959655583E+01  0.13281482728E+01  0.50985008275E+01  0.51100000000E-03 0. -1.
        -11    1    3    3    0    0  0.64537304206E+01 -0.46670276173E+01  0.12591146658E+02  0.14898615961E+02  0.51100000000E-03 0.  1.
         12    1    3    3    0    0  0.21870299184E+02  0.60433726095E+01  0.16045585827E+02  0.27790163069E+02  0.00000000000E+00 0. -1.
</event>
<event>
 7    1  0.3807360E-011  0.4778727E+02  0.7816164E-02  0.1312668E+00
        -11   -1    0    0    0    0  0.00000000000E+00  0.00000000000E+00  0.45593999997E+02  0.45594000000E+02  0.51100000000E-03 0. -1.
         11   -1    0    0    0    0 -0.00000000000E+00 -0.00000000000E+00 -0.45593999997E+02  0.45594000000E+02  0.51100000000E-03 0.  1.
    9900012    2    1    2    0    0 -0.18238243859E+02 -0.16565211798E+02  0.35729308154E+02  0.47787271410E+02  0.20000001666E+02 0.  0.
        -12    1    1    2    0    0  0.18238243859E+02  0.16565211798E+02 -0.35729308154E+02  0.43400728590E+02  0.00000000000E+00 0.  1.
         11    1    3    3    0    0 -0.46394548810E+00 -0.82770110320E+01  0.15642830854E+02  0.17703737301E+02  0.51100000000E-03 0. -1.
        -11    1    3    3    0    0 -0.30638979843E+01  0.11475420702E+01 -0.23564038178E+00  0.32802210767E+01  0.51100000000E-03 0.  1.
        -12    1    3    3    0    0 -0.14710400386E+02 -0.94357428366E+01  0.20322117682E+02  0.26803313032E+02  0.00000000000E+00 0.  1.
</event>
<event>
 7    1  0.3807360E-011  0.4778728E+02  0.7816164E-02  0.1312668E+00
        -11   -1    0    0    0    0  0.00000000000E+00  0.00000000000E+00  0.45593999997E+02  0.45594000000E+02  0.51100000000E-03 0. -1.
         11   -1    0    0    0    0 -0.00000000000E+00 -0.00000000000E+00 -0.45593999997E+02  0.45594000000E+02  0.51100000000E-03 0.  1.
    9900012    2    1    2    0    0 -0.21930007655E+02  0.12952364849E+02 -0.35141623983E+02  0.47787277343E+02  0.20000028720E+02 0.  0.
         12    1    1    2    0    0  0.21930007655E+02 -0.12952364849E+02  0.35141623983E+02  0.43400722657E+02  0.00000000000E+00 0. -1.
         11    1    3    3    0    0 -0.18482663728E+01 -0.23704770714E+01 -0.14933524518E+01  0.33563897177E+01  0.51100000000E-03 0. -1.
        -11    1    3    3    0    0 -0.11651315516E+01  0.17350274377E+01  0.12789416083E+01  0.24502129786E+01  0.51100000000E-03 0.  1.
        -12    1    3    3    0    0 -0.18916609730E+02  0.13587814483E+02 -0.34927213140E+02  0.41980674647E+02  0.00000000000E+00 0.  1.
</event>
<event>
 7    1  0.3807360E-011  0.4778731E+02  0.7816164E-02  0.1312668E+00
        -11   -1    0    0    0    0  0.00000000000E+00  0.00000000000E+00  0.45593999997E+02  0.45594000000E+02  0.51100000000E-03 0. -1.
         11   -1    0    0    0    0 -0.00000000000E+00 -0.00000000000E+00 -0.45593999997E+02  0.45594000000E+02  0.51100000000E-03 0.  1.
    9900012    2    1    2    0    0  0.23923239463E+02  0.13201004977E+02 -0.33719910287E+02  0.47787305667E+02  0.20000157860E+02 0.  0.
         12    1    1    2    0    0 -0.23923239463E+02 -0.13201004977E+02  0.33719910287E+02  0.43400694333E+02  0.00000000000E+00 0. -1.
         11    1    3    3    0    0  0.14604310234E+02  0.55223965375E+01 -0.95992789534E+01  0.18328363201E+02  0.51100000000E-03 0. -1.
        -11    1    3    3    0    0  0.73051721026E+01  0.67494484545E+01 -0.69211154006E+01  0.12117030682E+02  0.51100000000E-03 0.  1.
        -12    1    3    3    0    0  0.20137571264E+01  0.92915998461E+00 -0.17199515933E+02  0.17341911785E+02  0.00000000000E+00 0.  1.
</event>
<event>
 7    1  0.3807360E-011  0.4778727E+02  0.7816164E-02  0.1312668E+00
        -11   -1    0    0    0    0  0.00000000000E+00  0.00000000000E+00  0.45593999997E+02  0.45594000000E+02  0.51100000000E-03 0. -1.
         11   -1    0    0    0    0 -0.00000000000E+00 -0.00000000000E+00 -0.45593999997E+02  0.45594000000E+02  0.51100000000E-03 0.  1.
    9900012    2    1    2    0    0  0.17720278384E+02 -0.47879751675E+01  0.39327982226E+02  0.47787272377E+02  0.20000006077E+02 0.  0.
        -12    1    1    2    0    0 -0.17720278384E+02  0.47879751675E+01 -0.39327982226E+02  0.43400727623E+02  0.00000000000E+00 0.  1.
         11    1    3    3    0    0  0.14728531401E+02  0.33239548975E+01  0.30004729915E+02  0.33589613438E+02  0.51100000000E-03 0. -1.
        -11    1    3    3    0    0 -0.16031802043E+01 -0.29540774051E+00  0.12032845629E+01  0.20261654674E+01  0.51100000000E-03 0.  1.
        -12    1    3    3    0    0  0.45949271876E+01 -0.78165223245E+01  0.81199677479E+01  0.12171493472E+02  0.00000000000E+00 0.  1.
</event>
<event>
 7    1  0.3807360E-011  0.4778726E+02  0.7816164E-02  0.1312668E+00
        -11   -1    0    0    0    0  0.00000000000E+00  0.00000000000E+00  0.45593999997E+02  0.45594000000E+02  0.51100000000E-03 0. -1.
         11   -1    0    0    0    0 -0.00000000000E+00 -0.00000000000E+00 -0.45593999997E+02  0.45594000000E+02  0.51100000000E-03 0.  1.
    9900012    2    1    2    0    0 -0.16056898129E+02  0.98928334695E+00  0.40309074758E+02  0.47787260756E+02  0.19999953090E+02 0.  0.
        -12    1    1    2    0    0  0.16056898129E+02 -0.98928334695E+00 -0.40309074758E+02  0.43400739244E+02  0.00000000000E+00 0.  1.
         11    1    3    3    0    0 -0.96127508458E+01 -0.49851856821E+01  0.19504911502E+02  0.22309160183E+02  0.51100000000E-03 0. -1.
        -11    1    3    3    0    0 -0.69481135658E+01  0.78655868907E+01  0.21034656986E+02  0.23507456988E+02  0.51100000000E-03 0.  1.
         12    1    3    3    0    0  0.50396628264E+00 -0.18911178617E+01 -0.23049372919E+00  0.19706435852E+01  0.00000000000E+00 0. -1.
</event>
<event>
 7    1  0.3807360E-011  0.4778727E+02  0.7816164E-02  0.1312668E+00
        -11   -1    0    0    0    0  0.00000000000E+00  0.00000000000E+00  0.45593999997E+02  0.45594000000E+02  0.51100000000E-03 0. -1.
         11   -1    0    0    0    0 -0.00000000000E+00 -0.00000000000E+00 -0.45593999997E+02  0.45594000000E+02  0.51100000000E-03 0.  1.
    9900012    2    1    2    0    0 -0.89360754929E+01  0.80342070655E+01  0.41703969852E+02  0.47787273856E+02  0.20000012819E+02 0.  0.
        -12    1    1    2    0    0  0.89360754929E+01 -0.80342070655E+01 -0.41703969852E+02  0.43400726144E+02  0.00000000000E+00 0.  1.
         11    1    3    3    0    0 -0.42351857439E+01  0.37640146916E+01  0.39037813377E+02  0.39446869057E+02  0.51100000000E-03 0. -1.
        -11    1    3    3    0    0 -0.29647206393E+01 -0.33212715341E+00  0.95633421570E+00  0.31328026284E+01  0.51100000000E-03 0.  1.
        -12    1    3    3    0    0 -0.17361691097E+01  0.46023195273E+01  0.17098222600E+01  0.52076021709E+01  0.00000000000E+00 0.  1.
</event>
<event>
 7    1  0.3807360E-011  0.4778727E+02  0.7816164E-02  0.1312668E+00
        -11   -1    0    0    0    0  0.00000000000E+00  0.00000000000E+00  0.45593999997E+02  0.45594000000E+02  0.51100000000E-03 0. -1.
         11   -1    0    0    0    0 -0.00000000000E+00 -0.00000000000E+00 -0.45593999997E+02  0.45594000000E+02  0.51100000000E-03 0.  1.
    9900012    2    1    2    0    0 -0.28328187802E+02  0.28593400701E+02  0.16234368013E+02  0.47787268525E+02  0.19999988513E+02 0.  0.
        -12    1    1    2    0    0  0.28328187802E+02 -0.28593400701E+02 -0.16234368013E+02  0.43400731475E+02  0.00000000000E+00 0.  1.
         11    1    3    3    0    0 -0.11767791006E+02  0.96229187670E+01  0.12173566564E+02  0.19475040280E+02  0.51100000000E-03 0. -1.
        -11    1    3    3    0    0 -0.66177865962E+01  0.30653334365E+00 -0.61834285306E+00  0.66536764476E+01  0.51100000000E-03 0.  1.
        -12    1    3    3    0    0 -0.99426102000E+01  0.18663948590E+02  0.46791443019E+01  0.21658551797E+02  0.00000000000E+00 0.  1.
</event>
<event>
 7    1  0.3807360E-011  0.4778727E+02  0.7816164E-02  0.1312668E+00
        -11   -1    0    0    0    0  0.00000000000E+00  0.00000000000E+00  0.45593999997E+02  0.45594000000E+02  0.51100000000E-03 0. -1.
         11   -1    0    0    0    0 -0.00000000000E+00 -0.00000000000E+00 -0.45593999997E+02  0.45594000000E+02  0.51100000000E-03 0.  1.
    9900012    2    1    2    0    0  0.60738613685E+01  0.21629052795E+02  0.37133750109E+02  0.47787272887E+02  0.20000008401E+02 0.  0.
        -12    1    1    2    0    0 -0.60738613685E+01 -0.21629052795E+02 -0.37133750109E+02  0.43400727113E+02  0.00000000000E+00 0.  1.
         11    1    3    3    0    0 -0.31410825269E+01  0.31044545615E+01  0.53394752396E+01  0.69292159485E+01  0.51100000000E-03 0. -1.
        -11    1    3    3    0    0 -0.16877094169E+01  0.13037305030E+02  0.13311041143E+02  0.18708380531E+02  0.51100000000E-03 0.  1.
         12    1    3    3    0    0  0.10902653312E+02  0.54872932038E+01  0.18483233727E+02  0.22149676408E+02  0.00000000000E+00 0. -1.
</event>
<event>
 7    1  0.3807360E-011  0.4778729E+02  0.7816164E-02  0.1312668E+00
        -11   -1    0    0    0    0  0.00000000000E+00  0.00000000000E+00  0.45593999997E+02  0.45594000000E+02  0.51100000000E-03 0. -1.
         11   -1    0    0    0    0 -0.00000000000E+00 -0.00000000000E+00 -0.45593999997E+02  0.45594000000E+02  0.51100000000E-03 0.  1.
    9900012    2    1    2    0    0 -0.13306994663E+02  0.35275343011E+02  0.21498737057E+02  0.47787290023E+02  0.20000086529E+02 0.  0.
        -12    1    1    2    0    0  0.13306994663E+02 -0.35275343011E+02 -0.21498737057E+02  0.43400709977E+02  0.00000000000E+00 0.  1.
         11    1    3    3    0    0 -0.33446791081E+01  0.12719052414E+02  0.35057363443E+01  0.13610707558E+02  0.51100000000E-03 0. -1.
        -11    1    3    3    0    0 -0.73786104668E+01  0.11236738169E+01  0.49070293637E+01  0.89322714191E+01  0.51100000000E-03 0.  1.
         12    1    3    3    0    0 -0.25837050885E+01  0.21432616780E+02  0.13085971349E+02  0.25244311045E+02  0.00000000000E+00 0. -1.
</event>
<event>
 7    1  0.3807360E-011  0.4778727E+02  0.7816164E-02  0.1312668E+00
        -11   -1    0    0    0    0  0.00000000000E+00  0.00000000000E+00  0.45593999997E+02  0.45594000000E+02  0.51100000000E-03 0.  1.
         11   -1    0    0    0    0 -0.00000000000E+00 -0.00000000000E+00 -0.45593999997E+02  0.45594000000E+02  0.51100000000E-03 0. -1.
    9900012    2    1    2    0    0 -0.40228930589E+02 -0.12754552124E+02  0.10128077268E+02  0.47787269529E+02  0.19999993091E+02 0.  0.
        -12    1    1    2    0    0  0.40228930589E+02  0.12754552124E+02 -0.10128077268E+02  0.43400730471E+02  0.00000000000E+00 0.  1.
         11    1    3    3    0    0 -0.20548359277E+02 -0.32559446677E+01  0.63537579797E+01  0.21753309757E+02  0.51100000000E-03 0. -1.
        -11    1    3    3    0    0 -0.20897041720E+02 -0.55438228720E+01  0.30696494624E+01  0.21836736770E+02  0.51100000000E-03 0.  1.
        -12    1    3    3    0    0  0.12164704079E+01 -0.39547845847E+01  0.70466982567E+00  0.41972230019E+01  0.00000000000E+00 0.  1.
</event>
<event>
 7    1  0.3807360E-011  0.4778725E+02  0.7816164E-02  0.1312668E+00
        -11   -1    0    0    0    0  0.00000000000E+00  0.00000000000E+00  0.45593999997E+02  0.45594000000E+02  0.51100000000E-03 0. -1.
         11   -1    0    0    0    0 -0.00000000000E+00 -0.00000000000E+00 -0.45593999997E+02  0.45594000000E+02  0.51100000000E-03 0.  1.
    9900012    2    1    2    0    0 -0.66482754885E+01  0.23931917766E+02 -0.35590574695E+02  0.47787248140E+02  0.19999895569E+02 0.  0.
         12    1    1    2    0    0  0.66482754885E+01 -0.23931917766E+02  0.35590574695E+02  0.43400751860E+02  0.00000000000E+00 0. -1.
         11    1    3    3    0    0 -0.23153608857E+01  0.18596809432E+01 -0.39677426232E+01  0.49560358177E+01  0.51100000000E-03 0. -1.
        -11    1    3    3    0    0 -0.98714750459E+01  0.21018548570E+02 -0.24668015972E+02  0.33878258749E+02  0.51100000000E-03 0.  1.
         12    1    3    3    0    0  0.55385604431E+01  0.10536882524E+01 -0.69548160993E+01  0.89529535735E+01  0.00000000000E+00 0. -1.
</event>
<event>
 7    1  0.3807360E-011  0.4778730E+02  0.7816164E-02  0.1312668E+00
        -11   -1    0    0    0    0  0.00000000000E+00  0.00000000000E+00  0.45593999997E+02  0.45594000000E+02  0.51100000000E-03 0. -1.
         11   -1    0    0    0    0 -0.00000000000E+00 -0.00000000000E+00 -0.45593999997E+02  0.45594000000E+02  0.51100000000E-03 0.  1.
    9900012    2    1    2    0    0  0.20390165076E+01 -0.19334882418E+02  0.38802394090E+02  0.47787296623E+02  0.20000116624E+02 0.  0.
        -12    1    1    2    0    0 -0.20390165076E+01  0.19334882418E+02 -0.38802394090E+02  0.43400703377E+02  0.00000000000E+00 0.  1.
         11    1    3    3    0    0  0.99748799684E+01 -0.10024006830E+02  0.15723787536E+02  0.21147492476E+02  0.51100000000E-03 0. -1.
        -11    1    3    3    0    0 -0.10441739120E+01  0.50369379311E+00  0.34285704786E+01  0.36192682111E+01  0.51100000000E-03 0.  1.
         12    1    3    3    0    0 -0.68916895488E+01 -0.98145693817E+01  0.19650036076E+02  0.23020535936E+02  0.00000000000E+00 0. -1.
</event>
<event>
 7    1  0.3807360E-011  0.4778727E+02  0.7816164E-02  0.1312668E+00
        -11   -1    0    0    0    0  0.00000000000E+00  0.00000000000E+00  0.45593999997E+02  0.45594000000E+02  0.51100000000E-03 0. -1.
         11   -1    0    0    0    0 -0.00000000000E+00 -0.00000000000E+00 -0.45593999997E+02  0.45594000000E+02  0.51100000000E-03 0.  1.
    9900012    2    1    2    0    0  0.23964943573E+02  0.17541312388E+02  0.31648179401E+02  0.47787269359E+02  0.19999992316E+02 0.  0.
        -12    1    1    2    0    0 -0.23964943573E+02 -0.17541312388E+02 -0.31648179401E+02  0.43400730641E+02  0.00000000000E+00 0.  1.
         11    1    3    3    0    0  0.22219865926E+02  0.87815047995E+01  0.28813811835E+02  0.37430909968E+02  0.51100000000E-03 0. -1.
        -11    1    3    3    0    0 -0.23485374983E+00  0.51799379252E+00 -0.92335384302E+00  0.10844613564E+01  0.51100000000E-03 0.  1.
         12    1    3    3    0    0  0.19799313969E+01  0.82418137957E+01  0.37577214095E+01  0.92718980349E+01  0.00000000000E+00 0. -1.
</event>
<event>
 7    1  0.3807360E-011  0.4778727E+02  0.7816164E-02  0.1312668E+00
        -11   -1    0    0    0    0  0.00000000000E+00  0.00000000000E+00  0.45593999997E+02  0.45594000000E+02  0.51100000000E-03 0. -1.
         11   -1    0    0    0    0 -0.00000000000E+00 -0.00000000000E+00 -0.45593999997E+02  0.45594000000E+02  0.51100000000E-03 0.  1.
    9900012    2    1    2    0    0 -0.21847144815E+02 -0.36145200222E+02 -0.99924972549E+01  0.47787271469E+02  0.20000001937E+02 0.  0.
         12    1    1    2    0    0  0.21847144815E+02  0.36145200222E+02  0.99924972549E+01  0.43400728531E+02  0.00000000000E+00 0. -1.
         11    1    3    3    0    0 -0.77194873888E+01 -0.92560067022E+01  0.17558917324E+01  0.12179790706E+02  0.51100000000E-03 0. -1.
        -11    1    3    3    0    0 -0.90858851643E+01 -0.26553881455E+02 -0.12056041124E+02  0.30545213331E+02  0.51100000000E-03 0.  1.
         12    1    3    3    0    0 -0.50417722615E+01 -0.33531206399E+00  0.30765213697E+00  0.50622674321E+01  0.00000000000E+00 0. -1.
</event>
<event>
 7    1  0.3807360E-011  0.4778727E+02  0.7816164E-02  0.1312668E+00
        -11   -1    0    0    0    0  0.00000000000E+00  0.00000000000E+00  0.45593999997E+02  0.45594000000E+02  0.51100000000E-03 0. -1.
         11   -1    0    0    0    0 -0.00000000000E+00 -0.00000000000E+00 -0.45593999997E+02  0.45594000000E+02  0.51100000000E-03 0.  1.
    9900012    2    1    2    0    0 -0.34306619258E+02  0.50016190027E+01 -0.26108674662E+02  0.47787271778E+02  0.20000003346E+02 0.  0.
         12    1    1    2    0    0  0.34306619258E+02 -0.50016190027E+01  0.26108674662E+02  0.43400728222E+02  0.00000000000E+00 0. -1.
         11    1    3    3    0    0 -0.35346396691E+01 -0.20895747796E+01  0.14003705626E+01  0.43383220631E+01  0.51100000000E-03 0. -1.
        -11    1    3    3    0    0 -0.27771808120E+02  0.97850658354E+01 -0.22740436364E+02  0.37204143397E+02  0.51100000000E-03 0.  1.
         12    1    3    3    0    0 -0.30001714694E+01 -0.26938720531E+01 -0.47686088608E+01  0.62448063181E+01  0.00000000000E+00 0. -1.
</event>
<event>
 7    1  0.3807360E-011  0.4778727E+02  0.7816164E-02  0.1312668E+00
        -11   -1    0    0    0    0  0.00000000000E+00  0.00000000000E+00  0.45593999997E+02  0.45594000000E+02  0.51100000000E-03 0. -1.
         11   -1    0    0    0    0 -0.00000000000E+00 -0.00000000000E+00 -0.45593999997E+02  0.45594000000E+02  0.51100000000E-03 0.  1.
    9900012    2    1    2    0    0 -0.41654206018E+02  0.82463581081E+01  0.89748397715E+01  0.47787273624E+02  0.20000011761E+02 0.  0.
        -12    1    1    2    0    0  0.41654206018E+02 -0.82463581081E+01 -0.89748397715E+01  0.43400726376E+02  0.00000000000E+00 0.  1.
         11    1    3    3    0    0 -0.14145572538E+02  0.64434675169E+00  0.42739211966E+01  0.14791173307E+02  0.51100000000E-03 0. -1.
        -11    1    3    3    0    0  0.19676302702E+01 -0.56913125518E+00 -0.53560641575E-02  0.20482939765E+01  0.51100000000E-03 0.  1.
         12    1    3    3    0    0 -0.29476263751E+02  0.81711426116E+01  0.47062746390E+01  0.30947806340E+02  0.00000000000E+00 0. -1.
</event>
<event>
 7    1  0.3807360E-011  0.4778728E+02  0.7816164E-02  0.1312668E+00
        -11   -1    0    0    0    0  0.00000000000E+00  0.00000000000E+00  0.45593999997E+02  0.45594000000E+02  0.51100000000E-03 0. -1.
         11   -1    0    0    0    0 -0.00000000000E+00 -0.00000000000E+00 -0.45593999997E+02  0.45594000000E+02  0.51100000000E-03 0.  1.
    9900012    2    1    2    0    0  0.16076214539E+02  0.28335650182E+02 -0.28675233460E+02  0.47787276974E+02  0.20000027036E+02 0.  0.
         12    1    1    2    0    0 -0.16076214539E+02 -0.28335650182E+02  0.28675233460E+02  0.43400723026E+02  0.00000000000E+00 0. -1.
         11    1    3    3    0    0  0.76761177673E+00  0.28097421600E+01 -0.48534602402E+01  0.56603847404E+01  0.51100000000E-03 0. -1.
        -11    1    3    3    0    0  0.79602432346E+01  0.63334627888E+01 -0.18152000813E+02  0.20808011847E+02  0.51100000000E-03 0.  1.
         12    1    3    3    0    0  0.73483595278E+01  0.19192445233E+02 -0.56697724069E+01  0.21318880386E+02  0.00000000000E+00 0. -1.
</event>
<event>
 7    1  0.3807360E-011  0.4778724E+02  0.7816164E-02  0.1312668E+00
        -11   -1    0    0    0    0  0.00000000000E+00  0.00000000000E+00  0.45593999997E+02  0.45594000000E+02  0.51100000000E-03 0. -1.
         11   -1    0    0    0    0 -0.00000000000E+00 -0.00000000000E+00 -0.45593999997E+02  0.45594000000E+02  0.51100000000E-03 0.  1.
    9900012    2    1    2    0    0  0.32462207537E+02 -0.40208042241E+01 -0.28524802843E+02  0.47787237772E+02  0.19999848296E+02 0.  0.
         12    1    1    2    0    0 -0.32462207537E+02  0.40208042241E+01  0.28524802843E+02  0.43400762228E+02  0.00000000000E+00 0. -1.
         11    1    3    3    0    0  0.51057698983E+01  0.34489588774E+01 -0.35900846657E+01  0.71311227559E+01  0.51100000000E-03 0. -1.
        -11    1    3    3    0    0  0.27653919553E+02 -0.76345413316E+01 -0.26499723534E+02  0.39054587895E+02  0.51100000000E-03 0.  1.
        -12    1    3    3    0    0 -0.29748191496E+00  0.16477823020E+00  0.15650053562E+01  0.16015271211E+01  0.00000000000E+00 0.  1.
</event>
<event>
 7    1  0.3807360E-011  0.4778728E+02  0.7816164E-02  0.1312668E+00
        -11   -1    0    0    0    0  0.00000000000E+00  0.00000000000E+00  0.45593999997E+02  0.45594000000E+02  0.51100000000E-03 0. -1.
         11   -1    0    0    0    0 -0.00000000000E+00 -0.00000000000E+00 -0.45593999997E+02  0.45594000000E+02  0.51100000000E-03 0.  1.
    9900012    2    1    2    0    0 -0.13238670916E+02 -0.29709284325E+02  0.28735324083E+02  0.47787276125E+02  0.20000023164E+02 0.  0.
        -12    1    1    2    0    0  0.13238670916E+02  0.29709284325E+02 -0.28735324083E+02  0.43400723875E+02  0.00000000000E+00 0.  1.
         11    1    3    3    0    0  0.18934789445E+01 -0.32904311037E+01  0.46427107916E-01  0.37966241714E+01  0.51100000000E-03 0. -1.
        -11    1    3    3    0    0  0.17916399671E+01 -0.59476291793E+01  0.25180527204E+01  0.67026007184E+01  0.51100000000E-03 0.  1.
        -12    1    3    3    0    0 -0.16923789827E+02 -0.20471224042E+02  0.26170844255E+02  0.37288051235E+02  0.00000000000E+00 0.  1.
</event>
<event>
 7    1  0.3807360E-011  0.4778727E+02  0.7816164E-02  0.1312668E+00
        -11   -1    0    0    0    0  0.00000000000E+00  0.00000000000E+00  0.45593999997E+02  0.45594000000E+02  0.51100000000E-03 0. -1.
         11   -1    0    0    0    0 -0.00000000000E+00 -0.00000000000E+00 -0.45593999997E+02  0.45594000000E+02  0.51100000000E-03 0.  1.
    9900012    2    1    2    0    0  0.17219578232E+02 -0.39789226258E+01  0.39639342660E+02  0.47787272054E+02  0.20000004601E+02 0.  0.
        -12    1    1    2    0    0 -0.17219578232E+02  0.39789226258E+01 -0.39639342660E+02  0.43400727946E+02  0.00000000000E+00 0.  1.
         11    1    3    3    0    0  0.16303857329E+02 -0.76403363481E+01  0.18096984934E+02  0.25528246459E+02  0.51100000000E-03 0. -1.
        -11    1    3    3    0    0 -0.13291902161E+01  0.15512830805E+01  0.45214781064E+01  0.49615512044E+01  0.51100000000E-03 0.  1.
        -12    1    3    3    0    0  0.22449111198E+01  0.21101306418E+01  0.17020879619E+02  0.17297474390E+02  0.00000000000E+00 0.  1.
</event>
<event>
 7    1  0.3807360E-011  0.4778728E+02  0.7816164E-02  0.1312668E+00
        -11   -1    0    0    0    0  0.00000000000E+00  0.00000000000E+00  0.45593999997E+02  0.45594000000E+02  0.51100000000E-03 0. -1.
         11   -1    0    0    0    0 -0.00000000000E+00 -0.00000000000E+00 -0.45593999997E+02  0.45594000000E+02  0.51100000000E-03 0.  1.
    9900012    2    1    2    0    0 -0.15723906868E+02  0.27078549172E+02  0.30052172951E+02  0.47787283744E+02  0.20000057901E+02 0.  0.
        -12    1    1    2    0    0  0.15723906868E+02 -0.27078549172E+02 -0.30052172951E+02  0.43400716256E+02  0.00000000000E+00 0.  1.
         11    1    3    3    0    0 -0.10926083091E+02  0.15733319931E+02  0.15807009208E+02  0.24835019390E+02  0.51100000000E-03 0. -1.
        -11    1    3    3    0    0  0.72367306992E+00 -0.13277135389E+01 -0.14099685160E+01  0.20674954488E+01  0.51100000000E-03 0.  1.
        -12    1    3    3    0    0 -0.55214968471E+01  0.12672942780E+02  0.15655132259E+02  0.20884768904E+02  0.00000000000E+00 0.  1.
</event>
<event>
 7    1  0.3807360E-011  0.4778727E+02  0.7816164E-02  0.1312668E+00
        -11   -1    0    0    0    0  0.00000000000E+00  0.00000000000E+00  0.45593999997E+02  0.45594000000E+02  0.51100000000E-03 0. -1.
         11   -1    0    0    0    0 -0.00000000000E+00 -0.00000000000E+00 -0.45593999997E+02  0.45594000000E+02  0.51100000000E-03 0.  1.
    9900012    2    1    2    0    0 -0.33417482185E+02  0.21606041641E+01 -0.27608457930E+02  0.47787271029E+02  0.19999999931E+02 0.  0.
         12    1    1    2    0    0  0.33417482185E+02 -0.21606041641E+01  0.27608457930E+02  0.43400728971E+02  0.00000000000E+00 0. -1.
         11    1    3    3    0    0 -0.11804803154E+02  0.43297825935E+01 -0.64860281002E+01  0.14148107845E+02  0.51100000000E-03 0.  1.
        -11    1    3    3    0    0 -0.19927055525E+02 -0.59482193758E+01 -0.20917829072E+02  0.29496176514E+02  0.51100000000E-03 0. -1.
         12    1    3    3    0    0 -0.16856235068E+01  0.37790409463E+01 -0.20460075752E+00  0.41429866703E+01  0.00000000000E+00 0. -1.
</event>
<event>
 7    1  0.3807360E-011  0.4778727E+02  0.7816164E-02  0.1312668E+00
        -11   -1    0    0    0    0  0.00000000000E+00  0.00000000000E+00  0.45593999997E+02  0.45594000000E+02  0.51100000000E-03 0. -1.
         11   -1    0    0    0    0 -0.00000000000E+00 -0.00000000000E+00 -0.45593999997E+02  0.45594000000E+02  0.51100000000E-03 0.  1.
    9900012    2    1    2    0    0  0.20569507942E+02 -0.88921402295E+01  0.37167842715E+02  0.47787270203E+02  0.19999996162E+02 0.  0.
        -12    1    1    2    0    0 -0.20569507942E+02  0.88921402295E+01 -0.37167842715E+02  0.43400729797E+02  0.00000000000E+00 0.  1.
         11    1    3    3    0    0  0.20748585585E+01 -0.74552487233E+00 -0.13861088897E+01  0.26042548816E+01  0.51100000000E-03 0. -1.
        -11    1    3    3    0    0  0.14771378752E+02 -0.10446996367E+02  0.24452814786E+02  0.30418308870E+02  0.51100000000E-03 0.  1.
         12    1    3    3    0    0  0.37232706312E+01  0.23003810098E+01  0.14101136819E+02  0.14764706451E+02  0.00000000000E+00 0. -1.
</event>
<event>
 7    1  0.3807360E-011  0.4778727E+02  0.7816164E-02  0.1312668E+00
        -11   -1    0    0    0    0  0.00000000000E+00  0.00000000000E+00  0.45593999997E+02  0.45594000000E+02  0.51100000000E-03 0. -1.
         11   -1    0    0    0    0 -0.00000000000E+00 -0.00000000000E+00 -0.45593999997E+02  0.45594000000E+02  0.51100000000E-03 0.  1.
    9900012    2    1    2    0    0 -0.17295347136E+02  0.32117071542E+01 -0.39675930726E+02  0.47787267583E+02  0.19999984217E+02 0.  0.
         12    1    1    2    0    0  0.17295347136E+02 -0.32117071542E+01  0.39675930726E+02  0.43400732417E+02  0.00000000000E+00 0. -1.
         11    1    3    3    0    0  0.22461019392E+01  0.21435001611E+01 -0.19017052496E+02  0.19268831121E+02  0.51100000000E-03 0. -1.
        -11    1    3    3    0    0 -0.70658441856E+01  0.49192990490E+00 -0.87979123557E+01  0.11294751488E+02  0.51100000000E-03 0.  1.
         12    1    3    3    0    0 -0.12475604890E+02  0.57627708821E+00 -0.11860965874E+02  0.17223684975E+02  0.00000000000E+00 0. -1.
</event>
<event>
 7    1  0.3807360E-011  0.4778727E+02  0.7816164E-02  0.1312668E+00
        -11   -1    0    0    0    0  0.00000000000E+00  0.00000000000E+00  0.45593999997E+02  0.45594000000E+02  0.51100000000E-03 0. -1.
         11   -1    0    0    0    0 -0.00000000000E+00 -0.00000000000E+00 -0.45593999997E+02  0.45594000000E+02  0.51100000000E-03 0.  1.
    9900012    2    1    2    0    0 -0.14010163047E+02 -0.24028784645E+02  0.33316005763E+02  0.47787269590E+02  0.19999993367E+02 0.  0.
        -12    1    1    2    0    0  0.14010163047E+02  0.24028784645E+02 -0.33316005763E+02  0.43400730410E+02  0.00000000000E+00 0.  1.
         11    1    3    3    0    0 -0.69885739081E+01 -0.10441375467E+02  0.21785974779E+02  0.25149377413E+02  0.51100000000E-03 0. -1.
        -11    1    3    3    0    0 -0.60465223751E+00 -0.61186749582E+01  0.11210541365E+02  0.12785930765E+02  0.51100000000E-03 0.  1.
        -12    1    3    3    0    0 -0.64169369011E+01 -0.74687342196E+01  0.31948961902E+00  0.98519614115E+01  0.00000000000E+00 0.  1.
</event>
<event>
 7    1  0.3807360E-011  0.4778727E+02  0.7816164E-02  0.1312668E+00
        -11   -1    0    0    0    0  0.00000000000E+00  0.00000000000E+00  0.45593999997E+02  0.45594000000E+02  0.51100000000E-03 0.  1.
         11   -1    0    0    0    0 -0.00000000000E+00 -0.00000000000E+00 -0.45593999997E+02  0.45594000000E+02  0.51100000000E-03 0. -1.
    9900012    2    1    2    0    0 -0.66963060768E+01  0.24861076024E+02  0.34938652940E+02  0.47787273216E+02  0.20000009899E+02 0.  0.
        -12    1    1    2    0    0  0.66963060768E+01 -0.24861076024E+02 -0.34938652940E+02  0.43400726784E+02  0.00000000000E+00 0.  1.
         11    1    3    3    0    0 -0.39273201772E+01  0.34561371502E+01  0.50157799341E+00  0.52555026895E+01  0.51100000000E-03 0. -1.
        -11    1    3    3    0    0 -0.75617419540E+01  0.16220318077E+02  0.24352858446E+02  0.30221521713E+02  0.51100000000E-03 0.  1.
         12    1    3    3    0    0  0.47927560544E+01  0.51846207971E+01  0.10084216501E+02  0.12310248813E+02  0.00000000000E+00 0. -1.
</event>
<event>
 7    1  0.3807360E-011  0.4778727E+02  0.7816164E-02  0.1312668E+00
        -11   -1    0    0    0    0  0.00000000000E+00  0.00000000000E+00  0.45593999997E+02  0.45594000000E+02  0.51100000000E-03 0. -1.
         11   -1    0    0    0    0 -0.00000000000E+00 -0.00000000000E+00 -0.45593999997E+02  0.45594000000E+02  0.51100000000E-03 0.  1.
    9900012    2    1    2    0    0 -0.70026347336E+01 -0.13052163061E+02  0.40794944094E+02  0.47787270542E+02  0.19999997711E+02 0.  0.
        -12    1    1    2    0    0  0.70026347336E+01  0.13052163061E+02 -0.40794944094E+02  0.43400729458E+02  0.00000000000E+00 0.  1.
         11    1    3    3    0    0 -0.87754213719E+00  0.48016736605E+01  0.47846142603E+01  0.68351067311E+01  0.51100000000E-03 0.  1.
        -11    1    3    3    0    0 -0.51111826764E+00 -0.56384853690E+01  0.14735583406E+02  0.15785790374E+02  0.51100000000E-03 0. -1.
        -12    1    3    3    0    0 -0.56139743287E+01 -0.12215351353E+02  0.21274746428E+02  0.25166373437E+02  0.00000000000E+00 0.  1.
</event>
<event>
 7    1  0.3807360E-011  0.4778727E+02  0.7816164E-02  0.1312668E+00
        -11   -1    0    0    0    0  0.00000000000E+00  0.00000000000E+00  0.45593999997E+02  0.45594000000E+02  0.51100000000E-03 0. -1.
         11   -1    0    0    0    0 -0.00000000000E+00 -0.00000000000E+00 -0.45593999997E+02  0.45594000000E+02  0.51100000000E-03 0.  1.
    9900012    2    1    2    0    0  0.10028918434E+02  0.19751636883E+02 -0.37321805509E+02  0.47787268083E+02  0.19999986497E+02 0.  0.
         12    1    1    2    0    0 -0.10028918434E+02 -0.19751636883E+02  0.37321805509E+02  0.43400731917E+02  0.00000000000E+00 0. -1.
         11    1    3    3    0    0  0.40211897289E+01  0.27058627722E+01 -0.13797822366E+02  0.14624348276E+02  0.51100000000E-03 0. -1.
        -11    1    3    3    0    0  0.75349446784E+01  0.72084094482E+01 -0.20084758859E+02  0.22630379951E+02  0.51100000000E-03 0.  1.
         12    1    3    3    0    0 -0.15272159737E+01  0.98373646627E+01 -0.34392242840E+01  0.10532539856E+02  0.00000000000E+00 0. -1.
</event>
<event>
 7    1  0.3807360E-011  0.4778727E+02  0.7816164E-02  0.1312668E+00
        -11   -1    0    0    0    0  0.00000000000E+00  0.00000000000E+00  0.45593999997E+02  0.45594000000E+02  0.51100000000E-03 0. -1.
         11   -1    0    0    0    0 -0.00000000000E+00 -0.00000000000E+00 -0.45593999997E+02  0.45594000000E+02  0.51100000000E-03 0.  1.
    9900012    2    1    2    0    0 -0.28992226377E+02 -0.20076357062E+02 -0.25298499542E+02  0.47787269795E+02  0.19999994305E+02 0.  0.
         12    1    1    2    0    0  0.28992226377E+02  0.20076357062E+02  0.25298499542E+02  0.43400730205E+02  0.00000000000E+00 0. -1.
         11    1    3    3    0    0  0.23269329718E+01 -0.10441310707E+01 -0.27902607863E+01  0.37802621953E+01  0.51100000000E-03 0.  1.
        -11    1    3    3    0    0 -0.10894481400E+02 -0.10018907220E+02 -0.13154123362E+02  0.19801494604E+02  0.51100000000E-03 0. -1.
         12    1    3    3    0    0 -0.20424677949E+02 -0.90133187714E+01 -0.93541153942E+01  0.24205512996E+02  0.00000000000E+00 0. -1.
</event>
<event>
 7    1  0.3807360E-011  0.4778727E+02  0.7816164E-02  0.1312668E+00
        -11   -1    0    0    0    0  0.00000000000E+00  0.00000000000E+00  0.45593999997E+02  0.45594000000E+02  0.51100000000E-03 0. -1.
         11   -1    0    0    0    0 -0.00000000000E+00 -0.00000000000E+00 -0.45593999997E+02  0.45594000000E+02  0.51100000000E-03 0.  1.
    9900012    2    1    2    0    0 -0.94086966050E+01  0.31598830179E+02 -0.28224346571E+02  0.47787269823E+02  0.19999994431E+02 0.  0.
         12    1    1    2    0    0  0.94086966050E+01 -0.31598830179E+02  0.28224346571E+02  0.43400730177E+02  0.00000000000E+00 0. -1.
         11    1    3    3    0    0 -0.53967015333E+01 -0.78532858509E+00 -0.25269854628E+01  0.60105560655E+01  0.51100000000E-03 0. -1.
        -11    1    3    3    0    0 -0.15283109811E+01  0.10747924185E+02 -0.59559830489E+01  0.12382541867E+02  0.51100000000E-03 0.  1.
        -12    1    3    3    0    0 -0.24836840906E+01  0.21636234579E+02 -0.19741378060E+02  0.29394171890E+02  0.00000000000E+00 0.  1.
</event>
<event>
 7    1  0.3807360E-011  0.4778725E+02  0.7816164E-02  0.1312668E+00
        -11   -1    0    0    0    0  0.00000000000E+00  0.00000000000E+00  0.45593999997E+02  0.45594000000E+02  0.51100000000E-03 0. -1.
         11   -1    0    0    0    0 -0.00000000000E+00 -0.00000000000E+00 -0.45593999997E+02  0.45594000000E+02  0.51100000000E-03 0.  1.
    9900012    2    1    2    0    0 -0.22029238482E+02  0.20927123572E+02  0.30990210946E+02  0.47787250887E+02  0.19999908095E+02 0.  0.
        -12    1    1    2    0    0  0.22029238482E+02 -0.20927123572E+02 -0.30990210946E+02  0.43400749113E+02  0.00000000000E+00 0.  1.
         11    1    3    3    0    0 -0.16110511013E+02  0.66649350635E+01  0.19385125628E+02  0.26072073573E+02  0.51100000000E-03 0. -1.
        -11    1    3    3    0    0  0.13754436700E+01  0.18886532099E+01  0.57456503562E+01  0.62025280744E+01  0.51100000000E-03 0.  1.
        -12    1    3    3    0    0 -0.72941711392E+01  0.12373535298E+02  0.58594349613E+01  0.15512649240E+02  0.00000000000E+00 0.  1.
</event>
<event>
 7    1  0.3807360E-011  0.4778727E+02  0.7816164E-02  0.1312668E+00
        -11   -1    0    0    0    0  0.00000000000E+00  0.00000000000E+00  0.45593999997E+02  0.45594000000E+02  0.51100000000E-03 0. -1.
         11   -1    0    0    0    0 -0.00000000000E+00 -0.00000000000E+00 -0.45593999997E+02  0.45594000000E+02  0.51100000000E-03 0.  1.
    9900012    2    1    2    0    0  0.24981558573E+02  0.91540556814E+01 -0.34289182027E+02  0.47787274105E+02  0.20000013955E+02 0.  0.
         12    1    1    2    0    0 -0.24981558573E+02 -0.91540556814E+01  0.34289182027E+02  0.43400725895E+02  0.00000000000E+00 0. -1.
         11    1    3    3    0    0 -0.26448921654E+01  0.20563394900E+01 -0.29062888313E+00  0.33628041979E+01  0.51100000000E-03 0. -1.
        -11    1    3    3    0    0  0.81356649035E+01  0.19454991108E+01 -0.85995339305E+01  0.11996916033E+02  0.51100000000E-03 0.  1.
         12    1    3    3    0    0  0.19490785835E+02  0.51522170806E+01 -0.25399019213E+02  0.32427553875E+02  0.00000000000E+00 0. -1.
</event>
<event>
 7    1  0.3807360E-011  0.4778727E+02  0.7816164E-02  0.1312668E+00
        -11   -1    0    0    0    0  0.00000000000E+00  0.00000000000E+00  0.45593999997E+02  0.45594000000E+02  0.51100000000E-03 0. -1.
         11   -1    0    0    0    0 -0.00000000000E+00 -0.00000000000E+00 -0.45593999997E+02  0.45594000000E+02  0.51100000000E-03 0.  1.
    9900012    2    1    2    0    0 -0.10633520820E+01 -0.23732945343E+02 -0.36321342033E+02  0.47787270750E+02  0.19999998658E+02 0.  0.
         12    1    1    2    0    0  0.10633520820E+01  0.23732945343E+02  0.36321342033E+02  0.43400729250E+02  0.00000000000E+00 0. -1.
         11    1    3    3    0    0  0.46451017366E+01 -0.15622154756E+02 -0.15731238303E+02  0.22651722852E+02  0.51100000000E-03 0. -1.
        -11    1    3    3    0    0 -0.49251414356E+01 -0.10046286275E+02 -0.20079029745E+02  0.22985915728E+02  0.51100000000E-03 0.  1.
         12    1    3    3    0    0 -0.78331238295E+00  0.19354956880E+01 -0.51107398543E+00  0.21496321699E+01  0.00000000000E+00 0. -1.
</event>
<event>
 7    1  0.3807360E-011  0.4778727E+02  0.7816164E-02  0.1312668E+00
        -11   -1    0    0    0    0  0.00000000000E+00  0.00000000000E+00  0.45593999997E+02  0.45594000000E+02  0.51100000000E-03 0. -1.
         11   -1    0    0    0    0 -0.00000000000E+00 -0.00000000000E+00 -0.45593999997E+02  0.45594000000E+02  0.51100000000E-03 0.  1.
    9900012    2    1    2    0    0 -0.12033979266E+02 -0.40369442717E+01  0.41503130945E+02  0.47787268967E+02  0.19999990526E+02 0.  0.
        -12    1    1    2    0    0  0.12033979266E+02  0.40369442717E+01 -0.41503130945E+02  0.43400731033E+02  0.00000000000E+00 0.  1.
         11    1    3    3    0    0 -0.10601912232E+02 -0.19335228863E+01  0.25010405937E+02  0.27233425402E+02  0.51100000000E-03 0. -1.
        -11    1    3    3    0    0 -0.16724098794E+01 -0.58427024862E+01  0.34602027243E+01  0.69933633040E+01  0.51100000000E-03 0.  1.
        -12    1    3    3    0    0  0.24034284589E+00  0.37392811007E+01  0.13032522283E+02  0.13560480261E+02  0.00000000000E+00 0.  1.
</event>
<event>
 7    1  0.3807360E-011  0.4778727E+02  0.7816164E-02  0.1312668E+00
        -11   -1    0    0    0    0  0.00000000000E+00  0.00000000000E+00  0.45593999997E+02  0.45594000000E+02  0.51100000000E-03 0. -1.
         11   -1    0    0    0    0 -0.00000000000E+00 -0.00000000000E+00 -0.45593999997E+02  0.45594000000E+02  0.51100000000E-03 0.  1.
    9900012    2    1    2    0    0 -0.18798645790E+02  0.20858140735E+02  0.33093384870E+02  0.47787271427E+02  0.20000001745E+02 0.  0.
        -12    1    1    2    0    0  0.18798645790E+02 -0.20858140735E+02 -0.33093384870E+02  0.43400728573E+02  0.00000000000E+00 0.  1.
         11    1    3    3    0    0 -0.39064563866E+01 -0.26431342447E+01  0.99312834146E+01  0.10994405425E+02  0.51100000000E-03 0. -1.
        -11    1    3    3    0    0 -0.44199245285E+01  0.81786845381E+01  0.11835987357E+02  0.15050488716E+02  0.51100000000E-03 0.  1.
         12    1    3    3    0    0 -0.10472264875E+02  0.15322590442E+02  0.11326114099E+02  0.21742377286E+02  0.00000000000E+00 0. -1.
</event>
<event>
 7    1  0.3807360E-011  0.4778727E+02  0.7816164E-02  0.1312668E+00
        -11   -1    0    0    0    0  0.00000000000E+00  0.00000000000E+00  0.45593999997E+02  0.45594000000E+02  0.51100000000E-03 0. -1.
         11   -1    0    0    0    0 -0.00000000000E+00 -0.00000000000E+00 -0.45593999997E+02  0.45594000000E+02  0.51100000000E-03 0.  1.
    9900012    2    1    2    0    0 -0.97578781147E+01 -0.32220794939E+02  0.27390280079E+02  0.47787271266E+02  0.20000001012E+02 0.  0.
        -12    1    1    2    0    0  0.97578781147E+01  0.32220794939E+02 -0.27390280079E+02  0.43400728734E+02  0.00000000000E+00 0.  1.
         11    1    3    3    0    0 -0.64438778090E+01 -0.67166126855E+01  0.84950857879E+01  0.12601703456E+02  0.51100000000E-03 0. -1.
        -11    1    3    3    0    0  0.48100942792E+01 -0.61593135661E+01  0.92032695323E+01  0.12073703696E+02  0.51100000000E-03 0.  1.
        -12    1    3    3    0    0 -0.81240945849E+01 -0.19344868687E+02  0.96919247590E+01  0.23111864115E+02  0.00000000000E+00 0.  1.
</event>
<event>
 7    1  0.3807360E-011  0.4778727E+02  0.7816164E-02  0.1312668E+00
        -11   -1    0    0    0    0  0.00000000000E+00  0.00000000000E+00  0.45593999997E+02  0.45594000000E+02  0.51100000000E-03 0. -1.
         11   -1    0    0    0    0 -0.00000000000E+00 -0.00000000000E+00 -0.45593999997E+02  0.45594000000E+02  0.51100000000E-03 0.  1.
    9900012    2    1    2    0    0  0.20038990558E+02 -0.18873306779E+02 -0.33553843107E+02  0.47787271451E+02  0.20000001853E+02 0.  0.
         12    1    1    2    0    0 -0.20038990558E+02  0.18873306779E+02  0.33553843107E+02  0.43400728549E+02  0.00000000000E+00 0. -1.
         11    1    3    3    0    0  0.68007981147E+01 -0.13834169519E+02 -0.11931339113E+02  0.19493382328E+02  0.51100000000E-03 0. -1.
        -11    1    3    3    0    0  0.50450059833E+01 -0.65071393434E+01 -0.48152325688E+01  0.95384177283E+01  0.51100000000E-03 0.  1.
         12    1    3    3    0    0  0.81931864596E+01  0.14680020836E+01 -0.16807271425E+02  0.18755471395E+02  0.00000000000E+00 0. -1.
</event>
<event>
 7    1  0.3807360E-011  0.4778727E+02  0.7816164E-02  0.1312668E+00
        -11   -1    0    0    0    0  0.00000000000E+00  0.00000000000E+00  0.45593999997E+02  0.45594000000E+02  0.51100000000E-03 0. -1.
         11   -1    0    0    0    0 -0.00000000000E+00 -0.00000000000E+00 -0.45593999997E+02  0.45594000000E+02  0.51100000000E-03 0.  1.
    9900012    2    1    2    0    0 -0.20301891760E+02  0.37581964039E+02  0.76845814623E+01  0.47787267030E+02  0.19999981696E+02 0.  0.
        -12    1    1    2    0    0  0.20301891760E+02 -0.37581964039E+02 -0.76845814623E+01  0.43400732970E+02  0.00000000000E+00 0.  1.
         11    1    3    3    0    0 -0.14405158578E+02  0.34484867252E+02  0.10290754998E+02  0.38763569259E+02  0.51100000000E-03 0. -1.
        -11    1    3    3    0    0 -0.74616460866E+00  0.25244170263E+01  0.88267348517E+00  0.27764285852E+01  0.51100000000E-03 0.  1.
        -12    1    3    3    0    0 -0.51505685737E+01  0.57267976119E+00 -0.34888470207E+01  0.62472691855E+01  0.00000000000E+00 0.  1.
</event>
<event>
 7    1  0.3807360E-011  0.4778727E+02  0.7816164E-02  0.1312668E+00
        -11   -1    0    0    0    0  0.00000000000E+00  0.00000000000E+00  0.45593999997E+02  0.45594000000E+02  0.51100000000E-03 0.  1.
         11   -1    0    0    0    0 -0.00000000000E+00 -0.00000000000E+00 -0.45593999997E+02  0.45594000000E+02  0.51100000000E-03 0. -1.
    9900012    2    1    2    0    0  0.25273175082E+02 -0.18343474889E+02  0.30139787250E+02  0.47787271605E+02  0.20000002556E+02 0.  0.
        -12    1    1    2    0    0 -0.25273175082E+02  0.18343474889E+02 -0.30139787250E+02  0.43400728395E+02  0.00000000000E+00 0.  1.
         11    1    3    3    0    0 -0.10476331915E+01 -0.14224655034E+01 -0.23969628170E+00  0.17828062096E+01  0.51100000000E-03 0. -1.
        -11    1    3    3    0    0  0.19870454555E+02 -0.18864489828E+02  0.21330320369E+02  0.34722996818E+02  0.51100000000E-03 0.  1.
        -12    1    3    3    0    0  0.64503537187E+01  0.19434804428E+01  0.90491631622E+01  0.11281468577E+02  0.00000000000E+00 0.  1.
</event>
<event>
 7    1  0.3807360E-011  0.4778727E+02  0.7816164E-02  0.1312668E+00
        -11   -1    0    0    0    0  0.00000000000E+00  0.00000000000E+00  0.45593999997E+02  0.45594000000E+02  0.51100000000E-03 0. -1.
         11   -1    0    0    0    0 -0.00000000000E+00 -0.00000000000E+00 -0.45593999997E+02  0.45594000000E+02  0.51100000000E-03 0.  1.
    9900012    2    1    2    0    0  0.13330539049E+01 -0.80076151748E+01 -0.42634780514E+02  0.47787269096E+02  0.19999991117E+02 0.  0.
         12    1    1    2    0    0 -0.13330539049E+01  0.80076151748E+01  0.42634780514E+02  0.43400730904E+02  0.00000000000E+00 0. -1.
         11    1    3    3    0    0 -0.18230830648E+01  0.53478766163E+01 -0.47696682946E+01  0.73941295678E+01  0.51100000000E-03 0. -1.
        -11    1    3    3    0    0  0.13628964636E+00 -0.56941344017E+01 -0.18290163496E+02  0.19156508618E+02  0.51100000000E-03 0.  1.
         12    1    3    3    0    0  0.30198473234E+01 -0.76613573893E+01 -0.19574948723E+02  0.21236630910E+02  0.00000000000E+00 0. -1.
</event>
<event>
 7    1  0.3807360E-011  0.4778726E+02  0.7816164E-02  0.1312668E+00
        -11   -1    0    0    0    0  0.00000000000E+00  0.00000000000E+00  0.45593999997E+02  0.45594000000E+02  0.51100000000E-03 0. -1.
         11   -1    0    0    0    0 -0.00000000000E+00 -0.00000000000E+00 -0.45593999997E+02  0.45594000000E+02  0.51100000000E-03 0.  1.
    9900012    2    1    2    0    0  0.15441121092E+02  0.11641672927E+02 -0.38854436128E+02  0.47787262957E+02  0.19999963124E+02 0.  0.
         12    1    1    2    0    0 -0.15441121092E+02 -0.11641672927E+02  0.38854436128E+02  0.43400737043E+02  0.00000000000E+00 0. -1.
         11    1    3    3    0    0  0.16491406006E+01 -0.54509881621E+01 -0.69739338601E+01  0.90038153252E+01  0.51100000000E-03 0. -1.
        -11    1    3    3    0    0  0.41201690815E+01  0.62433188625E+01 -0.93916137812E+01  0.12006549602E+02  0.51100000000E-03 0.  1.
         12    1    3    3    0    0  0.96718114101E+01  0.10849342226E+02 -0.22488888486E+02  0.26776898029E+02  0.00000000000E+00 0. -1.
</event>
<event>
 7    1  0.3807360E-011  0.4778727E+02  0.7816164E-02  0.1312668E+00
        -11   -1    0    0    0    0  0.00000000000E+00  0.00000000000E+00  0.45593999997E+02  0.45594000000E+02  0.51100000000E-03 0. -1.
         11   -1    0    0    0    0 -0.00000000000E+00 -0.00000000000E+00 -0.45593999997E+02  0.45594000000E+02  0.51100000000E-03 0.  1.
    9900012    2    1    2    0    0 -0.10710647884E+02 -0.10808969302E+02 -0.40645683622E+02  0.47787269677E+02  0.19999993767E+02 0.  0.
         12    1    1    2    0    0  0.10710647884E+02  0.10808969302E+02  0.40645683622E+02  0.43400730323E+02  0.00000000000E+00 0. -1.
         11    1    3    3    0    0 -0.22330653685E+01 -0.73276947504E+01 -0.11349880722E+02  0.13693118124E+02  0.51100000000E-03 0. -1.
        -11    1    3    3    0    0 -0.34594465585E+01 -0.46586434549E+01 -0.28243510358E+02  0.28833428637E+02  0.51100000000E-03 0.  1.
         12    1    3    3    0    0 -0.50181359566E+01  0.11773689035E+01 -0.10522925415E+01  0.52607229168E+01  0.00000000000E+00 0. -1.
</event>
<event>
 7    1  0.4725908E-011  0.4778727E+02  0.7816164E-02  0.1312668E+00
        -11   -1    0    0    0    0  0.00000000000E+00  0.00000000000E+00  0.45593999997E+02  0.45594000000E+02  0.51100000000E-03 0. -1.
         11   -1    0    0    0    0 -0.00000000000E+00 -0.00000000000E+00 -0.45593999997E+02  0.45594000000E+02  0.51100000000E-03 0.  1.
    9900012    2    1    2    0    0  0.38371685010E+02  0.13280551287E+01 -0.20235450180E+02  0.47787269765E+02  0.19999994168E+02 0.  0.
         12    1    1    2    0    0 -0.38371685010E+02 -0.13280551287E+01  0.20235450180E+02  0.43400730235E+02  0.00000000000E+00 0. -1.
         11    1    3    3    0    0  0.30758462230E+01  0.27582914122E+01 -0.63651116052E+01  0.75883889930E+01  0.51100000000E-03 0. -1.
        -11    1    3    3    0    0  0.30119586387E+02  0.77565044765E+00 -0.16082265717E+02  0.34153043621E+02  0.51100000000E-03 0.  1.
         12    1    3    3    0    0  0.51762523994E+01 -0.22058867312E+01  0.22119271418E+01  0.60458371508E+01  0.00000000000E+00 0. -1.
</event>
<event>
 7    1  0.3807360E-011  0.4778727E+02  0.7816164E-02  0.1312668E+00
        -11   -1    0    0    0    0  0.00000000000E+00  0.00000000000E+00  0.45593999997E+02  0.45594000000E+02  0.51100000000E-03 0.  1.
         11   -1    0    0    0    0 -0.00000000000E+00 -0.00000000000E+00 -0.45593999997E+02  0.45594000000E+02  0.51100000000E-03 0. -1.
    9900012    2    1    2    0    0  0.30039806790E+02 -0.27047455266E+02  0.15800904272E+02  0.47787269543E+02  0.19999993155E+02 0.  0.
        -12    1    1    2    0    0 -0.30039806790E+02  0.27047455266E+02 -0.15800904272E+02  0.43400730457E+02  0.00000000000E+00 0.  1.
         11    1    3    3    0    0  0.12618297638E+02 -0.10660340104E+02  0.58507471259E+01  0.17524141308E+02  0.51100000000E-03 0. -1.
        -11    1    3    3    0    0 -0.87662663255E+00 -0.82546990312E+01  0.47940613706E+01  0.95860082952E+01  0.51100000000E-03 0.  1.
        -12    1    3    3    0    0  0.18298135785E+02 -0.81324161313E+01  0.51560957756E+01  0.20677119940E+02  0.00000000000E+00 0.  1.
</event>
<event>
 7    1  0.3807360E-011  0.4778727E+02  0.7816164E-02  0.1312668E+00
        -11   -1    0    0    0    0  0.00000000000E+00  0.00000000000E+00  0.45593999997E+02  0.45594000000E+02  0.51100000000E-03 0. -1.
         11   -1    0    0    0    0 -0.00000000000E+00 -0.00000000000E+00 -0.45593999997E+02  0.45594000000E+02  0.51100000000E-03 0.  1.
    9900012    2    1    2    0    0  0.11708489479E+02  0.27032082841E+02  0.31871634144E+02  0.47787270840E+02  0.19999999067E+02 0.  0.
        -12    1    1    2    0    0 -0.11708489479E+02 -0.27032082841E+02 -0.31871634144E+02  0.43400729160E+02  0.00000000000E+00 0.  1.
         11    1    3    3    0    0  0.21022134294E+01  0.13439699752E+02  0.99152568398E+01  0.16833215652E+02  0.51100000000E-03 0. -1.
        -11    1    3    3    0    0  0.80344607773E+01  0.21952782288E+01  0.31441859700E+01  0.89026800548E+01  0.51100000000E-03 0.  1.
         12    1    3    3    0    0  0.15718152721E+01  0.11397104861E+02  0.18812191334E+02  0.22051375133E+02  0.00000000000E+00 0. -1.
</event>
<event>
 7    1  0.3807360E-011  0.4778727E+02  0.7816164E-02  0.1312668E+00
        -11   -1    0    0    0    0  0.00000000000E+00  0.00000000000E+00  0.45593999997E+02  0.45594000000E+02  0.51100000000E-03 0. -1.
         11   -1    0    0    0    0 -0.00000000000E+00 -0.00000000000E+00 -0.45593999997E+02  0.45594000000E+02  0.51100000000E-03 0.  1.
    9900012    2    1    2    0    0 -0.81048359787E+01  0.35711628001E+02  0.23294087847E+02  0.47787271097E+02  0.20000000238E+02 0.  0.
        -12    1    1    2    0    0  0.81048359787E+01 -0.35711628001E+02 -0.23294087847E+02  0.43400728903E+02  0.00000000000E+00 0.  1.
         11    1    3    3    0    0 -0.68257014504E+01  0.16813958306E+02  0.90221449158E+01  0.20265697455E+02  0.51100000000E-03 0. -1.
        -11    1    3    3    0    0  0.22073380738E+01  0.82998813172E+01 -0.95891489265E+00  0.86417526743E+01  0.51100000000E-03 0.  1.
        -12    1    3    3    0    0 -0.34864726021E+01  0.10597788378E+02  0.15230857824E+02  0.18879820968E+02  0.00000000000E+00 0.  1.
</event>
<event>
 7    1  0.3807360E-011  0.4778727E+02  0.7816164E-02  0.1312668E+00
        -11   -1    0    0    0    0  0.00000000000E+00  0.00000000000E+00  0.45593999997E+02  0.45594000000E+02  0.51100000000E-03 0.  1.
         11   -1    0    0    0    0 -0.00000000000E+00 -0.00000000000E+00 -0.45593999997E+02  0.45594000000E+02  0.51100000000E-03 0. -1.
    9900012    2    1    2    0    0  0.40171260042E+02  0.88169244017E+01  0.13862005584E+02  0.47787268576E+02  0.19999988747E+02 0.  0.
        -12    1    1    2    0    0 -0.40171260042E+02 -0.88169244017E+01 -0.13862005584E+02  0.43400731424E+02  0.00000000000E+00 0.  1.
         11    1    3    3    0    0  0.14557992707E+02  0.45439255621E+01 -0.12594247099E+00  0.15251172838E+02  0.51100000000E-03 0. -1.
        -11    1    3    3    0    0  0.13407742048E+02  0.61042569405E+01  0.13809946384E+02  0.20192674885E+02  0.51100000000E-03 0.  1.
        -12    1    3    3    0    0  0.12205525287E+02 -0.18312581009E+01  0.17800167092E+00  0.12343420853E+02  0.00000000000E+00 0.  1.
</event>
<event>
 7    1  0.3807360E-011  0.4778728E+02  0.7816164E-02  0.1312668E+00
        -11   -1    0    0    0    0  0.00000000000E+00  0.00000000000E+00  0.45593999997E+02  0.45594000000E+02  0.51100000000E-03 0. -1.
         11   -1    0    0    0    0 -0.00000000000E+00 -0.00000000000E+00 -0.45593999997E+02  0.45594000000E+02  0.51100000000E-03 0.  1.
    9900012    2    1    2    0    0  0.77031396455E+01 -0.28393496893E+02  0.31907583133E+02  0.47787275495E+02  0.20000020290E+02 0.  0.
        -12    1    1    2    0    0 -0.77031396455E+01  0.28393496893E+02 -0.31907583133E+02  0.43400724505E+02  0.00000000000E+00 0.  1.
         11    1    3    3    0    0  0.80549241779E+01 -0.18070433389E+02  0.25407774768E+02  0.32202133242E+02  0.51100000000E-03 0. -1.
        -11    1    3    3    0    0  0.25195734323E+01 -0.10591666566E+02  0.35292515876E+01  0.11444966927E+02  0.51100000000E-03 0.  1.
        -12    1    3    3    0    0 -0.28713579646E+01  0.26860306194E+00  0.29705567769E+01  0.41401753261E+01  0.00000000000E+00 0.  1.
</event>
<event>
 7    1  0.3807360E-011  0.4778727E+02  0.7816164E-02  0.1312668E+00
        -11   -1    0    0    0    0  0.00000000000E+00  0.00000000000E+00  0.45593999997E+02  0.45594000000E+02  0.51100000000E-03 0. -1.
         11   -1    0    0    0    0 -0.00000000000E+00 -0.00000000000E+00 -0.45593999997E+02  0.45594000000E+02  0.51100000000E-03 0.  1.
    9900012    2    1    2    0    0 -0.32188454682E+02  0.47165820006E+00 -0.29108486419E+02  0.47787273533E+02  0.20000011345E+02 0.  0.
         12    1    1    2    0    0  0.32188454682E+02 -0.47165820006E+00  0.29108486419E+02  0.43400726467E+02  0.00000000000E+00 0. -1.
         11    1    3    3    0    0 -0.54154666884E+01  0.23659732638E+01  0.41521246317E+00  0.59243152000E+01  0.51100000000E-03 0. -1.
        -11    1    3    3    0    0 -0.16958523981E+02 -0.62075610718E+01 -0.13344818332E+02  0.22454610365E+02  0.51100000000E-03 0.  1.
        -12    1    3    3    0    0 -0.98144640130E+01  0.43132460080E+01 -0.16178880550E+02  0.19408347968E+02  0.00000000000E+00 0.  1.
</event>
<event>
 7    1  0.3807360E-011  0.4778727E+02  0.7816164E-02  0.1312668E+00
        -11   -1    0    0    0    0  0.00000000000E+00  0.00000000000E+00  0.45593999997E+02  0.45594000000E+02  0.51100000000E-03 0. -1.
         11   -1    0    0    0    0 -0.00000000000E+00 -0.00000000000E+00 -0.45593999997E+02  0.45594000000E+02  0.51100000000E-03 0.  1.
    9900012    2    1    2    0    0  0.76558134769E+01 -0.35217222950E+00  0.42718703973E+02  0.47787272190E+02  0.20000005225E+02 0.  0.
        -12    1    1    2    0    0 -0.76558134769E+01  0.35217222950E+00 -0.42718703973E+02  0.43400727810E+02  0.00000000000E+00 0.  1.
         11    1    3    3    0    0  0.83312529342E+01  0.54061805737E+01  0.26255089749E+02  0.28070737466E+02  0.51100000000E-03 0. -1.
        -11    1    3    3    0    0  0.13883149774E+01 -0.29625630000E+01  0.41726688666E+00  0.32982283003E+01  0.51100000000E-03 0.  1.
        -12    1    3    3    0    0 -0.20637544347E+01 -0.27957898032E+01  0.16046347337E+02  0.16418306425E+02  0.00000000000E+00 0.  1.
</event>
<event>
 7    1  0.3807360E-011  0.4778727E+02  0.7816164E-02  0.1312668E+00
        -11   -1    0    0    0    0  0.00000000000E+00  0.00000000000E+00  0.45593999997E+02  0.45594000000E+02  0.51100000000E-03 0. -1.
         11   -1    0    0    0    0 -0.00000000000E+00 -0.00000000000E+00 -0.45593999997E+02  0.45594000000E+02  0.51100000000E-03 0.  1.
    9900012    2    1    2    0    0 -0.35524575392E+02 -0.22371886890E+02  0.11005737626E+02  0.47787273733E+02  0.20000012260E+02 0.  0.
        -12    1    1    2    0    0  0.35524575392E+02  0.22371886890E+02 -0.11005737626E+02  0.43400726267E+02  0.00000000000E+00 0.  1.
         11    1    3    3    0    0 -0.27113930591E+02 -0.23576116912E+02  0.42205980761E+01  0.36177506398E+02  0.51100000000E-03 0. -1.
        -11    1    3    3    0    0 -0.84594129144E-01  0.10904604960E+01  0.80328050073E+00  0.13570261914E+01  0.51100000000E-03 0.  1.
        -12    1    3    3    0    0 -0.83260506715E+01  0.11376952657E+00  0.59818590492E+01  0.10252741144E+02  0.00000000000E+00 0.  1.
</event>
<event>
 7    1  0.3807360E-011  0.4778727E+02  0.7816164E-02  0.1312668E+00
        -11   -1    0    0    0    0  0.00000000000E+00  0.00000000000E+00  0.45593999997E+02  0.45594000000E+02  0.51100000000E-03 0. -1.
         11   -1    0    0    0    0 -0.00000000000E+00 -0.00000000000E+00 -0.45593999997E+02  0.45594000000E+02  0.51100000000E-03 0.  1.
    9900012    2    1    2    0    0 -0.43070900169E+02 -0.48519225357E+01  0.22315018973E+01  0.47787271960E+02  0.20000004177E+02 0.  0.
        -12    1    1    2    0    0  0.43070900169E+02  0.48519225357E+01 -0.22315018973E+01  0.43400728040E+02  0.00000000000E+00 0.  1.
         11    1    3    3    0    0 -0.25346258647E+00 -0.32782219740E-01 -0.51023691255E+00  0.57066621130E+00  0.51100000000E-03 0. -1.
        -11    1    3    3    0    0 -0.54733419169E+01 -0.70209656464E+01  0.40600179585E+01  0.97844354171E+01  0.51100000000E-03 0.  1.
         12    1    3    3    0    0 -0.37344095665E+02  0.22018253304E+01 -0.13182791487E+01  0.37432170332E+02  0.00000000000E+00 0. -1.
</event>
<event>
 7    1  0.3807360E-011  0.4778727E+02  0.7816164E-02  0.1312668E+00
        -11   -1    0    0    0    0  0.00000000000E+00  0.00000000000E+00  0.45593999997E+02  0.45594000000E+02  0.51100000000E-03 0. -1.
         11   -1    0    0    0    0 -0.00000000000E+00 -0.00000000000E+00 -0.45593999997E+02  0.45594000000E+02  0.51100000000E-03 0.  1.
    9900012    2    1    2    0    0  0.40205025095E+02 -0.11140764337E+02  0.11960875715E+02  0.47787271656E+02  0.20000002788E+02 0.  0.
        -12    1    1    2    0    0 -0.40205025095E+02  0.11140764337E+02 -0.11960875715E+02  0.43400728344E+02  0.00000000000E+00 0.  1.
         11    1    3    3    0    0  0.18646015156E+02 -0.12514619761E+02  0.11582337061E+02  0.25267372657E+02  0.51100000000E-03 0. -1.
        -11    1    3    3    0    0  0.36126137177E+01  0.26726278163E+01  0.53805481742E+00  0.45258613065E+01  0.51100000000E-03 0.  1.
        -12    1    3    3    0    0  0.17946396221E+02 -0.12987723924E+01 -0.15951616284E+00  0.17994037692E+02  0.00000000000E+00 0.  1.
</event>
<event>
 7    1  0.3807360E-011  0.4778727E+02  0.7816164E-02  0.1312668E+00
        -11   -1    0    0    0    0  0.00000000000E+00  0.00000000000E+00  0.45593999997E+02  0.45594000000E+02  0.51100000000E-03 0. -1.
         11   -1    0    0    0    0 -0.00000000000E+00 -0.00000000000E+00 -0.45593999997E+02  0.45594000000E+02  0.51100000000E-03 0.  1.
    9900012    2    1    2    0    0 -0.20773544970E+02 -0.21623581866E+02  0.31376801569E+02  0.47787272586E+02  0.20000007029E+02 0.  0.
        -12    1    1    2    0    0  0.20773544970E+02  0.21623581866E+02 -0.31376801569E+02  0.43400727414E+02  0.00000000000E+00 0.  1.
         11    1    3    3    0    0 -0.14478882830E+02 -0.11639359007E+02  0.69546675624E+01  0.19836333514E+02  0.51100000000E-03 0. -1.
        -11    1    3    3    0    0 -0.57780718213E+00  0.74951658836E+00  0.45938493847E+01  0.46903186125E+01  0.51100000000E-03 0.  1.
         12    1    3    3    0    0 -0.57168549579E+01 -0.10733739447E+02  0.19828284622E+02  0.23260620460E+02  0.00000000000E+00 0. -1.
</event>
<event>
 7    1  0.3807360E-011  0.4778727E+02  0.7816164E-02  0.1312668E+00
        -11   -1    0    0    0    0  0.00000000000E+00  0.00000000000E+00  0.45593999997E+02  0.45594000000E+02  0.51100000000E-03 0. -1.
         11   -1    0    0    0    0 -0.00000000000E+00 -0.00000000000E+00 -0.45593999997E+02  0.45594000000E+02  0.51100000000E-03 0.  1.
    9900012    2    1    2    0    0 -0.32767752567E+02 -0.27674492549E+02  0.66347794772E+01  0.47787269074E+02  0.19999991018E+02 0.  0.
        -12    1    1    2    0    0  0.32767752567E+02  0.27674492549E+02 -0.66347794772E+01  0.43400730926E+02  0.00000000000E+00 0.  1.
         11    1    3    3    0    0 -0.80254400041E+01 -0.48589687324E+01  0.59586669039E+01  0.11114089074E+02  0.51100000000E-03 0. -1.
        -11    1    3    3    0    0 -0.12225166711E+01 -0.55725250631E+01 -0.42272080570E+01  0.71004838432E+01  0.51100000000E-03 0.  1.
         12    1    3    3    0    0 -0.23519795892E+02 -0.17242998754E+02  0.49033206303E+01  0.29572696158E+02  0.00000000000E+00 0. -1.
</event>
<event>
 7    1  0.3807360E-011  0.4778727E+02  0.7816164E-02  0.1312668E+00
        -11   -1    0    0    0    0  0.00000000000E+00  0.00000000000E+00  0.45593999997E+02  0.45594000000E+02  0.51100000000E-03 0. -1.
         11   -1    0    0    0    0 -0.00000000000E+00 -0.00000000000E+00 -0.45593999997E+02  0.45594000000E+02  0.51100000000E-03 0.  1.
    9900012    2    1    2    0    0  0.32193302804E+02  0.33968728648E+01  0.28908053339E+02  0.47787273756E+02  0.20000012362E+02 0.  0.
        -12    1    1    2    0    0 -0.32193302804E+02 -0.33968728648E+01 -0.28908053339E+02  0.43400726244E+02  0.00000000000E+00 0.  1.
         11    1    3    3    0    0  0.20186243448E+02  0.68557159675E+01  0.15191339305E+02  0.26177510503E+02  0.51100000000E-03 0. -1.
        -11    1    3    3    0    0  0.24756207310E+00  0.11274682217E+01 -0.14657528282E+01  0.18657178740E+01  0.51100000000E-03 0.  1.
         12    1    3    3    0    0  0.11759497282E+02 -0.45863113245E+01  0.15182466863E+02  0.19744045379E+02  0.00000000000E+00 0. -1.
</event>
<event>
 7    1  0.3807360E-011  0.4778727E+02  0.7816164E-02  0.1312668E+00
        -11   -1    0    0    0    0  0.00000000000E+00  0.00000000000E+00  0.45593999997E+02  0.45594000000E+02  0.51100000000E-03 0. -1.
         11   -1    0    0    0    0 -0.00000000000E+00 -0.00000000000E+00 -0.45593999997E+02  0.45594000000E+02  0.51100000000E-03 0.  1.
    9900012    2    1    2    0    0  0.29018254159E+02  0.18403783646E+02 -0.26511602327E+02  0.47787269766E+02  0.19999994170E+02 0.  0.
         12    1    1    2    0    0 -0.29018254159E+02 -0.18403783646E+02  0.26511602327E+02  0.43400730234E+02  0.00000000000E+00 0. -1.
         11    1    3    3    0    0  0.15631147053E+01  0.22790935334E+01  0.26670109909E+01  0.38406435402E+01  0.51100000000E-03 0. -1.
        -11    1    3    3    0    0  0.84363794999E+01  0.44937217837E+01 -0.14093216373E+02  0.17028939559E+02  0.51100000000E-03 0.  1.
        -12    1    3    3    0    0  0.19018759954E+02  0.11630968329E+02 -0.15085396945E+02  0.26917686666E+02  0.00000000000E+00 0.  1.
</event>
<event>
 7    1  0.3807360E-011  0.4778727E+02  0.7816164E-02  0.1312668E+00
        -11   -1    0    0    0    0  0.00000000000E+00  0.00000000000E+00  0.45593999997E+02  0.45594000000E+02  0.51100000000E-03 0. -1.
         11   -1    0    0    0    0 -0.00000000000E+00 -0.00000000000E+00 -0.45593999997E+02  0.45594000000E+02  0.51100000000E-03 0.  1.
    9900012    2    1    2    0    0  0.33375693190E+01 -0.24182296050E+02 -0.35884547837E+02  0.47787267464E+02  0.19999983675E+02 0.  0.
         12    1    1    2    0    0 -0.33375693190E+01  0.24182296050E+02  0.35884547837E+02  0.43400732536E+02  0.00000000000E+00 0. -1.
         11    1    3    3    0    0 -0.29315797819E+01 -0.43069758767E+01 -0.80427363335E+01  0.95827871318E+01  0.51100000000E-03 0. -1.
        -11    1    3    3    0    0  0.66543231228E+01 -0.22102556429E+02 -0.27524286390E+02  0.35921989901E+02  0.51100000000E-03 0.  1.
        -12    1    3    3    0    0 -0.38517402186E+00  0.22272362565E+01 -0.31752511362E+00  0.22824904309E+01  0.00000000000E+00 0.  1.
</event>
<event>
 7    1  0.3807360E-011  0.4778727E+02  0.7816164E-02  0.1312668E+00
        -11   -1    0    0    0    0  0.00000000000E+00  0.00000000000E+00  0.45593999997E+02  0.45594000000E+02  0.51100000000E-03 0. -1.
         11   -1    0    0    0    0 -0.00000000000E+00 -0.00000000000E+00 -0.45593999997E+02  0.45594000000E+02  0.51100000000E-03 0.  1.
    9900012    2    1    2    0    0 -0.17922043694E+02  0.20036800986E+02 -0.34072720917E+02  0.47787270115E+02  0.19999995760E+02 0.  0.
         12    1    1    2    0    0  0.17922043694E+02 -0.20036800986E+02  0.34072720917E+02  0.43400729885E+02  0.00000000000E+00 0. -1.
         11    1    3    3    0    0 -0.48135821474E+01  0.25428930855E+01 -0.38334341996E+01  0.66582352285E+01  0.51100000000E-03 0. -1.
        -11    1    3    3    0    0 -0.10199778081E+02  0.19550559520E+02 -0.18256545222E+02  0.28627980965E+02  0.51100000000E-03 0.  1.
        -12    1    3    3    0    0 -0.29086834658E+01 -0.20566516194E+01 -0.11982741496E+02  0.12501053921E+02  0.00000000000E+00 0.  1.
</event>
<event>
 7    1  0.3807360E-011  0.4778726E+02  0.7816164E-02  0.1312668E+00
        -11   -1    0    0    0    0  0.00000000000E+00  0.00000000000E+00  0.45593999997E+02  0.45594000000E+02  0.51100000000E-03 0. -1.
         11   -1    0    0    0    0 -0.00000000000E+00 -0.00000000000E+00 -0.45593999997E+02  0.45594000000E+02  0.51100000000E-03 0.  1.
    9900012    2    1    2    0    0  0.14432019286E+02  0.29120426085E+01 -0.40827208769E+02  0.47787260966E+02  0.19999954047E+02 0.  0.
         12    1    1    2    0    0 -0.14432019286E+02 -0.29120426085E+01  0.40827208769E+02  0.43400739034E+02  0.00000000000E+00 0. -1.
         11    1    3    3    0    0  0.38833255072E+01 -0.22839274120E+01 -0.12385179414E+02  0.13179120259E+02  0.51100000000E-03 0. -1.
        -11    1    3    3    0    0  0.86882831265E+01 -0.45397584317E+01 -0.14425181643E+02  0.17440800899E+02  0.51100000000E-03 0.  1.
         12    1    3    3    0    0  0.18604106526E+01  0.97357284521E+01 -0.14016847712E+02  0.17167339808E+02  0.00000000000E+00 0. -1.
</event>
<event>
 7    1  0.3807360E-011  0.4778728E+02  0.7816164E-02  0.1312668E+00
        -11   -1    0    0    0    0  0.00000000000E+00  0.00000000000E+00  0.45593999997E+02  0.45594000000E+02  0.51100000000E-03 0. -1.
         11   -1    0    0    0    0 -0.00000000000E+00 -0.00000000000E+00 -0.45593999997E+02  0.45594000000E+02  0.51100000000E-03 0.  1.
    9900012    2    1    2    0    0 -0.36116298899E+02 -0.70809027789E+01 -0.23002089093E+02  0.47787281884E+02  0.20000049423E+02 0.  0.
         12    1    1    2    0    0  0.36116298899E+02  0.70809027789E+01  0.23002089093E+02  0.43400718116E+02  0.00000000000E+00 0. -1.
         11    1    3    3    0    0 -0.49807064244E+01  0.53798063279E+01 -0.55732935594E+01  0.92093080073E+01  0.51100000000E-03 0. -1.
        -11    1    3    3    0    0 -0.14821469087E+02 -0.54283518724E+01 -0.12520566025E+02  0.20147146791E+02  0.51100000000E-03 0.  1.
        -12    1    3    3    0    0 -0.16314123388E+02 -0.70323572344E+01 -0.49082295079E+01  0.18430827086E+02  0.00000000000E+00 0.  1.
</event>
<event>
 7    1  0.3807360E-011  0.4778727E+02  0.7816164E-02  0.1312668E+00
        -11   -1    0    0    0    0  0.00000000000E+00  0.00000000000E+00  0.45593999997E+02  0.45594000000E+02  0.51100000000E-03 0. -1.
         11   -1    0    0    0    0 -0.00000000000E+00 -0.00000000000E+00 -0.45593999997E+02  0.45594000000E+02  0.51100000000E-03 0.  1.
    9900012    2    1    2    0    0  0.23464559190E+02 -0.12875881147E+02 -0.34165030371E+02  0.47787272430E+02  0.20000006319E+02 0.  0.
         12    1    1    2    0    0 -0.23464559190E+02  0.12875881147E+02  0.34165030371E+02  0.43400727570E+02  0.00000000000E+00 0. -1.
         11    1    3    3    0    0  0.48159282875E+00  0.71902489636E+00  0.10477850023E+01  0.13589636222E+01  0.51100000000E-03 0. -1.
        -11    1    3    3    0    0  0.56780931490E+01 -0.70088667810E+01 -0.34397894509E+01  0.96538648784E+01  0.51100000000E-03 0.  1.
        -12    1    3    3    0    0  0.17304873212E+02 -0.65860392621E+01 -0.31773025923E+02  0.36774443930E+02  0.00000000000E+00 0.  1.
</event>
<event>
 7    1  0.3807360E-011  0.4778726E+02  0.7816164E-02  0.1312668E+00
        -11   -1    0    0    0    0  0.00000000000E+00  0.00000000000E+00  0.45593999997E+02  0.45594000000E+02  0.51100000000E-03 0. -1.
         11   -1    0    0    0    0 -0.00000000000E+00 -0.00000000000E+00 -0.45593999997E+02  0.45594000000E+02  0.51100000000E-03 0.  1.
    9900012    2    1    2    0    0 -0.22799679615E+01 -0.52595997655E+01  0.43020489291E+02  0.47787261038E+02  0.19999954376E+02 0.  0.
        -12    1    1    2    0    0  0.22799679615E+01  0.52595997655E+01 -0.43020489291E+02  0.43400738962E+02  0.00000000000E+00 0.  1.
         11    1    3    3    0    0  0.75739568158E+01 -0.10931810153E+01  0.25224133341E+02  0.26359377262E+02  0.51100000000E-03 0.  1.
        -11    1    3    3    0    0 -0.31835084080E+01 -0.26551689461E+01  0.29686010676E+01  0.50987489128E+01  0.51100000000E-03 0. -1.
        -12    1    3    3    0    0 -0.66704163693E+01 -0.15112498041E+01  0.14827754883E+02  0.16329134863E+02  0.00000000000E+00 0.  1.
</event>
<event>
 7    1  0.3807360E-011  0.4778727E+02  0.7816164E-02  0.1312668E+00
        -11   -1    0    0    0    0  0.00000000000E+00  0.00000000000E+00  0.45593999997E+02  0.45594000000E+02  0.51100000000E-03 0. -1.
         11   -1    0    0    0    0 -0.00000000000E+00 -0.00000000000E+00 -0.45593999997E+02  0.45594000000E+02  0.51100000000E-03 0.  1.
    9900012    2    1    2    0    0 -0.18231342315E+02  0.10498224245E+02  0.37960888554E+02  0.47787267118E+02  0.19999982097E+02 0.  0.
        -12    1    1    2    0    0  0.18231342315E+02 -0.10498224245E+02 -0.37960888554E+02  0.43400732882E+02  0.00000000000E+00 0.  1.
         11    1    3    3    0    0  0.35523494127E+00 -0.85624361553E+00  0.35205505980E+01  0.36405523986E+01  0.51100000000E-03 0. -1.
        -11    1    3    3    0    0 -0.13183686251E+02  0.23953953010E+01  0.77504881450E+01  0.15479585542E+02  0.51100000000E-03 0.  1.
         12    1    3    3    0    0 -0.54028910057E+01  0.89590725590E+01  0.26689849811E+02  0.28667129177E+02  0.00000000000E+00 0. -1.
</event>
<event>
 7    1  0.3807360E-011  0.4778727E+02  0.7816164E-02  0.1312668E+00
        -11   -1    0    0    0    0  0.00000000000E+00  0.00000000000E+00  0.45593999997E+02  0.45594000000E+02  0.51100000000E-03 0. -1.
         11   -1    0    0    0    0 -0.00000000000E+00 -0.00000000000E+00 -0.45593999997E+02  0.45594000000E+02  0.51100000000E-03 0.  1.
    9900012    2    1    2    0    0  0.13488748683E+02  0.27646013492E+02 -0.30616577732E+02  0.47787271492E+02  0.20000002042E+02 0.  0.
         12    1    1    2    0    0 -0.13488748683E+02 -0.27646013492E+02  0.30616577732E+02  0.43400728508E+02  0.00000000000E+00 0. -1.
         11    1    3    3    0    0  0.31695781370E+01  0.33943501917E+01 -0.37513103443E+00  0.46592448256E+01  0.51100000000E-03 0. -1.
        -11    1    3    3    0    0  0.12906185306E+02  0.23405826706E+02 -0.30301948992E+02  0.40405574566E+02  0.51100000000E-03 0.  1.
        -12    1    3    3    0    0 -0.25870147607E+01  0.84583659357E+00  0.60502295159E-01  0.27224521011E+01  0.00000000000E+00 0.  1.
</event>
<event>
 7    1  0.3807360E-011  0.4778727E+02  0.7816164E-02  0.1312668E+00
        -11   -1    0    0    0    0  0.00000000000E+00  0.00000000000E+00  0.45593999997E+02  0.45594000000E+02  0.51100000000E-03 0. -1.
         11   -1    0    0    0    0 -0.00000000000E+00 -0.00000000000E+00 -0.45593999997E+02  0.45594000000E+02  0.51100000000E-03 0.  1.
    9900012    2    1    2    0    0 -0.27121387751E+02 -0.92327227017E+01 -0.32600771169E+02  0.47787272784E+02  0.20000007934E+02 0.  0.
         12    1    1    2    0    0  0.27121387751E+02  0.92327227017E+01  0.32600771169E+02  0.43400727216E+02  0.00000000000E+00 0. -1.
         11    1    3    3    0    0 -0.48564820473E+01 -0.11956055264E+01  0.11162027333E+01  0.51245291739E+01  0.51100000000E-03 0. -1.
        -11    1    3    3    0    0 -0.42272722249E+01 -0.62953917467E+00 -0.71896612882E+00  0.43339430767E+01  0.51100000000E-03 0.  1.
        -12    1    3    3    0    0 -0.18037633478E+02 -0.74075780007E+01 -0.32998007774E+02  0.38328800534E+02  0.00000000000E+00 0.  1.
</event>
<event>
 7    1  0.3807360E-011  0.4778727E+02  0.7816164E-02  0.1312668E+00
        -11   -1    0    0    0    0  0.00000000000E+00  0.00000000000E+00  0.45593999997E+02  0.45594000000E+02  0.51100000000E-03 0. -1.
         11   -1    0    0    0    0 -0.00000000000E+00 -0.00000000000E+00 -0.45593999997E+02  0.45594000000E+02  0.51100000000E-03 0.  1.
    9900012    2    1    2    0    0  0.96857793136E+01  0.85953789021E+01  0.41423768510E+02  0.47787268935E+02  0.19999990384E+02 0.  0.
        -12    1    1    2    0    0 -0.96857793136E+01 -0.85953789021E+01 -0.41423768510E+02  0.43400731065E+02  0.00000000000E+00 0.  1.
         11    1    3    3    0    0  0.45420743831E+00  0.14509048079E+01  0.15637740237E+02  0.15711471896E+02  0.51100000000E-03 0. -1.
        -11    1    3    3    0    0  0.82266062591E+01 -0.11174392887E+01  0.50147864802E+01  0.96991651604E+01  0.51100000000E-03 0.  1.
        -12    1    3    3    0    0  0.10049656162E+01  0.82619133828E+01  0.20771241792E+02  0.22376631879E+02  0.00000000000E+00 0.  1.
</event>
<event>
 7    1  0.3807360E-011  0.4778727E+02  0.7816164E-02  0.1312668E+00
        -11   -1    0    0    0    0  0.00000000000E+00  0.00000000000E+00  0.45593999997E+02  0.45594000000E+02  0.51100000000E-03 0. -1.
         11   -1    0    0    0    0 -0.00000000000E+00 -0.00000000000E+00 -0.45593999997E+02  0.45594000000E+02  0.51100000000E-03 0.  1.
    9900012    2    1    2    0    0 -0.19315592456E+02  0.31609284966E+02  0.22613806442E+02  0.47787271322E+02  0.20000001266E+02 0.  0.
        -12    1    1    2    0    0  0.19315592456E+02 -0.31609284966E+02 -0.22613806442E+02  0.43400728678E+02  0.00000000000E+00 0.  1.
         11    1    3    3    0    0  0.22722667377E+01  0.18652727439E+01  0.83555591344E-01  0.29409896862E+01  0.51100000000E-03 0. -1.
        -11    1    3    3    0    0 -0.13866743426E+02  0.12978598837E+02  0.17226622409E+02  0.25641511674E+02  0.51100000000E-03 0.  1.
         12    1    3    3    0    0 -0.77211157679E+01  0.16765413385E+02  0.53036284413E+01  0.19204769962E+02  0.00000000000E+00 0. -1.
</event>
<event>
 7    1  0.3807360E-011  0.4778727E+02  0.7816164E-02  0.1312668E+00
        -11   -1    0    0    0    0  0.00000000000E+00  0.00000000000E+00  0.45593999997E+02  0.45594000000E+02  0.51100000000E-03 0. -1.
         11   -1    0    0    0    0 -0.00000000000E+00 -0.00000000000E+00 -0.45593999997E+02  0.45594000000E+02  0.51100000000E-03 0.  1.
    9900012    2    1    2    0    0  0.11606700028E+02 -0.23810851605E+02  0.34379513337E+02  0.47787273313E+02  0.20000010342E+02 0.  0.
        -12    1    1    2    0    0 -0.11606700028E+02  0.23810851605E+02 -0.34379513337E+02  0.43400726687E+02  0.00000000000E+00 0.  1.
         11    1    3    3    0    0  0.48094371939E+01 -0.80316138707E+01  0.16563333764E+02  0.19025812286E+02  0.51100000000E-03 0. -1.
        -11    1    3    3    0    0 -0.13637190381E+01 -0.13539376430E+02  0.79381735131E+01  0.15754016716E+02  0.51100000000E-03 0.  1.
        -12    1    3    3    0    0  0.81609818722E+01 -0.22398613051E+01  0.98780060593E+01  0.13007444310E+02  0.00000000000E+00 0.  1.
</event>
<event>
 7    1  0.3807360E-011  0.4778727E+02  0.7816164E-02  0.1312668E+00
        -11   -1    0    0    0    0  0.00000000000E+00  0.00000000000E+00  0.45593999997E+02  0.45594000000E+02  0.51100000000E-03 0. -1.
         11   -1    0    0    0    0 -0.00000000000E+00 -0.00000000000E+00 -0.45593999997E+02  0.45594000000E+02  0.51100000000E-03 0.  1.
    9900012    2    1    2    0    0 -0.21111275699E+01 -0.19805335233E+02  0.38560536928E+02  0.47787272224E+02  0.20000005376E+02 0.  0.
        -12    1    1    2    0    0  0.21111275699E+01  0.19805335233E+02 -0.38560536928E+02  0.43400727776E+02  0.00000000000E+00 0.  1.
         11    1    3    3    0    0 -0.32715670588E+01 -0.51216662723E+01  0.27992257164E+02  0.28644389989E+02  0.51100000000E-03 0. -1.
        -11    1    3    3    0    0  0.34252872324E+01 -0.64160246482E+01  0.60046927106E+01  0.94315587111E+01  0.51100000000E-03 0.  1.
        -12    1    3    3    0    0 -0.22648477436E+01 -0.82676443130E+01  0.45635870532E+01  0.97113235236E+01  0.00000000000E+00 0.  1.
</event>
<event>
 7    1  0.3807360E-011  0.4778727E+02  0.7816164E-02  0.1312668E+00
        -11   -1    0    0    0    0  0.00000000000E+00  0.00000000000E+00  0.45593999997E+02  0.45594000000E+02  0.51100000000E-03 0. -1.
         11   -1    0    0    0    0 -0.00000000000E+00 -0.00000000000E+00 -0.45593999997E+02  0.45594000000E+02  0.51100000000E-03 0.  1.
    9900012    2    1    2    0    0  0.11285527680E+02 -0.25133061495E+02 -0.33534899167E+02  0.47787269853E+02  0.19999994570E+02 0.  0.
         12    1    1    2    0    0 -0.11285527680E+02  0.25133061495E+02  0.33534899167E+02  0.43400730147E+02  0.00000000000E+00 0. -1.
         11    1    3    3    0    0 -0.28846902176E+01 -0.65488951048E+01 -0.75085176245E+01  0.10372429895E+02  0.51100000000E-03 0. -1.
        -11    1    3    3    0    0  0.10454145539E+02 -0.18764702849E+02 -0.25958951339E+02  0.33693773711E+02  0.51100000000E-03 0.  1.
        -12    1    3    3    0    0  0.37160723585E+01  0.18053645947E+00 -0.67430203128E-01  0.37210662476E+01  0.00000000000E+00 0.  1.
</event>
<event>
 7    1  0.3807360E-011  0.4778726E+02  0.7816164E-02  0.1312668E+00
        -11   -1    0    0    0    0  0.00000000000E+00  0.00000000000E+00  0.45593999997E+02  0.45594000000E+02  0.51100000000E-03 0. -1.
         11   -1    0    0    0    0 -0.00000000000E+00 -0.00000000000E+00 -0.45593999997E+02  0.45594000000E+02  0.51100000000E-03 0.  1.
    9900012    2    1    2    0    0 -0.11301620155E+02 -0.32580007354E+02  0.26352245162E+02  0.47787258965E+02  0.19999944925E+02 0.  0.
        -12    1    1    2    0    0  0.11301620155E+02  0.32580007354E+02 -0.26352245162E+02  0.43400741035E+02  0.00000000000E+00 0.  1.
         11    1    3    3    0    0 -0.39206821541E+01 -0.19218220703E+02  0.12556796273E+02  0.23289158174E+02  0.51100000000E-03 0. -1.
        -11    1    3    3    0    0  0.10008179970E+01 -0.22005848077E+01 -0.22001327731E+01  0.32687604133E+01  0.51100000000E-03 0.  1.
         12    1    3    3    0    0 -0.83817559976E+01 -0.11161201844E+02  0.15995581662E+02  0.21229340378E+02  0.00000000000E+00 0. -1.
</event>
<event>
 7    1  0.3807360E-011  0.4778727E+02  0.7816164E-02  0.1312668E+00
        -11   -1    0    0    0    0  0.00000000000E+00  0.00000000000E+00  0.45593999997E+02  0.45594000000E+02  0.51100000000E-03 0.  1.
         11   -1    0    0    0    0 -0.00000000000E+00 -0.00000000000E+00 -0.45593999997E+02  0.45594000000E+02  0.51100000000E-03 0. -1.
    9900012    2    1    2    0    0  0.51202037540E+01 -0.43075806002E+02  0.13717347578E+01  0.47787271833E+02  0.20000003594E+02 0.  0.
        -12    1    1    2    0    0 -0.51202037540E+01  0.43075806002E+02 -0.13717347578E+01  0.43400728167E+02  0.00000000000E+00 0.  1.
         11    1    3    3    0    0  0.62188691472E+01 -0.30270708385E+02  0.11772880771E+01  0.30925331479E+02  0.51100000000E-03 0. -1.
        -11    1    3    3    0    0  0.32425222927E+01 -0.22366409139E+01  0.31691713927E+01  0.50557057839E+01  0.51100000000E-03 0.  1.
         12    1    3    3    0    0 -0.43411876859E+01 -0.10568456703E+02 -0.29747247121E+01  0.11806234570E+02  0.00000000000E+00 0. -1.
</event>
<event>
 7    1  0.3807360E-011  0.4778727E+02  0.7816164E-02  0.1312668E+00
        -11   -1    0    0    0    0  0.00000000000E+00  0.00000000000E+00  0.45593999997E+02  0.45594000000E+02  0.51100000000E-03 0. -1.
         11   -1    0    0    0    0 -0.00000000000E+00 -0.00000000000E+00 -0.45593999997E+02  0.45594000000E+02  0.51100000000E-03 0.  1.
    9900012    2    1    2    0    0 -0.32225695397E+02  0.11692472443E+02  0.26616050809E+02  0.47787268252E+02  0.19999987266E+02 0.  0.
        -12    1    1    2    0    0  0.32225695397E+02 -0.11692472443E+02 -0.26616050809E+02  0.43400731748E+02  0.00000000000E+00 0.  1.
         11    1    3    3    0    0 -0.13463467833E+02  0.97290522870E+01  0.99955767148E+01  0.19386360633E+02  0.51100000000E-03 0. -1.
        -11    1    3    3    0    0 -0.16501931377E+02  0.58078240034E+01  0.16330625700E+02  0.23931859410E+02  0.51100000000E-03 0.  1.
        -12    1    3    3    0    0 -0.22602961874E+01 -0.38444038474E+01  0.28984839462E+00  0.44690482084E+01  0.00000000000E+00 0.  1.
</event>
<event>
 7    1  0.3807360E-011  0.4778727E+02  0.7816164E-02  0.1312668E+00
        -11   -1    0    0    0    0  0.00000000000E+00  0.00000000000E+00  0.45593999997E+02  0.45594000000E+02  0.51100000000E-03 0. -1.
         11   -1    0    0    0    0 -0.00000000000E+00 -0.00000000000E+00 -0.45593999997E+02  0.45594000000E+02  0.51100000000E-03 0.  1.
    9900012    2    1    2    0    0 -0.90144617578E+01  0.36348785959E+02  0.21934637678E+02  0.47787273145E+02  0.20000009579E+02 0.  0.
        -12    1    1    2    0    0  0.90144617578E+01 -0.36348785959E+02 -0.21934637678E+02  0.43400726855E+02  0.00000000000E+00 0.  1.
         11    1    3    3    0    0 -0.77396872823E+01  0.19323049041E+02  0.28489480631E+01  0.21009509484E+02  0.51100000000E-03 0. -1.
        -11    1    3    3    0    0 -0.21698186150E+01  0.15016878476E+02  0.11958305560E+02  0.19318794582E+02  0.51100000000E-03 0.  1.
        -12    1    3    3    0    0  0.89504413950E+00  0.20088584421E+01  0.71273840546E+01  0.74589690785E+01  0.00000000000E+00 0.  1.
</event>
<event>
 7    1  0.3807360E-011  0.4778726E+02  0.7816164E-02  0.1312668E+00
        -11   -1    0    0    0    0  0.00000000000E+00  0.00000000000E+00  0.45593999997E+02  0.45594000000E+02  0.51100000000E-03 0.  1.
         11   -1    0    0    0    0 -0.00000000000E+00 -0.00000000000E+00 -0.45593999997E+02  0.45594000000E+02  0.51100000000E-03 0. -1.
    9900012    2    1    2    0    0  0.12861868095E+02 -0.39504828363E+02  0.12552481092E+02  0.47787263872E+02  0.19999967296E+02 0.  0.
         12    1    1    2    0    0 -0.12861868095E+02  0.39504828363E+02 -0.12552481092E+02  0.43400736128E+02  0.00000000000E+00 0. -1.
         11    1    3    3    0    0  0.14109486418E+01  0.20089725497E+01  0.55650306611E+00  0.25172291709E+01  0.51100000000E-03 0. -1.
        -11    1    3    3    0    0  0.29724326793E+00 -0.13368248688E+02  0.39961843175E+01  0.13955927626E+02  0.51100000000E-03 0.  1.
        -12    1    3    3    0    0  0.11153676186E+02 -0.28145552225E+02  0.79997937082E+01  0.31314107075E+02  0.00000000000E+00 0.  1.
</event>
<event>
 7    1  0.3807360E-011  0.4778727E+02  0.7816164E-02  0.1312668E+00
        -11   -1    0    0    0    0  0.00000000000E+00  0.00000000000E+00  0.45593999997E+02  0.45594000000E+02  0.51100000000E-03 0. -1.
         11   -1    0    0    0    0 -0.00000000000E+00 -0.00000000000E+00 -0.45593999997E+02  0.45594000000E+02  0.51100000000E-03 0.  1.
    9900012    2    1    2    0    0 -0.41793545003E+02 -0.66163170137E+00  0.11682693496E+02  0.47787268581E+02  0.19999988766E+02 0.  0.
        -12    1    1    2    0    0  0.41793545003E+02  0.66163170137E+00 -0.11682693496E+02  0.43400731419E+02  0.00000000000E+00 0.  1.
         11    1    3    3    0    0 -0.71476642526E+01 -0.24764949044E+01  0.56627287066E+01  0.94492660003E+01  0.51100000000E-03 0. -1.
        -11    1    3    3    0    0 -0.55031310957E+01 -0.51067716689E+01 -0.99741807979E+00  0.75735336417E+01  0.51100000000E-03 0.  1.
         12    1    3    3    0    0 -0.29142749655E+02  0.69216348719E+01  0.70173828691E+01  0.30764468939E+02  0.00000000000E+00 0. -1.
</event>
<event>
 7    1  0.3807360E-011  0.4778728E+02  0.7816164E-02  0.1312668E+00
        -11   -1    0    0    0    0  0.00000000000E+00  0.00000000000E+00  0.45593999997E+02  0.45594000000E+02  0.51100000000E-03 0. -1.
         11   -1    0    0    0    0 -0.00000000000E+00 -0.00000000000E+00 -0.45593999997E+02  0.45594000000E+02  0.51100000000E-03 0.  1.
    9900012    2    1    2    0    0 -0.14782449060E+02  0.15230737873E+02  0.37856660330E+02  0.47787275263E+02  0.20000019234E+02 0.  0.
        -12    1    1    2    0    0  0.14782449060E+02 -0.15230737873E+02 -0.37856660330E+02  0.43400724737E+02  0.00000000000E+00 0.  1.
         11    1    3    3    0    0 -0.14584961813E+02  0.15540593334E+02  0.29704114029E+02  0.36559069227E+02  0.51100000000E-03 0. -1.
        -11    1    3    3    0    0 -0.10789131188E+01  0.33483655864E+01  0.20873560135E+01  0.40905575422E+01  0.51100000000E-03 0.  1.
        -12    1    3    3    0    0  0.88142587208E+00 -0.36582210469E+01  0.60651902875E+01  0.71376484937E+01  0.00000000000E+00 0.  1.
</event>
<event>
 7    1  0.3807360E-011  0.4778727E+02  0.7816164E-02  0.1312668E+00
        -11   -1    0    0    0    0  0.00000000000E+00  0.00000000000E+00  0.45593999997E+02  0.45594000000E+02  0.51100000000E-03 0. -1.
         11   -1    0    0    0    0 -0.00000000000E+00 -0.00000000000E+00 -0.45593999997E+02  0.45594000000E+02  0.51100000000E-03 0.  1.
    9900012    2    1    2    0    0  0.17626388095E+02 -0.28385390908E+02 -0.27698432893E+02  0.47787272368E+02  0.20000006033E+02 0.  0.
         12    1    1    2    0    0 -0.17626388095E+02  0.28385390908E+02  0.27698432893E+02  0.43400727632E+02  0.00000000000E+00 0. -1.
         11    1    3    3    0    0  0.65216212787E+00  0.41488549648E+00  0.63067108464E+00  0.99759295023E+00  0.51100000000E-03 0. -1.
        -11    1    3    3    0    0  0.14062493805E+02 -0.28894878092E+02 -0.29526087960E+02  0.43640091458E+02  0.51100000000E-03 0.  1.
        -12    1    3    3    0    0  0.29117321617E+01  0.94601687710E-01  0.11969839820E+01  0.31495879594E+01  0.00000000000E+00 0.  1.
</event>
<event>
 7    1  0.3807360E-011  0.4778727E+02  0.7816164E-02  0.1312668E+00
        -11   -1    0    0    0    0  0.00000000000E+00  0.00000000000E+00  0.45593999997E+02  0.45594000000E+02  0.51100000000E-03 0. -1.
         11   -1    0    0    0    0 -0.00000000000E+00 -0.00000000000E+00 -0.45593999997E+02  0.45594000000E+02  0.51100000000E-03 0.  1.
    9900012    2    1    2    0    0  0.16897185533E+02 -0.76680864913E+01  0.39234029594E+02  0.47787268352E+02  0.19999987724E+02 0.  0.
        -12    1    1    2    0    0 -0.16897185533E+02  0.76680864913E+01 -0.39234029594E+02  0.43400731648E+02  0.00000000000E+00 0.  1.
         11    1    3    3    0    0  0.44055202443E+00  0.44427590866E+00 -0.17849015931E+00  0.65063520297E+00  0.51100000000E-03 0. -1.
        -11    1    3    3    0    0 -0.21132498323E+01  0.18265331370E+01  0.42747979927E+00  0.28257366109E+01  0.51100000000E-03 0.  1.
         12    1    3    3    0    0  0.18569883341E+02 -0.99388955369E+01  0.38985039954E+02  0.44310896538E+02  0.00000000000E+00 0. -1.
</event>
<event>
 7    1  0.3807360E-011  0.4778727E+02  0.7816164E-02  0.1312668E+00
        -11   -1    0    0    0    0  0.00000000000E+00  0.00000000000E+00  0.45593999997E+02  0.45594000000E+02  0.51100000000E-03 0. -1.
         11   -1    0    0    0    0 -0.00000000000E+00 -0.00000000000E+00 -0.45593999997E+02  0.45594000000E+02  0.51100000000E-03 0.  1.
    9900012    2    1    2    0    0  0.15925009175E+02  0.25141583531E+02  0.31589846748E+02  0.47787267780E+02  0.19999985117E+02 0.  0.
        -12    1    1    2    0    0 -0.15925009175E+02 -0.25141583531E+02 -0.31589846748E+02  0.43400732220E+02  0.00000000000E+00 0.  1.
         11    1    3    3    0    0  0.39701003042E+01  0.38857437918E+01  0.22230753282E+01  0.59835412104E+01  0.51100000000E-03 0. -1.
        -11    1    3    3    0    0  0.63056266702E+01  0.21362427740E+02  0.16401879798E+02  0.27661090142E+02  0.51100000000E-03 0.  1.
         12    1    3    3    0    0  0.56492822003E+01 -0.10658800100E+00  0.12964891622E+02  0.14142636428E+02  0.00000000000E+00 0. -1.
</event>
<event>
 7    1  0.3807360E-011  0.4778727E+02  0.7816164E-02  0.1312668E+00
        -11   -1    0    0    0    0  0.00000000000E+00  0.00000000000E+00  0.45593999997E+02  0.45594000000E+02  0.51100000000E-03 0. -1.
         11   -1    0    0    0    0 -0.00000000000E+00 -0.00000000000E+00 -0.45593999997E+02  0.45594000000E+02  0.51100000000E-03 0.  1.
    9900012    2    1    2    0    0  0.18882502866E+02 -0.17778632490E+02 -0.34799343686E+02  0.47787274099E+02  0.20000013927E+02 0.  0.
         12    1    1    2    0    0 -0.18882502866E+02  0.17778632490E+02  0.34799343686E+02  0.43400725901E+02  0.00000000000E+00 0. -1.
         11    1    3    3    0    0  0.11111857351E+02 -0.11865021585E+02 -0.81681837408E+01  0.18192617648E+02  0.51100000000E-03 0. -1.
        -11    1    3    3    0    0  0.44348179371E+00  0.20928349489E-03  0.62019134826E+00  0.76243931872E+00  0.51100000000E-03 0.  1.
        -12    1    3    3    0    0  0.73271637214E+01 -0.59138201891E+01 -0.27251351294E+02  0.28832217132E+02  0.00000000000E+00 0.  1.
</event>
<event>
 7    1  0.3807360E-011  0.4778726E+02  0.7816164E-02  0.1312668E+00
        -11   -1    0    0    0    0  0.00000000000E+00  0.00000000000E+00  0.45593999997E+02  0.45594000000E+02  0.51100000000E-03 0. -1.
         11   -1    0    0    0    0 -0.00000000000E+00 -0.00000000000E+00 -0.45593999997E+02  0.45594000000E+02  0.51100000000E-03 0.  1.
    9900012    2    1    2    0    0  0.70502180078E+00  0.62079320000E+01 -0.42948672047E+02  0.47787263762E+02  0.19999966796E+02 0.  0.
         12    1    1    2    0    0 -0.70502180078E+00 -0.62079320000E+01  0.42948672047E+02  0.43400736238E+02  0.00000000000E+00 0. -1.
         11    1    3    3    0    0  0.60507872840E+01  0.64660903972E+01 -0.20749587906E+02  0.22560313613E+02  0.51100000000E-03 0. -1.
        -11    1    3    3    0    0 -0.58898162267E+01  0.19812531957E+01 -0.22059643648E+02  0.22918184430E+02  0.51100000000E-03 0.  1.
         12    1    3    3    0    0  0.54405074356E+00 -0.22394115929E+01 -0.13944049202E+00  0.23087657189E+01  0.00000000000E+00 0. -1.
</event>
<event>
 7    1  0.3807360E-011  0.4778728E+02  0.7816164E-02  0.1312668E+00
        -11   -1    0    0    0    0  0.00000000000E+00  0.00000000000E+00  0.45593999997E+02  0.45594000000E+02  0.51100000000E-03 0. -1.
         11   -1    0    0    0    0 -0.00000000000E+00 -0.00000000000E+00 -0.45593999997E+02  0.45594000000E+02  0.51100000000E-03 0.  1.
    9900012    2    1    2    0    0  0.33882212535E+02  0.25384468732E+02  0.95523461274E+01  0.47787275402E+02  0.20000019867E+02 0.  0.
        -12    1    1    2    0    0 -0.33882212535E+02 -0.25384468732E+02 -0.95523461274E+01  0.43400724598E+02  0.00000000000E+00 0.  1.
         11    1    3    3    0    0  0.84044684873E+01  0.88662124885E+01  0.69387997389E+01  0.14049617665E+02  0.51100000000E-03 0. -1.
        -11    1    3    3    0    0 -0.99148887913E+00  0.26688886351E+01  0.26126216687E+01  0.38641698965E+01  0.51100000000E-03 0.  1.
        -12    1    3    3    0    0  0.26469232927E+02  0.13849367608E+02  0.92471976120E-03  0.29873487841E+02  0.00000000000E+00 0.  1.
</event>
<event>
 7    1  0.3807360E-011  0.4778727E+02  0.7816164E-02  0.1312668E+00
        -11   -1    0    0    0    0  0.00000000000E+00  0.00000000000E+00  0.45593999997E+02  0.45594000000E+02  0.51100000000E-03 0. -1.
         11   -1    0    0    0    0 -0.00000000000E+00 -0.00000000000E+00 -0.45593999997E+02  0.45594000000E+02  0.51100000000E-03 0.  1.
    9900012    2    1    2    0    0  0.57824441073E+01  0.32361786184E+02  0.28335517729E+02  0.47787269247E+02  0.19999991805E+02 0.  0.
        -12    1    1    2    0    0 -0.57824441073E+01 -0.32361786184E+02 -0.28335517729E+02  0.43400730753E+02  0.00000000000E+00 0.  1.
         11    1    3    3    0    0  0.45566388619E+01  0.15597788304E+02  0.15196924369E+02  0.22248605984E+02  0.51100000000E-03 0. -1.
        -11    1    3    3    0    0 -0.49879374159E+01  0.14403535355E+02  0.87906995216E+01  0.17595958307E+02  0.51100000000E-03 0.  1.
        -12    1    3    3    0    0  0.62137426613E+01  0.23604625254E+01  0.43478938389E+01  0.79427049567E+01  0.00000000000E+00 0.  1.
</event>
<event>
 7    1  0.3807360E-011  0.4778727E+02  0.7816164E-02  0.1312668E+00
        -11   -1    0    0    0    0  0.00000000000E+00  0.00000000000E+00  0.45593999997E+02  0.45594000000E+02  0.51100000000E-03 0. -1.
         11   -1    0    0    0    0 -0.00000000000E+00 -0.00000000000E+00 -0.45593999997E+02  0.45594000000E+02  0.51100000000E-03 0.  1.
    9900012    2    1    2    0    0  0.40105479652E+02 -0.80148450587E+01 -0.14523638921E+02  0.47787270433E+02  0.19999997214E+02 0.  0.
         12    1    1    2    0    0 -0.40105479652E+02  0.80148450587E+01  0.14523638921E+02  0.43400729567E+02  0.00000000000E+00 0. -1.
         11    1    3    3    0    0  0.82422053015E+00 -0.40745756926E+00 -0.49265523175E+01  0.50116144256E+01  0.51100000000E-03 0. -1.
        -11    1    3    3    0    0  0.14159463406E+02 -0.25981038969E+01 -0.93357039724E+01  0.17157969482E+02  0.51100000000E-03 0.  1.
        -12    1    3    3    0    0  0.25121795715E+02 -0.50092835925E+01 -0.26138263112E+00  0.25617686526E+02  0.00000000000E+00 0.  1.
</event>
<event>
 7    1  0.3807360E-011  0.4778727E+02  0.7816164E-02  0.1312668E+00
        -11   -1    0    0    0    0  0.00000000000E+00  0.00000000000E+00  0.45593999997E+02  0.45594000000E+02  0.51100000000E-03 0. -1.
         11   -1    0    0    0    0 -0.00000000000E+00 -0.00000000000E+00 -0.45593999997E+02  0.45594000000E+02  0.51100000000E-03 0.  1.
    9900012    2    1    2    0    0 -0.37575110720E+02 -0.51575901469E+01  0.21098185771E+02  0.47787272765E+02  0.20000007844E+02 0.  0.
        -12    1    1    2    0    0  0.37575110720E+02  0.51575901469E+01 -0.21098185771E+02  0.43400727235E+02  0.00000000000E+00 0.  1.
         11    1    3    3    0    0  0.35560736732E+00  0.12253900509E+01  0.45800715326E+00  0.13556578441E+01  0.51100000000E-03 0. -1.
        -11    1    3    3    0    0 -0.35645476308E+02 -0.78248629354E+01  0.13694888375E+02  0.38979205084E+02  0.51100000000E-03 0.  1.
         12    1    3    3    0    0 -0.22852417796E+01  0.14418827375E+01  0.69452902422E+01  0.74524098363E+01  0.00000000000E+00 0. -1.
</event>
<event>
 7    1  0.3807360E-011  0.4778727E+02  0.7816164E-02  0.1312668E+00
        -11   -1    0    0    0    0  0.00000000000E+00  0.00000000000E+00  0.45593999997E+02  0.45594000000E+02  0.51100000000E-03 0.  1.
         11   -1    0    0    0    0 -0.00000000000E+00 -0.00000000000E+00 -0.45593999997E+02  0.45594000000E+02  0.51100000000E-03 0. -1.
    9900012    2    1    2    0    0  0.64865582028E+01  0.41150245325E+02  0.12173948243E+02  0.47787272547E+02  0.20000006849E+02 0.  0.
        -12    1    1    2    0    0 -0.64865582028E+01 -0.41150245325E+02 -0.12173948243E+02  0.43400727453E+02  0.00000000000E+00 0.  1.
         11    1    3    3    0    0  0.57069671990E+01  0.17952160007E+02  0.56447342076E+01  0.19665008214E+02  0.51100000000E-03 0. -1.
        -11    1    3    3    0    0 -0.52064528020E+01  0.16933117845E+02  0.78145044822E+01  0.19362440737E+02  0.51100000000E-03 0.  1.
         12    1    3    3    0    0  0.59860438058E+01  0.62649674729E+01 -0.12852904465E+01  0.87598235949E+01  0.00000000000E+00 0. -1.
</event>
<event>
 7    1  0.3807360E-011  0.4778727E+02  0.7816164E-02  0.1312668E+00
        -11   -1    0    0    0    0  0.00000000000E+00  0.00000000000E+00  0.45593999997E+02  0.45594000000E+02  0.51100000000E-03 0. -1.
         11   -1    0    0    0    0 -0.00000000000E+00 -0.00000000000E+00 -0.45593999997E+02  0.45594000000E+02  0.51100000000E-03 0.  1.
    9900012    2    1    2    0    0 -0.48299050052E+01 -0.11343252457E+02  0.41612808916E+02  0.47787271613E+02  0.20000002593E+02 0.  0.
        -12    1    1    2    0    0  0.48299050052E+01  0.11343252457E+02 -0.41612808916E+02  0.43400728387E+02  0.00000000000E+00 0.  1.
         11    1    3    3    0    0  0.34305079492E+01 -0.39096543223E+01  0.11820169939E+02  0.12913953669E+02  0.51100000000E-03 0. -1.
        -11    1    3    3    0    0 -0.61049445827E+01 -0.39728637230E+01  0.31758331200E+01  0.79460625964E+01  0.51100000000E-03 0.  1.
         12    1    3    3    0    0 -0.21554683717E+01 -0.34607344119E+01  0.26616805857E+02  0.26927255348E+02  0.00000000000E+00 0. -1.
</event>
<event>
 7    1  0.3807360E-011  0.4778728E+02  0.7816164E-02  0.1312668E+00
        -11   -1    0    0    0    0  0.00000000000E+00  0.00000000000E+00  0.45593999997E+02  0.45594000000E+02  0.51100000000E-03 0. -1.
         11   -1    0    0    0    0 -0.00000000000E+00 -0.00000000000E+00 -0.45593999997E+02  0.45594000000E+02  0.51100000000E-03 0.  1.
    9900012    2    1    2    0    0  0.19418879098E+02 -0.16248881055E+01  0.38780013160E+02  0.47787279413E+02  0.20000038156E+02 0.  0.
        -12    1    1    2    0    0 -0.19418879098E+02  0.16248881055E+01 -0.38780013160E+02  0.43400720587E+02  0.00000000000E+00 0.  1.
         11    1    3    3    0    0  0.11178333633E+01  0.67091784672E+00  0.81873903858E+00  0.15394856477E+01  0.51100000000E-03 0. -1.
        -11    1    3    3    0    0 -0.34846652370E+01 -0.27147122891E+00  0.16757570541E+01  0.38761772931E+01  0.51100000000E-03 0.  1.
         12    1    3    3    0    0  0.21785710972E+02 -0.20243347233E+01  0.36285517067E+02  0.42371616472E+02  0.00000000000E+00 0. -1.
</event>
<event>
 7    1  0.3807360E-011  0.4778727E+02  0.7816164E-02  0.1312668E+00
        -11   -1    0    0    0    0  0.00000000000E+00  0.00000000000E+00  0.45593999997E+02  0.45594000000E+02  0.51100000000E-03 0. -1.
         11   -1    0    0    0    0 -0.00000000000E+00 -0.00000000000E+00 -0.45593999997E+02  0.45594000000E+02  0.51100000000E-03 0.  1.
    9900012    2    1    2    0    0  0.16318988812E+02  0.75111246491E+01  0.39508191373E+02  0.47787267576E+02  0.19999984187E+02 0.  0.
        -12    1    1    2    0    0 -0.16318988812E+02 -0.75111246491E+01 -0.39508191373E+02  0.43400732424E+02  0.00000000000E+00 0.  1.
         11    1    3    3    0    0  0.66541202559E+01  0.53607114904E+01  0.16279000552E+02  0.18385331199E+02  0.51100000000E-03 0. -1.
        -11    1    3    3    0    0  0.74980260826E+01  0.20726964106E+01  0.25260263870E+02  0.26430993106E+02  0.51100000000E-03 0.  1.
        -12    1    3    3    0    0  0.21668424731E+01  0.77716748073E-01 -0.20310730481E+01  0.29709432716E+01  0.00000000000E+00 0.  1.
</event>
<event>
 7    1  0.3807360E-011  0.4778728E+02  0.7816164E-02  0.1312668E+00
        -11   -1    0    0    0    0  0.00000000000E+00  0.00000000000E+00  0.45593999997E+02  0.45594000000E+02  0.51100000000E-03 0. -1.
         11   -1    0    0    0    0 -0.00000000000E+00 -0.00000000000E+00 -0.45593999997E+02  0.45594000000E+02  0.51100000000E-03 0.  1.
    9900012    2    1    2    0    0 -0.17711774910E+02 -0.11526744225E+02  0.37908434299E+02  0.47787283487E+02  0.20000056729E+02 0.  0.
        -12    1    1    2    0    0  0.17711774910E+02  0.11526744225E+02 -0.37908434299E+02  0.43400716513E+02  0.00000000000E+00 0.  1.
         11    1    3    3    0    0  0.52352140418E+00 -0.62857110105E+00 -0.19087414022E+01  0.20766488127E+01  0.51100000000E-03 0. -1.
        -11    1    3    3    0    0 -0.70077610338E+01 -0.37692563325E+00  0.13866343515E+02  0.15541115481E+02  0.51100000000E-03 0.  1.
         12    1    3    3    0    0 -0.11227535280E+02 -0.10521247491E+02  0.25950832186E+02  0.30169519193E+02  0.00000000000E+00 0. -1.
</event>
<event>
 7    1  0.3807360E-011  0.4778727E+02  0.7816164E-02  0.1312668E+00
        -11   -1    0    0    0    0  0.00000000000E+00  0.00000000000E+00  0.45593999997E+02  0.45594000000E+02  0.51100000000E-03 0. -1.
         11   -1    0    0    0    0 -0.00000000000E+00 -0.00000000000E+00 -0.45593999997E+02  0.45594000000E+02  0.51100000000E-03 0.  1.
    9900012    2    1    2    0    0  0.23894704819E+02  0.14328514466E+02  0.33277015212E+02  0.47787274354E+02  0.20000015090E+02 0.  0.
        -12    1    1    2    0    0 -0.23894704819E+02 -0.14328514466E+02 -0.33277015212E+02  0.43400725646E+02  0.00000000000E+00 0.  1.
         11    1    3    3    0    0 -0.33971504668E+00  0.29317004639E+01 -0.12879701985E+00  0.29541264117E+01  0.51100000000E-03 0.  1.
        -11    1    3    3    0    0  0.11855053921E+02  0.97632405563E+01  0.26328177008E+02  0.30480093085E+02  0.51100000000E-03 0. -1.
         12    1    3    3    0    0  0.12379365944E+02  0.16335734456E+01  0.70776352238E+01  0.14353054857E+02  0.00000000000E+00 0. -1.
</event>
<event>
 7    1  0.3807360E-011  0.4778727E+02  0.7816164E-02  0.1312668E+00
        -11   -1    0    0    0    0  0.00000000000E+00  0.00000000000E+00  0.45593999997E+02  0.45594000000E+02  0.51100000000E-03 0. -1.
         11   -1    0    0    0    0 -0.00000000000E+00 -0.00000000000E+00 -0.45593999997E+02  0.45594000000E+02  0.51100000000E-03 0.  1.
    9900012    2    1    2    0    0  0.16767906794E+02  0.58550478115E+01  0.39600237141E+02  0.47787273453E+02  0.20000010984E+02 0.  0.
        -12    1    1    2    0    0 -0.16767906794E+02 -0.58550478115E+01 -0.39600237141E+02  0.43400726547E+02  0.00000000000E+00 0.  1.
         11    1    3    3    0    0  0.87221457128E+01  0.59546253924E+01  0.27652048465E+02  0.29600154965E+02  0.51100000000E-03 0. -1.
        -11    1    3    3    0    0  0.10166984231E+01 -0.41399783584E+01  0.82280238785E+01  0.92667941435E+01  0.51100000000E-03 0.  1.
        -12    1    3    3    0    0  0.70290626580E+01  0.40404007774E+01  0.37201647978E+01  0.89203243447E+01  0.00000000000E+00 0.  1.
</event>
<event>
 7    1  0.3807360E-011  0.4778727E+02  0.7816164E-02  0.1312668E+00
        -11   -1    0    0    0    0  0.00000000000E+00  0.00000000000E+00  0.45593999997E+02  0.45594000000E+02  0.51100000000E-03 0. -1.
         11   -1    0    0    0    0 -0.00000000000E+00 -0.00000000000E+00 -0.45593999997E+02  0.45594000000E+02  0.51100000000E-03 0.  1.
    9900012    2    1    2    0    0 -0.13333789277E+02 -0.23339045607E+02 -0.34075244383E+02  0.47787271134E+02  0.20000000409E+02 0.  0.
         12    1    1    2    0    0  0.13333789277E+02  0.23339045607E+02  0.34075244383E+02  0.43400728866E+02  0.00000000000E+00 0. -1.
         11    1    3    3    0    0 -0.98808391942E+00  0.15311444945E+00  0.17413021034E+01  0.20079559614E+01  0.51100000000E-03 0. -1.
        -11    1    3    3    0    0 -0.19435358615E+01 -0.26578148746E+01 -0.29588479605E+00  0.33058825791E+01  0.51100000000E-03 0.  1.
        -12    1    3    3    0    0 -0.10402169496E+02 -0.20834345181E+02 -0.35520661691E+02  0.42473432594E+02  0.00000000000E+00 0.  1.
</event>
<event>
 7    1  0.3807360E-011  0.4778727E+02  0.7816164E-02  0.1312668E+00
        -11   -1    0    0    0    0  0.00000000000E+00  0.00000000000E+00  0.45593999997E+02  0.45594000000E+02  0.51100000000E-03 0. -1.
         11   -1    0    0    0    0 -0.00000000000E+00 -0.00000000000E+00 -0.45593999997E+02  0.45594000000E+02  0.51100000000E-03 0.  1.
    9900012    2    1    2    0    0  0.26104027541E+02  0.23324692169E+02  0.25654657315E+02  0.47787274654E+02  0.20000016457E+02 0.  0.
        -12    1    1    2    0    0 -0.26104027541E+02 -0.23324692169E+02 -0.25654657315E+02  0.43400725346E+02  0.00000000000E+00 0.  1.
         11    1    3    3    0    0  0.69761029502E+01  0.45139881593E+01  0.89039846235E+01  0.12178794846E+02  0.51100000000E-03 0. -1.
        -11    1    3    3    0    0 -0.11488121212E+01  0.44272063691E+01 -0.14496312168E+01  0.47980575706E+01  0.51100000000E-03 0.  1.
        -12    1    3    3    0    0  0.20276736712E+02  0.14383497640E+02  0.18200303908E+02  0.30810422237E+02  0.00000000000E+00 0.  1.
</event>
<event>
 7    1  0.3807360E-011  0.4778727E+02  0.7816164E-02  0.1312668E+00
        -11   -1    0    0    0    0  0.00000000000E+00  0.00000000000E+00  0.45593999997E+02  0.45594000000E+02  0.51100000000E-03 0. -1.
         11   -1    0    0    0    0 -0.00000000000E+00 -0.00000000000E+00 -0.45593999997E+02  0.45594000000E+02  0.51100000000E-03 0.  1.
    9900012    2    1    2    0    0 -0.16085399458E+01  0.18014048294E+02  0.39452884426E+02  0.47787269289E+02  0.19999991998E+02 0.  0.
        -12    1    1    2    0    0  0.16085399458E+01 -0.18014048294E+02 -0.39452884426E+02  0.43400730711E+02  0.00000000000E+00 0.  1.
         11    1    3    3    0    0 -0.82796831576E+01  0.30672883333E+01  0.18965350672E+02  0.20919988940E+02  0.51100000000E-03 0. -1.
        -11    1    3    3    0    0  0.31525165078E+01  0.15251162869E+01  0.38973534476E+01  0.52396282480E+01  0.51100000000E-03 0.  1.
         12    1    3    3    0    0  0.35186267040E+01  0.13421643674E+02  0.16590180307E+02  0.21627652101E+02  0.00000000000E+00 0. -1.
</event>
<event>
 7    1  0.8026684E-011  0.4778727E+02  0.7816164E-02  0.1312668E+00
        -11   -1    0    0    0    0  0.00000000000E+00  0.00000000000E+00  0.45593999997E+02  0.45594000000E+02  0.51100000000E-03 0. -1.
         11   -1    0    0    0    0 -0.00000000000E+00 -0.00000000000E+00 -0.45593999997E+02  0.45594000000E+02  0.51100000000E-03 0.  1.
    9900012    2    1    2    0    0 -0.22345595142E+02  0.22353606169E+02 -0.29742459001E+02  0.47787271913E+02  0.20000003961E+02 0.  0.
         12    1    1    2    0    0  0.22345595142E+02 -0.22353606169E+02  0.29742459001E+02  0.43400728087E+02  0.00000000000E+00 0. -1.
         11    1    3    3    0    0 -0.20908557630E+01  0.27308027312E+01 -0.11101014855E+02  0.11621595951E+02  0.51100000000E-03 0. -1.
        -11    1    3    3    0    0 -0.19871126729E+02  0.19033807465E+02 -0.20411982246E+02  0.34260713997E+02  0.51100000000E-03 0.  1.
         12    1    3    3    0    0 -0.38361264977E+00  0.58899597312E+00  0.17705381005E+01  0.19049619646E+01  0.00000000000E+00 0. -1.
</event>
<event>
 7    1  0.3807360E-011  0.4778727E+02  0.7816164E-02  0.1312668E+00
        -11   -1    0    0    0    0  0.00000000000E+00  0.00000000000E+00  0.45593999997E+02  0.45594000000E+02  0.51100000000E-03 0. -1.
         11   -1    0    0    0    0 -0.00000000000E+00 -0.00000000000E+00 -0.45593999997E+02  0.45594000000E+02  0.51100000000E-03 0.  1.
    9900012    2    1    2    0    0  0.86629827018E+01 -0.35062685261E+02 -0.24066244315E+02  0.47787270946E+02  0.19999999552E+02 0.  0.
         12    1    1    2    0    0 -0.86629827018E+01  0.35062685261E+02  0.24066244315E+02  0.43400729054E+02  0.00000000000E+00 0. -1.
         11    1    3    3    0    0 -0.31962999990E+01 -0.69206760013E+01 -0.33238633402E+01  0.83162586398E+01  0.51100000000E-03 0. -1.
        -11    1    3    3    0    0  0.11216392287E+02 -0.29443848347E+02 -0.17795866254E+02  0.36186192358E+02  0.51100000000E-03 0.  1.
         12    1    3    3    0    0  0.64289041407E+00  0.13018390871E+01 -0.29465147209E+01  0.32848199484E+01  0.00000000000E+00 0. -1.
</event>
<event>
 7    1  0.3807360E-011  0.4778727E+02  0.7816164E-02  0.1312668E+00
        -11   -1    0    0    0    0  0.00000000000E+00  0.00000000000E+00  0.45593999997E+02  0.45594000000E+02  0.51100000000E-03 0. -1.
         11   -1    0    0    0    0 -0.00000000000E+00 -0.00000000000E+00 -0.45593999997E+02  0.45594000000E+02  0.51100000000E-03 0.  1.
    9900012    2    1    2    0    0 -0.24760003530E+02 -0.21284938157E+02  0.28592248624E+02  0.47787273640E+02  0.20000011836E+02 0.  0.
        -12    1    1    2    0    0  0.24760003530E+02  0.21284938157E+02 -0.28592248624E+02  0.43400726360E+02  0.00000000000E+00 0.  1.
         11    1    3    3    0    0 -0.13166390819E+02 -0.10824149312E+02  0.16401402459E+02  0.23654218618E+02  0.51100000000E-03 0. -1.
        -11    1    3    3    0    0 -0.14723176579E+02 -0.95800263587E+01  0.10565659200E+02  0.20498341109E+02  0.51100000000E-03 0.  1.
        -12    1    3    3    0    0  0.31295638685E+01 -0.88076248604E+00  0.16251869652E+01  0.36347139139E+01  0.00000000000E+00 0.  1.
</event>
<event>
 7    1  0.3807360E-011  0.4778727E+02  0.7816164E-02  0.1312668E+00
        -11   -1    0    0    0    0  0.00000000000E+00  0.00000000000E+00  0.45593999997E+02  0.45594000000E+02  0.51100000000E-03 0. -1.
         11   -1    0    0    0    0 -0.00000000000E+00 -0.00000000000E+00 -0.45593999997E+02  0.45594000000E+02  0.51100000000E-03 0.  1.
    9900012    2    1    2    0    0 -0.26008855790E+02  0.24151036910E+02 -0.24977789695E+02  0.47787272571E+02  0.20000006962E+02 0.  0.
         12    1    1    2    0    0  0.26008855790E+02 -0.24151036910E+02  0.24977789695E+02  0.43400727429E+02  0.00000000000E+00 0. -1.
         11    1    3    3    0    0  0.94135089939E-01 -0.45703716247E+00  0.96295560643E+00  0.10700598787E+01  0.51100000000E-03 0. -1.
        -11    1    3    3    0    0 -0.26721967401E+02  0.19498716965E+02 -0.19239946459E+02  0.38267989823E+02  0.51100000000E-03 0.  1.
        -12    1    3    3    0    0  0.61897652142E+00  0.51093571073E+01 -0.67007988420E+01  0.84492228699E+01  0.00000000000E+00 0.  1.
</event>
<event>
 7    1  0.3807360E-011  0.4778727E+02  0.7816164E-02  0.1312668E+00
        -11   -1    0    0    0    0  0.00000000000E+00  0.00000000000E+00  0.45593999997E+02  0.45594000000E+02  0.51100000000E-03 0.  1.
         11   -1    0    0    0    0 -0.00000000000E+00 -0.00000000000E+00 -0.45593999997E+02  0.45594000000E+02  0.51100000000E-03 0. -1.
    9900012    2    1    2    0    0  0.14378855892E+02 -0.40271710981E+02  0.74203115089E+01  0.47787271608E+02  0.20000002569E+02 0.  0.
        -12    1    1    2    0    0 -0.14378855892E+02  0.40271710981E+02 -0.74203115089E+01  0.43400728392E+02  0.00000000000E+00 0.  1.
         11    1    3    3    0    0  0.59555920457E+01 -0.31294360696E+02  0.91914388660E+01  0.33155521964E+02  0.51100000000E-03 0. -1.
        -11    1    3    3    0    0  0.12808960499E+01  0.11926825742E+01  0.82670306171E+00  0.19356199593E+01  0.51100000000E-03 0.  1.
        -12    1    3    3    0    0  0.71423677960E+01 -0.10170032859E+02 -0.25978304188E+01  0.12696129685E+02  0.00000000000E+00 0.  1.
</event>
<event>
 7    1  0.3807360E-011  0.4778726E+02  0.7816164E-02  0.1312668E+00
        -11   -1    0    0    0    0  0.00000000000E+00  0.00000000000E+00  0.45593999997E+02  0.45594000000E+02  0.51100000000E-03 0.  1.
         11   -1    0    0    0    0 -0.00000000000E+00 -0.00000000000E+00 -0.45593999997E+02  0.45594000000E+02  0.51100000000E-03 0. -1.
    9900012    2    1    2    0    0  0.36389795641E+02  0.22961890995E+01  0.23540053160E+02  0.47787264822E+02  0.19999971632E+02 0.  0.
        -12    1    1    2    0    0 -0.36389795641E+02 -0.22961890995E+01 -0.23540053160E+02  0.43400735178E+02  0.00000000000E+00 0.  1.
         11    1    3    3    0    0  0.18403505719E+02 -0.22084528539E-01  0.21227277200E+02  0.28094248665E+02  0.51100000000E-03 0.  1.
        -11    1    3    3    0    0  0.75607344058E+01  0.46380514962E+01  0.12972405131E+01  0.89643214827E+01  0.51100000000E-03 0. -1.
        -12    1    3    3    0    0  0.10425555516E+02 -0.23197778681E+01  0.10155354473E+01  0.10728694675E+02  0.00000000000E+00 0.  1.
</event>
<event>
 7    1  0.3807360E-011  0.4778729E+02  0.7816164E-02  0.1312668E+00
        -11   -1    0    0    0    0  0.00000000000E+00  0.00000000000E+00  0.45593999997E+02  0.45594000000E+02  0.51100000000E-03 0.  1.
         11   -1    0    0    0    0 -0.00000000000E+00 -0.00000000000E+00 -0.45593999997E+02  0.45594000000E+02  0.51100000000E-03 0. -1.
    9900012    2    1    2    0    0 -0.26405558774E+02  0.34295388457E+02 -0.31929305427E+01  0.47787285616E+02  0.20000066438E+02 0.  0.
        -12    1    1    2    0    0  0.26405558774E+02 -0.34295388457E+02  0.31929305427E+01  0.43400714384E+02  0.00000000000E+00 0.  1.
         11    1    3    3    0    0 -0.12711616390E+02  0.14962787765E+02 -0.71817206805E+01  0.20905676768E+02  0.51100000000E-03 0. -1.
        -11    1    3    3    0    0  0.18850752381E+01  0.52086373337E+01  0.12167314157E+01  0.56713179356E+01  0.51100000000E-03 0.  1.
         12    1    3    3    0    0 -0.15579017623E+02  0.14123963358E+02  0.27720587221E+01  0.21210290912E+02  0.00000000000E+00 0. -1.
</event>
<event>
 7    1  0.3807360E-011  0.4778727E+02  0.7816164E-02  0.1312668E+00
        -11   -1    0    0    0    0  0.00000000000E+00  0.00000000000E+00  0.45593999997E+02  0.45594000000E+02  0.51100000000E-03 0. -1.
         11   -1    0    0    0    0 -0.00000000000E+00 -0.00000000000E+00 -0.45593999997E+02  0.45594000000E+02  0.51100000000E-03 0.  1.
    9900012    2    1    2    0    0  0.21773760248E+02 -0.67354294994E+01  0.36934546870E+02  0.47787269610E+02  0.19999993461E+02 0.  0.
        -12    1    1    2    0    0 -0.21773760248E+02  0.67354294994E+01 -0.36934546870E+02  0.43400730390E+02  0.00000000000E+00 0.  1.
         11    1    3    3    0    0 -0.21723608948E+01 -0.12144354691E+01  0.65408968586E+01  0.69983810515E+01  0.51100000000E-03 0. -1.
        -11    1    3    3    0    0 -0.10601574002E+01  0.49831280643E+00  0.29615788551E+01  0.31848389194E+01  0.51100000000E-03 0.  1.
        -12    1    3    3    0    0  0.25006278543E+02 -0.60193068367E+01  0.27432071156E+02  0.37604049639E+02  0.00000000000E+00 0.  1.
</event>
<event>
 7    1  0.3807360E-011  0.4778727E+02  0.7816164E-02  0.1312668E+00
        -11   -1    0    0    0    0  0.00000000000E+00  0.00000000000E+00  0.45593999997E+02  0.45594000000E+02  0.51100000000E-03 0. -1.
         11   -1    0    0    0    0 -0.00000000000E+00 -0.00000000000E+00 -0.45593999997E+02  0.45594000000E+02  0.51100000000E-03 0.  1.
    9900012    2    1    2    0    0  0.38676382269E+02  0.19276239645E+02 -0.40234023674E+01  0.47787265826E+02  0.19999976205E+02 0.  0.
        -12    1    1    2    0    0 -0.38676382269E+02 -0.19276239645E+02  0.40234023674E+01  0.43400734174E+02  0.00000000000E+00 0.  1.
         11    1    3    3    0    0  0.45997517533E+01  0.15427320049E+01 -0.35904935077E+01  0.60356757800E+01  0.51100000000E-03 0.  1.
        -11    1    3    3    0    0 -0.13035524577E+01  0.29406685771E+01  0.10240322612E+01  0.33757107434E+01  0.51100000000E-03 0. -1.
         12    1    3    3    0    0  0.35380182974E+02  0.14792839063E+02 -0.14569411208E+01  0.38375879302E+02  0.00000000000E+00 0. -1.
</event>
<event>
 7    1  0.3807360E-011  0.4778727E+02  0.7816164E-02  0.1312668E+00
        -11   -1    0    0    0    0  0.00000000000E+00  0.00000000000E+00  0.45593999997E+02  0.45594000000E+02  0.51100000000E-03 0. -1.
         11   -1    0    0    0    0 -0.00000000000E+00 -0.00000000000E+00 -0.45593999997E+02  0.45594000000E+02  0.51100000000E-03 0.  1.
    9900012    2    1    2    0    0 -0.20933413639E+02  0.18290611729E+02 -0.33329699322E+02  0.47787272576E+02  0.20000006984E+02 0.  0.
         12    1    1    2    0    0  0.20933413639E+02 -0.18290611729E+02  0.33329699322E+02  0.43400727424E+02  0.00000000000E+00 0. -1.
         11    1    3    3    0    0 -0.11250334221E+02  0.10529373632E+02 -0.12938877503E+02  0.20120941341E+02  0.51100000000E-03 0. -1.
        -11    1    3    3    0    0 -0.84567063659E+01  0.23261353292E+01 -0.20277905113E+02  0.22093443013E+02  0.51100000000E-03 0.  1.
        -12    1    3    3    0    0 -0.12263730525E+01  0.54351027676E+01 -0.11291670658E+00  0.55728882225E+01  0.00000000000E+00 0.  1.
</event>
<event>
 7    1  0.3807360E-011  0.4778727E+02  0.7816164E-02  0.1312668E+00
        -11   -1    0    0    0    0  0.00000000000E+00  0.00000000000E+00  0.45593999997E+02  0.45594000000E+02  0.51100000000E-03 0. -1.
         11   -1    0    0    0    0 -0.00000000000E+00 -0.00000000000E+00 -0.45593999997E+02  0.45594000000E+02  0.51100000000E-03 0.  1.
    9900012    2    1    2    0    0 -0.33284026817E+02  0.15371716557E+02 -0.23227294310E+02  0.47787270605E+02  0.19999997996E+02 0.  0.
         12    1    1    2    0    0  0.33284026817E+02 -0.15371716557E+02  0.23227294310E+02  0.43400729395E+02  0.00000000000E+00 0. -1.
         11    1    3    3    0    0 -0.14595621529E+01  0.97975761051E+00  0.24858147584E+01  0.30445889587E+01  0.51100000000E-03 0. -1.
        -11    1    3    3    0    0 -0.17630987406E+02  0.21035802779E+01 -0.10966110062E+02  0.20869411517E+02  0.51100000000E-03 0.  1.
         12    1    3    3    0    0 -0.14193477259E+02  0.12288378669E+02 -0.14746999006E+02  0.23873270130E+02  0.00000000000E+00 0. -1.
</event>
<event>
 7    1  0.3807360E-011  0.4778727E+02  0.7816164E-02  0.1312668E+00
        -11   -1    0    0    0    0  0.00000000000E+00  0.00000000000E+00  0.45593999997E+02  0.45594000000E+02  0.51100000000E-03 0. -1.
         11   -1    0    0    0    0 -0.00000000000E+00 -0.00000000000E+00 -0.45593999997E+02  0.45594000000E+02  0.51100000000E-03 0.  1.
    9900012    2    1    2    0    0  0.90844639433E+01  0.13238040431E+02  0.40321833165E+02  0.47787269253E+02  0.19999991832E+02 0.  0.
        -12    1    1    2    0    0 -0.90844639433E+01 -0.13238040431E+02 -0.40321833165E+02  0.43400730747E+02  0.00000000000E+00 0.  1.
         11    1    3    3    0    0 -0.35186340049E+01  0.16494042174E+01  0.10805509732E+02  0.11483046650E+02  0.51100000000E-03 0. -1.
        -11    1    3    3    0    0  0.33219984909E+01  0.94198158687E+01  0.80900956372E+01  0.12853725244E+02  0.51100000000E-03 0.  1.
         12    1    3    3    0    0  0.92810994573E+01  0.21688203448E+01  0.21426227796E+02  0.23450497359E+02  0.00000000000E+00 0. -1.
</event>
<event>
 7    1  0.3807360E-011  0.4778727E+02  0.7816164E-02  0.1312668E+00
        -11   -1    0    0    0    0  0.00000000000E+00  0.00000000000E+00  0.45593999997E+02  0.45594000000E+02  0.51100000000E-03 0. -1.
         11   -1    0    0    0    0 -0.00000000000E+00 -0.00000000000E+00 -0.45593999997E+02  0.45594000000E+02  0.51100000000E-03 0.  1.
    9900012    2    1    2    0    0 -0.12600847388E+02 -0.26349586171E+01 -0.41447547933E+02  0.47787267385E+02  0.19999983317E+02 0.  0.
         12    1    1    2    0    0  0.12600847388E+02  0.26349586171E+01  0.41447547933E+02  0.43400732615E+02  0.00000000000E+00 0. -1.
         11    1    3    3    0    0 -0.18106341359E+01 -0.16914511486E+00  0.97295435177E+00  0.20624370234E+01  0.51100000000E-03 0. -1.
        -11    1    3    3    0    0 -0.26941823439E+01 -0.56923206708E+01 -0.78043248221E+01  0.10028390664E+02  0.51100000000E-03 0.  1.
         12    1    3    3    0    0 -0.80960309084E+01  0.32265071685E+01 -0.34616177463E+02  0.35696439698E+02  0.00000000000E+00 0. -1.
</event>
<event>
 7    1  0.3807360E-011  0.4778727E+02  0.7816164E-02  0.1312668E+00
        -11   -1    0    0    0    0  0.00000000000E+00  0.00000000000E+00  0.45593999997E+02  0.45594000000E+02  0.51100000000E-03 0. -1.
         11   -1    0    0    0    0 -0.00000000000E+00 -0.00000000000E+00 -0.45593999997E+02  0.45594000000E+02  0.51100000000E-03 0.  1.
    9900012    2    1    2    0    0 -0.20448401353E+02 -0.16370320352E+02 -0.34604894720E+02  0.47787271378E+02  0.20000001522E+02 0.  0.
         12    1    1    2    0    0  0.20448401353E+02  0.16370320352E+02  0.34604894720E+02  0.43400728622E+02  0.00000000000E+00 0. -1.
         11    1    3    3    0    0 -0.28151769595E+01 -0.75930677953E+01 -0.48218658465E+00  0.81124844543E+01  0.51100000000E-03 0. -1.
        -11    1    3    3    0    0 -0.12628414718E+01 -0.16367693573E+01 -0.17778370602E+01  0.27266256408E+01  0.51100000000E-03 0.  1.
         12    1    3    3    0    0 -0.16370382922E+02 -0.71404831997E+01 -0.32344871075E+02  0.36948161283E+02  0.00000000000E+00 0. -1.
</event>
<event>
 7    1  0.3807360E-011  0.4778725E+02  0.7816164E-02  0.1312668E+00
        -11   -1    0    0    0    0  0.00000000000E+00  0.00000000000E+00  0.45593999997E+02  0.45594000000E+02  0.51100000000E-03 0. -1.
         11   -1    0    0    0    0 -0.00000000000E+00 -0.00000000000E+00 -0.45593999997E+02  0.45594000000E+02  0.51100000000E-03 0.  1.
    9900012    2    1    2    0    0 -0.15982826073E+02  0.20998039071E+01  0.40295968984E+02  0.47787250904E+02  0.19999908173E+02 0.  0.
        -12    1    1    2    0    0  0.15982826073E+02 -0.20998039071E+01 -0.40295968984E+02  0.43400749096E+02  0.00000000000E+00 0.  1.
         11    1    3    3    0    0 -0.83225809983E+01 -0.32844281340E+00  0.85544964149E+01  0.11939540960E+02  0.51100000000E-03 0. -1.
        -11    1    3    3    0    0 -0.85266326066E+01 -0.27681264888E+00  0.72603409225E+01  0.11202349728E+02  0.51100000000E-03 0.  1.
         12    1    3    3    0    0  0.86638753146E+00  0.27050593694E+01  0.24481131646E+02  0.24645360217E+02  0.00000000000E+00 0. -1.
</event>
<event>
 7    1  0.3807360E-011  0.4778727E+02  0.7816164E-02  0.1312668E+00
        -11   -1    0    0    0    0  0.00000000000E+00  0.00000000000E+00  0.45593999997E+02  0.45594000000E+02  0.51100000000E-03 0. -1.
         11   -1    0    0    0    0 -0.00000000000E+00 -0.00000000000E+00 -0.45593999997E+02  0.45594000000E+02  0.51100000000E-03 0.  1.
    9900012    2    1    2    0    0 -0.40040653389E+01 -0.31912253479E+02  0.29141015518E+02  0.47787271357E+02  0.20000001423E+02 0.  0.
        -12    1    1    2    0    0  0.40040653389E+01  0.31912253479E+02 -0.29141015518E+02  0.43400728643E+02  0.00000000000E+00 0.  1.
         11    1    3    3    0    0  0.60439629218E+01 -0.21007043376E+02  0.22033076519E+02  0.31036781733E+02  0.51100000000E-03 0. -1.
        -11    1    3    3    0    0 -0.41696457871E+01 -0.67889080833E+01  0.42109026094E+01  0.90114882234E+01  0.51100000000E-03 0.  1.
         12    1    3    3    0    0 -0.58783824737E+01 -0.41163020193E+01  0.28970363903E+01  0.77390013999E+01  0.00000000000E+00 0. -1.
</event>
<event>
 7    1  0.3807360E-011  0.4778727E+02  0.7816164E-02  0.1312668E+00
        -11   -1    0    0    0    0  0.00000000000E+00  0.00000000000E+00  0.45593999997E+02  0.45594000000E+02  0.51100000000E-03 0. -1.
         11   -1    0    0    0    0 -0.00000000000E+00 -0.00000000000E+00 -0.45593999997E+02  0.45594000000E+02  0.51100000000E-03 0.  1.
    9900012    2    1    2    0    0 -0.20688096425E+01  0.21954213103E+02 -0.37381220725E+02  0.47787272942E+02  0.20000008650E+02 0.  0.
         12    1    1    2    0    0  0.20688096425E+01 -0.21954213103E+02  0.37381220725E+02  0.43400727058E+02  0.00000000000E+00 0. -1.
         11    1    3    3    0    0 -0.80385088698E+01  0.70944679312E+01 -0.66320882726E+01  0.12606890782E+02  0.51100000000E-03 0. -1.
        -11    1    3    3    0    0 -0.54737513644E-01  0.17274787540E+00  0.27580466210E+00  0.33000984321E+00  0.51100000000E-03 0.  1.
        -12    1    3    3    0    0  0.60244367409E+01  0.14686997296E+02 -0.31024937114E+02  0.34850372316E+02  0.00000000000E+00 0.  1.
</event>
<event>
 7    1  0.3807360E-011  0.4778727E+02  0.7816164E-02  0.1312668E+00
        -11   -1    0    0    0    0  0.00000000000E+00  0.00000000000E+00  0.45593999997E+02  0.45594000000E+02  0.51100000000E-03 0. -1.
         11   -1    0    0    0    0 -0.00000000000E+00 -0.00000000000E+00 -0.45593999997E+02  0.45594000000E+02  0.51100000000E-03 0.  1.
    9900012    2    1    2    0    0 -0.42809618822E+02 -0.47549364503E+01  0.53245052014E+01  0.47787271435E+02  0.20000001779E+02 0.  0.
        -12    1    1    2    0    0  0.42809618822E+02  0.47549364503E+01 -0.53245052014E+01  0.43400728565E+02  0.00000000000E+00 0.  1.
         11    1    3    3    0    0 -0.26557846933E+02 -0.52941642143E+01  0.42670791268E+01  0.27414510263E+02  0.51100000000E-03 0. -1.
        -11    1    3    3    0    0 -0.10266022754E+02  0.46453204370E+01  0.47505119455E+01  0.12228556299E+02  0.51100000000E-03 0.  1.
        -12    1    3    3    0    0 -0.59857491351E+01 -0.41060926730E+01 -0.36930858710E+01  0.81442048720E+01  0.00000000000E+00 0.  1.
</event>
<event>
 7    1  0.3807360E-011  0.4778727E+02  0.7816164E-02  0.1312668E+00
        -11   -1    0    0    0    0  0.00000000000E+00  0.00000000000E+00  0.45593999997E+02  0.45594000000E+02  0.51100000000E-03 0. -1.
         11   -1    0    0    0    0 -0.00000000000E+00 -0.00000000000E+00 -0.45593999997E+02  0.45594000000E+02  0.51100000000E-03 0.  1.
    9900012    2    1    2    0    0  0.15445691850E+02 -0.35032853091E+02 -0.20439008906E+02  0.47787271003E+02  0.19999999811E+02 0.  0.
         12    1    1    2    0    0 -0.15445691850E+02  0.35032853091E+02  0.20439008906E+02  0.43400728997E+02  0.00000000000E+00 0. -1.
         11    1    3    3    0    0  0.19648827973E+02 -0.32021481885E+02 -0.19406052457E+02  0.42285300225E+02  0.51100000000E-03 0.  1.
        -11    1    3    3    0    0 -0.14681634951E+01 -0.16112142372E+01  0.20499060022E+00  0.21894147103E+01  0.51100000000E-03 0. -1.
        -12    1    3    3    0    0 -0.27349726276E+01 -0.14001569681E+01 -0.12379470490E+01  0.33125560682E+01  0.00000000000E+00 0.  1.
</event>
<event>
 7    1  0.4359327E-011  0.4778727E+02  0.7816164E-02  0.1312668E+00
        -11   -1    0    0    0    0  0.00000000000E+00  0.00000000000E+00  0.45593999997E+02  0.45594000000E+02  0.51100000000E-03 0. -1.
         11   -1    0    0    0    0 -0.00000000000E+00 -0.00000000000E+00 -0.45593999997E+02  0.45594000000E+02  0.51100000000E-03 0.  1.
    9900012    2    1    2    0    0  0.56974293302E+01 -0.16506992105E+02 -0.39732627017E+02  0.47787272598E+02  0.20000007084E+02 0.  0.
         12    1    1    2    0    0 -0.56974293302E+01  0.16506992105E+02  0.39732627017E+02  0.43400727402E+02  0.00000000000E+00 0. -1.
         11    1    3    3    0    0  0.55985198094E+01 -0.46518351189E+01 -0.19221595757E+02  0.20553655094E+02  0.51100000000E-03 0. -1.
        -11    1    3    3    0    0 -0.28228564869E+01 -0.13310558155E+02 -0.19572083365E+02  0.23837070387E+02  0.51100000000E-03 0.  1.
         12    1    3    3    0    0  0.29217660077E+01  0.14554011690E+01 -0.93894789580E+00  0.33965471169E+01  0.00000000000E+00 0. -1.
</event>
<event>
 7    1  0.3807360E-011  0.4778727E+02  0.7816164E-02  0.1312668E+00
        -11   -1    0    0    0    0  0.00000000000E+00  0.00000000000E+00  0.45593999997E+02  0.45594000000E+02  0.51100000000E-03 0. -1.
         11   -1    0    0    0    0 -0.00000000000E+00 -0.00000000000E+00 -0.45593999997E+02  0.45594000000E+02  0.51100000000E-03 0.  1.
    9900012    2    1    2    0    0  0.34589165756E+02  0.21827501773E+02  0.14518027991E+02  0.47787270075E+02  0.19999995578E+02 0.  0.
        -12    1    1    2    0    0 -0.34589165756E+02 -0.21827501773E+02 -0.14518027991E+02  0.43400729925E+02  0.00000000000E+00 0.  1.
         11    1    3    3    0    0  0.16925474714E+00  0.16376979692E+01 -0.10899213643E+01  0.19744950365E+01  0.51100000000E-03 0. -1.
        -11    1    3    3    0    0  0.19969195801E+02  0.35686386729E+01  0.32087865912E+01  0.20537776767E+02  0.51100000000E-03 0.  1.
         12    1    3    3    0    0  0.14450715208E+02  0.16621165131E+02  0.12399162764E+02  0.25274998271E+02  0.00000000000E+00 0. -1.
</event>
<event>
 7    1  0.3807360E-011  0.4778727E+02  0.7816164E-02  0.1312668E+00
        -11   -1    0    0    0    0  0.00000000000E+00  0.00000000000E+00  0.45593999997E+02  0.45594000000E+02  0.51100000000E-03 0. -1.
         11   -1    0    0    0    0 -0.00000000000E+00 -0.00000000000E+00 -0.45593999997E+02  0.45594000000E+02  0.51100000000E-03 0.  1.
    9900012    2    1    2    0    0  0.12087985579E+02 -0.14792032964E+01  0.41657122387E+02  0.47787270936E+02  0.19999999504E+02 0.  0.
        -12    1    1    2    0    0 -0.12087985579E+02  0.14792032964E+01 -0.41657122387E+02  0.43400729064E+02  0.00000000000E+00 0.  1.
         11    1    3    3    0    0  0.44992892877E+01  0.35711573971E+01  0.45607118833E+01  0.73346344416E+01  0.51100000000E-03 0. -1.
        -11    1    3    3    0    0  0.55716401857E+01 -0.25775047254E+01  0.42852556174E+01  0.74866628704E+01  0.51100000000E-03 0.  1.
         12    1    3    3    0    0  0.20170561053E+01 -0.24728559681E+01  0.32811154886E+02  0.32965973624E+02  0.00000000000E+00 0. -1.
</event>
<event>
 7    1  0.3807360E-011  0.4778727E+02  0.7816164E-02  0.1312668E+00
        -11   -1    0    0    0    0  0.00000000000E+00  0.00000000000E+00  0.45593999997E+02  0.45594000000E+02  0.51100000000E-03 0.  1.
         11   -1    0    0    0    0 -0.00000000000E+00 -0.00000000000E+00 -0.45593999997E+02  0.45594000000E+02  0.51100000000E-03 0. -1.
    9900012    2    1    2    0    0  0.37374010574E+02  0.20687966927E+02  0.76690753571E+01  0.47787270067E+02  0.19999995542E+02 0.  0.
        -12    1    1    2    0    0 -0.37374010574E+02 -0.20687966927E+02 -0.76690753571E+01  0.43400729933E+02  0.00000000000E+00 0.  1.
         11    1    3    3    0    0  0.24501126283E+02  0.16685961079E+02  0.80665278560E+01  0.30721252549E+02  0.51100000000E-03 0. -1.
        -11    1    3    3    0    0  0.84116781476E+01  0.52970497903E+01 -0.44595803869E+01  0.10895087114E+02  0.51100000000E-03 0.  1.
        -12    1    3    3    0    0  0.44612061432E+01 -0.12950439425E+01  0.40621278881E+01  0.61709304034E+01  0.00000000000E+00 0.  1.
</event>
<event>
 7    1  0.3807360E-011  0.4778727E+02  0.7816164E-02  0.1312668E+00
        -11   -1    0    0    0    0  0.00000000000E+00  0.00000000000E+00  0.45593999997E+02  0.45594000000E+02  0.51100000000E-03 0. -1.
         11   -1    0    0    0    0 -0.00000000000E+00 -0.00000000000E+00 -0.45593999997E+02  0.45594000000E+02  0.51100000000E-03 0.  1.
    9900012    2    1    2    0    0  0.67520778677E+01  0.18036693511E+02  0.38893575891E+02  0.47787272887E+02  0.20000008401E+02 0.  0.
        -12    1    1    2    0    0 -0.67520778677E+01 -0.18036693511E+02 -0.38893575891E+02  0.43400727113E+02  0.00000000000E+00 0.  1.
         11    1    3    3    0    0 -0.29225641345E+01  0.52787677299E+00  0.28650392755E+01  0.41265585321E+01  0.51100000000E-03 0.  1.
        -11    1    3    3    0    0  0.92998925567E+01  0.19819469253E+02  0.34516309532E+02  0.40873891263E+02  0.51100000000E-03 0. -1.
         12    1    3    3    0    0  0.37474944549E+00 -0.23106525150E+01  0.15122270838E+01  0.27868230918E+01  0.00000000000E+00 0. -1.
</event>
<event>
 7    1  0.3807360E-011  0.4778727E+02  0.7816164E-02  0.1312668E+00
        -11   -1    0    0    0    0  0.00000000000E+00  0.00000000000E+00  0.45593999997E+02  0.45594000000E+02  0.51100000000E-03 0. -1.
         11   -1    0    0    0    0 -0.00000000000E+00 -0.00000000000E+00 -0.45593999997E+02  0.45594000000E+02  0.51100000000E-03 0.  1.
    9900012    2    1    2    0    0  0.20941441559E+01 -0.17919837083E+02 -0.39472998333E+02  0.47787267308E+02  0.19999982965E+02 0.  0.
         12    1    1    2    0    0 -0.20941441559E+01  0.17919837083E+02  0.39472998333E+02  0.43400732692E+02  0.00000000000E+00 0. -1.
         11    1    3    3    0    0 -0.48041378699E+00 -0.43558744515E+01  0.12413596028E+01  0.45547133355E+01  0.51100000000E-03 0. -1.
        -11    1    3    3    0    0  0.29483343464E+01 -0.56570069698E+01 -0.14317129281E+02  0.15674010156E+02  0.51100000000E-03 0.  1.
         12    1    3    3    0    0 -0.37377640346E+00 -0.79069556612E+01 -0.26397228655E+02  0.27558543816E+02  0.00000000000E+00 0. -1.
</event>
<event>
 7    1  0.3807360E-011  0.4778727E+02  0.7816164E-02  0.1312668E+00
        -11   -1    0    0    0    0  0.00000000000E+00  0.00000000000E+00  0.45593999997E+02  0.45594000000E+02  0.51100000000E-03 0. -1.
         11   -1    0    0    0    0 -0.00000000000E+00 -0.00000000000E+00 -0.45593999997E+02  0.45594000000E+02  0.51100000000E-03 0.  1.
    9900012    2    1    2    0    0  0.19329003280E+02  0.36011039497E+02  0.14601975640E+02  0.47787273900E+02  0.20000013020E+02 0.  0.
        -12    1    1    2    0    0 -0.19329003280E+02 -0.36011039497E+02 -0.14601975640E+02  0.43400726100E+02  0.00000000000E+00 0.  1.
         11    1    3    3    0    0  0.66919679040E+01  0.63018146670E+01 -0.28919333296E+01  0.96363157467E+01  0.51100000000E-03 0.  1.
        -11    1    3    3    0    0  0.13140444419E+02  0.19081192967E+02  0.10640077217E+02  0.25494596448E+02  0.51100000000E-03 0. -1.
        -12    1    3    3    0    0 -0.50340904361E+00  0.10628031863E+02  0.68538317518E+01  0.12656361706E+02  0.00000000000E+00 0.  1.
</event>
<event>
 7    1  0.3807360E-011  0.4778728E+02  0.7816164E-02  0.1312668E+00
        -11   -1    0    0    0    0  0.00000000000E+00  0.00000000000E+00  0.45593999997E+02  0.45594000000E+02  0.51100000000E-03 0. -1.
         11   -1    0    0    0    0 -0.00000000000E+00 -0.00000000000E+00 -0.45593999997E+02  0.45594000000E+02  0.51100000000E-03 0.  1.
    9900012    2    1    2    0    0  0.26223940885E+02 -0.31107621671E+02  0.15107732050E+02  0.47787276858E+02  0.20000026507E+02 0.  0.
        -12    1    1    2    0    0 -0.26223940885E+02  0.31107621671E+02 -0.15107732050E+02  0.43400723142E+02  0.00000000000E+00 0.  1.
         11    1    3    3    0    0  0.91690965536E+01 -0.60232809352E+01  0.49477669041E+01  0.12034643428E+02  0.51100000000E-03 0. -1.
        -11    1    3    3    0    0 -0.25873568616E+01 -0.47649729641E+01  0.42278228123E+01  0.68755995281E+01  0.51100000000E-03 0.  1.
         12    1    3    3    0    0  0.19642201193E+02 -0.20319367772E+02  0.59321423332E+01  0.28877033902E+02  0.00000000000E+00 0. -1.
</event>
<event>
 7    1  0.3807360E-011  0.4778727E+02  0.7816164E-02  0.1312668E+00
        -11   -1    0    0    0    0  0.00000000000E+00  0.00000000000E+00  0.45593999997E+02  0.45594000000E+02  0.51100000000E-03 0. -1.
         11   -1    0    0    0    0 -0.00000000000E+00 -0.00000000000E+00 -0.45593999997E+02  0.45594000000E+02  0.51100000000E-03 0.  1.
    9900012    2    1    2    0    0  0.11918689639E+02 -0.29749488556E+02  0.29266637158E+02  0.47787270943E+02  0.19999999539E+02 0.  0.
        -12    1    1    2    0    0 -0.11918689639E+02  0.29749488556E+02 -0.29266637158E+02  0.43400729057E+02  0.00000000000E+00 0.  1.
         11    1    3    3    0    0  0.11107417672E+02 -0.20390072405E+02  0.14478119329E+02  0.27363218370E+02  0.51100000000E-03 0. -1.
        -11    1    3    3    0    0 -0.15346549841E+01 -0.11034061041E+02  0.10919291406E+02  0.15599249792E+02  0.51100000000E-03 0.  1.
        -12    1    3    3    0    0  0.23459269511E+01  0.16746448897E+01  0.38692264235E+01  0.48248027818E+01  0.00000000000E+00 0.  1.
</event>
<event>
 7    1  0.3807360E-011  0.4778727E+02  0.7816164E-02  0.1312668E+00
        -11   -1    0    0    0    0  0.00000000000E+00  0.00000000000E+00  0.45593999997E+02  0.45594000000E+02  0.51100000000E-03 0. -1.
         11   -1    0    0    0    0 -0.00000000000E+00 -0.00000000000E+00 -0.45593999997E+02  0.45594000000E+02  0.51100000000E-03 0.  1.
    9900012    2    1    2    0    0 -0.10396276751E+02  0.13248216043E+02  0.40000318431E+02  0.47787271052E+02  0.20000000036E+02 0.  0.
        -12    1    1    2    0    0  0.10396276751E+02 -0.13248216043E+02 -0.40000318431E+02  0.43400728948E+02  0.00000000000E+00 0.  1.
         11    1    3    3    0    0 -0.17139794640E+01  0.33924939485E+01  0.32850171425E+00  0.38150562815E+01  0.51100000000E-03 0. -1.
        -11    1    3    3    0    0 -0.87613521563E+00  0.10895207988E+02  0.25820311765E+02  0.28038574677E+02  0.51100000000E-03 0.  1.
         12    1    3    3    0    0 -0.78061620711E+01 -0.10394858941E+01  0.13851504952E+02  0.15933640094E+02  0.00000000000E+00 0. -1.
</event>
<event>
 7    1  0.3807360E-011  0.4778727E+02  0.7816164E-02  0.1312668E+00
        -11   -1    0    0    0    0  0.00000000000E+00  0.00000000000E+00  0.45593999997E+02  0.45594000000E+02  0.51100000000E-03 0. -1.
         11   -1    0    0    0    0 -0.00000000000E+00 -0.00000000000E+00 -0.45593999997E+02  0.45594000000E+02  0.51100000000E-03 0.  1.
    9900012    2    1    2    0    0  0.17423917688E+02 -0.27982382516E+02 -0.28231488962E+02  0.47787267196E+02  0.19999982454E+02 0.  0.
         12    1    1    2    0    0 -0.17423917688E+02  0.27982382516E+02  0.28231488962E+02  0.43400732804E+02  0.00000000000E+00 0. -1.
         11    1    3    3    0    0  0.12821652981E+02 -0.15499954859E+02 -0.19487361777E+02  0.28007153641E+02  0.51100000000E-03 0. -1.
        -11    1    3    3    0    0 -0.12967678025E+01 -0.29002329751E+01 -0.78779360202E+01  0.84944001697E+01  0.51100000000E-03 0.  1.
        -12    1    3    3    0    0  0.58990325104E+01 -0.95821946817E+01 -0.86619116499E+00  0.11285713385E+02  0.00000000000E+00 0.  1.
</event>
<event>
 7    1  0.3807360E-011  0.4778725E+02  0.7816164E-02  0.1312668E+00
        -11   -1    0    0    0    0  0.00000000000E+00  0.00000000000E+00  0.45593999997E+02  0.45594000000E+02  0.51100000000E-03 0. -1.
         11   -1    0    0    0    0 -0.00000000000E+00 -0.00000000000E+00 -0.45593999997E+02  0.45594000000E+02  0.51100000000E-03 0.  1.
    9900012    2    1    2    0    0  0.20795166709E+02  0.18419475807E+02  0.33345298855E+02  0.47787251122E+02  0.19999909164E+02 0.  0.
        -12    1    1    2    0    0 -0.20795166709E+02 -0.18419475807E+02 -0.33345298855E+02  0.43400748878E+02  0.00000000000E+00 0.  1.
         11    1    3    3    0    0  0.52643009319E+01 -0.15123360936E+01  0.47441357293E+01  0.72461609726E+01  0.51100000000E-03 0. -1.
        -11    1    3    3    0    0  0.47766583271E+01 -0.12840465372E+01  0.48449454152E+01  0.69237805151E+01  0.51100000000E-03 0.  1.
         12    1    3    3    0    0  0.10754207450E+02  0.21215858438E+02  0.23756217710E+02  0.33617309634E+02  0.00000000000E+00 0. -1.
</event>
<event>
 7    1  0.3807360E-011  0.4778727E+02  0.7816164E-02  0.1312668E+00
        -11   -1    0    0    0    0  0.00000000000E+00  0.00000000000E+00  0.45593999997E+02  0.45594000000E+02  0.51100000000E-03 0. -1.
         11   -1    0    0    0    0 -0.00000000000E+00 -0.00000000000E+00 -0.45593999997E+02  0.45594000000E+02  0.51100000000E-03 0.  1.
    9900012    2    1    2    0    0  0.13611423994E+02  0.41131954054E+01  0.41005292237E+02  0.47787271538E+02  0.20000002251E+02 0.  0.
        -12    1    1    2    0    0 -0.13611423994E+02 -0.41131954054E+01 -0.41005292237E+02  0.43400728462E+02  0.00000000000E+00 0.  1.
         11    1    3    3    0    0  0.17367390162E+01  0.57224536752E+01  0.30282788098E+01  0.67032239472E+01  0.51100000000E-03 0. -1.
        -11    1    3    3    0    0 -0.53069394257E+00 -0.11298561499E+01  0.14257799496E+02  0.14312339352E+02  0.51100000000E-03 0.  1.
         12    1    3    3    0    0  0.12405378920E+02 -0.47940211988E+00  0.23719213931E+02  0.26771708239E+02  0.00000000000E+00 0. -1.
</event>
<event>
 7    1  0.3807360E-011  0.4778727E+02  0.7816164E-02  0.1312668E+00
        -11   -1    0    0    0    0  0.00000000000E+00  0.00000000000E+00  0.45593999997E+02  0.45594000000E+02  0.51100000000E-03 0. -1.
         11   -1    0    0    0    0 -0.00000000000E+00 -0.00000000000E+00 -0.45593999997E+02  0.45594000000E+02  0.51100000000E-03 0.  1.
    9900012    2    1    2    0    0 -0.18696492576E+02  0.18128810853E+02  0.34719027252E+02  0.47787268775E+02  0.19999989652E+02 0.  0.
        -12    1    1    2    0    0  0.18696492576E+02 -0.18128810853E+02 -0.34719027252E+02  0.43400731225E+02  0.00000000000E+00 0.  1.
         11    1    3    3    0    0 -0.10229183082E+02  0.11550134402E+02  0.14239328265E+02  0.20995243769E+02  0.51100000000E-03 0. -1.
        -11    1    3    3    0    0 -0.87434398924E+01  0.32097357289E+01  0.21357163138E+02  0.23299754552E+02  0.51100000000E-03 0.  1.
         12    1    3    3    0    0  0.27613039825E+00  0.33689407217E+01 -0.87746415177E+00  0.34922704536E+01  0.00000000000E+00 0. -1.
</event>
<event>
 7    1  0.3807360E-011  0.4778727E+02  0.7816164E-02  0.1312668E+00
        -11   -1    0    0    0    0  0.00000000000E+00  0.00000000000E+00  0.45593999997E+02  0.45594000000E+02  0.51100000000E-03 0. -1.
         11   -1    0    0    0    0 -0.00000000000E+00 -0.00000000000E+00 -0.45593999997E+02  0.45594000000E+02  0.51100000000E-03 0.  1.
    9900012    2    1    2    0    0  0.32027293511E+02 -0.81989948760E+00  0.29278032914E+02  0.47787274474E+02  0.20000015638E+02 0.  0.
        -12    1    1    2    0    0 -0.32027293511E+02  0.81989948760E+00 -0.29278032914E+02  0.43400725526E+02  0.00000000000E+00 0.  1.
         11    1    3    3    0    0  0.23980886328E+02  0.27673937066E+01  0.15831989583E+02  0.28868551599E+02  0.51100000000E-03 0. -1.
        -11    1    3    3    0    0  0.98298062611E+00 -0.23009864207E+01 -0.10722288880E+01  0.27222168299E+01  0.51100000000E-03 0.  1.
        -12    1    3    3    0    0  0.70634265574E+01 -0.12863067735E+01  0.14518272219E+02  0.16196506045E+02  0.00000000000E+00 0.  1.
</event>
<event>
 7    1  0.3807360E-011  0.4778727E+02  0.7816164E-02  0.1312668E+00
        -11   -1    0    0    0    0  0.00000000000E+00  0.00000000000E+00  0.45593999997E+02  0.45594000000E+02  0.51100000000E-03 0. -1.
         11   -1    0    0    0    0 -0.00000000000E+00 -0.00000000000E+00 -0.45593999997E+02  0.45594000000E+02  0.51100000000E-03 0.  1.
    9900012    2    1    2    0    0  0.44984436670E+00  0.35587617854E+02  0.24838327466E+02  0.47787269410E+02  0.19999992546E+02 0.  0.
        -12    1    1    2    0    0 -0.44984436670E+00 -0.35587617854E+02 -0.24838327466E+02  0.43400730590E+02  0.00000000000E+00 0.  1.
         11    1    3    3    0    0  0.16037539616E+01  0.11805492177E+02  0.48489459487E+01  0.12862890398E+02  0.51100000000E-03 0. -1.
        -11    1    3    3    0    0 -0.74326684777E+01  0.84471829225E+01  0.12257622881E+02  0.16638773361E+02  0.51100000000E-03 0.  1.
        -12    1    3    3    0    0  0.62787588828E+01  0.15334942754E+02  0.77317586368E+01  0.18285605651E+02  0.00000000000E+00 0.  1.
</event>
<event>
 7    1  0.3807360E-011  0.4778727E+02  0.7816164E-02  0.1312668E+00
        -11   -1    0    0    0    0  0.00000000000E+00  0.00000000000E+00  0.45593999997E+02  0.45594000000E+02  0.51100000000E-03 0. -1.
         11   -1    0    0    0    0 -0.00000000000E+00 -0.00000000000E+00 -0.45593999997E+02  0.45594000000E+02  0.51100000000E-03 0.  1.
    9900012    2    1    2    0    0 -0.35916185418E+02  0.19178072201E+02  0.15028379109E+02  0.47787274119E+02  0.20000014018E+02 0.  0.
        -12    1    1    2    0    0  0.35916185418E+02 -0.19178072201E+02 -0.15028379109E+02  0.43400725881E+02  0.00000000000E+00 0.  1.
         11    1    3    3    0    0 -0.10033546674E+02  0.85707255234E+01  0.13303498470E+02  0.18737995268E+02  0.51100000000E-03 0. -1.
        -11    1    3    3    0    0 -0.18843987090E+02  0.68811502473E+01  0.46006863646E+01  0.20581846211E+02  0.51100000000E-03 0.  1.
         12    1    3    3    0    0 -0.70386516545E+01  0.37261964305E+01 -0.28758057251E+01  0.84674326404E+01  0.00000000000E+00 0. -1.
</event>
<event>
 7    1 -0.3807360E-011  0.4778727E+02  0.7816164E-02  0.1312668E+00
        -11   -1    0    0    0    0  0.00000000000E+00  0.00000000000E+00  0.45593999997E+02  0.45594000000E+02  0.51100000000E-03 0. -1.
         11   -1    0    0    0    0 -0.00000000000E+00 -0.00000000000E+00 -0.45593999997E+02  0.45594000000E+02  0.51100000000E-03 0.  1.
    9900012    2    1    2    0    0  0.26542449725E+02 -0.22688571320E+02  0.25774995688E+02  0.47787270644E+02  0.19999998173E+02 0.  0.
        -12    1    1    2    0    0 -0.26542449725E+02  0.22688571320E+02 -0.25774995688E+02  0.43400729356E+02  0.00000000000E+00 0.  1.
         11    1    3    3    0    0  0.97106190391E+01 -0.30827545293E+01  0.15526677293E+02  0.18570869814E+02  0.51100000000E-03 0. -1.
        -11    1    3    3    0    0  0.14292635834E+02 -0.10490652306E+02  0.82053210776E+01  0.19536133679E+02  0.51100000000E-03 0.  1.
         12    1    3    3    0    0  0.25391948521E+01 -0.91151644845E+01  0.20429973175E+01  0.96802671511E+01  0.00000000000E+00 0. -1.
</event>
<event>
 7    1  0.3807360E-011  0.4778727E+02  0.7816164E-02  0.1312668E+00
        -11   -1    0    0    0    0  0.00000000000E+00  0.00000000000E+00  0.45593999997E+02  0.45594000000E+02  0.51100000000E-03 0. -1.
         11   -1    0    0    0    0 -0.00000000000E+00 -0.00000000000E+00 -0.45593999997E+02  0.45594000000E+02  0.51100000000E-03 0.  1.
    9900012    2    1    2    0    0  0.97053538098E+01  0.24532961832E+02  0.34461038622E+02  0.47787270839E+02  0.19999999063E+02 0.  0.
        -12    1    1    2    0    0 -0.97053538098E+01 -0.24532961832E+02 -0.34461038622E+02  0.43400729161E+02  0.00000000000E+00 0.  1.
         11    1    3    3    0    0 -0.56737176118E+01  0.46332149388E+01  0.10213116947E+02  0.12568433086E+02  0.51100000000E-03 0. -1.
        -11    1    3    3    0    0  0.63678063050E+01  0.53663676000E+01  0.64150151313E+01  0.10511863667E+02  0.51100000000E-03 0.  1.
         12    1    3    3    0    0  0.90112651165E+01  0.14533379294E+02  0.17832906543E+02  0.24706974086E+02  0.00000000000E+00 0. -1.
</event>
<event>
 7    1  0.3807360E-011  0.4778728E+02  0.7816164E-02  0.1312668E+00
        -11   -1    0    0    0    0  0.00000000000E+00  0.00000000000E+00  0.45593999997E+02  0.45594000000E+02  0.51100000000E-03 0. -1.
         11   -1    0    0    0    0 -0.00000000000E+00 -0.00000000000E+00 -0.45593999997E+02  0.45594000000E+02  0.51100000000E-03 0.  1.
    9900012    2    1    2    0    0  0.18950910222E+01  0.22673915862E+02 -0.36958423540E+02  0.47787275340E+02  0.20000019584E+02 0.  0.
         12    1    1    2    0    0 -0.18950910222E+01 -0.22673915862E+02  0.36958423540E+02  0.43400724660E+02  0.00000000000E+00 0. -1.
         11    1    3    3    0    0 -0.20308624358E+01  0.58887777602E+01 -0.18193353996E+02  0.19230190733E+02  0.51100000000E-03 0. -1.
        -11    1    3    3    0    0 -0.82873472466E+00  0.12193739649E+02 -0.18200499515E+02  0.21923327091E+02  0.51100000000E-03 0.  1.
        -12    1    3    3    0    0  0.47546881826E+01  0.45913984521E+01 -0.56457002862E+00  0.66337575157E+01  0.00000000000E+00 0.  1.
</event>
<event>
 7    1  0.3807360E-011  0.4778730E+02  0.7816164E-02  0.1312668E+00
        -11   -1    0    0    0    0  0.00000000000E+00  0.00000000000E+00  0.45593999997E+02  0.45594000000E+02  0.51100000000E-03 0. -1.
         11   -1    0    0    0    0 -0.00000000000E+00 -0.00000000000E+00 -0.45593999997E+02  0.45594000000E+02  0.51100000000E-03 0.  1.
    9900012    2    1    2    0    0  0.14988768724E+02 -0.36448276777E+02 -0.18179135208E+02  0.47787296955E+02  0.20000118138E+02 0.  0.
         12    1    1    2    0    0 -0.14988768724E+02  0.36448276777E+02  0.18179135208E+02  0.43400703045E+02  0.00000000000E+00 0. -1.
         11    1    3    3    0    0  0.11468072051E+02 -0.28195150046E+02 -0.14255176044E+02  0.33610909047E+02  0.51100000000E-03 0. -1.
        -11    1    3    3    0    0  0.18756460223E+01 -0.60857279553E+01  0.27745036814E+01  0.69463662217E+01  0.51100000000E-03 0.  1.
         12    1    3    3    0    0  0.16450506509E+01 -0.21673987758E+01 -0.66984628450E+01  0.72300216862E+01  0.00000000000E+00 0. -1.
</event>
<event>
 7    1  0.3807360E-011  0.4778727E+02  0.7816164E-02  0.1312668E+00
        -11   -1    0    0    0    0  0.00000000000E+00  0.00000000000E+00  0.45593999997E+02  0.45594000000E+02  0.51100000000E-03 0. -1.
         11   -1    0    0    0    0 -0.00000000000E+00 -0.00000000000E+00 -0.45593999997E+02  0.45594000000E+02  0.51100000000E-03 0.  1.
    9900012    2    1    2    0    0 -0.10547502324E+02 -0.21560368480E+02  0.36159697230E+02  0.47787274222E+02  0.20000014490E+02 0.  0.
        -12    1    1    2    0    0  0.10547502324E+02  0.21560368480E+02 -0.36159697230E+02  0.43400725778E+02  0.00000000000E+00 0.  1.
         11    1    3    3    0    0  0.10608255459E+01 -0.84994832960E+01  0.10307804827E+02  0.13402141909E+02  0.51100000000E-03 0. -1.
        -11    1    3    3    0    0 -0.75403924697E+01  0.13784148367E+01  0.90932411119E+01  0.11893047559E+02  0.51100000000E-03 0.  1.
        -12    1    3    3    0    0 -0.40679353998E+01 -0.14439300021E+02  0.16758651291E+02  0.22492084755E+02  0.00000000000E+00 0.  1.
</event>
<event>
 7    1  0.3807360E-011  0.4778727E+02  0.7816164E-02  0.1312668E+00
        -11   -1    0    0    0    0  0.00000000000E+00  0.00000000000E+00  0.45593999997E+02  0.45594000000E+02  0.51100000000E-03 0. -1.
         11   -1    0    0    0    0 -0.00000000000E+00 -0.00000000000E+00 -0.45593999997E+02  0.45594000000E+02  0.51100000000E-03 0.  1.
    9900012    2    1    2    0    0  0.23319497735E+02  0.88385900956E+01 -0.35520468519E+02  0.47787270360E+02  0.19999996878E+02 0.  0.
         12    1    1    2    0    0 -0.23319497735E+02 -0.88385900956E+01  0.35520468519E+02  0.43400729640E+02  0.00000000000E+00 0. -1.
         11    1    3    3    0    0  0.52225276854E+01 -0.30472735165E+01 -0.29606567057E+01  0.67324705494E+01  0.51100000000E-03 0. -1.
        -11    1    3    3    0    0  0.45761950481E+01  0.97598857356E+01 -0.18644985529E+02  0.21536768939E+02  0.51100000000E-03 0.  1.
         12    1    3    3    0    0  0.13520775001E+02  0.21259778765E+01 -0.13914826285E+02  0.19518030871E+02  0.00000000000E+00 0. -1.
</event>
<event>
 7    1  0.3807360E-011  0.4778727E+02  0.7816164E-02  0.1312668E+00
        -11   -1    0    0    0    0  0.00000000000E+00  0.00000000000E+00  0.45593999997E+02  0.45594000000E+02  0.51100000000E-03 0. -1.
         11   -1    0    0    0    0 -0.00000000000E+00 -0.00000000000E+00 -0.45593999997E+02  0.45594000000E+02  0.51100000000E-03 0.  1.
    9900012    2    1    2    0    0  0.28912797681E+00 -0.76208902106E+01  0.42725422286E+02  0.47787271065E+02  0.20000000092E+02 0.  0.
        -12    1    1    2    0    0 -0.28912797681E+00  0.76208902106E+01 -0.42725422286E+02  0.43400728935E+02  0.00000000000E+00 0.  1.
         11    1    3    3    0    0  0.54222668366E+01 -0.36046313482E+01  0.25748599832E+02  0.26559080150E+02  0.51100000000E-03 0. -1.
        -11    1    3    3    0    0 -0.61355244481E+01 -0.36900323457E+01  0.18232983758E+02  0.19588330607E+02  0.51100000000E-03 0.  1.
         12    1    3    3    0    0  0.10023855884E+01 -0.32622651667E+00 -0.12561613044E+01  0.16398603083E+01  0.00000000000E+00 0. -1.
</event>
<event>
 7    1  0.3807360E-011  0.4778727E+02  0.7816164E-02  0.1312668E+00
        -11   -1    0    0    0    0  0.00000000000E+00  0.00000000000E+00  0.45593999997E+02  0.45594000000E+02  0.51100000000E-03 0.  1.
         11   -1    0    0    0    0 -0.00000000000E+00 -0.00000000000E+00 -0.45593999997E+02  0.45594000000E+02  0.51100000000E-03 0. -1.
    9900012    2    1    2    0    0  0.20888849719E+02  0.29539971984E+02 -0.23972255104E+02  0.47787274175E+02  0.20000014271E+02 0.  0.
         12    1    1    2    0    0 -0.20888849719E+02 -0.29539971984E+02  0.23972255104E+02  0.43400725825E+02  0.00000000000E+00 0. -1.
         11    1    3    3    0    0 -0.18072994511E+01  0.33007491895E+01 -0.23355137320E+01  0.44289842144E+01  0.51100000000E-03 0. -1.
        -11    1    3    3    0    0  0.13969771464E+02  0.10664093460E+02 -0.35217049013E+01  0.17924279895E+02  0.51100000000E-03 0.  1.
         12    1    3    3    0    0  0.87263777058E+01  0.15575129334E+02 -0.18115036471E+02  0.25434010065E+02  0.00000000000E+00 0. -1.
</event>
<event>
 7    1  0.3807360E-011  0.4778727E+02  0.7816164E-02  0.1312668E+00
        -11   -1    0    0    0    0  0.00000000000E+00  0.00000000000E+00  0.45593999997E+02  0.45594000000E+02  0.51100000000E-03 0. -1.
         11   -1    0    0    0    0 -0.00000000000E+00 -0.00000000000E+00 -0.45593999997E+02  0.45594000000E+02  0.51100000000E-03 0.  1.
    9900012    2    1    2    0    0  0.15327964201E+02 -0.18653363469E+02 -0.36065617953E+02  0.47787271278E+02  0.20000001066E+02 0.  0.
         12    1    1    2    0    0 -0.15327964201E+02  0.18653363469E+02  0.36065617953E+02  0.43400728722E+02  0.00000000000E+00 0. -1.
         11    1    3    3    0    0  0.69636175866E+01 -0.11570598904E+02 -0.15704444445E+02  0.20712322527E+02  0.51100000000E-03 0. -1.
        -11    1    3    3    0    0  0.11687434224E+02 -0.60862398943E+01 -0.19440526177E+02  0.23485580535E+02  0.51100000000E-03 0.  1.
         12    1    3    3    0    0 -0.33230876095E+01 -0.99652467058E+00 -0.92064733158E+00  0.35893682158E+01  0.00000000000E+00 0. -1.
</event>
<event>
 7    1  0.3807360E-011  0.4778727E+02  0.7816164E-02  0.1312668E+00
        -11   -1    0    0    0    0  0.00000000000E+00  0.00000000000E+00  0.45593999997E+02  0.45594000000E+02  0.51100000000E-03 0. -1.
         11   -1    0    0    0    0 -0.00000000000E+00 -0.00000000000E+00 -0.45593999997E+02  0.45594000000E+02  0.51100000000E-03 0.  1.
    9900012    2    1    2    0    0 -0.34262847748E+02 -0.60271831576E+01  0.25949059288E+02  0.47787270161E+02  0.19999995974E+02 0.  0.
        -12    1    1    2    0    0  0.34262847748E+02  0.60271831576E+01 -0.25949059288E+02  0.43400729839E+02  0.00000000000E+00 0.  1.
         11    1    3    3    0    0 -0.98393378461E+01 -0.58294813843E+01  0.31046804136E+01  0.11850504765E+02  0.51100000000E-03 0. -1.
        -11    1    3    3    0    0 -0.60891587955E+01  0.57003427782E+01  0.52875199096E+01  0.98757090723E+01  0.51100000000E-03 0.  1.
         12    1    3    3    0    0 -0.18334351106E+02 -0.58980445514E+01  0.17556858965E+02  0.26061056324E+02  0.00000000000E+00 0. -1.
</event>
<event>
 7    1  0.3807360E-011  0.4778727E+02  0.7816164E-02  0.1312668E+00
        -11   -1    0    0    0    0  0.00000000000E+00  0.00000000000E+00  0.45593999997E+02  0.45594000000E+02  0.51100000000E-03 0. -1.
         11   -1    0    0    0    0 -0.00000000000E+00 -0.00000000000E+00 -0.45593999997E+02  0.45594000000E+02  0.51100000000E-03 0.  1.
    9900012    2    1    2    0    0  0.95099268444E+01 -0.13878759093E+02  0.40007055365E+02  0.47787272569E+02  0.20000006953E+02 0.  0.
        -12    1    1    2    0    0 -0.95099268444E+01  0.13878759093E+02 -0.40007055365E+02  0.43400727431E+02  0.00000000000E+00 0.  1.
         11    1    3    3    0    0  0.28987864022E+01 -0.85602988846E+01  0.20032200793E+02  0.21976595470E+02  0.51100000000E-03 0. -1.
        -11    1    3    3    0    0 -0.97219685078E+00  0.36915044370E+01  0.87283802592E+01  0.95266465209E+01  0.51100000000E-03 0.  1.
         12    1    3    3    0    0  0.75833372930E+01 -0.90099646451E+01  0.11246474313E+02  0.16284030578E+02  0.00000000000E+00 0. -1.
</event>
<event>
 7    1  0.3807360E-011  0.4778727E+02  0.7816164E-02  0.1312668E+00
        -11   -1    0    0    0    0  0.00000000000E+00  0.00000000000E+00  0.45593999997E+02  0.45594000000E+02  0.51100000000E-03 0. -1.
         11   -1    0    0    0    0 -0.00000000000E+00 -0.00000000000E+00 -0.45593999997E+02  0.45594000000E+02  0.51100000000E-03 0.  1.
    9900012    2    1    2    0    0 -0.17663182269E+02 -0.12437997788E+02 -0.37642152866E+02  0.47787268794E+02  0.19999989740E+02 0.  0.
         12    1    1    2    0    0  0.17663182269E+02  0.12437997788E+02  0.37642152866E+02  0.43400731206E+02  0.00000000000E+00 0. -1.
         11    1    3    3    0    0 -0.37766573104E+01 -0.14283082580E+01 -0.45565576252E+00  0.40633517391E+01  0.51100000000E-03 0. -1.
        -11    1    3    3    0    0 -0.78233489719E+01 -0.10406697290E+02 -0.11650554427E+02  0.17471106328E+02  0.51100000000E-03 0.  1.
        -12    1    3    3    0    0 -0.60631759865E+01 -0.60299224046E+00 -0.25535942676E+02  0.26252810727E+02  0.00000000000E+00 0.  1.
</event>
<event>
 7    1  0.3807360E-011  0.4778727E+02  0.7816164E-02  0.1312668E+00
        -11   -1    0    0    0    0  0.00000000000E+00  0.00000000000E+00  0.45593999997E+02  0.45594000000E+02  0.51100000000E-03 0. -1.
         11   -1    0    0    0    0 -0.00000000000E+00 -0.00000000000E+00 -0.45593999997E+02  0.45594000000E+02  0.51100000000E-03 0.  1.
    9900012    2    1    2    0    0  0.24856895782E+02 -0.22448427800E+02 -0.27601200174E+02  0.47787269250E+02  0.19999991817E+02 0.  0.
         12    1    1    2    0    0 -0.24856895782E+02  0.22448427800E+02  0.27601200174E+02  0.43400730750E+02  0.00000000000E+00 0. -1.
         11    1    3    3    0    0  0.19963871932E+02 -0.58964414603E+01 -0.13341595058E+02  0.24724934042E+02  0.51100000000E-03 0.  1.
        -11    1    3    3    0    0  0.32020328878E+01 -0.28713308081E+01 -0.40590354606E+01  0.59138248499E+01  0.51100000000E-03 0. -1.
         12    1    3    3    0    0  0.16909909625E+01 -0.13680655532E+02 -0.10200569655E+02  0.17148510358E+02  0.00000000000E+00 0. -1.
</event>
<event>
 7    1  0.3807360E-011  0.4778727E+02  0.7816164E-02  0.1312668E+00
        -11   -1    0    0    0    0  0.00000000000E+00  0.00000000000E+00  0.45593999997E+02  0.45594000000E+02  0.51100000000E-03 0. -1.
         11   -1    0    0    0    0 -0.00000000000E+00 -0.00000000000E+00 -0.45593999997E+02  0.45594000000E+02  0.51100000000E-03 0.  1.
    9900012    2    1    2    0    0  0.10931696188E+02 -0.12704650354E+00 -0.42001252031E+02  0.47787270806E+02  0.19999998914E+02 0.  0.
         12    1    1    2    0    0 -0.10931696188E+02  0.12704650354E+00  0.42001252031E+02  0.43400729194E+02  0.00000000000E+00 0. -1.
         11    1    3    3    0    0 -0.10282457448E+01  0.49885991753E+00  0.11225920593E+01  0.16019874287E+01  0.51100000000E-03 0. -1.
        -11    1    3    3    0    0  0.72947818635E+01 -0.59322641951E+01 -0.26657862149E+02  0.28267423221E+02  0.51100000000E-03 0.  1.
         12    1    3    3    0    0  0.46651600689E+01  0.53063577740E+01 -0.16465981941E+02  0.17917860157E+02  0.00000000000E+00 0. -1.
</event>
<event>
 7    1  0.3807360E-011  0.4778727E+02  0.7816164E-02  0.1312668E+00
        -11   -1    0    0    0    0  0.00000000000E+00  0.00000000000E+00  0.45593999997E+02  0.45594000000E+02  0.51100000000E-03 0. -1.
         11   -1    0    0    0    0 -0.00000000000E+00 -0.00000000000E+00 -0.45593999997E+02  0.45594000000E+02  0.51100000000E-03 0.  1.
    9900012    2    1    2    0    0  0.31106154987E+02  0.26645999743E+02 -0.14353427732E+02  0.47787273416E+02  0.20000010812E+02 0.  0.
         12    1    1    2    0    0 -0.31106154987E+02 -0.26645999743E+02  0.14353427732E+02  0.43400726584E+02  0.00000000000E+00 0. -1.
         11    1    3    3    0    0  0.44159678867E+01  0.10211392730E+02 -0.26800834287E+01  0.11443607880E+02  0.51100000000E-03 0. -1.
        -11    1    3    3    0    0  0.84209111246E+01  0.17556450665E+01 -0.94868909136E+01  0.12806058458E+02  0.51100000000E-03 0.  1.
         12    1    3    3    0    0  0.18269275976E+02  0.14678961947E+02 -0.21864533895E+01  0.23537607077E+02  0.00000000000E+00 0. -1.
</event>
<event>
 7    1  0.3807360E-011  0.4778727E+02  0.7816164E-02  0.1312668E+00
        -11   -1    0    0    0    0  0.00000000000E+00  0.00000000000E+00  0.45593999997E+02  0.45594000000E+02  0.51100000000E-03 0. -1.
         11   -1    0    0    0    0 -0.00000000000E+00 -0.00000000000E+00 -0.45593999997E+02  0.45594000000E+02  0.51100000000E-03 0.  1.
    9900012    2    1    2    0    0  0.58922425028E+01  0.42996175793E+02  0.48353072386E+00  0.47787268940E+02  0.19999990406E+02 0.  0.
        -12    1    1    2    0    0 -0.58922425028E+01 -0.42996175793E+02 -0.48353072386E+00  0.43400731060E+02  0.00000000000E+00 0.  1.
         11    1    3    3    0    0 -0.10189235478E+01  0.22050318453E+02 -0.18735627847E+01  0.22153216174E+02  0.51100000000E-03 0. -1.
        -11    1    3    3    0    0  0.77495175600E+01  0.13040640480E+02 -0.37303801614E+01  0.15621429606E+02  0.51100000000E-03 0.  1.
        -12    1    3    3    0    0 -0.83835150938E+00  0.79052168605E+01  0.60874736700E+01  0.10012623160E+02  0.00000000000E+00 0.  1.
</event>
<event>
 7    1  0.3807360E-011  0.4778727E+02  0.7816164E-02  0.1312668E+00
        -11   -1    0    0    0    0  0.00000000000E+00  0.00000000000E+00  0.45593999997E+02  0.45594000000E+02  0.51100000000E-03 0. -1.
         11   -1    0    0    0    0 -0.00000000000E+00 -0.00000000000E+00 -0.45593999997E+02  0.45594000000E+02  0.51100000000E-03 0.  1.
    9900012    2    1    2    0    0  0.88086650713E+01  0.17783811893E+02  0.38597494993E+02  0.47787272293E+02  0.20000005691E+02 0.  0.
        -12    1    1    2    0    0 -0.88086650713E+01 -0.17783811893E+02 -0.38597494993E+02  0.43400727707E+02  0.00000000000E+00 0.  1.
         11    1    3    3    0    0  0.46421456872E+01 -0.20623562302E+01  0.18102636531E+02  0.18801815855E+02  0.51100000000E-03 0. -1.
        -11    1    3    3    0    0  0.22708997206E+01  0.58678874948E+01  0.50471740548E+01  0.80661673299E+01  0.51100000000E-03 0.  1.
         12    1    3    3    0    0  0.18956196634E+01  0.13978280628E+02  0.15447684408E+02  0.20919289108E+02  0.00000000000E+00 0. -1.
</event>
<event>
 7    1  0.3807360E-011  0.4778726E+02  0.7816164E-02  0.1312668E+00
        -11   -1    0    0    0    0  0.00000000000E+00  0.00000000000E+00  0.45593999997E+02  0.45594000000E+02  0.51100000000E-03 0.  1.
         11   -1    0    0    0    0 -0.00000000000E+00 -0.00000000000E+00 -0.45593999997E+02  0.45594000000E+02  0.51100000000E-03 0. -1.
    9900012    2    1    2    0    0  0.29611674804E+01  0.24499640122E+02 -0.35701865159E+02  0.47787262048E+02  0.19999958983E+02 0.  0.
         12    1    1    2    0    0 -0.29611674804E+01 -0.24499640122E+02  0.35701865159E+02  0.43400737952E+02  0.00000000000E+00 0. -1.
         11    1    3    3    0    0  0.27748506083E+00 -0.31973523693E+00 -0.75752103904E+00  0.86779431113E+00  0.51100000000E-03 0. -1.
        -11    1    3    3    0    0 -0.94889023029E+00  0.11804592260E+02 -0.30462216795E+02  0.32683259376E+02  0.51100000000E-03 0.  1.
         12    1    3    3    0    0  0.36325726498E+01  0.13014783098E+02 -0.44821273249E+01  0.14236208362E+02  0.00000000000E+00 0. -1.
</event>
<event>
 7    1  0.3807360E-011  0.4778727E+02  0.7816164E-02  0.1312668E+00
        -11   -1    0    0    0    0  0.00000000000E+00  0.00000000000E+00  0.45593999997E+02  0.45594000000E+02  0.51100000000E-03 0. -1.
         11   -1    0    0    0    0 -0.00000000000E+00 -0.00000000000E+00 -0.45593999997E+02  0.45594000000E+02  0.51100000000E-03 0.  1.
    9900012    2    1    2    0    0 -0.29239501168E+01  0.13239846888E+02  0.41228388252E+02  0.47787273880E+02  0.20000012929E+02 0.  0.
        -12    1    1    2    0    0  0.29239501168E+01 -0.13239846888E+02 -0.41228388252E+02  0.43400726120E+02  0.00000000000E+00 0.  1.
         11    1    3    3    0    0  0.33538588539E+01  0.25503014851E+01  0.40823686003E+01  0.58666975827E+01  0.51100000000E-03 0. -1.
        -11    1    3    3    0    0 -0.12280614444E+01 -0.38458246705E+01  0.73450057105E+01  0.83813848173E+01  0.51100000000E-03 0.  1.
         12    1    3    3    0    0 -0.50497475263E+01  0.14535370073E+02  0.29801013941E+02  0.33539191480E+02  0.00000000000E+00 0. -1.
</event>
<event>
 7    1  0.3807360E-011  0.4778727E+02  0.7816164E-02  0.1312668E+00
        -11   -1    0    0    0    0  0.00000000000E+00  0.00000000000E+00  0.45593999997E+02  0.45594000000E+02  0.51100000000E-03 0. -1.
         11   -1    0    0    0    0 -0.00000000000E+00 -0.00000000000E+00 -0.45593999997E+02  0.45594000000E+02  0.51100000000E-03 0.  1.
    9900012    2    1    2    0    0 -0.12446924060E+02 -0.12428920520E+02 -0.39676434085E+02  0.47787269528E+02  0.19999993084E+02 0.  0.
         12    1    1    2    0    0  0.12446924060E+02  0.12428920520E+02  0.39676434085E+02  0.43400730472E+02  0.00000000000E+00 0. -1.
         11    1    3    3    0    0 -0.50113374752E+01 -0.42691502002E+01 -0.24566275472E+02  0.25433069763E+02  0.51100000000E-03 0.  1.
        -11    1    3    3    0    0  0.29543641371E+01  0.63754646760E-01 -0.13417765254E+01  0.32454116249E+01  0.51100000000E-03 0. -1.
         12    1    3    3    0    0 -0.10389950722E+02 -0.82235249662E+01 -0.13768382087E+02  0.19108788140E+02  0.00000000000E+00 0. -1.
</event>
<event>
 7    1  0.3807360E-011  0.4778727E+02  0.7816164E-02  0.1312668E+00
        -11   -1    0    0    0    0  0.00000000000E+00  0.00000000000E+00  0.45593999997E+02  0.45594000000E+02  0.51100000000E-03 0. -1.
         11   -1    0    0    0    0 -0.00000000000E+00 -0.00000000000E+00 -0.45593999997E+02  0.45594000000E+02  0.51100000000E-03 0.  1.
    9900012    2    1    2    0    0 -0.13123434792E+02  0.39105950624E+01 -0.41183805098E+02  0.47787273084E+02  0.20000009298E+02 0.  0.
         12    1    1    2    0    0  0.13123434792E+02 -0.39105950624E+01  0.41183805098E+02  0.43400726916E+02  0.00000000000E+00 0. -1.
         11    1    3    3    0    0  0.26903261413E+01 -0.19062806623E+01 -0.39297934878E+01  0.51298184985E+01  0.51100000000E-03 0. -1.
        -11    1    3    3    0    0 -0.86264977844E+01  0.80449498631E+00 -0.30170772428E+02  0.31390112860E+02  0.51100000000E-03 0.  1.
        -12    1    3    3    0    0 -0.71872631487E+01  0.50123807384E+01 -0.70832391828E+01  0.11267341725E+02  0.00000000000E+00 0.  1.
</event>
<event>
 7    1  0.3807360E-011  0.4778726E+02  0.7816164E-02  0.1312668E+00
        -11   -1    0    0    0    0  0.00000000000E+00  0.00000000000E+00  0.45593999997E+02  0.45594000000E+02  0.51100000000E-03 0. -1.
         11   -1    0    0    0    0 -0.00000000000E+00 -0.00000000000E+00 -0.45593999997E+02  0.45594000000E+02  0.51100000000E-03 0.  1.
    9900012    2    1    2    0    0 -0.73874885621E+01  0.15977660013E+02 -0.39670693379E+02  0.47787256689E+02  0.19999934548E+02 0.  0.
         12    1    1    2    0    0  0.73874885621E+01 -0.15977660013E+02  0.39670693379E+02  0.43400743311E+02  0.00000000000E+00 0. -1.
         11    1    3    3    0    0  0.47410939896E+01  0.10383239980E+02 -0.10216489270E+02  0.15318821690E+02  0.51100000000E-03 0. -1.
        -11    1    3    3    0    0 -0.50768938436E+01  0.37135338611E+01 -0.15325057815E+02  0.16565705000E+02  0.51100000000E-03 0.  1.
         12    1    3    3    0    0 -0.70516887081E+01  0.18808861715E+01 -0.14129146295E+02  0.15902730000E+02  0.00000000000E+00 0. -1.
</event>
<event>
 7    1  0.3807360E-011  0.4778727E+02  0.7816164E-02  0.1312668E+00
        -11   -1    0    0    0    0  0.00000000000E+00  0.00000000000E+00  0.45593999997E+02  0.45594000000E+02  0.51100000000E-03 0. -1.
         11   -1    0    0    0    0 -0.00000000000E+00 -0.00000000000E+00 -0.45593999997E+02  0.45594000000E+02  0.51100000000E-03 0.  1.
    9900012    2    1    2    0    0  0.26825084645E+02  0.33013780312E+02 -0.86097814219E+01  0.47787271978E+02  0.20000004255E+02 0.  0.
         12    1    1    2    0    0 -0.26825084645E+02 -0.33013780312E+02  0.86097814219E+01  0.43400728022E+02  0.00000000000E+00 0. -1.
         11    1    3    3    0    0  0.22362900607E+02  0.29501002198E+02 -0.80639292306E+01  0.37887140419E+02  0.51100000000E-03 0. -1.
        -11    1    3    3    0    0  0.43278626944E+01  0.13686651481E+01 -0.38547093671E+01  0.59550335310E+01  0.51100000000E-03 0.  1.
         12    1    3    3    0    0  0.13432134363E+00  0.21441129666E+01  0.33088571758E+01  0.39450980276E+01  0.00000000000E+00 0. -1.
</event>
<event>
 7    1  0.3807360E-011  0.4778727E+02  0.7816164E-02  0.1312668E+00
        -11   -1    0    0    0    0  0.00000000000E+00  0.00000000000E+00  0.45593999997E+02  0.45594000000E+02  0.51100000000E-03 0. -1.
         11   -1    0    0    0    0 -0.00000000000E+00 -0.00000000000E+00 -0.45593999997E+02  0.45594000000E+02  0.51100000000E-03 0.  1.
    9900012    2    1    2    0    0 -0.18319434627E+02  0.23892596041E+02  0.31259645320E+02  0.47787271248E+02  0.20000000929E+02 0.  0.
        -12    1    1    2    0    0  0.18319434627E+02 -0.23892596041E+02 -0.31259645320E+02  0.43400728752E+02  0.00000000000E+00 0.  1.
         11    1    3    3    0    0 -0.66554168630E+01  0.25296050415E+01  0.66075072529E+01  0.97135280740E+01  0.51100000000E-03 0. -1.
        -11    1    3    3    0    0 -0.10692664313E+01  0.13029113542E+02  0.44936971442E+01  0.13823691427E+02  0.51100000000E-03 0.  1.
         12    1    3    3    0    0 -0.10594751333E+02  0.83338774574E+01  0.20158440923E+02  0.24250051747E+02  0.00000000000E+00 0. -1.
</event>
<event>
 7    1  0.3807360E-011  0.4778727E+02  0.7816164E-02  0.1312668E+00
        -11   -1    0    0    0    0  0.00000000000E+00  0.00000000000E+00  0.45593999997E+02  0.45594000000E+02  0.51100000000E-03 0.  1.
         11   -1    0    0    0    0 -0.00000000000E+00 -0.00000000000E+00 -0.45593999997E+02  0.45594000000E+02  0.51100000000E-03 0. -1.
    9900012    2    1    2    0    0 -0.13009885998E+02 -0.38998493856E+01  0.41220833185E+02  0.47787273654E+02  0.20000011897E+02 0.  0.
        -12    1    1    2    0    0  0.13009885998E+02  0.38998493856E+01 -0.41220833185E+02  0.43400726346E+02  0.00000000000E+00 0.  1.
         11    1    3    3    0    0 -0.12017768769E+02  0.55602373468E+00  0.32621754984E+02  0.34769452499E+02  0.51100000000E-03 0. -1.
        -11    1    3    3    0    0  0.21263636175E+01 -0.23283838014E+01  0.86871579445E+01  0.92417263957E+01  0.51100000000E-03 0.  1.
         12    1    3    3    0    0 -0.31184808463E+01 -0.21274893190E+01 -0.88079742903E-01  0.37760947594E+01  0.00000000000E+00 0. -1.
</event>
<event>
 7    1  0.3807360E-011  0.4778726E+02  0.7816164E-02  0.1312668E+00
        -11   -1    0    0    0    0  0.00000000000E+00  0.00000000000E+00  0.45593999997E+02  0.45594000000E+02  0.51100000000E-03 0. -1.
         11   -1    0    0    0    0 -0.00000000000E+00 -0.00000000000E+00 -0.45593999997E+02  0.45594000000E+02  0.51100000000E-03 0.  1.
    9900012    2    1    2    0    0 -0.21828327297E+02  0.33679554501E+02  0.16517758794E+02  0.47787255542E+02  0.19999929317E+02 0.  0.
        -12    1    1    2    0    0  0.21828327297E+02 -0.33679554501E+02 -0.16517758794E+02  0.43400744458E+02  0.00000000000E+00 0.  1.
         11    1    3    3    0    0 -0.47628411395E+00  0.89565636690E+01  0.11181109378E+02  0.14334018505E+02  0.51100000000E-03 0. -1.
        -11    1    3    3    0    0 -0.85564139963E+01  0.13386324606E+02  0.34163387489E+01  0.16250454690E+02  0.51100000000E-03 0.  1.
         12    1    3    3    0    0 -0.12795629187E+02  0.11336666226E+02  0.19203106665E+01  0.17202782347E+02  0.00000000000E+00 0. -1.
</event>
<event>
 7    1  0.3807360E-011  0.4778727E+02  0.7816164E-02  0.1312668E+00
        -11   -1    0    0    0    0  0.00000000000E+00  0.00000000000E+00  0.45593999997E+02  0.45594000000E+02  0.51100000000E-03 0. -1.
         11   -1    0    0    0    0 -0.00000000000E+00 -0.00000000000E+00 -0.45593999997E+02  0.45594000000E+02  0.51100000000E-03 0.  1.
    9900012    2    1    2    0    0 -0.24739796074E+02 -0.40728836713E+01  0.35425661667E+02  0.47787269641E+02  0.19999993599E+02 0.  0.
        -12    1    1    2    0    0  0.24739796074E+02  0.40728836713E+01 -0.35425661667E+02  0.43400730359E+02  0.00000000000E+00 0.  1.
         11    1    3    3    0    0 -0.18086958394E+02 -0.42865730613E+01  0.18815189794E+02  0.26448518669E+02  0.51100000000E-03 0. -1.
        -11    1    3    3    0    0 -0.57587087996E+00 -0.51703890178E+01  0.54139881521E+01  0.75083831707E+01  0.51100000000E-03 0.  1.
        -12    1    3    3    0    0 -0.60769668006E+01  0.53840784077E+01  0.11196483721E+02  0.13830367801E+02  0.00000000000E+00 0.  1.
</event>
<event>
 7    1  0.3807360E-011  0.4778727E+02  0.7816164E-02  0.1312668E+00
        -11   -1    0    0    0    0  0.00000000000E+00  0.00000000000E+00  0.45593999997E+02  0.45594000000E+02  0.51100000000E-03 0. -1.
         11   -1    0    0    0    0 -0.00000000000E+00 -0.00000000000E+00 -0.45593999997E+02  0.45594000000E+02  0.51100000000E-03 0.  1.
    9900012    2    1    2    0    0 -0.12189463113E+02 -0.28974600786E+01 -0.41552917555E+02  0.47787271397E+02  0.20000001609E+02 0.  0.
         12    1    1    2    0    0  0.12189463113E+02  0.28974600786E+01  0.41552917555E+02  0.43400728603E+02  0.00000000000E+00 0. -1.
         11    1    3    3    0    0 -0.85987541034E+01  0.23973506596E+01 -0.80171330093E+01  0.11998345064E+02  0.51100000000E-03 0. -1.
        -11    1    3    3    0    0 -0.38896858641E+01  0.71872480854E+00 -0.25185933217E+02  0.25494655396E+02  0.51100000000E-03 0.  1.
        -12    1    3    3    0    0  0.29897685470E+00 -0.60135355467E+01 -0.83498513289E+01  0.10294270938E+02  0.00000000000E+00 0.  1.
</event>
<event>
 7    1  0.3807360E-011  0.4778726E+02  0.7816164E-02  0.1312668E+00
        -11   -1    0    0    0    0  0.00000000000E+00  0.00000000000E+00  0.45593999997E+02  0.45594000000E+02  0.51100000000E-03 0. -1.
         11   -1    0    0    0    0 -0.00000000000E+00 -0.00000000000E+00 -0.45593999997E+02  0.45594000000E+02  0.51100000000E-03 0.  1.
    9900012    2    1    2    0    0  0.11471709198E+01  0.22674798055E+02  0.36988669615E+02  0.47787260976E+02  0.19999954094E+02 0.  0.
        -12    1    1    2    0    0 -0.11471709198E+01 -0.22674798055E+02 -0.36988669615E+02  0.43400739024E+02  0.00000000000E+00 0.  1.
         11    1    3    3    0    0  0.63515505339E+01  0.67133702197E+01  0.91608993936E+01  0.13012824899E+02  0.51100000000E-03 0.  1.
        -11    1    3    3    0    0  0.40954738764E+00  0.83156676865E+01  0.42238330040E+01  0.93358890118E+01  0.51100000000E-03 0. -1.
        -12    1    3    3    0    0 -0.56139270018E+01  0.76457601487E+01  0.23603937217E+02  0.25438547065E+02  0.00000000000E+00 0.  1.
</event>
<event>
 7    1  0.3807360E-011  0.4778727E+02  0.7816164E-02  0.1312668E+00
        -11   -1    0    0    0    0  0.00000000000E+00  0.00000000000E+00  0.45593999997E+02  0.45594000000E+02  0.51100000000E-03 0. -1.
         11   -1    0    0    0    0 -0.00000000000E+00 -0.00000000000E+00 -0.45593999997E+02  0.45594000000E+02  0.51100000000E-03 0.  1.
    9900012    2    1    2    0    0 -0.71358111781E+01  0.40531381455E+02  0.13780805090E+02  0.47787271058E+02  0.20000000061E+02 0.  0.
        -12    1    1    2    0    0  0.71358111781E+01 -0.40531381455E+02 -0.13780805090E+02  0.43400728942E+02  0.00000000000E+00 0.  1.
         11    1    3    3    0    0  0.13496351162E+01  0.26294615176E+02  0.59741079865E+00  0.26336005812E+02  0.51100000000E-03 0. -1.
        -11    1    3    3    0    0 -0.43055375267E+01  0.10333725119E+02  0.90427474983E+01  0.14390789096E+02  0.51100000000E-03 0.  1.
        -12    1    3    3    0    0 -0.41799087676E+01  0.39030411593E+01  0.41406467928E+01  0.70604761496E+01  0.00000000000E+00 0.  1.
</event>
<event>
 7    1  0.3807360E-011  0.4778727E+02  0.7816164E-02  0.1312668E+00
        -11   -1    0    0    0    0  0.00000000000E+00  0.00000000000E+00  0.45593999997E+02  0.45594000000E+02  0.51100000000E-03 0.  1.
         11   -1    0    0    0    0 -0.00000000000E+00 -0.00000000000E+00 -0.45593999997E+02  0.45594000000E+02  0.51100000000E-03 0. -1.
    9900012    2    1    2    0    0 -0.92976769567E+01 -0.37907261809E+02  0.18979355431E+02  0.47787271582E+02  0.20000002451E+02 0.  0.
         12    1    1    2    0    0  0.92976769567E+01  0.37907261809E+02 -0.18979355431E+02  0.43400728418E+02  0.00000000000E+00 0. -1.
         11    1    3    3    0    0 -0.51113553823E+01  0.47819049201E+00  0.17243931450E+01  0.54155472457E+01  0.51100000000E-03 0. -1.
        -11    1    3    3    0    0 -0.90150692790E-01 -0.11390806769E+02  0.47892415753E+01  0.12356999681E+02  0.51100000000E-03 0.  1.
         12    1    3    3    0    0 -0.40961708816E+01 -0.26994645531E+02  0.12465720711E+02  0.30014724655E+02  0.00000000000E+00 0. -1.
</event>
<event>
 7    1  0.3807360E-011  0.4778727E+02  0.7816164E-02  0.1312668E+00
        -11   -1    0    0    0    0  0.00000000000E+00  0.00000000000E+00  0.45593999997E+02  0.45594000000E+02  0.51100000000E-03 0. -1.
         11   -1    0    0    0    0 -0.00000000000E+00 -0.00000000000E+00 -0.45593999997E+02  0.45594000000E+02  0.51100000000E-03 0.  1.
    9900012    2    1    2    0    0  0.74851727281E+01  0.65854007011E+01  0.42240122484E+02  0.47787271197E+02  0.20000000695E+02 0.  0.
        -12    1    1    2    0    0 -0.74851727281E+01 -0.65854007011E+01 -0.42240122484E+02  0.43400728803E+02  0.00000000000E+00 0.  1.
         11    1    3    3    0    0 -0.23150707713E+01 -0.36078876646E-02  0.64690614059E+01  0.68708312036E+01  0.51100000000E-03 0. -1.
        -11    1    3    3    0    0 -0.16692651826E+01  0.24624085607E+00 -0.94308241246E+00  0.19329990964E+01  0.51100000000E-03 0.  1.
         12    1    3    3    0    0  0.11469508682E+02  0.63427677327E+01  0.36714143491E+02  0.38983440897E+02  0.00000000000E+00 0. -1.
</event>
<event>
 7    1  0.3807360E-011  0.4778727E+02  0.7816164E-02  0.1312668E+00
        -11   -1    0    0    0    0  0.00000000000E+00  0.00000000000E+00  0.45593999997E+02  0.45594000000E+02  0.51100000000E-03 0. -1.
         11   -1    0    0    0    0 -0.00000000000E+00 -0.00000000000E+00 -0.45593999997E+02  0.45594000000E+02  0.51100000000E-03 0.  1.
    9900012    2    1    2    0    0  0.22236767608E+01 -0.17274708333E+02 -0.39752521049E+02  0.47787271710E+02  0.20000003036E+02 0.  0.
         12    1    1    2    0    0 -0.22236767608E+01  0.17274708333E+02  0.39752521049E+02  0.43400728290E+02  0.00000000000E+00 0. -1.
         11    1    3    3    0    0 -0.11819240404E+01  0.27265245763E+01 -0.95454766792E+00  0.31212244735E+01  0.51100000000E-03 0. -1.
        -11    1    3    3    0    0  0.65113419520E+00 -0.11542078450E+02 -0.13098793275E+02  0.17470602056E+02  0.51100000000E-03 0.  1.
        -12    1    3    3    0    0  0.27544666060E+01 -0.84591544600E+01 -0.25699180106E+02  0.27195445181E+02  0.00000000000E+00 0.  1.
</event>
<event>
 7    1  0.3807360E-011  0.4778728E+02  0.7816164E-02  0.1312668E+00
        -11   -1    0    0    0    0  0.00000000000E+00  0.00000000000E+00  0.45593999997E+02  0.45594000000E+02  0.51100000000E-03 0. -1.
         11   -1    0    0    0    0 -0.00000000000E+00 -0.00000000000E+00 -0.45593999997E+02  0.45594000000E+02  0.51100000000E-03 0.  1.
    9900012    2    1    2    0    0  0.13105584377E+01  0.76503760507E+01  0.42701015598E+02  0.47787279382E+02  0.20000038012E+02 0.  0.
        -12    1    1    2    0    0 -0.13105584377E+01 -0.76503760507E+01 -0.42701015598E+02  0.43400720618E+02  0.00000000000E+00 0.  1.
         11    1    3    3    0    0  0.42012568805E+01  0.38612899670E+01  0.25829750636E+02  0.26452526113E+02  0.51100000000E-03 0. -1.
        -11    1    3    3    0    0 -0.13936098591E+01 -0.43867773218E+01  0.75818290674E+01  0.88696164505E+01  0.51100000000E-03 0.  1.
        -12    1    3    3    0    0 -0.14970885837E+01  0.81758634056E+01  0.92894358939E+01  0.12465136818E+02  0.00000000000E+00 0.  1.
</event>
<event>
 7    1  0.3807360E-011  0.4778727E+02  0.7816164E-02  0.1312668E+00
        -11   -1    0    0    0    0  0.00000000000E+00  0.00000000000E+00  0.45593999997E+02  0.45594000000E+02  0.51100000000E-03 0. -1.
         11   -1    0    0    0    0 -0.00000000000E+00 -0.00000000000E+00 -0.45593999997E+02  0.45594000000E+02  0.51100000000E-03 0.  1.
    9900012    2    1    2    0    0  0.65288167994E+01  0.24070616650E+02 -0.35519056377E+02  0.47787269584E+02  0.19999993342E+02 0.  0.
         12    1    1    2    0    0 -0.65288167994E+01 -0.24070616650E+02  0.35519056377E+02  0.43400730416E+02  0.00000000000E+00 0. -1.
         11    1    3    3    0    0 -0.25050490605E+01  0.24166364590E+00 -0.76707512921E+00  0.26309839658E+01  0.51100000000E-03 0. -1.
        -11    1    3    3    0    0  0.82313019254E+01  0.14037733086E+02 -0.30251085629E+02  0.34350261477E+02  0.51100000000E-03 0.  1.
         12    1    3    3    0    0  0.80256393458E+00  0.97912199190E+01 -0.45008956188E+01  0.10806024141E+02  0.00000000000E+00 0. -1.
</event>
<event>
 7    1  0.3807360E-011  0.4778728E+02  0.7816164E-02  0.1312668E+00
        -11   -1    0    0    0    0  0.00000000000E+00  0.00000000000E+00  0.45593999997E+02  0.45594000000E+02  0.51100000000E-03 0.  1.
         11   -1    0    0    0    0 -0.00000000000E+00 -0.00000000000E+00 -0.45593999997E+02  0.45594000000E+02  0.51100000000E-03 0. -1.
    9900012    2    1    2    0    0  0.40460536712E+02 -0.14377806242E+01 -0.15636505414E+02  0.47787279433E+02  0.20000038247E+02 0.  0.
         12    1    1    2    0    0 -0.40460536712E+02  0.14377806242E+01  0.15636505414E+02  0.43400720567E+02  0.00000000000E+00 0. -1.
         11    1    3    3    0    0  0.24979545823E+01 -0.39337865792E+01 -0.34098014679E+00  0.46723357828E+01  0.51100000000E-03 0. -1.
        -11    1    3    3    0    0  0.36656276248E+02  0.65127797572E+00 -0.16873063630E+02  0.40358481486E+02  0.51100000000E-03 0.  1.
        -12    1    3    3    0    0  0.13063058821E+01  0.18447279792E+01  0.15775383626E+01  0.27564621638E+01  0.00000000000E+00 0.  1.
</event>
<event>
 7    1  0.3807360E-011  0.4778727E+02  0.7816164E-02  0.1312668E+00
        -11   -1    0    0    0    0  0.00000000000E+00  0.00000000000E+00  0.45593999997E+02  0.45594000000E+02  0.51100000000E-03 0. -1.
         11   -1    0    0    0    0 -0.00000000000E+00 -0.00000000000E+00 -0.45593999997E+02  0.45594000000E+02  0.51100000000E-03 0.  1.
    9900012    2    1    2    0    0  0.35144744953E+02  0.11122926921E+02  0.22907438675E+02  0.47787270193E+02  0.19999996118E+02 0.  0.
        -12    1    1    2    0    0 -0.35144744953E+02 -0.11122926921E+02 -0.22907438675E+02  0.43400729807E+02  0.00000000000E+00 0.  1.
         11    1    3    3    0    0  0.17801803706E+02  0.47161939663E+01  0.32758954298E+01  0.18705031190E+02  0.51100000000E-03 0.  1.
        -11    1    3    3    0    0  0.13682365086E+02 -0.31193843696E+00  0.14030972737E+02  0.19600321838E+02  0.51100000000E-03 0. -1.
         12    1    3    3    0    0  0.36605761617E+01  0.67186713916E+01  0.56005705084E+01  0.94819171650E+01  0.00000000000E+00 0. -1.
</event>
<event>
 7    1  0.3807360E-011  0.4778728E+02  0.7816164E-02  0.1312668E+00
        -11   -1    0    0    0    0  0.00000000000E+00  0.00000000000E+00  0.45593999997E+02  0.45594000000E+02  0.51100000000E-03 0. -1.
         11   -1    0    0    0    0 -0.00000000000E+00 -0.00000000000E+00 -0.45593999997E+02  0.45594000000E+02  0.51100000000E-03 0.  1.
    9900012    2    1    2    0    0  0.12810774285E+02  0.36784485546E+01 -0.41303461883E+02  0.47787275524E+02  0.20000020422E+02 0.  0.
         12    1    1    2    0    0 -0.12810774285E+02 -0.36784485546E+01  0.41303461883E+02  0.43400724476E+02  0.00000000000E+00 0. -1.
         11    1    3    3    0    0  0.25907877674E+01 -0.16015305149E+01 -0.14193459796E+02  0.14516589906E+02  0.51100000000E-03 0.  1.
        -11    1    3    3    0    0  0.37035428995E-01  0.85812594931E+01 -0.12221684886E+02  0.14933484785E+02  0.51100000000E-03 0. -1.
         12    1    3    3    0    0  0.10182951088E+02 -0.33012804236E+01 -0.14888317202E+02  0.18337200833E+02  0.00000000000E+00 0. -1.
</event>
<event>
 7    1  0.3807360E-011  0.4778730E+02  0.7816164E-02  0.1312668E+00
        -11   -1    0    0    0    0  0.00000000000E+00  0.00000000000E+00  0.45593999997E+02  0.45594000000E+02  0.51100000000E-03 0. -1.
         11   -1    0    0    0    0 -0.00000000000E+00 -0.00000000000E+00 -0.45593999997E+02  0.45594000000E+02  0.51100000000E-03 0.  1.
    9900012    2    1    2    0    0 -0.34498953248E+01 -0.28986625883E+02  0.32116885012E+02  0.47787302302E+02  0.20000142516E+02 0.  0.
        -12    1    1    2    0    0  0.34498953248E+01  0.28986625883E+02 -0.32116885012E+02  0.43400697698E+02  0.00000000000E+00 0.  1.
         11    1    3    3    0    0 -0.54854406766E+01 -0.14873550520E+02  0.11844140258E+02  0.19788790342E+02  0.51100000000E-03 0.  1.
        -11    1    3    3    0    0 -0.47906825315E+01 -0.23512273518E+01  0.83674638305E+01  0.99243821164E+01  0.51100000000E-03 0. -1.
        -12    1    3    3    0    0  0.68262278833E+01 -0.11761848011E+02  0.11905280923E+02  0.18074129844E+02  0.00000000000E+00 0.  1.
</event>
<event>
 7    1  0.3807360E-011  0.4778727E+02  0.7816164E-02  0.1312668E+00
        -11   -1    0    0    0    0  0.00000000000E+00  0.00000000000E+00  0.45593999997E+02  0.45594000000E+02  0.51100000000E-03 0. -1.
         11   -1    0    0    0    0 -0.00000000000E+00 -0.00000000000E+00 -0.45593999997E+02  0.45594000000E+02  0.51100000000E-03 0.  1.
    9900012    2    1    2    0    0 -0.20299838548E+02  0.13091054958E+02  0.36057786462E+02  0.47787272707E+02  0.20000007581E+02 0.  0.
        -12    1    1    2    0    0  0.20299838548E+02 -0.13091054958E+02 -0.36057786462E+02  0.43400727293E+02  0.00000000000E+00 0.  1.
         11    1    3    3    0    0  0.15419480790E+01  0.24632039430E-01  0.50739509398E+01  0.53031301150E+01  0.51100000000E-03 0.  1.
        -11    1    3    3    0    0 -0.18188730633E+02  0.10675614255E+02  0.31685042034E+02  0.38062324557E+02  0.51100000000E-03 0. -1.
         12    1    3    3    0    0 -0.36530559941E+01  0.23908086643E+01 -0.70120651124E+00  0.44218180352E+01  0.00000000000E+00 0. -1.
</event>
<event>
 7    1  0.5603562E-011  0.4778726E+02  0.7816164E-02  0.1312668E+00
        -11   -1    0    0    0    0  0.00000000000E+00  0.00000000000E+00  0.45593999997E+02  0.45594000000E+02  0.51100000000E-03 0.  1.
         11   -1    0    0    0    0 -0.00000000000E+00 -0.00000000000E+00 -0.45593999997E+02  0.45594000000E+02  0.51100000000E-03 0. -1.
    9900012    2    1    2    0    0 -0.11424133756E+02  0.31395691197E+02 -0.27702415809E+02  0.47787261533E+02  0.19999956634E+02 0.  0.
         12    1    1    2    0    0  0.11424133756E+02 -0.31395691197E+02  0.27702415809E+02  0.43400738467E+02  0.00000000000E+00 0. -1.
         11    1    3    3    0    0 -0.85068731618E+01  0.53271812968E+01 -0.11283504474E+02  0.15101762315E+02  0.51100000000E-03 0. -1.
        -11    1    3    3    0    0 -0.68127043245E+01  0.18978751989E+02 -0.11354705067E+02  0.23141635523E+02  0.51100000000E-03 0.  1.
         12    1    3    3    0    0  0.38954437300E+01  0.70897579112E+01 -0.50642062683E+01  0.95438636946E+01  0.00000000000E+00 0. -1.
</event>
<event>
 7    1  0.3807360E-011  0.4778727E+02  0.7816164E-02  0.1312668E+00
        -11   -1    0    0    0    0  0.00000000000E+00  0.00000000000E+00  0.45593999997E+02  0.45594000000E+02  0.51100000000E-03 0.  1.
         11   -1    0    0    0    0 -0.00000000000E+00 -0.00000000000E+00 -0.45593999997E+02  0.45594000000E+02  0.51100000000E-03 0. -1.
    9900012    2    1    2    0    0 -0.10847352738E+02 -0.38731561219E+02 -0.16304124944E+02  0.47787269752E+02  0.19999994105E+02 0.  0.
         12    1    1    2    0    0  0.10847352738E+02  0.38731561219E+02  0.16304124944E+02  0.43400730248E+02  0.00000000000E+00 0. -1.
         11    1    3    3    0    0 -0.61077893743E+01 -0.29624169228E+02 -0.56707718409E+01  0.30774244865E+02  0.51100000000E-03 0.  1.
        -11    1    3    3    0    0  0.13846299174E+01 -0.62908511836E+01 -0.62308786805E+01  0.89619115157E+01  0.51100000000E-03 0. -1.
         12    1    3    3    0    0 -0.61241932815E+01 -0.28165408079E+01 -0.44024744221E+01  0.80511133708E+01  0.00000000000E+00 0. -1.
</event>
<event>
 7    1  0.3807360E-011  0.4778727E+02  0.7816164E-02  0.1312668E+00
        -11   -1    0    0    0    0  0.00000000000E+00  0.00000000000E+00  0.45593999997E+02  0.45594000000E+02  0.51100000000E-03 0. -1.
         11   -1    0    0    0    0 -0.00000000000E+00 -0.00000000000E+00 -0.45593999997E+02  0.45594000000E+02  0.51100000000E-03 0.  1.
    9900012    2    1    2    0    0 -0.42380878609E+02 -0.72771435097E+01 -0.58759968460E+01  0.47787273874E+02  0.20000012899E+02 0.  0.
        -12    1    1    2    0    0  0.42380878609E+02  0.72771435097E+01  0.58759968460E+01  0.43400726126E+02  0.00000000000E+00 0.  1.
         11    1    3    3    0    0 -0.13080442686E+02 -0.87815532696E+00 -0.55956446096E+01  0.14254135417E+02  0.51100000000E-03 0. -1.
        -11    1    3    3    0    0 -0.68215494171E+01 -0.85312748725E+01 -0.74494822157E+00  0.10948567738E+02  0.51100000000E-03 0.  1.
         12    1    3    3    0    0 -0.22478886507E+02  0.21322866898E+01  0.46459598512E+00  0.22584570718E+02  0.00000000000E+00 0. -1.
</event>
<event>
 7    1  0.3807360E-011  0.4778727E+02  0.7816164E-02  0.1312668E+00
        -11   -1    0    0    0    0  0.00000000000E+00  0.00000000000E+00  0.45593999997E+02  0.45594000000E+02  0.51100000000E-03 0. -1.
         11   -1    0    0    0    0 -0.00000000000E+00 -0.00000000000E+00 -0.45593999997E+02  0.45594000000E+02  0.51100000000E-03 0.  1.
    9900012    2    1    2    0    0  0.32270116857E+02  0.68435678958E+01  0.28203340741E+02  0.47787270831E+02  0.19999999026E+02 0.  0.
        -12    1    1    2    0    0 -0.32270116857E+02 -0.68435678958E+01 -0.28203340741E+02  0.43400729169E+02  0.00000000000E+00 0.  1.
         11    1    3    3    0    0  0.66312762591E+01  0.11289508896E+01  0.11645679052E+02  0.13448799046E+02  0.51100000000E-03 0.  1.
        -11    1    3    3    0    0  0.14898244742E+02  0.10400470959E+02  0.11949601119E+02  0.21746734461E+02  0.51100000000E-03 0. -1.
         12    1    3    3    0    0  0.10740595856E+02 -0.46858539534E+01  0.46080605698E+01  0.12591737323E+02  0.00000000000E+00 0. -1.
</event>
<event>
 7    1  0.3807360E-011  0.4778727E+02  0.7816164E-02  0.1312668E+00
        -11   -1    0    0    0    0  0.00000000000E+00  0.00000000000E+00  0.45593999997E+02  0.45594000000E+02  0.51100000000E-03 0. -1.
         11   -1    0    0    0    0 -0.00000000000E+00 -0.00000000000E+00 -0.45593999997E+02  0.45594000000E+02  0.51100000000E-03 0.  1.
    9900012    2    1    2    0    0 -0.62292422600E+01 -0.37775657972E+02 -0.20440630917E+02  0.47787272049E+02  0.20000004581E+02 0.  0.
         12    1    1    2    0    0  0.62292422600E+01  0.37775657972E+02  0.20440630917E+02  0.43400727951E+02  0.00000000000E+00 0. -1.
         11    1    3    3    0    0 -0.29545405757E+01 -0.64672016475E+01  0.22219294503E+01  0.74492266650E+01  0.51100000000E-03 0. -1.
        -11    1    3    3    0    0  0.40415322366E+01 -0.96521571840E+01 -0.81246751918E+01  0.13247960913E+02  0.51100000000E-03 0.  1.
        -12    1    3    3    0    0 -0.73162339208E+01 -0.21656299141E+02 -0.14537885176E+02  0.27090084471E+02  0.00000000000E+00 0.  1.
</event>
<event>
 7    1  0.3807360E-011  0.4778727E+02  0.7816164E-02  0.1312668E+00
        -11   -1    0    0    0    0  0.00000000000E+00  0.00000000000E+00  0.45593999997E+02  0.45594000000E+02  0.51100000000E-03 0. -1.
         11   -1    0    0    0    0 -0.00000000000E+00 -0.00000000000E+00 -0.45593999997E+02  0.45594000000E+02  0.51100000000E-03 0.  1.
    9900012    2    1    2    0    0  0.24272945136E+02  0.94254328086E+01  0.34721881610E+02  0.47787266000E+02  0.19999976999E+02 0.  0.
        -12    1    1    2    0    0 -0.24272945136E+02 -0.94254328086E+01 -0.34721881610E+02  0.43400734000E+02  0.00000000000E+00 0.  1.
         11    1    3    3    0    0  0.11740054135E+02  0.52588191669E+01  0.10857656794E+02  0.16833679379E+02  0.51100000000E-03 0. -1.
        -11    1    3    3    0    0  0.55890957409E+00 -0.44975007642E+01  0.32006310689E+01  0.55483270034E+01  0.51100000000E-03 0.  1.
        -12    1    3    3    0    0  0.11973981427E+02  0.86641144060E+01  0.20663593747E+02  0.25405259617E+02  0.00000000000E+00 0.  1.
</event>
<event>
 7    1  0.3807360E-011  0.4778728E+02  0.7816164E-02  0.1312668E+00
        -11   -1    0    0    0    0  0.00000000000E+00  0.00000000000E+00  0.45593999997E+02  0.45594000000E+02  0.51100000000E-03 0. -1.
         11   -1    0    0    0    0 -0.00000000000E+00 -0.00000000000E+00 -0.45593999997E+02  0.45594000000E+02  0.51100000000E-03 0.  1.
    9900012    2    1    2    0    0  0.11316703427E+02  0.22628887934E+02  0.35263131259E+02  0.47787276829E+02  0.20000026375E+02 0.  0.
        -12    1    1    2    0    0 -0.11316703427E+02 -0.22628887934E+02 -0.35263131259E+02  0.43400723171E+02  0.00000000000E+00 0.  1.
         11    1    3    3    0    0  0.17256177102E+01  0.22036869816E+01 -0.85828491400E+00  0.29275665748E+01  0.51100000000E-03 0.  1.
        -11    1    3    3    0    0  0.98607482896E+01  0.21684525690E+02  0.28564629185E+02  0.37193965263E+02  0.51100000000E-03 0. -1.
         12    1    3    3    0    0 -0.26966257281E+00 -0.12593247379E+01  0.75567869881E+01  0.76657449920E+01  0.00000000000E+00 0. -1.
</event>
<event>
 7    1  0.3807360E-011  0.4778727E+02  0.7816164E-02  0.1312668E+00
        -11   -1    0    0    0    0  0.00000000000E+00  0.00000000000E+00  0.45593999997E+02  0.45594000000E+02  0.51100000000E-03 0. -1.
         11   -1    0    0    0    0 -0.00000000000E+00 -0.00000000000E+00 -0.45593999997E+02  0.45594000000E+02  0.51100000000E-03 0.  1.
    9900012    2    1    2    0    0 -0.11878954064E+02  0.13174299745E+02 -0.39609995010E+02  0.47787269268E+02  0.19999991899E+02 0.  0.
         12    1    1    2    0    0  0.11878954064E+02 -0.13174299745E+02  0.39609995010E+02  0.43400730732E+02  0.00000000000E+00 0. -1.
         11    1    3    3    0    0 -0.38250503292E+01  0.52645705289E+01 -0.20933942581E+02  0.21922058870E+02  0.51100000000E-03 0.  1.
        -11    1    3    3    0    0  0.14870110848E+01  0.59234026250E+01 -0.17821477153E+01  0.63619141274E+01  0.51100000000E-03 0. -1.
         12    1    3    3    0    0 -0.95409148196E+01  0.19863265916E+01 -0.16893904714E+02  0.19503296270E+02  0.00000000000E+00 0. -1.
</event>
<event>
 7    1  0.3807360E-011  0.4778728E+02  0.7816164E-02  0.1312668E+00
        -11   -1    0    0    0    0  0.00000000000E+00  0.00000000000E+00  0.45593999997E+02  0.45594000000E+02  0.51100000000E-03 0. -1.
         11   -1    0    0    0    0 -0.00000000000E+00 -0.00000000000E+00 -0.45593999997E+02  0.45594000000E+02  0.51100000000E-03 0.  1.
    9900012    2    1    2    0    0 -0.13706733952E+00  0.11823657649E+02 -0.41758888284E+02  0.47787280900E+02  0.20000044936E+02 0.  0.
         12    1    1    2    0    0  0.13706733952E+00 -0.11823657649E+02  0.41758888284E+02  0.43400719100E+02  0.00000000000E+00 0. -1.
         11    1    3    3    0    0 -0.46633675190E+01  0.15534830159E+01 -0.33924964672E+01  0.59723813207E+01  0.51100000000E-03 0. -1.
        -11    1    3    3    0    0 -0.22145560586E+00  0.75702193843E+00 -0.23631402602E+02  0.23644562039E+02  0.51100000000E-03 0.  1.
        -12    1    3    3    0    0  0.47477557854E+01  0.95131526944E+01 -0.14734989215E+02  0.18170337541E+02  0.00000000000E+00 0.  1.
</event>
<event>
 7    1  0.3807360E-011  0.4778727E+02  0.7816164E-02  0.1312668E+00
        -11   -1    0    0    0    0  0.00000000000E+00  0.00000000000E+00  0.45593999997E+02  0.45594000000E+02  0.51100000000E-03 0. -1.
         11   -1    0    0    0    0 -0.00000000000E+00 -0.00000000000E+00 -0.45593999997E+02  0.45594000000E+02  0.51100000000E-03 0.  1.
    9900012    2    1    2    0    0 -0.78770651387E+01  0.17313680255E+02  0.39010407865E+02  0.47787267276E+02  0.19999982819E+02 0.  0.
        -12    1    1    2    0    0  0.78770651387E+01 -0.17313680255E+02 -0.39010407865E+02  0.43400732724E+02  0.00000000000E+00 0.  1.
         11    1    3    3    0    0 -0.69764345925E+01  0.11639987812E+02  0.25398792178E+02  0.28796850527E+02  0.51100000000E-03 0. -1.
        -11    1    3    3    0    0 -0.41005230314E+01 -0.21844388861E+01  0.60269674474E+01  0.76098882548E+01  0.51100000000E-03 0.  1.
         12    1    3    3    0    0  0.31998924852E+01  0.78581313289E+01  0.75846482390E+01  0.11380528494E+02  0.00000000000E+00 0. -1.
</event>
<event>
 7    1  0.3807360E-011  0.4778728E+02  0.7816164E-02  0.1312668E+00
        -11   -1    0    0    0    0  0.00000000000E+00  0.00000000000E+00  0.45593999997E+02  0.45594000000E+02  0.51100000000E-03 0. -1.
         11   -1    0    0    0    0 -0.00000000000E+00 -0.00000000000E+00 -0.45593999997E+02  0.45594000000E+02  0.51100000000E-03 0.  1.
    9900012    2    1    2    0    0  0.17297928265E+02 -0.16920773663E+02  0.36029044048E+02  0.47787275137E+02  0.20000018661E+02 0.  0.
        -12    1    1    2    0    0 -0.17297928265E+02  0.16920773663E+02 -0.36029044048E+02  0.43400724863E+02  0.00000000000E+00 0.  1.
         11    1    3    3    0    0  0.24868921992E+01 -0.11309034274E+02  0.25192196770E+02  0.27725902463E+02  0.51100000000E-03 0. -1.
        -11    1    3    3    0    0  0.74883515456E+01 -0.58867878291E+01  0.67102653210E+01  0.11651495215E+02  0.51100000000E-03 0.  1.
         12    1    3    3    0    0  0.73226845202E+01  0.27504844092E+00  0.41265819575E+01  0.84098774592E+01  0.00000000000E+00 0. -1.
</event>
<event>
 7    1  0.3807360E-011  0.4778727E+02  0.7816164E-02  0.1312668E+00
        -11   -1    0    0    0    0  0.00000000000E+00  0.00000000000E+00  0.45593999997E+02  0.45594000000E+02  0.51100000000E-03 0. -1.
         11   -1    0    0    0    0 -0.00000000000E+00 -0.00000000000E+00 -0.45593999997E+02  0.45594000000E+02  0.51100000000E-03 0.  1.
    9900012    2    1    2    0    0 -0.39621540434E+01 -0.89505816834E+01 -0.42282520788E+02  0.47787272571E+02  0.20000006962E+02 0.  0.
         12    1    1    2    0    0  0.39621540434E+01  0.89505816834E+01  0.42282520788E+02  0.43400727429E+02  0.00000000000E+00 0. -1.
         11    1    3    3    0    0  0.19407896649E+01  0.18840156550E+01  0.19395196466E+00  0.27117885495E+01  0.51100000000E-03 0. -1.
        -11    1    3    3    0    0  0.88856728122E+00 -0.13763462661E+01 -0.83915799578E+00  0.18406703291E+01  0.51100000000E-03 0.  1.
        -12    1    3    3    0    0 -0.67915109894E+01 -0.94582510722E+01 -0.41637314757E+02  0.43234813693E+02  0.00000000000E+00 0.  1.
</event>
<event>
 7    1  0.4082795E-011  0.4778727E+02  0.7816164E-02  0.1312668E+00
        -11   -1    0    0    0    0  0.00000000000E+00  0.00000000000E+00  0.45593999997E+02  0.45594000000E+02  0.51100000000E-03 0. -1.
         11   -1    0    0    0    0 -0.00000000000E+00 -0.00000000000E+00 -0.45593999997E+02  0.45594000000E+02  0.51100000000E-03 0.  1.
    9900012    2    1    2    0    0  0.47647476172E+00 -0.33024414032E+02 -0.28156426049E+02  0.47787270994E+02  0.19999999771E+02 0.  0.
         12    1    1    2    0    0 -0.47647476172E+00  0.33024414032E+02  0.28156426049E+02  0.43400729006E+02  0.00000000000E+00 0. -1.
         11    1    3    3    0    0  0.54790315373E+01 -0.10783206649E+01 -0.30357514287E+01  0.63559695595E+01  0.51100000000E-03 0. -1.
        -11    1    3    3    0    0 -0.10201880921E+01 -0.97549819423E+01 -0.11400906170E+02  0.15039319074E+02  0.51100000000E-03 0.  1.
         12    1    3    3    0    0 -0.39823686835E+01 -0.22191111425E+02 -0.13719768450E+02  0.26391982361E+02  0.00000000000E+00 0. -1.
</event>
<event>
 7    1  0.3807360E-011  0.4778727E+02  0.7816164E-02  0.1312668E+00
        -11   -1    0    0    0    0  0.00000000000E+00  0.00000000000E+00  0.45593999997E+02  0.45594000000E+02  0.51100000000E-03 0.  1.
         11   -1    0    0    0    0 -0.00000000000E+00 -0.00000000000E+00 -0.45593999997E+02  0.45594000000E+02  0.51100000000E-03 0. -1.
    9900012    2    1    2    0    0  0.26179718610E+01  0.36998309742E+02 -0.22536516929E+02  0.47787270792E+02  0.19999998851E+02 0.  0.
         12    1    1    2    0    0 -0.26179718610E+01 -0.36998309742E+02  0.22536516929E+02  0.43400729208E+02  0.00000000000E+00 0. -1.
         11    1    3    3    0    0 -0.33523611228E+00  0.12472041089E+02 -0.10262524596E+02  0.16154986955E+02  0.51100000000E-03 0. -1.
        -11    1    3    3    0    0  0.46612837710E+01  0.17563960468E+02 -0.90830995897E+00  0.18194650339E+02  0.51100000000E-03 0.  1.
         12    1    3    3    0    0 -0.17080757977E+01  0.69623081846E+01 -0.11365682374E+02  0.13437633498E+02  0.00000000000E+00 0. -1.
</event>
<event>
 7    1  0.3807360E-011  0.4778727E+02  0.7816164E-02  0.1312668E+00
        -11   -1    0    0    0    0  0.00000000000E+00  0.00000000000E+00  0.45593999997E+02  0.45594000000E+02  0.51100000000E-03 0. -1.
         11   -1    0    0    0    0 -0.00000000000E+00 -0.00000000000E+00 -0.45593999997E+02  0.45594000000E+02  0.51100000000E-03 0.  1.
    9900012    2    1    2    0    0 -0.11818738565E+02 -0.23455864527E+02 -0.34550882675E+02  0.47787266647E+02  0.19999979949E+02 0.  0.
         12    1    1    2    0    0  0.11818738565E+02  0.23455864527E+02  0.34550882675E+02  0.43400733353E+02  0.00000000000E+00 0. -1.
         11    1    3    3    0    0  0.20572385173E+01 -0.14786281549E+01 -0.18558340828E+01  0.31404923088E+01  0.51100000000E-03 0. -1.
        -11    1    3    3    0    0 -0.11354362043E+02 -0.19727817997E+02 -0.34090299621E+02  0.40990936423E+02  0.51100000000E-03 0.  1.
        -12    1    3    3    0    0 -0.25216150389E+01 -0.22494183750E+01  0.13952510282E+01  0.36558379151E+01  0.00000000000E+00 0.  1.
</event>
<event>
 7    1  0.3807360E-011  0.4778727E+02  0.7816164E-02  0.1312668E+00
        -11   -1    0    0    0    0  0.00000000000E+00  0.00000000000E+00  0.45593999997E+02  0.45594000000E+02  0.51100000000E-03 0. -1.
         11   -1    0    0    0    0 -0.00000000000E+00 -0.00000000000E+00 -0.45593999997E+02  0.45594000000E+02  0.51100000000E-03 0.  1.
    9900012    2    1    2    0    0 -0.87661451735E+01  0.34150602011E+02  0.25308386621E+02  0.47787270141E+02  0.19999995879E+02 0.  0.
        -12    1    1    2    0    0  0.87661451735E+01 -0.34150602011E+02 -0.25308386621E+02  0.43400729859E+02  0.00000000000E+00 0.  1.
         11    1    3    3    0    0 -0.36722473757E+01  0.24111181232E+01  0.85801080479E+01  0.96393540119E+01  0.51100000000E-03 0. -1.
        -11    1    3    3    0    0 -0.45954450804E+01  0.15097854056E+02  0.14348906593E+02  0.21329660880E+02  0.51100000000E-03 0.  1.
         12    1    3    3    0    0 -0.49845271737E+00  0.16641629833E+02  0.23793719805E+01  0.16818255249E+02  0.00000000000E+00 0. -1.
</event>
<event>
 7    1  0.3807360E-011  0.4778727E+02  0.7816164E-02  0.1312668E+00
        -11   -1    0    0    0    0  0.00000000000E+00  0.00000000000E+00  0.45593999997E+02  0.45594000000E+02  0.51100000000E-03 0. -1.
         11   -1    0    0    0    0 -0.00000000000E+00 -0.00000000000E+00 -0.45593999997E+02  0.45594000000E+02  0.51100000000E-03 0.  1.
    9900012    2    1    2    0    0  0.14327102200E+02 -0.38101695276E+02  0.15053847988E+02  0.47787269827E+02  0.19999994447E+02 0.  0.
        -12    1    1    2    0    0 -0.14327102200E+02  0.38101695276E+02 -0.15053847988E+02  0.43400730173E+02  0.00000000000E+00 0.  1.
         11    1    3    3    0    0 -0.39791388758E+00 -0.21246955611E+00  0.11392058210E-01  0.45123033399E+00  0.51100000000E-03 0. -1.
        -11    1    3    3    0    0 -0.33203032463E+01 -0.30343062265E+01  0.51924970249E+01  0.68697491612E+01  0.51100000000E-03 0.  1.
         12    1    3    3    0    0  0.18045319334E+02 -0.34854919493E+02  0.98499589045E+01  0.40466290331E+02  0.00000000000E+00 0. -1.
</event>
<event>
 7    1  0.3807360E-011  0.4778727E+02  0.7816164E-02  0.1312668E+00
        -11   -1    0    0    0    0  0.00000000000E+00  0.00000000000E+00  0.45593999997E+02  0.45594000000E+02  0.51100000000E-03 0. -1.
         11   -1    0    0    0    0 -0.00000000000E+00 -0.00000000000E+00 -0.45593999997E+02  0.45594000000E+02  0.51100000000E-03 0.  1.
    9900012    2    1    2    0    0 -0.18710966344E+02  0.25774323961E+02  0.29482318276E+02  0.47787272723E+02  0.20000007654E+02 0.  0.
        -12    1    1    2    0    0  0.18710966344E+02 -0.25774323961E+02 -0.29482318276E+02  0.43400727277E+02  0.00000000000E+00 0.  1.
         11    1    3    3    0    0 -0.10198216003E+02  0.17887103840E+02  0.18020032111E+02  0.27361901450E+02  0.51100000000E-03 0. -1.
        -11    1    3    3    0    0 -0.10859870259E+02  0.26803027146E+01  0.78968285755E+01  0.13692359420E+02  0.51100000000E-03 0.  1.
         12    1    3    3    0    0  0.23471199174E+01  0.52069174063E+01  0.35654575898E+01  0.67330118526E+01  0.00000000000E+00 0. -1.
</event>
<event>
 7    1  0.3807360E-011  0.4778727E+02  0.7816164E-02  0.1312668E+00
        -11   -1    0    0    0    0  0.00000000000E+00  0.00000000000E+00  0.45593999997E+02  0.45594000000E+02  0.51100000000E-03 0. -1.
         11   -1    0    0    0    0 -0.00000000000E+00 -0.00000000000E+00 -0.45593999997E+02  0.45594000000E+02  0.51100000000E-03 0.  1.
    9900012    2    1    2    0    0 -0.15847174822E+02  0.55415341748E+01  0.40022265912E+02  0.47787270518E+02  0.19999997599E+02 0.  0.
        -12    1    1    2    0    0  0.15847174822E+02 -0.55415341748E+01 -0.40022265912E+02  0.43400729482E+02  0.00000000000E+00 0.  1.
         11    1    3    3    0    0  0.27506443115E+01  0.25378223336E-02  0.14667828564E+01  0.31172909358E+01  0.51100000000E-03 0. -1.
        -11    1    3    3    0    0 -0.10995954568E+02 -0.26155786559E+01  0.17233112788E+02  0.20609037949E+02  0.51100000000E-03 0.  1.
         12    1    3    3    0    0 -0.76018645659E+01  0.81545750084E+01  0.21322370267E+02  0.24060941633E+02  0.00000000000E+00 0. -1.
</event>
<event>
 7    1  0.3807360E-011  0.4778727E+02  0.7816164E-02  0.1312668E+00
        -11   -1    0    0    0    0  0.00000000000E+00  0.00000000000E+00  0.45593999997E+02  0.45594000000E+02  0.51100000000E-03 0. -1.
         11   -1    0    0    0    0 -0.00000000000E+00 -0.00000000000E+00 -0.45593999997E+02  0.45594000000E+02  0.51100000000E-03 0.  1.
    9900012    2    1    2    0    0 -0.15633832082E+02  0.94826166221E+01  0.39360980385E+02  0.47787268434E+02  0.19999988097E+02 0.  0.
        -12    1    1    2    0    0  0.15633832082E+02 -0.94826166221E+01 -0.39360980385E+02  0.43400731566E+02  0.00000000000E+00 0.  1.
         11    1    3    3    0    0 -0.74062877520E+01 -0.54709066199E+01  0.18175049598E+02  0.20374404179E+02  0.51100000000E-03 0. -1.
        -11    1    3    3    0    0 -0.17311379848E+01  0.43576445097E+01  0.37685136591E+01  0.60156130074E+01  0.51100000000E-03 0.  1.
         12    1    3    3    0    0 -0.64964063453E+01  0.10595878732E+02  0.17417417129E+02  0.21397251248E+02  0.00000000000E+00 0. -1.
</event>
<event>
 7    1  0.3807360E-011  0.4778725E+02  0.7816164E-02  0.1312668E+00
        -11   -1    0    0    0    0  0.00000000000E+00  0.00000000000E+00  0.45593999997E+02  0.45594000000E+02  0.51100000000E-03 0. -1.
         11   -1    0    0    0    0 -0.00000000000E+00 -0.00000000000E+00 -0.45593999997E+02  0.45594000000E+02  0.51100000000E-03 0.  1.
    9900012    2    1    2    0    0 -0.19052867552E+02  0.76692050232E+00 -0.38987498632E+02  0.47787251405E+02  0.19999910456E+02 0.  0.
         12    1    1    2    0    0  0.19052867552E+02 -0.76692050232E+00  0.38987498632E+02  0.43400748595E+02  0.00000000000E+00 0. -1.
         11    1    3    3    0    0 -0.21295657394E+02 -0.17715511507E+01 -0.25271095226E+02  0.33094888903E+02  0.51100000000E-03 0.  1.
        -11    1    3    3    0    0  0.10072757996E+01  0.92670618243E+00 -0.73600120330E+00  0.15540549917E+01  0.51100000000E-03 0. -1.
        -12    1    3    3    0    0  0.12355140427E+01  0.16117654705E+01 -0.12980402203E+02  0.13138307510E+02  0.00000000000E+00 0.  1.
</event>
<event>
 7    1  0.3807360E-011  0.4778727E+02  0.7816164E-02  0.1312668E+00
        -11   -1    0    0    0    0  0.00000000000E+00  0.00000000000E+00  0.45593999997E+02  0.45594000000E+02  0.51100000000E-03 0. -1.
         11   -1    0    0    0    0 -0.00000000000E+00 -0.00000000000E+00 -0.45593999997E+02  0.45594000000E+02  0.51100000000E-03 0.  1.
    9900012    2    1    2    0    0 -0.26855886321E+02  0.27858848915E+02 -0.19653733943E+02  0.47787270158E+02  0.19999995957E+02 0.  0.
         12    1    1    2    0    0  0.26855886321E+02 -0.27858848915E+02  0.19653733943E+02  0.43400729842E+02  0.00000000000E+00 0. -1.
         11    1    3    3    0    0 -0.16616344774E+02  0.10049293265E+02 -0.47792741140E+01  0.19998316681E+02  0.51100000000E-03 0. -1.
        -11    1    3    3    0    0 -0.10157438020E+02  0.62788830683E+01 -0.76565029010E+01  0.14185202031E+02  0.51100000000E-03 0.  1.
        -12    1    3    3    0    0 -0.82103526765E-01  0.11530672582E+02 -0.72179569278E+01  0.13603751446E+02  0.00000000000E+00 0.  1.
</event>
<event>
 7    1  0.3807360E-011  0.4778728E+02  0.7816164E-02  0.1312668E+00
        -11   -1    0    0    0    0  0.00000000000E+00  0.00000000000E+00  0.45593999997E+02  0.45594000000E+02  0.51100000000E-03 0.  1.
         11   -1    0    0    0    0 -0.00000000000E+00 -0.00000000000E+00 -0.45593999997E+02  0.45594000000E+02  0.51100000000E-03 0. -1.
    9900012    2    1    2    0    0 -0.51964632344E+01  0.41354658181E+02  0.12100077341E+02  0.47787275870E+02  0.20000022000E+02 0.  0.
        -12    1    1    2    0    0  0.51964632344E+01 -0.41354658181E+02 -0.12100077341E+02  0.43400724130E+02  0.00000000000E+00 0.  1.
         11    1    3    3    0    0  0.56706261375E+01  0.77171250943E+01  0.53019323477E+01  0.10946255405E+02  0.51100000000E-03 0. -1.
        -11    1    3    3    0    0 -0.34786132490E+01  0.15999562740E+02 -0.47863194634E+00  0.16380349410E+02  0.51100000000E-03 0.  1.
        -12    1    3    3    0    0 -0.73884761229E+01  0.17637970347E+02  0.72767769395E+01  0.20460671054E+02  0.00000000000E+00 0.  1.
</event>
<event>
 7    1  0.3807360E-011  0.4778727E+02  0.7816164E-02  0.1312668E+00
        -11   -1    0    0    0    0  0.00000000000E+00  0.00000000000E+00  0.45593999997E+02  0.45594000000E+02  0.51100000000E-03 0. -1.
         11   -1    0    0    0    0 -0.00000000000E+00 -0.00000000000E+00 -0.45593999997E+02  0.45594000000E+02  0.51100000000E-03 0.  1.
    9900012    2    1    2    0    0 -0.59289279571E+01  0.40412238309E+02  0.14673862207E+02  0.47787269316E+02  0.19999992119E+02 0.  0.
        -12    1    1    2    0    0  0.59289279571E+01 -0.40412238309E+02 -0.14673862207E+02  0.43400730684E+02  0.00000000000E+00 0.  1.
         11    1    3    3    0    0  0.50423666703E+01  0.10027878919E+02  0.64943365327E+01  0.12967660719E+02  0.51100000000E-03 0. -1.
        -11    1    3    3    0    0 -0.25485523628E+01  0.43422292812E+01 -0.22692552268E+01  0.55226437348E+01  0.51100000000E-03 0.  1.
         12    1    3    3    0    0 -0.84227422647E+01  0.26042130108E+02  0.10448780901E+02  0.29296964863E+02  0.00000000000E+00 0. -1.
</event>
<event>
 7    1  0.3807360E-011  0.4778727E+02  0.7816164E-02  0.1312668E+00
        -11   -1    0    0    0    0  0.00000000000E+00  0.00000000000E+00  0.45593999997E+02  0.45594000000E+02  0.51100000000E-03 0. -1.
         11   -1    0    0    0    0 -0.00000000000E+00 -0.00000000000E+00 -0.45593999997E+02  0.45594000000E+02  0.51100000000E-03 0.  1.
    9900012    2    1    2    0    0 -0.17633139673E+02 -0.96187017352E+01  0.38473055794E+02  0.47787273509E+02  0.20000011235E+02 0.  0.
        -12    1    1    2    0    0  0.17633139673E+02  0.96187017352E+01 -0.38473055794E+02  0.43400726491E+02  0.00000000000E+00 0.  1.
         11    1    3    3    0    0 -0.16970004909E+01 -0.88902683129E+01  0.94859768768E+01  0.13111080768E+02  0.51100000000E-03 0. -1.
        -11    1    3    3    0    0 -0.60680241067E+01  0.72860422718E+00  0.29352164511E+01  0.67799171496E+01  0.51100000000E-03 0.  1.
         12    1    3    3    0    0 -0.98681150759E+01 -0.14570376495E+01  0.26051862467E+02  0.27896275591E+02  0.00000000000E+00 0. -1.
</event>
<event>
 7    1  0.3807360E-011  0.4778727E+02  0.7816164E-02  0.1312668E+00
        -11   -1    0    0    0    0  0.00000000000E+00  0.00000000000E+00  0.45593999997E+02  0.45594000000E+02  0.51100000000E-03 0. -1.
         11   -1    0    0    0    0 -0.00000000000E+00 -0.00000000000E+00 -0.45593999997E+02  0.45594000000E+02  0.51100000000E-03 0.  1.
    9900012    2    1    2    0    0  0.48649795356E+01 -0.26220824572E+02 -0.34240671527E+02  0.47787271276E+02  0.20000001057E+02 0.  0.
         12    1    1    2    0    0 -0.48649795356E+01  0.26220824572E+02  0.34240671527E+02  0.43400728724E+02  0.00000000000E+00 0. -1.
         11    1    3    3    0    0  0.61492854320E+01 -0.10628358451E+02 -0.51185460445E+01  0.13303203695E+02  0.51100000000E-03 0. -1.
        -11    1    3    3    0    0 -0.64014001636E+00  0.10423377128E+01 -0.51847265364E+01  0.53270664222E+01  0.51100000000E-03 0.  1.
        -12    1    3    3    0    0 -0.64416588009E+00 -0.16634803834E+02 -0.23937398946E+02  0.29157001159E+02  0.00000000000E+00 0.  1.
</event>
<event>
 7    1  0.3807360E-011  0.4778727E+02  0.7816164E-02  0.1312668E+00
        -11   -1    0    0    0    0  0.00000000000E+00  0.00000000000E+00  0.45593999997E+02  0.45594000000E+02  0.51100000000E-03 0. -1.
         11   -1    0    0    0    0 -0.00000000000E+00 -0.00000000000E+00 -0.45593999997E+02  0.45594000000E+02  0.51100000000E-03 0.  1.
    9900012    2    1    2    0    0 -0.76394081526E+00 -0.41457379263E+01  0.43195517872E+02  0.47787268293E+02  0.19999987453E+02 0.  0.
        -12    1    1    2    0    0  0.76394081526E+00  0.41457379263E+01 -0.43195517872E+02  0.43400731707E+02  0.00000000000E+00 0.  1.
         11    1    3    3    0    0 -0.17050036645E+01 -0.52819777532E+01  0.27899850844E+02  0.28446581584E+02  0.51100000000E-03 0. -1.
        -11    1    3    3    0    0 -0.20803123911E+01 -0.35942405324E+01  0.14469959769E+01  0.43977337649E+01  0.51100000000E-03 0.  1.
         12    1    3    3    0    0  0.30213752403E+01  0.47304803593E+01  0.13848671051E+02  0.14942952943E+02  0.00000000000E+00 0. -1.
</event>
<event>
 7    1  0.3807360E-011  0.4778727E+02  0.7816164E-02  0.1312668E+00
        -11   -1    0    0    0    0  0.00000000000E+00  0.00000000000E+00  0.45593999997E+02  0.45594000000E+02  0.51100000000E-03 0. -1.
         11   -1    0    0    0    0 -0.00000000000E+00 -0.00000000000E+00 -0.45593999997E+02  0.45594000000E+02  0.51100000000E-03 0.  1.
    9900012    2    1    2    0    0 -0.20259818679E+02 -0.19130297343E+01  0.38334106850E+02  0.47787266323E+02  0.19999978474E+02 0.  0.
        -12    1    1    2    0    0  0.20259818679E+02  0.19130297343E+01 -0.38334106850E+02  0.43400733677E+02  0.00000000000E+00 0.  1.
         11    1    3    3    0    0 -0.33877996532E+01  0.38390726411E+01  0.21748219865E+02  0.22342800469E+02  0.51100000000E-03 0. -1.
        -11    1    3    3    0    0 -0.41385337683E+01 -0.45216089780E+00  0.40479849948E+00  0.41827949167E+01  0.51100000000E-03 0.  1.
         12    1    3    3    0    0 -0.12733485257E+02 -0.52999414776E+01  0.16181088486E+02  0.21261670937E+02  0.00000000000E+00 0. -1.
</event>
<event>
 7    1  0.3807360E-011  0.4778727E+02  0.7816164E-02  0.1312668E+00
        -11   -1    0    0    0    0  0.00000000000E+00  0.00000000000E+00  0.45593999997E+02  0.45594000000E+02  0.51100000000E-03 0. -1.
         11   -1    0    0    0    0 -0.00000000000E+00 -0.00000000000E+00 -0.45593999997E+02  0.45594000000E+02  0.51100000000E-03 0.  1.
    9900012    2    1    2    0    0 -0.15192742802E+02 -0.14646783180E+02 -0.37924605016E+02  0.47787270087E+02  0.19999995636E+02 0.  0.
         12    1    1    2    0    0  0.15192742802E+02  0.14646783180E+02  0.37924605016E+02  0.43400729913E+02  0.00000000000E+00 0. -1.
         11    1    3    3    0    0  0.14092211927E+01  0.82865369933E+00 -0.12609117724E+01  0.20645750367E+01  0.51100000000E-03 0. -1.
        -11    1    3    3    0    0 -0.96265961096E+01 -0.17508920226E+02 -0.25366779449E+02  0.32290976139E+02  0.51100000000E-03 0.  1.
         12    1    3    3    0    0 -0.69753678849E+01  0.20334833462E+01 -0.11296913794E+02  0.13431718911E+02  0.00000000000E+00 0. -1.
</event>
<event>
 7    1  0.3807360E-011  0.4778727E+02  0.7816164E-02  0.1312668E+00
        -11   -1    0    0    0    0  0.00000000000E+00  0.00000000000E+00  0.45593999997E+02  0.45594000000E+02  0.51100000000E-03 0. -1.
         11   -1    0    0    0    0 -0.00000000000E+00 -0.00000000000E+00 -0.45593999997E+02  0.45594000000E+02  0.51100000000E-03 0.  1.
    9900012    2    1    2    0    0 -0.18896199294E+02  0.14884518650E+02 -0.36124897344E+02  0.47787269001E+02  0.19999990681E+02 0.  0.
         12    1    1    2    0    0  0.18896199294E+02 -0.14884518650E+02  0.36124897344E+02  0.43400730999E+02  0.00000000000E+00 0. -1.
         11    1    3    3    0    0  0.90186348862E+00  0.37132660398E+01 -0.38101079768E+01  0.53961676671E+01  0.51100000000E-03 0. -1.
        -11    1    3    3    0    0 -0.10829775083E+02  0.67756043302E+00 -0.53494725191E+01  0.12097932591E+02  0.51100000000E-03 0.  1.
         12    1    3    3    0    0 -0.89682877000E+01  0.10493692177E+02 -0.26965316848E+02  0.30293168743E+02  0.00000000000E+00 0. -1.
</event>
<event>
 7    1  0.3807360E-011  0.4778727E+02  0.7816164E-02  0.1312668E+00
        -11   -1    0    0    0    0  0.00000000000E+00  0.00000000000E+00  0.45593999997E+02  0.45594000000E+02  0.51100000000E-03 0. -1.
         11   -1    0    0    0    0 -0.00000000000E+00 -0.00000000000E+00 -0.45593999997E+02  0.45594000000E+02  0.51100000000E-03 0.  1.
    9900012    2    1    2    0    0  0.22056863710E+02 -0.21310767164E+02  0.30707807346E+02  0.47787268833E+02  0.19999989916E+02 0.  0.
        -12    1    1    2    0    0 -0.22056863710E+02  0.21310767164E+02 -0.30707807346E+02  0.43400731167E+02  0.00000000000E+00 0.  1.
         11    1    3    3    0    0  0.76772874434E+01 -0.93078126783E+01  0.23219395928E+01  0.12286884189E+02  0.51100000000E-03 0. -1.
        -11    1    3    3    0    0 -0.88277446722E+00 -0.11500863504E+01  0.66645708603E+01  0.68204467879E+01  0.51100000000E-03 0.  1.
         12    1    3    3    0    0  0.15262350734E+02 -0.10852868135E+02  0.21721296893E+02  0.28679937856E+02  0.00000000000E+00 0. -1.
</event>
<event>
 7    1  0.3807360E-011  0.4778727E+02  0.7816164E-02  0.1312668E+00
        -11   -1    0    0    0    0  0.00000000000E+00  0.00000000000E+00  0.45593999997E+02  0.45594000000E+02  0.51100000000E-03 0. -1.
         11   -1    0    0    0    0 -0.00000000000E+00 -0.00000000000E+00 -0.45593999997E+02  0.45594000000E+02  0.51100000000E-03 0.  1.
    9900012    2    1    2    0    0 -0.19632249200E+02  0.28448867349E+02  0.26246147084E+02  0.47787268452E+02  0.19999988181E+02 0.  0.
        -12    1    1    2    0    0  0.19632249200E+02 -0.28448867349E+02 -0.26246147084E+02  0.43400731548E+02  0.00000000000E+00 0.  1.
         11    1    3    3    0    0 -0.44706719198E+01  0.35258845705E+01  0.10911221275E+02  0.12307457877E+02  0.51100000000E-03 0. -1.
        -11    1    3    3    0    0  0.38773115014E+00  0.11342907268E+02  0.55357675828E+01  0.12627612749E+02  0.51100000000E-03 0.  1.
         12    1    3    3    0    0 -0.15549308430E+02  0.13580075511E+02  0.97991582261E+01  0.22852197826E+02  0.00000000000E+00 0. -1.
</event>
<event>
 7    1  0.3807360E-011  0.4778727E+02  0.7816164E-02  0.1312668E+00
        -11   -1    0    0    0    0  0.00000000000E+00  0.00000000000E+00  0.45593999997E+02  0.45594000000E+02  0.51100000000E-03 0. -1.
         11   -1    0    0    0    0 -0.00000000000E+00 -0.00000000000E+00 -0.45593999997E+02  0.45594000000E+02  0.51100000000E-03 0.  1.
    9900012    2    1    2    0    0  0.76246529238E+01  0.24637679809E+02 -0.34906626066E+02  0.47787272565E+02  0.20000006934E+02 0.  0.
         12    1    1    2    0    0 -0.76246529238E+01 -0.24637679809E+02  0.34906626066E+02  0.43400727435E+02  0.00000000000E+00 0. -1.
         11    1    3    3    0    0  0.95806465425E+01  0.62143444842E+01 -0.11857633060E+02  0.16462391308E+02  0.51100000000E-03 0. -1.
        -11    1    3    3    0    0  0.31890167718E+01  0.11291756009E+02 -0.16982119854E+02  0.20641365670E+02  0.51100000000E-03 0.  1.
         12    1    3    3    0    0 -0.51450103905E+01  0.71315793158E+01 -0.60668731517E+01  0.10683515587E+02  0.00000000000E+00 0. -1.
</event>
<event>
 7    1  0.3807360E-011  0.4778726E+02  0.7816164E-02  0.1312668E+00
        -11   -1    0    0    0    0  0.00000000000E+00  0.00000000000E+00  0.45593999997E+02  0.45594000000E+02  0.51100000000E-03 0. -1.
         11   -1    0    0    0    0 -0.00000000000E+00 -0.00000000000E+00 -0.45593999997E+02  0.45594000000E+02  0.51100000000E-03 0.  1.
    9900012    2    1    2    0    0 -0.42675716446E+02 -0.37884290052E+01  0.69321808469E+01  0.47787261529E+02  0.19999956615E+02 0.  0.
        -12    1    1    2    0    0  0.42675716446E+02  0.37884290052E+01 -0.69321808469E+01  0.43400738471E+02  0.00000000000E+00 0.  1.
         11    1    3    3    0    0 -0.20197784836E+02  0.17154334010E+01  0.37661220199E+01  0.20617393127E+02  0.51100000000E-03 0. -1.
        -11    1    3    3    0    0 -0.10205718366E+02 -0.48024255714E+01  0.81397216285E+01  0.13909530804E+02  0.51100000000E-03 0.  1.
        -12    1    3    3    0    0 -0.12272213244E+02 -0.70143683477E+00 -0.49736628015E+01  0.13260337598E+02  0.00000000000E+00 0.  1.
</event>
<event>
 7    1  0.3807360E-011  0.4778727E+02  0.7816164E-02  0.1312668E+00
        -11   -1    0    0    0    0  0.00000000000E+00  0.00000000000E+00  0.45593999997E+02  0.45594000000E+02  0.51100000000E-03 0. -1.
         11   -1    0    0    0    0 -0.00000000000E+00 -0.00000000000E+00 -0.45593999997E+02  0.45594000000E+02  0.51100000000E-03 0.  1.
    9900012    2    1    2    0    0 -0.14870946110E+02 -0.21892318116E+02 -0.34397738157E+02  0.47787273957E+02  0.20000013280E+02 0.  0.
         12    1    1    2    0    0  0.14870946110E+02  0.21892318116E+02  0.34397738157E+02  0.43400726043E+02  0.00000000000E+00 0. -1.
         11    1    3    3    0    0 -0.76789660440E+01 -0.18989444822E+02 -0.29093478006E+02  0.35580837496E+02  0.51100000000E-03 0. -1.
        -11    1    3    3    0    0 -0.63365717415E+01 -0.40178621090E+01 -0.86818659239E+00  0.75530858318E+01  0.51100000000E-03 0.  1.
         12    1    3    3    0    0 -0.85540832472E+00  0.11149888149E+01 -0.44360735592E+01  0.46533506296E+01  0.00000000000E+00 0. -1.
</event>
<event>
 7    1  0.3807360E-011  0.4778727E+02  0.7816164E-02  0.1312668E+00
        -11   -1    0    0    0    0  0.00000000000E+00  0.00000000000E+00  0.45593999997E+02  0.45594000000E+02  0.51100000000E-03 0. -1.
         11   -1    0    0    0    0 -0.00000000000E+00 -0.00000000000E+00 -0.45593999997E+02  0.45594000000E+02  0.51100000000E-03 0.  1.
    9900012    2    1    2    0    0 -0.17932062215E+02  0.34245595339E+02  0.19730780372E+02  0.47787270174E+02  0.19999996030E+02 0.  0.
        -12    1    1    2    0    0  0.17932062215E+02 -0.34245595339E+02 -0.19730780372E+02  0.43400729826E+02  0.00000000000E+00 0.  1.
         11    1    3    3    0    0 -0.37232511242E+01  0.96862482893E+01 -0.49310699903E+00  0.10388895977E+02  0.51100000000E-03 0. -1.
        -11    1    3    3    0    0 -0.15335543871E+01 -0.45461873845E+00  0.54957767141E+01  0.57238124714E+01  0.51100000000E-03 0.  1.
         12    1    3    3    0    0 -0.12675256703E+02  0.25013965788E+02  0.14728110657E+02  0.31674561725E+02  0.00000000000E+00 0. -1.
</event>
<event>
 7    1  0.3807360E-011  0.4778727E+02  0.7816164E-02  0.1312668E+00
        -11   -1    0    0    0    0  0.00000000000E+00  0.00000000000E+00  0.45593999997E+02  0.45594000000E+02  0.51100000000E-03 0.  1.
         11   -1    0    0    0    0 -0.00000000000E+00 -0.00000000000E+00 -0.45593999997E+02  0.45594000000E+02  0.51100000000E-03 0. -1.
    9900012    2    1    2    0    0  0.32936329624E+02  0.15743503749E+01  0.28219549932E+02  0.47787269746E+02  0.19999994079E+02 0.  0.
        -12    1    1    2    0    0 -0.32936329624E+02 -0.15743503749E+01 -0.28219549932E+02  0.43400730254E+02  0.00000000000E+00 0.  1.
         11    1    3    3    0    0  0.18389688057E+02  0.47639587573E+01  0.96576518081E+01  0.21310705493E+02  0.51100000000E-03 0. -1.
        -11    1    3    3    0    0 -0.18769687673E+01  0.58695050753E+00  0.13310247193E+01  0.23746893936E+01  0.51100000000E-03 0.  1.
         12    1    3    3    0    0  0.16423610334E+02 -0.37765588899E+01  0.17230873405E+02  0.24101874860E+02  0.00000000000E+00 0. -1.
</event>
<event>
 7    1  0.3807360E-011  0.4778727E+02  0.7816164E-02  0.1312668E+00
        -11   -1    0    0    0    0  0.00000000000E+00  0.00000000000E+00  0.45593999997E+02  0.45594000000E+02  0.51100000000E-03 0. -1.
         11   -1    0    0    0    0 -0.00000000000E+00 -0.00000000000E+00 -0.45593999997E+02  0.45594000000E+02  0.51100000000E-03 0.  1.
    9900012    2    1    2    0    0  0.40279049806E+02 -0.97107899058E+01  0.12919828098E+02  0.47787271297E+02  0.20000001150E+02 0.  0.
        -12    1    1    2    0    0 -0.40279049806E+02  0.97107899058E+01 -0.12919828098E+02  0.43400728703E+02  0.00000000000E+00 0.  1.
         11    1    3    3    0    0  0.11832071118E+02 -0.27717917398E+01  0.85727800752E+00  0.12182596695E+02  0.51100000000E-03 0. -1.
        -11    1    3    3    0    0  0.29766660122E+02 -0.44629217982E+01  0.89231638451E+01  0.31394180656E+02  0.51100000000E-03 0.  1.
        -12    1    3    3    0    0 -0.13196814340E+01 -0.24760763679E+01  0.31393862453E+01  0.42104939454E+01  0.00000000000E+00 0.  1.
</event>
<event>
 7    1  0.3807360E-011  0.4778727E+02  0.7816164E-02  0.1312668E+00
        -11   -1    0    0    0    0  0.00000000000E+00  0.00000000000E+00  0.45593999997E+02  0.45594000000E+02  0.51100000000E-03 0. -1.
         11   -1    0    0    0    0 -0.00000000000E+00 -0.00000000000E+00 -0.45593999997E+02  0.45594000000E+02  0.51100000000E-03 0.  1.
    9900012    2    1    2    0    0 -0.47218875214E+01  0.12150887267E+02  0.41396657160E+02  0.47787268357E+02  0.19999987745E+02 0.  0.
        -12    1    1    2    0    0  0.47218875214E+01 -0.12150887267E+02 -0.41396657160E+02  0.43400731643E+02  0.00000000000E+00 0.  1.
         11    1    3    3    0    0  0.17004784649E+01  0.43214187461E+01 -0.61843604298E-03  0.46439517259E+01  0.51100000000E-03 0. -1.
        -11    1    3    3    0    0 -0.27093765309E+00 -0.67430603373E+00  0.41161670475E+00  0.83517926922E+00  0.51100000000E-03 0.  1.
         12    1    3    3    0    0 -0.61514283332E+01  0.85037745543E+01  0.40985658892E+02  0.42308137361E+02  0.00000000000E+00 0. -1.
</event>
<event>
 7    1  0.3807360E-011  0.4778727E+02  0.7816164E-02  0.1312668E+00
        -11   -1    0    0    0    0  0.00000000000E+00  0.00000000000E+00  0.45593999997E+02  0.45594000000E+02  0.51100000000E-03 0. -1.
         11   -1    0    0    0    0 -0.00000000000E+00 -0.00000000000E+00 -0.45593999997E+02  0.45594000000E+02  0.51100000000E-03 0.  1.
    9900012    2    1    2    0    0  0.25162136554E+02  0.23006432492E+02 -0.26855060613E+02  0.47787270369E+02  0.19999996922E+02 0.  0.
         12    1    1    2    0    0 -0.25162136554E+02 -0.23006432492E+02  0.26855060613E+02  0.43400729631E+02  0.00000000000E+00 0. -1.
         11    1    3    3    0    0 -0.11326146089E+01  0.25784042074E+01 -0.81452304784E+01  0.86183388142E+01  0.51100000000E-03 0. -1.
        -11    1    3    3    0    0  0.72730459259E+01  0.39388996847E+01 -0.87416537532E+00  0.83172286930E+01  0.51100000000E-03 0.  1.
        -12    1    3    3    0    0  0.19021705237E+02  0.16489128600E+02 -0.17835664759E+02  0.30851702862E+02  0.00000000000E+00 0.  1.
</event>
<event>
 7    1  0.3807360E-011  0.4778727E+02  0.7816164E-02  0.1312668E+00
        -11   -1    0    0    0    0  0.00000000000E+00  0.00000000000E+00  0.45593999997E+02  0.45594000000E+02  0.51100000000E-03 0. -1.
         11   -1    0    0    0    0 -0.00000000000E+00 -0.00000000000E+00 -0.45593999997E+02  0.45594000000E+02  0.51100000000E-03 0.  1.
    9900012    2    1    2    0    0 -0.74618222444E+01  0.36002377710E+02 -0.23060207008E+02  0.47787272596E+02  0.20000007073E+02 0.  0.
         12    1    1    2    0    0  0.74618222444E+01 -0.36002377710E+02  0.23060207008E+02  0.43400727404E+02  0.00000000000E+00 0. -1.
         11    1    3    3    0    0 -0.94399573264E+01  0.26398137415E+02 -0.16284773110E+02  0.32421725568E+02  0.51100000000E-03 0.  1.
        -11    1    3    3    0    0  0.36053998503E+01  0.10857276482E+02 -0.68056846669E+01  0.13311525260E+02  0.51100000000E-03 0. -1.
        -12    1    3    3    0    0 -0.16272647683E+01 -0.12530361875E+01  0.30250768902E-01  0.20540217678E+01  0.00000000000E+00 0.  1.
</event>
<event>
 7    1  0.3807360E-011  0.4778727E+02  0.7816164E-02  0.1312668E+00
        -11   -1    0    0    0    0  0.00000000000E+00  0.00000000000E+00  0.45593999997E+02  0.45594000000E+02  0.51100000000E-03 0. -1.
         11   -1    0    0    0    0 -0.00000000000E+00 -0.00000000000E+00 -0.45593999997E+02  0.45594000000E+02  0.51100000000E-03 0.  1.
    9900012    2    1    2    0    0  0.25595442680E+02 -0.39713889467E+01 -0.34824201504E+02  0.47787266982E+02  0.19999981477E+02 0.  0.
         12    1    1    2    0    0 -0.25595442680E+02  0.39713889467E+01  0.34824201504E+02  0.43400733018E+02  0.00000000000E+00 0. -1.
         11    1    3    3    0    0  0.86974514940E+01  0.11149755920E+01 -0.55713518300E+01  0.10388878406E+02  0.51100000000E-03 0. -1.
        -11    1    3    3    0    0  0.15886758680E+02  0.64588275549E+00 -0.14422321666E+02  0.21466476851E+02  0.51100000000E-03 0.  1.
        -12    1    3    3    0    0  0.10112325059E+01 -0.57322472942E+01 -0.14830528008E+02  0.15931911725E+02  0.00000000000E+00 0.  1.
</event>
<event>
 7    1  0.3807360E-011  0.4778727E+02  0.7816164E-02  0.1312668E+00
        -11   -1    0    0    0    0  0.00000000000E+00  0.00000000000E+00  0.45593999997E+02  0.45594000000E+02  0.51100000000E-03 0. -1.
         11   -1    0    0    0    0 -0.00000000000E+00 -0.00000000000E+00 -0.45593999997E+02  0.45594000000E+02  0.51100000000E-03 0.  1.
    9900012    2    1    2    0    0 -0.41647842719E+02 -0.98672540135E+01  0.71915184919E+01  0.47787269095E+02  0.19999991110E+02 0.  0.
        -12    1    1    2    0    0  0.41647842719E+02  0.98672540135E+01 -0.71915184919E+01  0.43400730905E+02  0.00000000000E+00 0.  1.
         11    1    3    3    0    0 -0.15446998290E+02 -0.10368722881E+02  0.40769970510E+01  0.19045788919E+02  0.51100000000E-03 0. -1.
        -11    1    3    3    0    0 -0.11444991124E+02 -0.10873477324E+01 -0.41437686032E+01  0.12220514122E+02  0.51100000000E-03 0.  1.
         12    1    3    3    0    0 -0.14755853306E+02  0.15888166000E+01  0.72582900440E+01  0.16520966053E+02  0.00000000000E+00 0. -1.
</event>
<event>
 7    1  0.3807360E-011  0.4778727E+02  0.7816164E-02  0.1312668E+00
        -11   -1    0    0    0    0  0.00000000000E+00  0.00000000000E+00  0.45593999997E+02  0.45594000000E+02  0.51100000000E-03 0.  1.
         11   -1    0    0    0    0 -0.00000000000E+00 -0.00000000000E+00 -0.45593999997E+02  0.45594000000E+02  0.51100000000E-03 0. -1.
    9900012    2    1    2    0    0 -0.23962318604E+02 -0.36169834118E+02 -0.10833742362E+01  0.47787270597E+02  0.19999997959E+02 0.  0.
         12    1    1    2    0    0  0.23962318604E+02  0.36169834118E+02  0.10833742362E+01  0.43400729403E+02  0.00000000000E+00 0. -1.
         11    1    3    3    0    0 -0.27571716393E+01 -0.84328494303E+01  0.67853818221E+01  0.11169438289E+02  0.51100000000E-03 0. -1.
        -11    1    3    3    0    0 -0.64153713674E+01 -0.14720829231E+02 -0.37554153110E+01  0.16491299144E+02  0.51100000000E-03 0.  1.
        -12    1    3    3    0    0 -0.14789775597E+02 -0.13016155457E+02 -0.41133407473E+01  0.20126533164E+02  0.00000000000E+00 0.  1.
</event>
<event>
 7    1  0.3807360E-011  0.4778727E+02  0.7816164E-02  0.1312668E+00
        -11   -1    0    0    0    0  0.00000000000E+00  0.00000000000E+00  0.45593999997E+02  0.45594000000E+02  0.51100000000E-03 0. -1.
         11   -1    0    0    0    0 -0.00000000000E+00 -0.00000000000E+00 -0.45593999997E+02  0.45594000000E+02  0.51100000000E-03 0.  1.
    9900012    2    1    2    0    0 -0.30617960117E+02 -0.23813520518E+02  0.19469976326E+02  0.47787271673E+02  0.20000002867E+02 0.  0.
        -12    1    1    2    0    0  0.30617960117E+02  0.23813520518E+02 -0.19469976326E+02  0.43400728327E+02  0.00000000000E+00 0.  1.
         11    1    3    3    0    0 -0.14387642428E+02 -0.13196083770E+02  0.62565672742E+01  0.20500866221E+02  0.51100000000E-03 0. -1.
        -11    1    3    3    0    0 -0.77632916362E+01 -0.12813879825E+02  0.97674549094E+01  0.17884836842E+02  0.51100000000E-03 0.  1.
        -12    1    3    3    0    0 -0.84670260528E+01  0.21964430777E+01  0.34459541424E+01  0.94015686097E+01  0.00000000000E+00 0.  1.
</event>
<event>
 7    1  0.3807360E-011  0.4778725E+02  0.7816164E-02  0.1312668E+00
        -11   -1    0    0    0    0  0.00000000000E+00  0.00000000000E+00  0.45593999997E+02  0.45594000000E+02  0.51100000000E-03 0. -1.
         11   -1    0    0    0    0 -0.00000000000E+00 -0.00000000000E+00 -0.45593999997E+02  0.45594000000E+02  0.51100000000E-03 0.  1.
    9900012    2    1    2    0    0  0.19063601743E+02  0.18772868535E+02 -0.34172853755E+02  0.47787246110E+02  0.19999886313E+02 0.  0.
         12    1    1    2    0    0 -0.19063601743E+02 -0.18772868535E+02  0.34172853755E+02  0.43400753890E+02  0.00000000000E+00 0. -1.
         11    1    3    3    0    0  0.12209725376E+02  0.14129805255E+02 -0.17414156827E+02  0.25533931318E+02  0.51100000000E-03 0. -1.
        -11    1    3    3    0    0 -0.85346885764E-01  0.10417555742E+01 -0.13884294532E+02  0.13923583363E+02  0.51100000000E-03 0.  1.
         12    1    3    3    0    0  0.69392232518E+01  0.36013077067E+01 -0.28744023973E+01  0.83297314290E+01  0.00000000000E+00 0. -1.
</event>
<event>
 7    1  0.3807360E-011  0.4778727E+02  0.7816164E-02  0.1312668E+00
        -11   -1    0    0    0    0  0.00000000000E+00  0.00000000000E+00  0.45593999997E+02  0.45594000000E+02  0.51100000000E-03 0. -1.
         11   -1    0    0    0    0 -0.00000000000E+00 -0.00000000000E+00 -0.45593999997E+02  0.45594000000E+02  0.51100000000E-03 0.  1.
    9900012    2    1    2    0    0 -0.29222363387E+02 -0.29239734670E+02 -0.13217973750E+02  0.47787269182E+02  0.19999991509E+02 0.  0.
         12    1    1    2    0    0  0.29222363387E+02  0.29239734670E+02  0.13217973750E+02  0.43400730818E+02  0.00000000000E+00 0. -1.
         11    1    3    3    0    0 -0.65090735643E+01 -0.13299728575E+02 -0.55109328587E+01  0.15799405054E+02  0.51100000000E-03 0. -1.
        -11    1    3    3    0    0 -0.17225743114E+02 -0.13234789833E+02 -0.11708474095E+02  0.24677403706E+02  0.51100000000E-03 0.  1.
         12    1    3    3    0    0 -0.54875467087E+01 -0.27052162610E+01  0.40014332035E+01  0.73104604220E+01  0.00000000000E+00 0. -1.
</event>
<event>
 7    1  0.3807360E-011  0.4778727E+02  0.7816164E-02  0.1312668E+00
        -11   -1    0    0    0    0  0.00000000000E+00  0.00000000000E+00  0.45593999997E+02  0.45594000000E+02  0.51100000000E-03 0. -1.
         11   -1    0    0    0    0 -0.00000000000E+00 -0.00000000000E+00 -0.45593999997E+02  0.45594000000E+02  0.51100000000E-03 0.  1.
    9900012    2    1    2    0    0 -0.14072712898E+02 -0.35122563221E+02 -0.21260000092E+02  0.47787270750E+02  0.19999998660E+02 0.  0.
         12    1    1    2    0    0  0.14072712898E+02  0.35122563221E+02  0.21260000092E+02  0.43400729250E+02  0.00000000000E+00 0. -1.
         11    1    3    3    0    0 -0.33577485325E+01 -0.78192131880E+01  0.21135355028E+01  0.87682154780E+01  0.51100000000E-03 0. -1.
        -11    1    3    3    0    0 -0.10563725665E+02 -0.12391936358E+02 -0.13278349768E+02  0.21011115141E+02  0.51100000000E-03 0.  1.
        -12    1    3    3    0    0 -0.15123870013E+00 -0.14911413674E+02 -0.10095185827E+02  0.18007940132E+02  0.00000000000E+00 0.  1.
</event>
<event>
 7    1  0.3807360E-011  0.4778727E+02  0.7816164E-02  0.1312668E+00
        -11   -1    0    0    0    0  0.00000000000E+00  0.00000000000E+00  0.45593999997E+02  0.45594000000E+02  0.51100000000E-03 0. -1.
         11   -1    0    0    0    0 -0.00000000000E+00 -0.00000000000E+00 -0.45593999997E+02  0.45594000000E+02  0.51100000000E-03 0.  1.
    9900012    2    1    2    0    0  0.15696450597E+02 -0.26485421328E+02  0.30590309392E+02  0.47787272668E+02  0.20000007402E+02 0.  0.
        -12    1    1    2    0    0 -0.15696450597E+02  0.26485421328E+02 -0.30590309392E+02  0.43400727332E+02  0.00000000000E+00 0.  1.
         11    1    3    3    0    0 -0.80558236831E+00  0.35861162096E+00  0.56769594716E+00  0.10487345691E+01  0.51100000000E-03 0. -1.
        -11    1    3    3    0    0 -0.17203134052E+01  0.88536381582E+00  0.44311359592E+01  0.48351125580E+01  0.51100000000E-03 0.  1.
         12    1    3    3    0    0  0.18222346370E+02 -0.27729396764E+02  0.25591477486E+02  0.41903425541E+02  0.00000000000E+00 0. -1.
</event>
<event>
 7    1  0.3807360E-011  0.4778725E+02  0.7816164E-02  0.1312668E+00
        -11   -1    0    0    0    0  0.00000000000E+00  0.00000000000E+00  0.45593999997E+02  0.45594000000E+02  0.51100000000E-03 0. -1.
         11   -1    0    0    0    0 -0.00000000000E+00 -0.00000000000E+00 -0.45593999997E+02  0.45594000000E+02  0.51100000000E-03 0.  1.
    9900012    2    1    2    0    0 -0.13243506700E+02  0.14855118185E+02  0.38568903534E+02  0.47787247405E+02  0.19999892217E+02 0.  0.
        -12    1    1    2    0    0  0.13243506700E+02 -0.14855118185E+02 -0.38568903534E+02  0.43400752595E+02  0.00000000000E+00 0.  1.
         11    1    3    3    0    0 -0.99879332950E+01  0.75237669096E+01  0.16286393956E+02  0.20533205019E+02  0.51100000000E-03 0. -1.
        -11    1    3    3    0    0 -0.19490457933E+01  0.99439359729E+01  0.86833663219E+01  0.13344717797E+02  0.51100000000E-03 0.  1.
        -12    1    3    3    0    0 -0.13065276115E+01 -0.26125846974E+01  0.13599143257E+02  0.13909324589E+02  0.00000000000E+00 0.  1.
</event>
<event>
 7    1  0.3807360E-011  0.4778728E+02  0.7816164E-02  0.1312668E+00
        -11   -1    0    0    0    0  0.00000000000E+00  0.00000000000E+00  0.45593999997E+02  0.45594000000E+02  0.51100000000E-03 0. -1.
         11   -1    0    0    0    0 -0.00000000000E+00 -0.00000000000E+00 -0.45593999997E+02  0.45594000000E+02  0.51100000000E-03 0.  1.
    9900012    2    1    2    0    0 -0.19147239752E+02  0.27458433339E+02  0.27623188840E+02  0.47787275200E+02  0.20000018945E+02 0.  0.
        -12    1    1    2    0    0  0.19147239752E+02 -0.27458433339E+02 -0.27623188840E+02  0.43400724800E+02  0.00000000000E+00 0.  1.
         11    1    3    3    0    0 -0.84727993763E+01  0.17818142557E+02  0.13133146575E+02  0.23701351706E+02  0.51100000000E-03 0.  1.
        -11    1    3    3    0    0  0.54936031927E+00 -0.30087470192E+00 -0.18240110884E+01  0.19285588035E+01  0.51100000000E-03 0. -1.
         12    1    3    3    0    0 -0.11223800695E+02  0.99411654834E+01  0.16314053353E+02  0.22157364690E+02  0.00000000000E+00 0. -1.
</event>
<event>
 7    1  0.3807360E-011  0.4778727E+02  0.7816164E-02  0.1312668E+00
        -11   -1    0    0    0    0  0.00000000000E+00  0.00000000000E+00  0.45593999997E+02  0.45594000000E+02  0.51100000000E-03 0.  1.
         11   -1    0    0    0    0 -0.00000000000E+00 -0.00000000000E+00 -0.45593999997E+02  0.45594000000E+02  0.51100000000E-03 0. -1.
    9900012    2    1    2    0    0 -0.14693819416E+02 -0.33892877305E+02 -0.22781302780E+02  0.47787271695E+02  0.20000002968E+02 0.  0.
         12    1    1    2    0    0  0.14693819416E+02  0.33892877305E+02  0.22781302780E+02  0.43400728305E+02  0.00000000000E+00 0. -1.
         11    1    3    3    0    0  0.35636804483E+01 -0.78781844735E+01 -0.93041124693E+00  0.86966243040E+01  0.51100000000E-03 0. -1.
        -11    1    3    3    0    0 -0.92955039443E+01 -0.83488865058E+01 -0.69024906284E+01  0.14274266237E+02  0.51100000000E-03 0.  1.
        -12    1    3    3    0    0 -0.89619959198E+01 -0.17665806326E+02 -0.14948400905E+02  0.24816381154E+02  0.00000000000E+00 0.  1.
</event>
<event>
 7    1  0.3807360E-011  0.4778728E+02  0.7816164E-02  0.1312668E+00
        -11   -1    0    0    0    0  0.00000000000E+00  0.00000000000E+00  0.45593999997E+02  0.45594000000E+02  0.51100000000E-03 0. -1.
         11   -1    0    0    0    0 -0.00000000000E+00 -0.00000000000E+00 -0.45593999997E+02  0.45594000000E+02  0.51100000000E-03 0.  1.
    9900012    2    1    2    0    0 -0.20623819084E+02  0.12418123164E+02 -0.36111924925E+02  0.47787276292E+02  0.20000023928E+02 0.  0.
         12    1    1    2    0    0  0.20623819084E+02 -0.12418123164E+02  0.36111924925E+02  0.43400723708E+02  0.00000000000E+00 0. -1.
         11    1    3    3    0    0 -0.66199184942E+00 -0.66413984469E-01  0.16831874061E+01  0.18099072162E+01  0.51100000000E-03 0. -1.
        -11    1    3    3    0    0 -0.15126389250E+02  0.29532887979E+01 -0.24078666150E+02  0.28588664367E+02  0.51100000000E-03 0.  1.
        -12    1    3    3    0    0 -0.48354379847E+01  0.95312483501E+01 -0.13716446181E+02  0.17388704709E+02  0.00000000000E+00 0.  1.
</event>
<event>
 7    1  0.3807360E-011  0.4778727E+02  0.7816164E-02  0.1312668E+00
        -11   -1    0    0    0    0  0.00000000000E+00  0.00000000000E+00  0.45593999997E+02  0.45594000000E+02  0.51100000000E-03 0. -1.
         11   -1    0    0    0    0 -0.00000000000E+00 -0.00000000000E+00 -0.45593999997E+02  0.45594000000E+02  0.51100000000E-03 0.  1.
    9900012    2    1    2    0    0  0.15916011117E+02  0.19630847842E+02  0.35283615687E+02  0.47787272669E+02  0.20000007409E+02 0.  0.
        -12    1    1    2    0    0 -0.15916011117E+02 -0.19630847842E+02 -0.35283615687E+02  0.43400727331E+02  0.00000000000E+00 0.  1.
         11    1    3    3    0    0  0.12239804149E+02  0.11515928719E+02  0.24377664495E+02  0.29609119310E+02  0.51100000000E-03 0. -1.
        -11    1    3    3    0    0 -0.19819546679E+01  0.33695148734E+01  0.10001438016E+02  0.10738274416E+02  0.51100000000E-03 0.  1.
         12    1    3    3    0    0  0.56581616367E+01  0.47454042499E+01  0.90451317602E+00  0.74398789431E+01  0.00000000000E+00 0. -1.
</event>
<event>
 7    1  0.3807360E-011  0.4778727E+02  0.7816164E-02  0.1312668E+00
        -11   -1    0    0    0    0  0.00000000000E+00  0.00000000000E+00  0.45593999997E+02  0.45594000000E+02  0.51100000000E-03 0. -1.
         11   -1    0    0    0    0 -0.00000000000E+00 -0.00000000000E+00 -0.45593999997E+02  0.45594000000E+02  0.51100000000E-03 0.  1.
    9900012    2    1    2    0    0 -0.96209271579E+01 -0.39381632508E+02 -0.15496710042E+02  0.47787271429E+02  0.20000001756E+02 0.  0.
         12    1    1    2    0    0  0.96209271579E+01  0.39381632508E+02  0.15496710042E+02  0.43400728571E+02  0.00000000000E+00 0. -1.
         11    1    3    3    0    0  0.13096746634E+01  0.12488287150E+01 -0.23131949518E+00  0.18243710843E+01  0.51100000000E-03 0. -1.
        -11    1    3    3    0    0 -0.93301688721E+01 -0.16970252966E+02 -0.94367136621E+01  0.21542820194E+02  0.51100000000E-03 0.  1.
        -12    1    3    3    0    0 -0.16004329493E+01 -0.23660208256E+02 -0.58286768844E+01  0.24420080151E+02  0.00000000000E+00 0.  1.
</event>
<event>
 7    1  0.3807360E-011  0.4778727E+02  0.7816164E-02  0.1312668E+00
        -11   -1    0    0    0    0  0.00000000000E+00  0.00000000000E+00  0.45593999997E+02  0.45594000000E+02  0.51100000000E-03 0. -1.
         11   -1    0    0    0    0 -0.00000000000E+00 -0.00000000000E+00 -0.45593999997E+02  0.45594000000E+02  0.51100000000E-03 0.  1.
    9900012    2    1    2    0    0 -0.11746011857E+02  0.18423251533E+02 -0.37499844934E+02  0.47787270033E+02  0.19999995388E+02 0.  0.
         12    1    1    2    0    0  0.11746011857E+02 -0.18423251533E+02  0.37499844934E+02  0.43400729967E+02  0.00000000000E+00 0. -1.
         11    1    3    3    0    0  0.44760727216E+00  0.54280692384E+00 -0.29482707963E+01  0.30310546970E+01  0.51100000000E-03 0. -1.
        -11    1    3    3    0    0 -0.12629017678E+02  0.51175213671E+01 -0.26098362936E+02  0.29441563489E+02  0.51100000000E-03 0.  1.
         12    1    3    3    0    0  0.43539854896E+00  0.12762923242E+02 -0.84532112019E+01  0.15314651847E+02  0.00000000000E+00 0. -1.
</event>
<event>
 7    1  0.3807360E-011  0.4778727E+02  0.7816164E-02  0.1312668E+00
        -11   -1    0    0    0    0  0.00000000000E+00  0.00000000000E+00  0.45593999997E+02  0.45594000000E+02  0.51100000000E-03 0. -1.
         11   -1    0    0    0    0 -0.00000000000E+00 -0.00000000000E+00 -0.45593999997E+02  0.45594000000E+02  0.51100000000E-03 0.  1.
    9900012    2    1    2    0    0 -0.15792263369E+02  0.33485364663E+02 -0.22648584205E+02  0.47787267340E+02  0.19999983111E+02 0.  0.
         12    1    1    2    0    0  0.15792263369E+02 -0.33485364663E+02  0.22648584205E+02  0.43400732660E+02  0.00000000000E+00 0. -1.
         11    1    3    3    0    0  0.27772654057E+01  0.54867238579E+01 -0.16523599856E+01  0.63677025378E+01  0.51100000000E-03 0. -1.
        -11    1    3    3    0    0 -0.11456600736E+02  0.15504417069E+02 -0.50079484131E+01  0.19917836144E+02  0.51100000000E-03 0.  1.
         12    1    3    3    0    0 -0.71129280380E+01  0.12494223736E+02 -0.15988275806E+02  0.21501728658E+02  0.00000000000E+00 0. -1.
</event>
<event>
 7    1  0.3807360E-011  0.4778727E+02  0.7816164E-02  0.1312668E+00
        -11   -1    0    0    0    0  0.00000000000E+00  0.00000000000E+00  0.45593999997E+02  0.45594000000E+02  0.51100000000E-03 0.  1.
         11   -1    0    0    0    0 -0.00000000000E+00 -0.00000000000E+00 -0.45593999997E+02  0.45594000000E+02  0.51100000000E-03 0. -1.
    9900012    2    1    2    0    0  0.13256133780E+02 -0.19902274994E+02  0.36218742806E+02  0.47787274623E+02  0.20000016318E+02 0.  0.
        -12    1    1    2    0    0 -0.13256133780E+02  0.19902274994E+02 -0.36218742806E+02  0.43400725377E+02  0.00000000000E+00 0.  1.
         11    1    3    3    0    0  0.18689861423E+01 -0.14724182602E+02  0.24687454935E+02  0.28805643439E+02  0.51100000000E-03 0. -1.
        -11    1    3    3    0    0  0.92435602096E+01 -0.53388907379E+01  0.12655144383E+02  0.16555960838E+02  0.51100000000E-03 0.  1.
        -12    1    3    3    0    0  0.21435874284E+01  0.16079834550E+00 -0.11238565117E+01  0.24256703465E+01  0.00000000000E+00 0.  1.
</event>
<event>
 7    1  0.3807360E-011  0.4778727E+02  0.7816164E-02  0.1312668E+00
        -11   -1    0    0    0    0  0.00000000000E+00  0.00000000000E+00  0.45593999997E+02  0.45594000000E+02  0.51100000000E-03 0. -1.
         11   -1    0    0    0    0 -0.00000000000E+00 -0.00000000000E+00 -0.45593999997E+02  0.45594000000E+02  0.51100000000E-03 0.  1.
    9900012    2    1    2    0    0 -0.26733055377E+02  0.17606314470E+02  0.29308448690E+02  0.47787265863E+02  0.19999976376E+02 0.  0.
        -12    1    1    2    0    0  0.26733055377E+02 -0.17606314470E+02 -0.29308448690E+02  0.43400734137E+02  0.00000000000E+00 0.  1.
         11    1    3    3    0    0 -0.71599763158E+01  0.26181090548E+01  0.11637768536E+02  0.13912491245E+02  0.51100000000E-03 0. -1.
        -11    1    3    3    0    0 -0.14934483113E+01 -0.40636333583E+00 -0.23509209336E+01  0.28146666795E+01  0.51100000000E-03 0.  1.
        -12    1    3    3    0    0 -0.18079630750E+02  0.15394568751E+02  0.20021601087E+02  0.31060107939E+02  0.00000000000E+00 0.  1.
</event>
<event>
 7    1  0.3807360E-011  0.4778727E+02  0.7816164E-02  0.1312668E+00
        -11   -1    0    0    0    0  0.00000000000E+00  0.00000000000E+00  0.45593999997E+02  0.45594000000E+02  0.51100000000E-03 0. -1.
         11   -1    0    0    0    0 -0.00000000000E+00 -0.00000000000E+00 -0.45593999997E+02  0.45594000000E+02  0.51100000000E-03 0.  1.
    9900012    2    1    2    0    0 -0.35577732731E+01 -0.14042823404E+02 -0.40911674862E+02  0.47787265216E+02  0.19999973424E+02 0.  0.
         12    1    1    2    0    0  0.35577732731E+01  0.14042823404E+02  0.40911674862E+02  0.43400734784E+02  0.00000000000E+00 0. -1.
         11    1    3    3    0    0 -0.43736104476E+01  0.59881417993E+00 -0.18125346517E+02  0.18655166399E+02  0.51100000000E-03 0. -1.
        -11    1    3    3    0    0  0.41980938269E+01 -0.56400528997E+01 -0.15651555499E+02  0.17158245199E+02  0.51100000000E-03 0.  1.
        -12    1    3    3    0    0 -0.33822566525E+01 -0.90015846847E+01 -0.71347728457E+01  0.11973853618E+02  0.00000000000E+00 0.  1.
</event>
<event>
 7    1  0.3807360E-011  0.4778727E+02  0.7816164E-02  0.1312668E+00
        -11   -1    0    0    0    0  0.00000000000E+00  0.00000000000E+00  0.45593999997E+02  0.45594000000E+02  0.51100000000E-03 0. -1.
         11   -1    0    0    0    0 -0.00000000000E+00 -0.00000000000E+00 -0.45593999997E+02  0.45594000000E+02  0.51100000000E-03 0.  1.
    9900012    2    1    2    0    0 -0.11893321925E+02 -0.88099883620E+01 -0.40798974415E+02  0.47787270575E+02  0.19999997858E+02 0.  0.
         12    1    1    2    0    0  0.11893321925E+02  0.88099883620E+01  0.40798974415E+02  0.43400729425E+02  0.00000000000E+00 0. -1.
         11    1    3    3    0    0  0.91274649147E-02  0.36046122232E+01 -0.22967666562E+01  0.42741607275E+01  0.51100000000E-03 0. -1.
        -11    1    3    3    0    0 -0.50474361852E+01 -0.69795872559E+01 -0.79091419252E+01  0.11693834981E+02  0.51100000000E-03 0.  1.
        -12    1    3    3    0    0 -0.68550132049E+01 -0.54350133292E+01 -0.30593065833E+02  0.31819274866E+02  0.00000000000E+00 0.  1.
</event>
<event>
 7    1  0.3807360E-011  0.4778727E+02  0.7816164E-02  0.1312668E+00
        -11   -1    0    0    0    0  0.00000000000E+00  0.00000000000E+00  0.45593999997E+02  0.45594000000E+02  0.51100000000E-03 0. -1.
         11   -1    0    0    0    0 -0.00000000000E+00 -0.00000000000E+00 -0.45593999997E+02  0.45594000000E+02  0.51100000000E-03 0.  1.
    9900012    2    1    2    0    0  0.13856112741E+02 -0.97076754614E+01 -0.39967388048E+02  0.47787275000E+02  0.20000018035E+02 0.  0.
         12    1    1    2    0    0 -0.13856112741E+02  0.97076754614E+01  0.39967388048E+02  0.43400725000E+02  0.00000000000E+00 0. -1.
         11    1    3    3    0    0  0.99482744192E+00  0.60753324039E+00  0.70039556442E+00  0.13599016454E+01  0.51100000000E-03 0. -1.
        -11    1    3    3    0    0  0.27894913386E+01 -0.65562917532E+01 -0.31509066551E+02  0.32304604914E+02  0.51100000000E-03 0.  1.
        -12    1    3    3    0    0  0.10071793960E+02 -0.37589169485E+01 -0.91587170612E+01  0.14122768440E+02  0.00000000000E+00 0.  1.
</event>
<event>
 7    1  0.3807360E-011  0.4778726E+02  0.7816164E-02  0.1312668E+00
        -11   -1    0    0    0    0  0.00000000000E+00  0.00000000000E+00  0.45593999997E+02  0.45594000000E+02  0.51100000000E-03 0. -1.
         11   -1    0    0    0    0 -0.00000000000E+00 -0.00000000000E+00 -0.45593999997E+02  0.45594000000E+02  0.51100000000E-03 0.  1.
    9900012    2    1    2    0    0 -0.20482491692E+01 -0.40464847521E+02  0.15557146025E+02  0.47787262656E+02  0.19999961755E+02 0.  0.
        -12    1    1    2    0    0  0.20482491692E+01  0.40464847521E+02 -0.15557146025E+02  0.43400737344E+02  0.00000000000E+00 0.  1.
         11    1    3    3    0    0  0.61361077610E+00 -0.12055026759E+02  0.73121838689E+01  0.14112697175E+02  0.51100000000E-03 0.  1.
        -11    1    3    3    0    0 -0.49648791562E+01 -0.15895669323E+02  0.11862454868E+02  0.20446030520E+02  0.51100000000E-03 0. -1.
        -12    1    3    3    0    0  0.23030192109E+01 -0.12514151438E+02 -0.36174927124E+01  0.13228534961E+02  0.00000000000E+00 0.  1.
</event>
<event>
 7    1  0.3807360E-011  0.4778727E+02  0.7816164E-02  0.1312668E+00
        -11   -1    0    0    0    0  0.00000000000E+00  0.00000000000E+00  0.45593999997E+02  0.45594000000E+02  0.51100000000E-03 0. -1.
         11   -1    0    0    0    0 -0.00000000000E+00 -0.00000000000E+00 -0.45593999997E+02  0.45594000000E+02  0.51100000000E-03 0.  1.
    9900012    2    1    2    0    0 -0.29464921017E+01  0.18942584625E+02 -0.38937385264E+02  0.47787270753E+02  0.19999998671E+02 0.  0.
         12    1    1    2    0    0  0.29464921017E+01 -0.18942584625E+02  0.38937385264E+02  0.43400729247E+02  0.00000000000E+00 0. -1.
         11    1    3    3    0    0  0.35805125048E+01 -0.41955806855E-01 -0.65870496420E+01  0.74974031060E+01  0.51100000000E-03 0. -1.
        -11    1    3    3    0    0 -0.64711560141E+01  0.76857405701E+01 -0.24643201963E+02  0.26612663744E+02  0.51100000000E-03 0.  1.
        -12    1    3    3    0    0 -0.55848592425E-01  0.11298799862E+02 -0.77071336585E+01  0.13677203903E+02  0.00000000000E+00 0.  1.
</event>
<event>
 7    1  0.3807360E-011  0.4778727E+02  0.7816164E-02  0.1312668E+00
        -11   -1    0    0    0    0  0.00000000000E+00  0.00000000000E+00  0.45593999997E+02  0.45594000000E+02  0.51100000000E-03 0. -1.
         11   -1    0    0    0    0 -0.00000000000E+00 -0.00000000000E+00 -0.45593999997E+02  0.45594000000E+02  0.51100000000E-03 0.  1.
    9900012    2    1    2    0    0  0.26642460580E+02 -0.17178079277E+02  0.29643147738E+02  0.47787270499E+02  0.19999997513E+02 0.  0.
        -12    1    1    2    0    0 -0.26642460580E+02  0.17178079277E+02 -0.29643147738E+02  0.43400729501E+02  0.00000000000E+00 0.  1.
         11    1    3    3    0    0  0.70255952575E+01  0.27247352688E+01  0.13040029876E+02  0.15060728748E+02  0.51100000000E-03 0. -1.
        -11    1    3    3    0    0  0.68180007944E+01 -0.49243090677E+01  0.37921456843E+01  0.92257424513E+01  0.51100000000E-03 0.  1.
         12    1    3    3    0    0  0.12798864528E+02 -0.14978505478E+02  0.12810972178E+02  0.23500799299E+02  0.00000000000E+00 0. -1.
</event>
<event>
 7    1  0.3807360E-011  0.4778727E+02  0.7816164E-02  0.1312668E+00
        -11   -1    0    0    0    0  0.00000000000E+00  0.00000000000E+00  0.45593999997E+02  0.45594000000E+02  0.51100000000E-03 0. -1.
         11   -1    0    0    0    0 -0.00000000000E+00 -0.00000000000E+00 -0.45593999997E+02  0.45594000000E+02  0.51100000000E-03 0.  1.
    9900012    2    1    2    0    0  0.38062493226E+02  0.30991459669E+01 -0.20621963492E+02  0.47787268732E+02  0.19999989459E+02 0.  0.
         12    1    1    2    0    0 -0.38062493226E+02 -0.30991459669E+01  0.20621963492E+02  0.43400731268E+02  0.00000000000E+00 0. -1.
         11    1    3    3    0    0  0.94898725343E+01 -0.16391375950E+01 -0.81097212824E+01  0.12590156167E+02  0.51100000000E-03 0.  1.
        -11    1    3    3    0    0  0.11156542005E+02 -0.97032794015E-01  0.28058924988E+01  0.11504385158E+02  0.51100000000E-03 0. -1.
         12    1    3    3    0    0  0.17416078686E+02  0.48353163559E+01 -0.15318134709E+02  0.23692727408E+02  0.00000000000E+00 0. -1.
</event>
<event>
 7    1  0.3807360E-011  0.4778726E+02  0.7816164E-02  0.1312668E+00
        -11   -1    0    0    0    0  0.00000000000E+00  0.00000000000E+00  0.45593999997E+02  0.45594000000E+02  0.51100000000E-03 0. -1.
         11   -1    0    0    0    0 -0.00000000000E+00 -0.00000000000E+00 -0.45593999997E+02  0.45594000000E+02  0.51100000000E-03 0.  1.
    9900012    2    1    2    0    0 -0.63620876425E+01  0.47088402155E+01 -0.42672877741E+02  0.47787264637E+02  0.19999970784E+02 0.  0.
         12    1    1    2    0    0  0.63620876425E+01 -0.47088402155E+01  0.42672877741E+02  0.43400735363E+02  0.00000000000E+00 0. -1.
         11    1    3    3    0    0  0.30460382409E+00  0.40494713012E+01 -0.96561986424E+01  0.10475360318E+02  0.51100000000E-03 0.  1.
        -11    1    3    3    0    0 -0.69238216392E+01  0.46606011774E+01 -0.67311951297E+01  0.10722383017E+02  0.51100000000E-03 0. -1.
         12    1    3    3    0    0  0.25713017258E+00 -0.40012322631E+01 -0.26285483969E+02  0.26589521302E+02  0.00000000000E+00 0. -1.
</event>
<event>
 7    1  0.3807360E-011  0.4778727E+02  0.7816164E-02  0.1312668E+00
        -11   -1    0    0    0    0  0.00000000000E+00  0.00000000000E+00  0.45593999997E+02  0.45594000000E+02  0.51100000000E-03 0. -1.
         11   -1    0    0    0    0 -0.00000000000E+00 -0.00000000000E+00 -0.45593999997E+02  0.45594000000E+02  0.51100000000E-03 0.  1.
    9900012    2    1    2    0    0  0.30852775698E+02 -0.18907536030E+02  0.23963199377E+02  0.47787267156E+02  0.19999982270E+02 0.  0.
        -12    1    1    2    0    0 -0.30852775698E+02  0.18907536030E+02 -0.23963199377E+02  0.43400732844E+02  0.00000000000E+00 0.  1.
         11    1    3    3    0    0 -0.22649220582E+01  0.29111453017E+00  0.15193478357E+01  0.27428156530E+01  0.51100000000E-03 0. -1.
        -11    1    3    3    0    0  0.99877944684E+01 -0.68249146503E+01  0.32060979520E+01  0.12514574011E+02  0.51100000000E-03 0.  1.
         12    1    3    3    0    0  0.23129903288E+02 -0.12373735910E+02  0.19237753589E+02  0.32529877492E+02  0.00000000000E+00 0. -1.
</event>
<event>
 7    1  0.3807360E-011  0.4778727E+02  0.7816164E-02  0.1312668E+00
        -11   -1    0    0    0    0  0.00000000000E+00  0.00000000000E+00  0.45593999997E+02  0.45594000000E+02  0.51100000000E-03 0. -1.
         11   -1    0    0    0    0 -0.00000000000E+00 -0.00000000000E+00 -0.45593999997E+02  0.45594000000E+02  0.51100000000E-03 0.  1.
    9900012    2    1    2    0    0  0.15632175042E+02 -0.23250658341E+02  0.33146124012E+02  0.47787267900E+02  0.19999985661E+02 0.  0.
        -12    1    1    2    0    0 -0.15632175042E+02  0.23250658341E+02 -0.33146124012E+02  0.43400732100E+02  0.00000000000E+00 0.  1.
         11    1    3    3    0    0  0.93247487754E+01 -0.91387316971E+01  0.13699161028E+02  0.18924438430E+02  0.51100000000E-03 0. -1.
        -11    1    3    3    0    0  0.81832956255E+01 -0.74200469244E+01  0.36986419522E+01  0.11649179207E+02  0.51100000000E-03 0.  1.
         12    1    3    3    0    0 -0.18758693587E+01 -0.66918797193E+01  0.15748321032E+02  0.17213650262E+02  0.00000000000E+00 0. -1.
</event>
<event>
 7    1  0.3807360E-011  0.4778727E+02  0.7816164E-02  0.1312668E+00
        -11   -1    0    0    0    0  0.00000000000E+00  0.00000000000E+00  0.45593999997E+02  0.45594000000E+02  0.51100000000E-03 0. -1.
         11   -1    0    0    0    0 -0.00000000000E+00 -0.00000000000E+00 -0.45593999997E+02  0.45594000000E+02  0.51100000000E-03 0.  1.
    9900012    2    1    2    0    0  0.50853804434E+01  0.52749105335E+01 -0.42777767402E+02  0.47787272365E+02  0.20000006020E+02 0.  0.
         12    1    1    2    0    0 -0.50853804434E+01 -0.52749105335E+01  0.42777767402E+02  0.43400727635E+02  0.00000000000E+00 0. -1.
         11    1    3    3    0    0 -0.21646522646E+01  0.20636267178E+01 -0.13424010328E+02  0.13753120672E+02  0.51100000000E-03 0. -1.
        -11    1    3    3    0    0  0.84530174168E+01  0.73529394413E+01 -0.13195016197E+02  0.17309756630E+02  0.51100000000E-03 0.  1.
        -12    1    3    3    0    0 -0.12029847088E+01 -0.41416556256E+01 -0.16158740876E+02  0.16724395063E+02  0.00000000000E+00 0.  1.
</event>
<event>
 7    1  0.3807360E-011  0.4778726E+02  0.7816164E-02  0.1312668E+00
        -11   -1    0    0    0    0  0.00000000000E+00  0.00000000000E+00  0.45593999997E+02  0.45594000000E+02  0.51100000000E-03 0. -1.
         11   -1    0    0    0    0 -0.00000000000E+00 -0.00000000000E+00 -0.45593999997E+02  0.45594000000E+02  0.51100000000E-03 0.  1.
    9900012    2    1    2    0    0  0.24842717958E+02 -0.10261968815E+02  0.34075730870E+02  0.47787261828E+02  0.19999957981E+02 0.  0.
        -12    1    1    2    0    0 -0.24842717958E+02  0.10261968815E+02 -0.34075730870E+02  0.43400738172E+02  0.00000000000E+00 0.  1.
         11    1    3    3    0    0  0.18358216761E+02 -0.14748200052E+02  0.26770825353E+02  0.35654040693E+02  0.51100000000E-03 0. -1.
        -11    1    3    3    0    0  0.37084702036E+01  0.18304844643E+01  0.30313381246E+00  0.41467234046E+01  0.51100000000E-03 0.  1.
         12    1    3    3    0    0  0.27760309928E+01  0.26557467723E+01  0.70017717050E+01  0.79864977306E+01  0.00000000000E+00 0. -1.
</event>
<event>
 7    1  0.3807360E-011  0.4778727E+02  0.7816164E-02  0.1312668E+00
        -11   -1    0    0    0    0  0.00000000000E+00  0.00000000000E+00  0.45593999997E+02  0.45594000000E+02  0.51100000000E-03 0. -1.
         11   -1    0    0    0    0 -0.00000000000E+00 -0.00000000000E+00 -0.45593999997E+02  0.45594000000E+02  0.51100000000E-03 0.  1.
    9900012    2    1    2    0    0 -0.36091815705E+02  0.21888030626E+02  0.10095460947E+02  0.47787269853E+02  0.19999994568E+02 0.  0.
        -12    1    1    2    0    0  0.36091815705E+02 -0.21888030626E+02 -0.10095460947E+02  0.43400730147E+02  0.00000000000E+00 0.  1.
         11    1    3    3    0    0 -0.12577164396E+01  0.16337993673E+01  0.47277003620E+01  0.51577419467E+01  0.51100000000E-03 0. -1.
        -11    1    3    3    0    0 -0.12707508891E+02  0.48988156207E+01 -0.38671375843E+01  0.14157469056E+02  0.51100000000E-03 0.  1.
        -12    1    3    3    0    0 -0.22126590374E+02  0.15355415638E+02  0.92348981691E+01  0.28472058851E+02  0.00000000000E+00 0.  1.
</event>
<event>
 7    1  0.5608626E-011  0.4778726E+02  0.7816164E-02  0.1312668E+00
        -11   -1    0    0    0    0  0.00000000000E+00  0.00000000000E+00  0.45593999997E+02  0.45594000000E+02  0.51100000000E-03 0. -1.
         11   -1    0    0    0    0 -0.00000000000E+00 -0.00000000000E+00 -0.45593999997E+02  0.45594000000E+02  0.51100000000E-03 0.  1.
    9900012    2    1    2    0    0 -0.27910243735E+02 -0.33085557095E+01 -0.33071076753E+02  0.47787258488E+02  0.19999942749E+02 0.  0.
         12    1    1    2    0    0  0.27910243735E+02  0.33085557095E+01  0.33071076753E+02  0.43400741512E+02  0.00000000000E+00 0. -1.
         11    1    3    3    0    0 -0.68467144723E+01  0.61246108704E+01 -0.15815794247E+02  0.18290098559E+02  0.51100000000E-03 0. -1.
        -11    1    3    3    0    0 -0.12937670399E+02 -0.27982906710E+01 -0.11482550993E+02  0.17523205289E+02  0.51100000000E-03 0.  1.
         12    1    3    3    0    0 -0.81258588635E+01 -0.66348759089E+01 -0.57727315135E+01  0.11973954640E+02  0.00000000000E+00 0. -1.
</event>
<event>
 7    1  0.3807360E-011  0.4778727E+02  0.7816164E-02  0.1312668E+00
        -11   -1    0    0    0    0  0.00000000000E+00  0.00000000000E+00  0.45593999997E+02  0.45594000000E+02  0.51100000000E-03 0. -1.
         11   -1    0    0    0    0 -0.00000000000E+00 -0.00000000000E+00 -0.45593999997E+02  0.45594000000E+02  0.51100000000E-03 0.  1.
    9900012    2    1    2    0    0 -0.12873564884E+02  0.63350712781E+01 -0.40960486492E+02  0.47787271266E+02  0.20000001012E+02 0.  0.
         12    1    1    2    0    0  0.12873564884E+02 -0.63350712781E+01  0.40960486492E+02  0.43400728734E+02  0.00000000000E+00 0. -1.
         11    1    3    3    0    0 -0.16592744177E+01  0.74244808116E+01 -0.19047820314E+02  0.20510864581E+02  0.51100000000E-03 0.  1.
        -11    1    3    3    0    0 -0.70421561458E+01  0.20863957049E+01 -0.20601546709E+02  0.21871642309E+02  0.51100000000E-03 0. -1.
         12    1    3    3    0    0 -0.41721343204E+01 -0.31758052385E+01 -0.13111194700E+01  0.54047643764E+01  0.00000000000E+00 0. -1.
</event>
<event>
 7    1  0.3807360E-011  0.4778727E+02  0.7816164E-02  0.1312668E+00
        -11   -1    0    0    0    0  0.00000000000E+00  0.00000000000E+00  0.45593999997E+02  0.45594000000E+02  0.51100000000E-03 0. -1.
         11   -1    0    0    0    0 -0.00000000000E+00 -0.00000000000E+00 -0.45593999997E+02  0.45594000000E+02  0.51100000000E-03 0.  1.
    9900012    2    1    2    0    0 -0.18100863137E+02 -0.20309779081E+02  0.33815601307E+02  0.47787271154E+02  0.20000000498E+02 0.  0.
        -12    1    1    2    0    0  0.18100863137E+02  0.20309779081E+02 -0.33815601307E+02  0.43400728846E+02  0.00000000000E+00 0.  1.
         11    1    3    3    0    0 -0.74957964144E+01 -0.63553343616E+01  0.10143817437E+02  0.14123536072E+02  0.51100000000E-03 0. -1.
        -11    1    3    3    0    0  0.43827348239E+01 -0.37870936218E+01  0.50076060615E+01  0.76567983756E+01  0.51100000000E-03 0.  1.
        -12    1    3    3    0    0 -0.14987801546E+02 -0.10167351098E+02  0.18664177809E+02  0.26006936706E+02  0.00000000000E+00 0.  1.
</event>
<event>
 7    1  0.3807360E-011  0.4778729E+02  0.7816164E-02  0.1312668E+00
        -11   -1    0    0    0    0  0.00000000000E+00  0.00000000000E+00  0.45593999997E+02  0.45594000000E+02  0.51100000000E-03 0. -1.
         11   -1    0    0    0    0 -0.00000000000E+00 -0.00000000000E+00 -0.45593999997E+02  0.45594000000E+02  0.51100000000E-03 0.  1.
    9900012    2    1    2    0    0  0.15706774128E+02  0.29411073674E+01 -0.40351817266E+02  0.47787285458E+02  0.20000065718E+02 0.  0.
         12    1    1    2    0    0 -0.15706774128E+02 -0.29411073674E+01  0.40351817266E+02  0.43400714542E+02  0.00000000000E+00 0. -1.
         11    1    3    3    0    0  0.16574136298E+01 -0.23490559966E+01 -0.22071570651E+01  0.36244484527E+01  0.51100000000E-03 0. -1.
        -11    1    3    3    0    0  0.37134628465E+01  0.10168726785E+02 -0.18316583252E+02  0.21276513648E+02  0.51100000000E-03 0.  1.
        -12    1    3    3    0    0  0.10335897651E+02 -0.48785634208E+01 -0.19828076950E+02  0.22886323358E+02  0.00000000000E+00 0.  1.
</event>
<event>
 7    1  0.3807360E-011  0.4778728E+02  0.7816164E-02  0.1312668E+00
        -11   -1    0    0    0    0  0.00000000000E+00  0.00000000000E+00  0.45593999997E+02  0.45594000000E+02  0.51100000000E-03 0.  1.
         11   -1    0    0    0    0 -0.00000000000E+00 -0.00000000000E+00 -0.45593999997E+02  0.45594000000E+02  0.51100000000E-03 0. -1.
    9900012    2    1    2    0    0  0.14167476953E+02 -0.40687339863E+02 -0.52388349102E+01  0.47787280886E+02  0.20000044873E+02 0.  0.
         12    1    1    2    0    0 -0.14167476953E+02  0.40687339863E+02  0.52388349102E+01  0.43400719114E+02  0.00000000000E+00 0. -1.
         11    1    3    3    0    0  0.14879776840E+02 -0.22704862727E+02 -0.60121386034E+01  0.27804034979E+02  0.51100000000E-03 0. -1.
        -11    1    3    3    0    0  0.22429520629E+01 -0.16449208787E+02  0.11006091460E+01  0.16637867785E+02  0.51100000000E-03 0.  1.
         12    1    3    3    0    0 -0.29552519500E+01 -0.15332683484E+01 -0.32730545276E+00  0.33453781215E+01  0.00000000000E+00 0. -1.
</event>
<event>
 7    1  0.3807360E-011  0.4778727E+02  0.7816164E-02  0.1312668E+00
        -11   -1    0    0    0    0  0.00000000000E+00  0.00000000000E+00  0.45593999997E+02  0.45594000000E+02  0.51100000000E-03 0. -1.
         11   -1    0    0    0    0 -0.00000000000E+00 -0.00000000000E+00 -0.45593999997E+02  0.45594000000E+02  0.51100000000E-03 0.  1.
    9900012    2    1    2    0    0 -0.39711077884E+02  0.86537935914E+01  0.15223841758E+02  0.47787271802E+02  0.20000003455E+02 0.  0.
        -12    1    1    2    0    0  0.39711077884E+02 -0.86537935914E+01 -0.15223841758E+02  0.43400728198E+02  0.00000000000E+00 0.  1.
         11    1    3    3    0    0 -0.16299539227E+02  0.49626910954E+01  0.66288317487E-01  0.17038417659E+02  0.51100000000E-03 0. -1.
        -11    1    3    3    0    0 -0.19755511089E+01  0.46553741655E+01  0.45923806346E+01  0.68311983545E+01  0.51100000000E-03 0.  1.
         12    1    3    3    0    0 -0.21435987548E+02 -0.96427166950E+00  0.10565172806E+02  0.23917655788E+02  0.00000000000E+00 0. -1.
</event>
<event>
 7    1  0.3807360E-011  0.4778727E+02  0.7816164E-02  0.1312668E+00
        -11   -1    0    0    0    0  0.00000000000E+00  0.00000000000E+00  0.45593999997E+02  0.45594000000E+02  0.51100000000E-03 0. -1.
         11   -1    0    0    0    0 -0.00000000000E+00 -0.00000000000E+00 -0.45593999997E+02  0.45594000000E+02  0.51100000000E-03 0.  1.
    9900012    2    1    2    0    0 -0.84579282748E+01 -0.18063560999E+02  0.38546006746E+02  0.47787269329E+02  0.19999992180E+02 0.  0.
        -12    1    1    2    0    0  0.84579282748E+01  0.18063560999E+02 -0.38546006746E+02  0.43400730671E+02  0.00000000000E+00 0.  1.
         11    1    3    3    0    0 -0.19797802573E+01  0.14584821572E+01  0.45400731490E+01  0.51632319849E+01  0.51100000000E-03 0. -1.
        -11    1    3    3    0    0 -0.43453303960E+01 -0.14836431388E+02  0.10811299342E+02  0.18864935364E+02  0.51100000000E-03 0.  1.
        -12    1    3    3    0    0 -0.21328176214E+01 -0.46856117685E+01  0.23194634256E+02  0.23759101980E+02  0.00000000000E+00 0.  1.
</event>
<event>
 7    1  0.3807360E-011  0.4778727E+02  0.7816164E-02  0.1312668E+00
        -11   -1    0    0    0    0  0.00000000000E+00  0.00000000000E+00  0.45593999997E+02  0.45594000000E+02  0.51100000000E-03 0. -1.
         11   -1    0    0    0    0 -0.00000000000E+00 -0.00000000000E+00 -0.45593999997E+02  0.45594000000E+02  0.51100000000E-03 0.  1.
    9900012    2    1    2    0    0  0.55791385730E+01 -0.71499609188E+01  0.42442602509E+02  0.47787271479E+02  0.20000001983E+02 0.  0.
        -12    1    1    2    0    0 -0.55791385730E+01  0.71499609188E+01 -0.42442602509E+02  0.43400728521E+02  0.00000000000E+00 0.  1.
         11    1    3    3    0    0 -0.46609220117E+01 -0.68755983295E+01  0.11742615889E+02  0.14383569604E+02  0.51100000000E-03 0. -1.
        -11    1    3    3    0    0 -0.71569909762E+00  0.14076934018E+01  0.78497628734E+01  0.80070346160E+01  0.51100000000E-03 0.  1.
         12    1    3    3    0    0  0.10955759682E+02 -0.16820559911E+01  0.22850223747E+02  0.25396667259E+02  0.00000000000E+00 0. -1.
</event>
<event>
 7    1  0.3807360E-011  0.4778727E+02  0.7816164E-02  0.1312668E+00
        -11   -1    0    0    0    0  0.00000000000E+00  0.00000000000E+00  0.45593999997E+02  0.45594000000E+02  0.51100000000E-03 0. -1.
         11   -1    0    0    0    0 -0.00000000000E+00 -0.00000000000E+00 -0.45593999997E+02  0.45594000000E+02  0.51100000000E-03 0.  1.
    9900012    2    1    2    0    0 -0.38178154898E+02 -0.12100127096E+02  0.16722396408E+02  0.47787272716E+02  0.20000007623E+02 0.  0.
        -12    1    1    2    0    0  0.38178154898E+02  0.12100127096E+02 -0.16722396408E+02  0.43400727284E+02  0.00000000000E+00 0.  1.
         11    1    3    3    0    0 -0.14723535026E+02 -0.66222625999E+01  0.13413304425E+02  0.20989368296E+02  0.51100000000E-03 0. -1.
        -11    1    3    3    0    0 -0.15591793651E+01 -0.40980021295E+01 -0.85543289359E+00  0.44672617388E+01  0.51100000000E-03 0.  1.
         12    1    3    3    0    0 -0.21895440506E+02 -0.13798623662E+01  0.41645248766E+01  0.22330642681E+02  0.00000000000E+00 0. -1.
</event>
<event>
 7    1  0.3807360E-011  0.4778727E+02  0.7816164E-02  0.1312668E+00
        -11   -1    0    0    0    0  0.00000000000E+00  0.00000000000E+00  0.45593999997E+02  0.45594000000E+02  0.51100000000E-03 0. -1.
         11   -1    0    0    0    0 -0.00000000000E+00 -0.00000000000E+00 -0.45593999997E+02  0.45594000000E+02  0.51100000000E-03 0.  1.
    9900012    2    1    2    0    0  0.37107778322E+01 -0.35414116822E+02  0.24813186008E+02  0.47787265648E+02  0.19999975396E+02 0.  0.
        -12    1    1    2    0    0 -0.37107778322E+01  0.35414116822E+02 -0.24813186008E+02  0.43400734352E+02  0.00000000000E+00 0.  1.
         11    1    3    3    0    0 -0.41937913025E+01 -0.13975744120E+02  0.94781364215E+01  0.17399551129E+02  0.51100000000E-03 0. -1.
        -11    1    3    3    0    0  0.26003698419E+01 -0.23123676762E+01  0.88462704873E+01  0.95060753932E+01  0.51100000000E-03 0.  1.
         12    1    3    3    0    0  0.53041992928E+01 -0.19126005026E+02  0.64887790990E+01  0.20881639126E+02  0.00000000000E+00 0. -1.
</event>
<event>
 7    1  0.3807360E-011  0.4778727E+02  0.7816164E-02  0.1312668E+00
        -11   -1    0    0    0    0  0.00000000000E+00  0.00000000000E+00  0.45593999997E+02  0.45594000000E+02  0.51100000000E-03 0. -1.
         11   -1    0    0    0    0 -0.00000000000E+00 -0.00000000000E+00 -0.45593999997E+02  0.45594000000E+02  0.51100000000E-03 0.  1.
    9900012    2    1    2    0    0 -0.29341503323E+02  0.31110827775E+02 -0.74037656436E+01  0.47787272266E+02  0.20000005570E+02 0.  0.
         12    1    1    2    0    0  0.29341503323E+02 -0.31110827775E+02  0.74037656436E+01  0.43400727734E+02  0.00000000000E+00 0. -1.
         11    1    3    3    0    0 -0.10652166910E+02  0.48043563388E+01 -0.66127381921E+01  0.13426794344E+02  0.51100000000E-03 0.  1.
        -11    1    3    3    0    0 -0.88106869309E+01  0.13685748492E+02  0.54444636335E+01  0.17163044616E+02  0.51100000000E-03 0. -1.
        -12    1    3    3    0    0 -0.98786494826E+01  0.12620722945E+02 -0.62354910850E+01  0.17197433306E+02  0.00000000000E+00 0.  1.
</event>
<event>
 7    1  0.3807360E-011  0.4778727E+02  0.7816164E-02  0.1312668E+00
        -11   -1    0    0    0    0  0.00000000000E+00  0.00000000000E+00  0.45593999997E+02  0.45594000000E+02  0.51100000000E-03 0. -1.
         11   -1    0    0    0    0 -0.00000000000E+00 -0.00000000000E+00 -0.45593999997E+02  0.45594000000E+02  0.51100000000E-03 0.  1.
    9900012    2    1    2    0    0 -0.36414600702E+02 -0.20154623323E+01  0.23527394659E+02  0.47787268069E+02  0.19999986434E+02 0.  0.
        -12    1    1    2    0    0  0.36414600702E+02  0.20154623323E+01 -0.23527394659E+02  0.43400731931E+02  0.00000000000E+00 0.  1.
         11    1    3    3    0    0 -0.17592223713E+02 -0.29057663350E+01  0.64551316234E+01  0.18963083549E+02  0.51100000000E-03 0.  1.
        -11    1    3    3    0    0 -0.13557933767E+01  0.49153728672E+01  0.22852767712E+01  0.55876252814E+01  0.51100000000E-03 0. -1.
         12    1    3    3    0    0 -0.17466583612E+02 -0.40250688645E+01  0.14786986265E+02  0.23236559239E+02  0.00000000000E+00 0. -1.
</event>
<event>
 7    1  0.3807360E-011  0.4778727E+02  0.7816164E-02  0.1312668E+00
        -11   -1    0    0    0    0  0.00000000000E+00  0.00000000000E+00  0.45593999997E+02  0.45594000000E+02  0.51100000000E-03 0. -1.
         11   -1    0    0    0    0 -0.00000000000E+00 -0.00000000000E+00 -0.45593999997E+02  0.45594000000E+02  0.51100000000E-03 0.  1.
    9900012    2    1    2    0    0  0.11497570326E+02  0.31560237609E+02 -0.27484195110E+02  0.47787266110E+02  0.19999977504E+02 0.  0.
         12    1    1    2    0    0 -0.11497570326E+02 -0.31560237609E+02  0.27484195110E+02  0.43400733890E+02  0.00000000000E+00 0. -1.
         11    1    3    3    0    0 -0.23155486528E+01  0.81704236669E+01 -0.38581657635E+00  0.85009671892E+01  0.51100000000E-03 0. -1.
        -11    1    3    3    0    0  0.20657172800E+01  0.87596863776E+01 -0.13025525642E+02  0.15832359642E+02  0.51100000000E-03 0.  1.
        -12    1    3    3    0    0  0.11747401699E+02  0.14630127564E+02 -0.14072852891E+02  0.23453939280E+02  0.00000000000E+00 0.  1.
</event>
<event>
 7    1  0.3807360E-011  0.4778726E+02  0.7816164E-02  0.1312668E+00
        -11   -1    0    0    0    0  0.00000000000E+00  0.00000000000E+00  0.45593999997E+02  0.45594000000E+02  0.51100000000E-03 0. -1.
         11   -1    0    0    0    0 -0.00000000000E+00 -0.00000000000E+00 -0.45593999997E+02  0.45594000000E+02  0.51100000000E-03 0.  1.
    9900012    2    1    2    0    0  0.10032503973E+01  0.51083521963E+00  0.43386139993E+02  0.47787255680E+02  0.19999929948E+02 0.  0.
        -12    1    1    2    0    0 -0.10032503973E+01 -0.51083521963E+00 -0.43386139993E+02  0.43400744320E+02  0.00000000000E+00 0.  1.
         11    1    3    3    0    0 -0.61205579706E+01 -0.57123911585E+01  0.12222331380E+02  0.14814790827E+02  0.51100000000E-03 0. -1.
        -11    1    3    3    0    0  0.38599913503E+01  0.12905454933E+01  0.70180933356E+01  0.81128709605E+01  0.51100000000E-03 0.  1.
         12    1    3    3    0    0  0.32638170176E+01  0.49326808848E+01  0.24145715278E+02  0.24859593893E+02  0.00000000000E+00 0. -1.
</event>
<event>
 7    1  0.3807360E-011  0.4778728E+02  0.7816164E-02  0.1312668E+00
        -11   -1    0    0    0    0  0.00000000000E+00  0.00000000000E+00  0.45593999997E+02  0.45594000000E+02  0.51100000000E-03 0. -1.
         11   -1    0    0    0    0 -0.00000000000E+00 -0.00000000000E+00 -0.45593999997E+02  0.45594000000E+02  0.51100000000E-03 0.  1.
    9900012    2    1    2    0    0  0.35167937592E+01  0.23115161465E+02 -0.36564248733E+02  0.47787276351E+02  0.20000024193E+02 0.  0.
         12    1    1    2    0    0 -0.35167937592E+01 -0.23115161465E+02  0.36564248733E+02  0.43400723649E+02  0.00000000000E+00 0. -1.
         11    1    3    3    0    0  0.34391480176E+01  0.99090335578E+01 -0.10910362517E+02  0.15134486963E+02  0.51100000000E-03 0. -1.
        -11    1    3    3    0    0  0.69784101588E+01  0.10839137307E+02 -0.16968898696E+02  0.21310293970E+02  0.51100000000E-03 0.  1.
         12    1    3    3    0    0 -0.69007644172E+01  0.23669905998E+01 -0.86849875207E+01  0.11342495417E+02  0.00000000000E+00 0. -1.
</event>
<event>
 7    1  0.3807360E-011  0.4778727E+02  0.7816164E-02  0.1312668E+00
        -11   -1    0    0    0    0  0.00000000000E+00  0.00000000000E+00  0.45593999997E+02  0.45594000000E+02  0.51100000000E-03 0. -1.
         11   -1    0    0    0    0 -0.00000000000E+00 -0.00000000000E+00 -0.45593999997E+02  0.45594000000E+02  0.51100000000E-03 0.  1.
    9900012    2    1    2    0    0  0.16018961219E+02 -0.36110749762E+01  0.40174321983E+02  0.47787272727E+02  0.20000007671E+02 0.  0.
        -12    1    1    2    0    0 -0.16018961219E+02  0.36110749762E+01 -0.40174321983E+02  0.43400727273E+02  0.00000000000E+00 0.  1.
         11    1    3    3    0    0  0.15775306218E+02 -0.62898058820E+01  0.31203158451E+02  0.35525470326E+02  0.51100000000E-03 0. -1.
        -11    1    3    3    0    0 -0.12767492759E+01 -0.36826955814E+00  0.87489592091E+01  0.88492936828E+01  0.51100000000E-03 0.  1.
         12    1    3    3    0    0  0.15204042765E+01  0.30470004639E+01  0.22220432349E+00  0.34125087183E+01  0.00000000000E+00 0. -1.
</event>
<event>
 7    1  0.3807360E-011  0.4778727E+02  0.7816164E-02  0.1312668E+00
        -11   -1    0    0    0    0  0.00000000000E+00  0.00000000000E+00  0.45593999997E+02  0.45594000000E+02  0.51100000000E-03 0. -1.
         11   -1    0    0    0    0 -0.00000000000E+00 -0.00000000000E+00 -0.45593999997E+02  0.45594000000E+02  0.51100000000E-03 0.  1.
    9900012    2    1    2    0    0 -0.69400881088E+01 -0.29758197568E+02 -0.30820582803E+02  0.47787268788E+02  0.19999989712E+02 0.  0.
         12    1    1    2    0    0  0.69400881088E+01  0.29758197568E+02  0.30820582803E+02  0.43400731212E+02  0.00000000000E+00 0. -1.
         11    1    3    3    0    0 -0.56110533802E+00 -0.20268626699E+02 -0.12892459533E+02  0.24028058193E+02  0.51100000000E-03 0. -1.
        -11    1    3    3    0    0 -0.12056914777E+01 -0.78604963305E+01 -0.16233820388E+02  0.18077002493E+02  0.51100000000E-03 0.  1.
        -12    1    3    3    0    0 -0.51732912931E+01 -0.16290745383E+01 -0.16943028822E+01  0.56822081017E+01  0.00000000000E+00 0.  1.
</event>
<event>
 7    1  0.3807360E-011  0.4778727E+02  0.7816164E-02  0.1312668E+00
        -11   -1    0    0    0    0  0.00000000000E+00  0.00000000000E+00  0.45593999997E+02  0.45594000000E+02  0.51100000000E-03 0. -1.
         11   -1    0    0    0    0 -0.00000000000E+00 -0.00000000000E+00 -0.45593999997E+02  0.45594000000E+02  0.51100000000E-03 0.  1.
    9900012    2    1    2    0    0 -0.62983955503E+01 -0.74849383879E+01  0.42283909345E+02  0.47787273293E+02  0.20000010252E+02 0.  0.
        -12    1    1    2    0    0  0.62983955503E+01  0.74849383879E+01 -0.42283909345E+02  0.43400726707E+02  0.00000000000E+00 0.  1.
         11    1    3    3    0    0 -0.74457278128E+00 -0.15940253458E+01  0.18787908303E+02  0.18870103447E+02  0.51100000000E-03 0. -1.
        -11    1    3    3    0    0 -0.79226038938E+01  0.68355199852E+00  0.19027827876E+02  0.20622636343E+02  0.51100000000E-03 0.  1.
        -12    1    3    3    0    0  0.23687811248E+01 -0.65744650406E+01  0.44681731660E+01  0.82945335028E+01  0.00000000000E+00 0.  1.
</event>
<event>
 7    1  0.3807360E-011  0.4778728E+02  0.7816164E-02  0.1312668E+00
        -11   -1    0    0    0    0  0.00000000000E+00  0.00000000000E+00  0.45593999997E+02  0.45594000000E+02  0.51100000000E-03 0. -1.
         11   -1    0    0    0    0 -0.00000000000E+00 -0.00000000000E+00 -0.45593999997E+02  0.45594000000E+02  0.51100000000E-03 0.  1.
    9900012    2    1    2    0    0 -0.77260678126E+01 -0.16513046283E+01 -0.42675564220E+02  0.47787277514E+02  0.20000029495E+02 0.  0.
         12    1    1    2    0    0  0.77260678126E+01  0.16513046283E+01  0.42675564220E+02  0.43400722486E+02  0.00000000000E+00 0. -1.
         11    1    3    3    0    0  0.24710431822E+01  0.10295382103E+01 -0.26582887484E+01  0.37725989272E+01  0.51100000000E-03 0. -1.
        -11    1    3    3    0    0 -0.79336547103E+01  0.21747694843E+01 -0.36922407237E+02  0.37827723376E+02  0.51100000000E-03 0.  1.
        -12    1    3    3    0    0 -0.22634562846E+01 -0.48556123229E+01 -0.30948682349E+01  0.61869552102E+01  0.00000000000E+00 0.  1.
</event>
<event>
 7    1  0.3807360E-011  0.4778728E+02  0.7816164E-02  0.1312668E+00
        -11   -1    0    0    0    0  0.00000000000E+00  0.00000000000E+00  0.45593999997E+02  0.45594000000E+02  0.51100000000E-03 0. -1.
         11   -1    0    0    0    0 -0.00000000000E+00 -0.00000000000E+00 -0.45593999997E+02  0.45594000000E+02  0.51100000000E-03 0.  1.
    9900012    2    1    2    0    0  0.12404224313E+02  0.15581868540E+02 -0.38561154758E+02  0.47787284980E+02  0.20000063536E+02 0.  0.
         12    1    1    2    0    0 -0.12404224313E+02 -0.15581868540E+02  0.38561154758E+02  0.43400715020E+02  0.00000000000E+00 0. -1.
         11    1    3    3    0    0  0.25074917325E+00  0.39074383779E+01 -0.12534709277E+02  0.13132017619E+02  0.51100000000E-03 0.  1.
        -11    1    3    3    0    0  0.92087137978E+01  0.10950926594E+02 -0.27710661400E+02  0.31186599022E+02  0.51100000000E-03 0. -1.
         12    1    3    3    0    0  0.29447613421E+01  0.72350356809E+00  0.16842159197E+01  0.34686683380E+01  0.00000000000E+00 0. -1.
</event>
<event>
 7    1  0.3807360E-011  0.4778727E+02  0.7816164E-02  0.1312668E+00
        -11   -1    0    0    0    0  0.00000000000E+00  0.00000000000E+00  0.45593999997E+02  0.45594000000E+02  0.51100000000E-03 0. -1.
         11   -1    0    0    0    0 -0.00000000000E+00 -0.00000000000E+00 -0.45593999997E+02  0.45594000000E+02  0.51100000000E-03 0.  1.
    9900012    2    1    2    0    0 -0.80412173386E+01 -0.58287177487E+01  0.42249119926E+02  0.47787271188E+02  0.20000000655E+02 0.  0.
        -12    1    1    2    0    0  0.80412173386E+01  0.58287177487E+01 -0.42249119926E+02  0.43400728812E+02  0.00000000000E+00 0.  1.
         11    1    3    3    0    0 -0.72835411323E+01 -0.20854909687E+01  0.36851344071E+02  0.37622078679E+02  0.51100000000E-03 0. -1.
        -11    1    3    3    0    0  0.10935832525E+01 -0.26614404334E+01  0.69473986210E+01  0.75196766799E+01  0.51100000000E-03 0.  1.
         12    1    3    3    0    0 -0.18512594587E+01 -0.10817863467E+01 -0.15496227664E+01  0.26455158290E+01  0.00000000000E+00 0. -1.
</event>
<event>
 7    1  0.3807360E-011  0.4778723E+02  0.7816164E-02  0.1312668E+00
        -11   -1    0    0    0    0  0.00000000000E+00  0.00000000000E+00  0.45593999997E+02  0.45594000000E+02  0.51100000000E-03 0. -1.
         11   -1    0    0    0    0 -0.00000000000E+00 -0.00000000000E+00 -0.45593999997E+02  0.45594000000E+02  0.51100000000E-03 0.  1.
    9900012    2    1    2    0    0 -0.17943741029E+02 -0.32733419681E+02 -0.22139825046E+02  0.47787234348E+02  0.19999832685E+02 0.  0.
         12    1    1    2    0    0  0.17943741029E+02  0.32733419681E+02  0.22139825046E+02  0.43400765652E+02  0.00000000000E+00 0. -1.
         11    1    3    3    0    0  0.10464927399E+01 -0.10353719048E+01 -0.53308662206E+01  0.55303957326E+01  0.51100000000E-03 0. -1.
        -11    1    3    3    0    0 -0.35328046945E+01 -0.33238615874E+01 -0.69490055571E+01  0.84745172934E+01  0.51100000000E-03 0.  1.
         12    1    3    3    0    0 -0.15457429075E+02 -0.28374186188E+02 -0.98599532684E+01  0.33782321322E+02  0.00000000000E+00 0. -1.
</event>
<event>
 7    1  0.3807360E-011  0.4778727E+02  0.7816164E-02  0.1312668E+00
        -11   -1    0    0    0    0  0.00000000000E+00  0.00000000000E+00  0.45593999997E+02  0.45594000000E+02  0.51100000000E-03 0.  1.
         11   -1    0    0    0    0 -0.00000000000E+00 -0.00000000000E+00 -0.45593999997E+02  0.45594000000E+02  0.51100000000E-03 0. -1.
    9900012    2    1    2    0    0  0.30605441991E+02 -0.22619032783E+02  0.20864078207E+02  0.47787268636E+02  0.19999989020E+02 0.  0.
        -12    1    1    2    0    0 -0.30605441991E+02  0.22619032783E+02 -0.20864078207E+02  0.43400731364E+02  0.00000000000E+00 0.  1.
         11    1    3    3    0    0  0.21512671928E+02 -0.74441545281E+01  0.10982250224E+02  0.25274894863E+02  0.51100000000E-03 0. -1.
        -11    1    3    3    0    0  0.24562920226E+01 -0.30139157670E+01  0.75101111414E+01  0.84568805341E+01  0.51100000000E-03 0.  1.
         12    1    3    3    0    0  0.66364780406E+01 -0.12160962488E+02  0.23717168414E+01  0.14055493239E+02  0.00000000000E+00 0. -1.
</event>
<event>
 7    1  0.3807360E-011  0.4778733E+02  0.7816164E-02  0.1312667E+00
        -11   -1    0    0    0    0  0.00000000000E+00  0.00000000000E+00  0.45593999997E+02  0.45594000000E+02  0.51100000000E-03 0. -1.
         11   -1    0    0    0    0 -0.00000000000E+00 -0.00000000000E+00 -0.45593999997E+02  0.45594000000E+02  0.51100000000E-03 0.  1.
    9900012    2    1    2    0    0  0.30251768594E+02  0.28342530451E+01  0.30990570070E+02  0.47787332647E+02  0.20000280869E+02 0.  0.
        -12    1    1    2    0    0 -0.30251768594E+02 -0.28342530451E+01 -0.30990570070E+02  0.43400667353E+02  0.00000000000E+00 0.  1.
         11    1    3    3    0    0  0.38453923884E+01 -0.20341879009E+01  0.10045465904E+01  0.44647594728E+01  0.51100000000E-03 0. -1.
        -11    1    3    3    0    0  0.85261243309E+01 -0.54127587730E+01  0.62472441533E+01  0.11875218457E+02  0.51100000000E-03 0.  1.
         12    1    3    3    0    0  0.17880251875E+02  0.10281199719E+02  0.23738779326E+02  0.31447354717E+02  0.00000000000E+00 0. -1.
</event>
<event>
 7    1  0.3807360E-011  0.4778727E+02  0.7816164E-02  0.1312668E+00
        -11   -1    0    0    0    0  0.00000000000E+00  0.00000000000E+00  0.45593999997E+02  0.45594000000E+02  0.51100000000E-03 0. -1.
         11   -1    0    0    0    0 -0.00000000000E+00 -0.00000000000E+00 -0.45593999997E+02  0.45594000000E+02  0.51100000000E-03 0.  1.
    9900012    2    1    2    0    0  0.37548928732E+01 -0.32450751319E+02 -0.28573989246E+02  0.47787270247E+02  0.19999996365E+02 0.  0.
         12    1    1    2    0    0 -0.37548928732E+01  0.32450751319E+02  0.28573989246E+02  0.43400729753E+02  0.00000000000E+00 0. -1.
         11    1    3    3    0    0 -0.37349967439E+01 -0.10417299342E+02 -0.63942156983E+01  0.12781092321E+02  0.51100000000E-03 0.  1.
        -11    1    3    3    0    0 -0.16359557590E+01 -0.42201815593E+01  0.73030380256E+00  0.45847167354E+01  0.51100000000E-03 0. -1.
        -12    1    3    3    0    0  0.91258453761E+01 -0.17813270417E+02 -0.22910077350E+02  0.30421461191E+02  0.00000000000E+00 0.  1.
</event>
<event>
 7    1  0.4307690E-011  0.4778727E+02  0.7816164E-02  0.1312668E+00
        -11   -1    0    0    0    0  0.00000000000E+00  0.00000000000E+00  0.45593999997E+02  0.45594000000E+02  0.51100000000E-03 0. -1.
         11   -1    0    0    0    0 -0.00000000000E+00 -0.00000000000E+00 -0.45593999997E+02  0.45594000000E+02  0.51100000000E-03 0.  1.
    9900012    2    1    2    0    0 -0.27453481088E+01 -0.16894058094E+02 -0.39883294173E+02  0.47787270868E+02  0.19999999195E+02 0.  0.
         12    1    1    2    0    0  0.27453481088E+01  0.16894058094E+02  0.39883294173E+02  0.43400729132E+02  0.00000000000E+00 0. -1.
         11    1    3    3    0    0  0.57644897225E+01 -0.43479455920E+01 -0.68707602103E+01  0.99670115261E+01  0.51100000000E-03 0. -1.
        -11    1    3    3    0    0 -0.23868531465E+01 -0.26421992790E+01 -0.20183051102E+02  0.20494727054E+02  0.51100000000E-03 0.  1.
         12    1    3    3    0    0 -0.61229846849E+01 -0.99039132234E+01 -0.12829482861E+02  0.17325532288E+02  0.00000000000E+00 0. -1.
</event>
<event>
 7    1  0.3807360E-011  0.4778723E+02  0.7816164E-02  0.1312668E+00
        -11   -1    0    0    0    0  0.00000000000E+00  0.00000000000E+00  0.45593999997E+02  0.45594000000E+02  0.51100000000E-03 0. -1.
         11   -1    0    0    0    0 -0.00000000000E+00 -0.00000000000E+00 -0.45593999997E+02  0.45594000000E+02  0.51100000000E-03 0.  1.
    9900012    2    1    2    0    0 -0.22094468447E+02 -0.22774860516E+02  0.29610245200E+02  0.47787234704E+02  0.19999834308E+02 0.  0.
        -12    1    1    2    0    0  0.22094468447E+02  0.22774860516E+02 -0.29610245200E+02  0.43400765296E+02  0.00000000000E+00 0.  1.
         11    1    3    3    0    0 -0.73959199764E+01 -0.96557024303E+00  0.57577377404E+01  0.94224997925E+01  0.51100000000E-03 0. -1.
        -11    1    3    3    0    0 -0.14044828147E+02 -0.22524376471E+02  0.17172568325E+02  0.31614898959E+02  0.51100000000E-03 0.  1.
        -12    1    3    3    0    0 -0.65372032336E+00  0.71508619776E+00  0.66799391350E+01  0.67498359520E+01  0.00000000000E+00 0.  1.
</event>
<event>
 7    1  0.3807360E-011  0.4778727E+02  0.7816164E-02  0.1312668E+00
        -11   -1    0    0    0    0  0.00000000000E+00  0.00000000000E+00  0.45593999997E+02  0.45594000000E+02  0.51100000000E-03 0. -1.
         11   -1    0    0    0    0 -0.00000000000E+00 -0.00000000000E+00 -0.45593999997E+02  0.45594000000E+02  0.51100000000E-03 0.  1.
    9900012    2    1    2    0    0  0.12703661380E+02 -0.65782841341E+01 -0.40975189333E+02  0.47787274482E+02  0.20000015675E+02 0.  0.
         12    1    1    2    0    0 -0.12703661380E+02  0.65782841341E+01  0.40975189333E+02  0.43400725518E+02  0.00000000000E+00 0. -1.
         11    1    3    3    0    0  0.60225352480E+00 -0.28677250436E+01  0.85481133982E+00  0.30524185365E+01  0.51100000000E-03 0. -1.
        -11    1    3    3    0    0  0.15464463280E+01  0.23478737905E+01 -0.33351241392E+01  0.43620019333E+01  0.51100000000E-03 0.  1.
        -12    1    3    3    0    0  0.10554961527E+02 -0.60584328810E+01 -0.38494876533E+02  0.40372854013E+02  0.00000000000E+00 0.  1.
</event>
<event>
 7    1  0.3807360E-011  0.4778729E+02  0.7816164E-02  0.1312668E+00
        -11   -1    0    0    0    0  0.00000000000E+00  0.00000000000E+00  0.45593999997E+02  0.45594000000E+02  0.51100000000E-03 0. -1.
         11   -1    0    0    0    0 -0.00000000000E+00 -0.00000000000E+00 -0.45593999997E+02  0.45594000000E+02  0.51100000000E-03 0.  1.
    9900012    2    1    2    0    0 -0.18896794037E+02 -0.20795240554E+02  0.33077042263E+02  0.47787290565E+02  0.20000089001E+02 0.  0.
        -12    1    1    2    0    0  0.18896794037E+02  0.20795240554E+02 -0.33077042263E+02  0.43400709435E+02  0.00000000000E+00 0.  1.
         11    1    3    3    0    0 -0.24224972698E+01 -0.10221186885E+02  0.55028410131E+01  0.11858432183E+02  0.51100000000E-03 0. -1.
        -11    1    3    3    0    0 -0.51133146761E+00 -0.65450499655E+01  0.75245700203E+01  0.99859047247E+01  0.51100000000E-03 0.  1.
        -12    1    3    3    0    0 -0.15962965300E+02 -0.40290037037E+01  0.20049631229E+02  0.25942953657E+02  0.00000000000E+00 0.  1.
</event>
<event>
 7    1  0.3807360E-011  0.4778727E+02  0.7816164E-02  0.1312668E+00
        -11   -1    0    0    0    0  0.00000000000E+00  0.00000000000E+00  0.45593999997E+02  0.45594000000E+02  0.51100000000E-03 0. -1.
         11   -1    0    0    0    0 -0.00000000000E+00 -0.00000000000E+00 -0.45593999997E+02  0.45594000000E+02  0.51100000000E-03 0.  1.
    9900012    2    1    2    0    0  0.86588366325E+01 -0.35748863383E+02 -0.23036198848E+02  0.47787272560E+02  0.20000006909E+02 0.  0.
         12    1    1    2    0    0 -0.86588366325E+01  0.35748863383E+02  0.23036198848E+02  0.43400727440E+02  0.00000000000E+00 0. -1.
         11    1    3    3    0    0  0.59250052163E+01 -0.71141915429E+01 -0.23726799980E+01  0.95575634319E+01  0.51100000000E-03 0. -1.
        -11    1    3    3    0    0  0.47904655889E+00 -0.28081211217E+02 -0.14424979051E+02  0.31573152042E+02  0.51100000000E-03 0.  1.
        -12    1    3    3    0    0  0.22547848573E+01 -0.55346062349E+00 -0.62385397986E+01  0.66565570856E+01  0.00000000000E+00 0.  1.
</event>
<event>
 7    1  0.3807360E-011  0.4778727E+02  0.7816164E-02  0.1312668E+00
        -11   -1    0    0    0    0  0.00000000000E+00  0.00000000000E+00  0.45593999997E+02  0.45594000000E+02  0.51100000000E-03 0. -1.
         11   -1    0    0    0    0 -0.00000000000E+00 -0.00000000000E+00 -0.45593999997E+02  0.45594000000E+02  0.51100000000E-03 0.  1.
    9900012    2    1    2    0    0 -0.34712338852E+02  0.41889639022E+01  0.25712432864E+02  0.47787273152E+02  0.20000009609E+02 0.  0.
        -12    1    1    2    0    0  0.34712338852E+02 -0.41889639022E+01 -0.25712432864E+02  0.43400726848E+02  0.00000000000E+00 0.  1.
         11    1    3    3    0    0 -0.11496749298E+02  0.94904130551E+01  0.40762342953E+01  0.15455059711E+02  0.51100000000E-03 0.  1.
        -11    1    3    3    0    0 -0.86951181636E+01 -0.25204192134E+01  0.62948324349E+01  0.11026445870E+02  0.51100000000E-03 0. -1.
         12    1    3    3    0    0 -0.14520471390E+02 -0.27810299395E+01  0.15341366134E+02  0.21305767571E+02  0.00000000000E+00 0. -1.
</event>
<event>
 7    1  0.3807360E-011  0.4778727E+02  0.7816164E-02  0.1312668E+00
        -11   -1    0    0    0    0  0.00000000000E+00  0.00000000000E+00  0.45593999997E+02  0.45594000000E+02  0.51100000000E-03 0. -1.
         11   -1    0    0    0    0 -0.00000000000E+00 -0.00000000000E+00 -0.45593999997E+02  0.45594000000E+02  0.51100000000E-03 0.  1.
    9900012    2    1    2    0    0  0.25174905299E+01  0.21592464281E+02 -0.37563959417E+02  0.47787270520E+02  0.19999997609E+02 0.  0.
         12    1    1    2    0    0 -0.25174905299E+01 -0.21592464281E+02  0.37563959417E+02  0.43400729480E+02  0.00000000000E+00 0. -1.
         11    1    3    3    0    0 -0.17782292084E+00 -0.14721641658E+01  0.97850961099E+00  0.17766174721E+01  0.51100000000E-03 0. -1.
        -11    1    3    3    0    0  0.34427534569E+01  0.18924806826E+01 -0.66203294309E+01  0.76982333385E+01  0.51100000000E-03 0.  1.
        -12    1    3    3    0    0 -0.74744000613E+00  0.21172147764E+02 -0.31922139597E+02  0.38312419709E+02  0.00000000000E+00 0.  1.
</event>
<event>
 7    1  0.3807360E-011  0.4778727E+02  0.7816164E-02  0.1312668E+00
        -11   -1    0    0    0    0  0.00000000000E+00  0.00000000000E+00  0.45593999997E+02  0.45594000000E+02  0.51100000000E-03 0. -1.
         11   -1    0    0    0    0 -0.00000000000E+00 -0.00000000000E+00 -0.45593999997E+02  0.45594000000E+02  0.51100000000E-03 0.  1.
    9900012    2    1    2    0    0  0.12549656395E+02 -0.21188617220E+02  0.35737542646E+02  0.47787270401E+02  0.19999997066E+02 0.  0.
        -12    1    1    2    0    0 -0.12549656395E+02  0.21188617220E+02 -0.35737542646E+02  0.43400729599E+02  0.00000000000E+00 0.  1.
         11    1    3    3    0    0  0.61020223037E+01 -0.10537691160E+02  0.99294618072E+01  0.15712155270E+02  0.51100000000E-03 0. -1.
        -11    1    3    3    0    0  0.28177789382E+01  0.29763109847E+01  0.24067638444E+01  0.47529798743E+01  0.51100000000E-03 0.  1.
        -12    1    3    3    0    0  0.36298551528E+01 -0.13627237045E+02  0.23401316995E+02  0.27322135257E+02  0.00000000000E+00 0.  1.
</event>
<event>
 7    1  0.3807360E-011  0.4778727E+02  0.7816164E-02  0.1312668E+00
        -11   -1    0    0    0    0  0.00000000000E+00  0.00000000000E+00  0.45593999997E+02  0.45594000000E+02  0.51100000000E-03 0. -1.
         11   -1    0    0    0    0 -0.00000000000E+00 -0.00000000000E+00 -0.45593999997E+02  0.45594000000E+02  0.51100000000E-03 0.  1.
    9900012    2    1    2    0    0 -0.64656271349E+01  0.25517196487E+02  0.34506398833E+02  0.47787271766E+02  0.20000003289E+02 0.  0.
        -12    1    1    2    0    0  0.64656271349E+01 -0.25517196487E+02 -0.34506398833E+02  0.43400728234E+02  0.00000000000E+00 0.  1.
         11    1    3    3    0    0 -0.49380695208E+01  0.28412782678E+01  0.62796637397E+01  0.84788896521E+01  0.51100000000E-03 0. -1.
        -11    1    3    3    0    0  0.12534330164E+01  0.57513127096E+00 -0.15804453576E+01  0.20975409638E+01  0.51100000000E-03 0.  1.
         12    1    3    3    0    0 -0.27809906304E+01  0.22100786949E+02  0.29807180451E+02  0.37210841150E+02  0.00000000000E+00 0. -1.
</event>
<event>
 7    1  0.3807360E-011  0.4778726E+02  0.7816164E-02  0.1312668E+00
        -11   -1    0    0    0    0  0.00000000000E+00  0.00000000000E+00  0.45593999997E+02  0.45594000000E+02  0.51100000000E-03 0. -1.
         11   -1    0    0    0    0 -0.00000000000E+00 -0.00000000000E+00 -0.45593999997E+02  0.45594000000E+02  0.51100000000E-03 0.  1.
    9900012    2    1    2    0    0 -0.13402649804E+02  0.39329280569E+02  0.12537961810E+02  0.47787264774E+02  0.19999971409E+02 0.  0.
        -12    1    1    2    0    0  0.13402649804E+02 -0.39329280569E+02 -0.12537961810E+02  0.43400735226E+02  0.00000000000E+00 0.  1.
         11    1    3    3    0    0 -0.65862246930E+01  0.62650108487E+01 -0.22232921392E+01  0.93579776040E+01  0.51100000000E-03 0. -1.
        -11    1    3    3    0    0  0.23161194980E+01  0.27151457101E+01  0.26694624831E+00  0.35787827982E+01  0.51100000000E-03 0.  1.
         12    1    3    3    0    0 -0.91325446089E+01  0.30349124010E+02  0.14494307701E+02  0.34850504372E+02  0.00000000000E+00 0. -1.
</event>
<event>
 7    1  0.3807360E-011  0.4778727E+02  0.7816164E-02  0.1312668E+00
        -11   -1    0    0    0    0  0.00000000000E+00  0.00000000000E+00  0.45593999997E+02  0.45594000000E+02  0.51100000000E-03 0. -1.
         11   -1    0    0    0    0 -0.00000000000E+00 -0.00000000000E+00 -0.45593999997E+02  0.45594000000E+02  0.51100000000E-03 0.  1.
    9900012    2    1    2    0    0 -0.85769231830E+01 -0.43696072058E+01  0.42319810347E+02  0.47787269290E+02  0.19999992000E+02 0.  0.
        -12    1    1    2    0    0  0.85769231830E+01  0.43696072058E+01 -0.42319810347E+02  0.43400730710E+02  0.00000000000E+00 0.  1.
         11    1    3    3    0    0  0.52138776640E+01 -0.19507593245E+01  0.22044897072E+02  0.22736918644E+02  0.51100000000E-03 0.  1.
        -11    1    3    3    0    0 -0.90122235335E+01 -0.31727469083E+01  0.15778146395E+02  0.18445498092E+02  0.51100000000E-03 0. -1.
        -12    1    3    3    0    0 -0.47785773134E+01  0.75389902690E+00  0.44967668797E+01  0.66048525534E+01  0.00000000000E+00 0.  1.
</event>
<event>
 7    1  0.3807360E-011  0.4778722E+02  0.7816164E-02  0.1312668E+00
        -11   -1    0    0    0    0  0.00000000000E+00  0.00000000000E+00  0.45593999997E+02  0.45594000000E+02  0.51100000000E-03 0. -1.
         11   -1    0    0    0    0 -0.00000000000E+00 -0.00000000000E+00 -0.45593999997E+02  0.45594000000E+02  0.51100000000E-03 0.  1.
    9900012    2    1    2    0    0 -0.83618972987E+00 -0.53351736478E+01 -0.43063493888E+02  0.47787218936E+02  0.19999762415E+02 0.  0.
         12    1    1    2    0    0  0.83618972987E+00  0.53351736478E+01  0.43063493888E+02  0.43400781064E+02  0.00000000000E+00 0. -1.
         11    1    3    3    0    0  0.78347576935E+00 -0.12089507214E+02 -0.22051206190E+02  0.25160002258E+02  0.51100000000E-03 0. -1.
        -11    1    3    3    0    0 -0.27564598768E+01  0.17647547695E+01 -0.78379080435E+01  0.84938350119E+01  0.51100000000E-03 0.  1.
        -12    1    3    3    0    0  0.11367943776E+01  0.49895787965E+01 -0.13174379655E+02  0.14133381666E+02  0.00000000000E+00 0.  1.
</event>
<event>
 7    1  0.3807360E-011  0.4778727E+02  0.7816164E-02  0.1312668E+00
        -11   -1    0    0    0    0  0.00000000000E+00  0.00000000000E+00  0.45593999997E+02  0.45594000000E+02  0.51100000000E-03 0. -1.
         11   -1    0    0    0    0 -0.00000000000E+00 -0.00000000000E+00 -0.45593999997E+02  0.45594000000E+02  0.51100000000E-03 0.  1.
    9900012    2    1    2    0    0 -0.37120211148E+02  0.36648628914E-01 -0.22488030714E+02  0.47787274842E+02  0.20000017317E+02 0.  0.
         12    1    1    2    0    0  0.37120211148E+02 -0.36648628914E-01  0.22488030714E+02  0.43400725158E+02  0.00000000000E+00 0. -1.
         11    1    3    3    0    0 -0.17433549899E+01  0.33246624840E+01  0.86478630821E+00  0.38523399219E+01  0.51100000000E-03 0. -1.
        -11    1    3    3    0    0 -0.11258584119E+02 -0.62664504749E+01 -0.89087905638E+01  0.15664950287E+02  0.51100000000E-03 0.  1.
         12    1    3    3    0    0 -0.24118272040E+02  0.29784366198E+01 -0.14444026458E+02  0.28269984634E+02  0.00000000000E+00 0. -1.
</event>
<event>
 7    1  0.3807360E-011  0.4778727E+02  0.7816164E-02  0.1312668E+00
        -11   -1    0    0    0    0  0.00000000000E+00  0.00000000000E+00  0.45593999997E+02  0.45594000000E+02  0.51100000000E-03 0.  1.
         11   -1    0    0    0    0 -0.00000000000E+00 -0.00000000000E+00 -0.45593999997E+02  0.45594000000E+02  0.51100000000E-03 0. -1.
    9900012    2    1    2    0    0 -0.42787634896E+02 -0.21675833754E+01  0.69385310123E+01  0.47787270395E+02  0.19999997038E+02 0.  0.
         12    1    1    2    0    0  0.42787634896E+02  0.21675833754E+01 -0.69385310123E+01  0.43400729605E+02  0.00000000000E+00 0. -1.
         11    1    3    3    0    0 -0.17204111412E+02 -0.27885303404E+01  0.18213066174E+01  0.17523541565E+02  0.51100000000E-03 0.  1.
        -11    1    3    3    0    0 -0.13118819493E+02  0.69988740851E+01  0.64317940217E+01  0.16200482646E+02  0.51100000000E-03 0. -1.
        -12    1    3    3    0    0 -0.12464703991E+02 -0.63779271201E+01 -0.13145696267E+01  0.14063246184E+02  0.00000000000E+00 0.  1.
</event>
<event>
 7    1  0.3807360E-011  0.4778727E+02  0.7816164E-02  0.1312668E+00
        -11   -1    0    0    0    0  0.00000000000E+00  0.00000000000E+00  0.45593999997E+02  0.45594000000E+02  0.51100000000E-03 0.  1.
         11   -1    0    0    0    0 -0.00000000000E+00 -0.00000000000E+00 -0.45593999997E+02  0.45594000000E+02  0.51100000000E-03 0. -1.
    9900012    2    1    2    0    0 -0.64119248319E+01  0.41426173081E+02  0.11241991348E+02  0.47787274595E+02  0.20000016189E+02 0.  0.
        -12    1    1    2    0    0  0.64119248319E+01 -0.41426173081E+02 -0.11241991348E+02  0.43400725405E+02  0.00000000000E+00 0.  1.
         11    1    3    3    0    0 -0.20243708399E+01  0.75439508030E+01 -0.30225361295E+01  0.83752609470E+01  0.51100000000E-03 0. -1.
        -11    1    3    3    0    0 -0.64919312753E+01  0.33721961496E+02  0.12157168493E+02  0.36429556748E+02  0.51100000000E-03 0.  1.
        -12    1    3    3    0    0  0.21043772833E+01  0.16026078183E+00  0.21073589845E+01  0.29824568997E+01  0.00000000000E+00 0.  1.
</event>
<event>
 7    1  0.3807360E-011  0.4778727E+02  0.7816164E-02  0.1312668E+00
        -11   -1    0    0    0    0  0.00000000000E+00  0.00000000000E+00  0.45593999997E+02  0.45594000000E+02  0.51100000000E-03 0. -1.
         11   -1    0    0    0    0 -0.00000000000E+00 -0.00000000000E+00 -0.45593999997E+02  0.45594000000E+02  0.51100000000E-03 0.  1.
    9900012    2    1    2    0    0  0.50440721200E+01 -0.42819907837E+01  0.42893417912E+02  0.47787269490E+02  0.19999992913E+02 0.  0.
        -12    1    1    2    0    0 -0.50440721200E+01  0.42819907837E+01 -0.42893417912E+02  0.43400730510E+02  0.00000000000E+00 0.  1.
         11    1    3    3    0    0  0.28214911867E+01 -0.22782473338E+01  0.36486787627E+01  0.51443250680E+01  0.51100000000E-03 0. -1.
        -11    1    3    3    0    0 -0.40694221540E+01  0.32628816695E+01  0.29250475595E+02  0.29711898563E+02  0.51100000000E-03 0.  1.
        -12    1    3    3    0    0  0.62920030873E+01 -0.52666251195E+01  0.99942635547E+01  0.12931045859E+02  0.00000000000E+00 0.  1.
</event>
<event>
 7    1  0.3807360E-011  0.4778727E+02  0.7816164E-02  0.1312668E+00
        -11   -1    0    0    0    0  0.00000000000E+00  0.00000000000E+00  0.45593999997E+02  0.45594000000E+02  0.51100000000E-03 0. -1.
         11   -1    0    0    0    0 -0.00000000000E+00 -0.00000000000E+00 -0.45593999997E+02  0.45594000000E+02  0.51100000000E-03 0.  1.
    9900012    2    1    2    0    0 -0.17809809017E+02 -0.31249740817E+02  0.24287602889E+02  0.47787271291E+02  0.20000001125E+02 0.  0.
        -12    1    1    2    0    0  0.17809809017E+02  0.31249740817E+02 -0.24287602889E+02  0.43400728709E+02  0.00000000000E+00 0.  1.
         11    1    3    3    0    0 -0.99287072116E+01 -0.56822497833E+01  0.69214718246E+01  0.13370638054E+02  0.51100000000E-03 0. -1.
        -11    1    3    3    0    0 -0.70955450761E+00 -0.10226247611E+02  0.12772831297E+00  0.10251630241E+02  0.51100000000E-03 0.  1.
         12    1    3    3    0    0 -0.71715472974E+01 -0.15341243423E+02  0.17238402752E+02  0.24165002996E+02  0.00000000000E+00 0. -1.
</event>
<event>
 7    1  0.3807360E-011  0.4778727E+02  0.7816164E-02  0.1312668E+00
        -11   -1    0    0    0    0  0.00000000000E+00  0.00000000000E+00  0.45593999997E+02  0.45594000000E+02  0.51100000000E-03 0.  1.
         11   -1    0    0    0    0 -0.00000000000E+00 -0.00000000000E+00 -0.45593999997E+02  0.45594000000E+02  0.51100000000E-03 0. -1.
    9900012    2    1    2    0    0 -0.42815375616E+02 -0.26182533217E+01  0.66039126269E+01  0.47787270725E+02  0.19999998543E+02 0.  0.
         12    1    1    2    0    0  0.42815375616E+02  0.26182533217E+01 -0.66039126269E+01  0.43400729275E+02  0.00000000000E+00 0. -1.
         11    1    3    3    0    0 -0.49142949284E+01  0.60837845777E+01  0.25777766599E+01  0.82345408009E+01  0.51100000000E-03 0. -1.
        -11    1    3    3    0    0 -0.28340948761E+01 -0.17221625054E+01  0.16887170886E+01  0.37215189275E+01  0.51100000000E-03 0.  1.
        -12    1    3    3    0    0 -0.35066985812E+02 -0.69798753940E+01  0.23374188784E+01  0.35831210996E+02  0.00000000000E+00 0.  1.
</event>
<event>
 7    1  0.3807360E-011  0.4778728E+02  0.7816164E-02  0.1312668E+00
        -11   -1    0    0    0    0  0.00000000000E+00  0.00000000000E+00  0.45593999997E+02  0.45594000000E+02  0.51100000000E-03 0.  1.
         11   -1    0    0    0    0 -0.00000000000E+00 -0.00000000000E+00 -0.45593999997E+02  0.45594000000E+02  0.51100000000E-03 0. -1.
    9900012    2    1    2    0    0  0.38519877268E+02 -0.15393360299E+02  0.12762692551E+02  0.47787276421E+02  0.20000024514E+02 0.  0.
        -12    1    1    2    0    0 -0.38519877268E+02  0.15393360299E+02 -0.12762692551E+02  0.43400723579E+02  0.00000000000E+00 0.  1.
         11    1    3    3    0    0  0.27327897568E+02 -0.12654358228E+02  0.78275662179E+01  0.31116194510E+02  0.51100000000E-03 0. -1.
        -11    1    3    3    0    0  0.25287336985E+01 -0.42593491483E+01 -0.21273448862E+01  0.53909318128E+01  0.51100000000E-03 0.  1.
        -12    1    3    3    0    0  0.86632460014E+01  0.15203470767E+01  0.70624712195E+01  0.11280150098E+02  0.00000000000E+00 0.  1.
</event>
<event>
 7    1  0.3807360E-011  0.4778728E+02  0.7816164E-02  0.1312668E+00
        -11   -1    0    0    0    0  0.00000000000E+00  0.00000000000E+00  0.45593999997E+02  0.45594000000E+02  0.51100000000E-03 0. -1.
         11   -1    0    0    0    0 -0.00000000000E+00 -0.00000000000E+00 -0.45593999997E+02  0.45594000000E+02  0.51100000000E-03 0.  1.
    9900012    2    1    2    0    0  0.22970434059E+02 -0.26394768015E+02  0.25676795573E+02  0.47787280532E+02  0.20000043258E+02 0.  0.
        -12    1    1    2    0    0 -0.22970434059E+02  0.26394768015E+02 -0.25676795573E+02  0.43400719468E+02  0.00000000000E+00 0.  1.
         11    1    3    3    0    0  0.19631120057E+02 -0.18013012911E+02  0.13684230965E+02  0.29951755978E+02  0.51100000000E-03 0. -1.
        -11    1    3    3    0    0  0.39632956883E+01 -0.81626598381E+01  0.41721027750E+01  0.99871502528E+01  0.51100000000E-03 0.  1.
        -12    1    3    3    0    0 -0.62398168596E+00 -0.21909526591E+00  0.78204618336E+01  0.78483743011E+01  0.00000000000E+00 0.  1.
</event>
<event>
 7    1  0.3807360E-011  0.4778727E+02  0.7816164E-02  0.1312668E+00
        -11   -1    0    0    0    0  0.00000000000E+00  0.00000000000E+00  0.45593999997E+02  0.45594000000E+02  0.51100000000E-03 0. -1.
         11   -1    0    0    0    0 -0.00000000000E+00 -0.00000000000E+00 -0.45593999997E+02  0.45594000000E+02  0.51100000000E-03 0.  1.
    9900012    2    1    2    0    0  0.19328631502E+02 -0.36456792897E+02 -0.13451011526E+02  0.47787268956E+02  0.19999990477E+02 0.  0.
         12    1    1    2    0    0 -0.19328631502E+02  0.36456792897E+02  0.13451011526E+02  0.43400731044E+02  0.00000000000E+00 0. -1.
         11    1    3    3    0    0 -0.13739937963E+01 -0.80649080950E+01  0.17606097986E+00  0.81830067373E+01  0.51100000000E-03 0. -1.
        -11    1    3    3    0    0  0.29607893651E+01 -0.12952567438E+02 -0.22420046862E+01  0.13474489310E+02  0.51100000000E-03 0.  1.
         12    1    3    3    0    0  0.17741835934E+02 -0.15439317364E+02 -0.11385067820E+02  0.26129772908E+02  0.00000000000E+00 0. -1.
</event>
<event>
 7    1  0.3807360E-011  0.4778727E+02  0.7816164E-02  0.1312668E+00
        -11   -1    0    0    0    0  0.00000000000E+00  0.00000000000E+00  0.45593999997E+02  0.45594000000E+02  0.51100000000E-03 0. -1.
         11   -1    0    0    0    0 -0.00000000000E+00 -0.00000000000E+00 -0.45593999997E+02  0.45594000000E+02  0.51100000000E-03 0.  1.
    9900012    2    1    2    0    0  0.20811573868E+02 -0.32630255741E+01 -0.37945415087E+02  0.47787268797E+02  0.19999989754E+02 0.  0.
         12    1    1    2    0    0 -0.20811573868E+02  0.32630255741E+01  0.37945415087E+02  0.43400731203E+02  0.00000000000E+00 0. -1.
         11    1    3    3    0    0  0.23716003005E+01 -0.40207508432E+01 -0.38822424942E+01  0.60714687163E+01  0.51100000000E-03 0. -1.
        -11    1    3    3    0    0  0.99323447985E+01  0.67602599897E+01 -0.10506049149E+02  0.15960252420E+02  0.51100000000E-03 0.  1.
        -12    1    3    3    0    0  0.85076287694E+01 -0.60025347206E+01 -0.23557123444E+02  0.25755547661E+02  0.00000000000E+00 0.  1.
</event>
<event>
 7    1  0.3807360E-011  0.4778727E+02  0.7816164E-02  0.1312668E+00
        -11   -1    0    0    0    0  0.00000000000E+00  0.00000000000E+00  0.45593999997E+02  0.45594000000E+02  0.51100000000E-03 0. -1.
         11   -1    0    0    0    0 -0.00000000000E+00 -0.00000000000E+00 -0.45593999997E+02  0.45594000000E+02  0.51100000000E-03 0.  1.
    9900012    2    1    2    0    0 -0.23061158256E+02 -0.23977127578E+02  0.27872994624E+02  0.47787268481E+02  0.19999988314E+02 0.  0.
        -12    1    1    2    0    0  0.23061158256E+02  0.23977127578E+02 -0.27872994624E+02  0.43400731519E+02  0.00000000000E+00 0.  1.
         11    1    3    3    0    0 -0.76107313715E+01 -0.13637944294E+02  0.16042303653E+02  0.22389110374E+02  0.51100000000E-03 0. -1.
        -11    1    3    3    0    0 -0.14186930393E+02 -0.52854124903E+01  0.13117999779E+02  0.20032136622E+02  0.51100000000E-03 0.  1.
        -12    1    3    3    0    0 -0.12634964922E+01 -0.50537707942E+01 -0.12873088075E+01  0.53660214863E+01  0.00000000000E+00 0.  1.
</event>
<event>
 7    1  0.3807360E-011  0.4778725E+02  0.7816164E-02  0.1312668E+00
        -11   -1    0    0    0    0  0.00000000000E+00  0.00000000000E+00  0.45593999997E+02  0.45594000000E+02  0.51100000000E-03 0. -1.
         11   -1    0    0    0    0 -0.00000000000E+00 -0.00000000000E+00 -0.45593999997E+02  0.45594000000E+02  0.51100000000E-03 0.  1.
    9900012    2    1    2    0    0  0.29640658233E+02  0.57635979388E+01 -0.31174303018E+02  0.47787252883E+02  0.19999917194E+02 0.  0.
         12    1    1    2    0    0 -0.29640658233E+02 -0.57635979388E+01  0.31174303018E+02  0.43400747117E+02  0.00000000000E+00 0. -1.
         11    1    3    3    0    0  0.47985646263E+01 -0.25931206393E+01 -0.42052159139E+00  0.54705882493E+01  0.51100000000E-03 0. -1.
        -11    1    3    3    0    0  0.30577410377E+01  0.54961749654E+01 -0.11478309436E+02  0.13088518147E+02  0.51100000000E-03 0.  1.
         12    1    3    3    0    0  0.21784352569E+02  0.28605436127E+01 -0.19275471990E+02  0.29228146487E+02  0.00000000000E+00 0. -1.
</event>
<event>
 7    1  0.3807360E-011  0.4778728E+02  0.7816164E-02  0.1312668E+00
        -11   -1    0    0    0    0  0.00000000000E+00  0.00000000000E+00  0.45593999997E+02  0.45594000000E+02  0.51100000000E-03 0. -1.
         11   -1    0    0    0    0 -0.00000000000E+00 -0.00000000000E+00 -0.45593999997E+02  0.45594000000E+02  0.51100000000E-03 0.  1.
    9900012    2    1    2    0    0 -0.30961208538E+02 -0.57761979018E+01  0.29860702315E+02  0.47787280662E+02  0.20000043850E+02 0.  0.
        -12    1    1    2    0    0  0.30961208538E+02  0.57761979018E+01 -0.29860702315E+02  0.43400719338E+02  0.00000000000E+00 0.  1.
         11    1    3    3    0    0 -0.83510101490E+01 -0.89159860983E+01  0.35487937577E+01  0.12721168029E+02  0.51100000000E-03 0. -1.
        -11    1    3    3    0    0 -0.10618585122E+01  0.67089694001E-01  0.29485312549E+01  0.31346261897E+01  0.51100000000E-03 0.  1.
         12    1    3    3    0    0 -0.21548339876E+02  0.30726985025E+01  0.23363377303E+02  0.31931486444E+02  0.00000000000E+00 0. -1.
</event>
<event>
 7    1  0.3807360E-011  0.4778727E+02  0.7816164E-02  0.1312668E+00
        -11   -1    0    0    0    0  0.00000000000E+00  0.00000000000E+00  0.45593999997E+02  0.45594000000E+02  0.51100000000E-03 0. -1.
         11   -1    0    0    0    0 -0.00000000000E+00 -0.00000000000E+00 -0.45593999997E+02  0.45594000000E+02  0.51100000000E-03 0.  1.
    9900012    2    1    2    0    0  0.27962136159E+02 -0.30055841219E+02  0.14085059705E+02  0.47787267784E+02  0.19999985134E+02 0.  0.
        -12    1    1    2    0    0 -0.27962136159E+02  0.30055841219E+02 -0.14085059705E+02  0.43400732216E+02  0.00000000000E+00 0.  1.
         11    1    3    3    0    0  0.82826546457E+01 -0.15143089379E+02  0.57944036536E+01  0.18206884354E+02  0.51100000000E-03 0. -1.
        -11    1    3    3    0    0  0.13595828770E+02 -0.68471692683E+01 -0.17669100350E+01  0.15324890155E+02  0.51100000000E-03 0.  1.
        -12    1    3    3    0    0  0.60836527434E+01 -0.80655825725E+01  0.10057566086E+02  0.14255493275E+02  0.00000000000E+00 0.  1.
</event>
<event>
 7    1  0.3807360E-011  0.4778727E+02  0.7816164E-02  0.1312668E+00
        -11   -1    0    0    0    0  0.00000000000E+00  0.00000000000E+00  0.45593999997E+02  0.45594000000E+02  0.51100000000E-03 0. -1.
         11   -1    0    0    0    0 -0.00000000000E+00 -0.00000000000E+00 -0.45593999997E+02  0.45594000000E+02  0.51100000000E-03 0.  1.
    9900012    2    1    2    0    0  0.20200066412E+02  0.10032379383E+02 -0.37080074489E+02  0.47787271397E+02  0.20000001608E+02 0.  0.
         12    1    1    2    0    0 -0.20200066412E+02 -0.10032379383E+02  0.37080074489E+02  0.43400728603E+02  0.00000000000E+00 0. -1.
         11    1    3    3    0    0  0.61370928994E+01  0.69532203097E+00 -0.63576811972E+01  0.88638305743E+01  0.51100000000E-03 0. -1.
        -11    1    3    3    0    0  0.98631594431E+01 -0.38620634706E+00 -0.49140337870E+01  0.11026277607E+02  0.51100000000E-03 0.  1.
         12    1    3    3    0    0  0.41998140700E+01  0.97232636988E+01 -0.25808359505E+02  0.27897163216E+02  0.00000000000E+00 0. -1.
</event>
<event>
 7    1  0.3807360E-011  0.4778727E+02  0.7816164E-02  0.1312668E+00
        -11   -1    0    0    0    0  0.00000000000E+00  0.00000000000E+00  0.45593999997E+02  0.45594000000E+02  0.51100000000E-03 0. -1.
         11   -1    0    0    0    0 -0.00000000000E+00 -0.00000000000E+00 -0.45593999997E+02  0.45594000000E+02  0.51100000000E-03 0.  1.
    9900012    2    1    2    0    0  0.64374616974E+01  0.24840001767E+01  0.42848712378E+02  0.47787270484E+02  0.19999997447E+02 0.  0.
        -12    1    1    2    0    0 -0.64374616974E+01 -0.24840001767E+01 -0.42848712378E+02  0.43400729516E+02  0.00000000000E+00 0.  1.
         11    1    3    3    0    0  0.75598568186E+01  0.66267578069E+00  0.29769129442E+02  0.30721192072E+02  0.51100000000E-03 0. -1.
        -11    1    3    3    0    0  0.39260555175E+01 -0.10189338754E+01  0.93093104078E+01  0.10154575259E+02  0.51100000000E-03 0.  1.
        -12    1    3    3    0    0 -0.50484506387E+01  0.28402582714E+01  0.37702725288E+01  0.69115031535E+01  0.00000000000E+00 0.  1.
</event>
<event>
 7    1  0.3807360E-011  0.4778727E+02  0.7816164E-02  0.1312668E+00
        -11   -1    0    0    0    0  0.00000000000E+00  0.00000000000E+00  0.45593999997E+02  0.45594000000E+02  0.51100000000E-03 0. -1.
         11   -1    0    0    0    0 -0.00000000000E+00 -0.00000000000E+00 -0.45593999997E+02  0.45594000000E+02  0.51100000000E-03 0.  1.
    9900012    2    1    2    0    0  0.34954620114E+02  0.24629868040E+02 -0.74274645789E+01  0.47787273081E+02  0.20000009286E+02 0.  0.
        -12    1    1    2    0    0 -0.34954620114E+02 -0.24629868040E+02  0.74274645789E+01  0.43400726919E+02  0.00000000000E+00 0.  1.
         11    1    3    3    0    0  0.16317172631E+02  0.27374843174E+01 -0.80392898172E+00  0.16564728948E+02  0.51100000000E-03 0. -1.
        -11    1    3    3    0    0  0.17333087634E+02  0.14620490068E+02 -0.72536469475E+01  0.23807772912E+02  0.51100000000E-03 0.  1.
        -12    1    3    3    0    0  0.13043598500E+01  0.72718936550E+01  0.63011135030E+00  0.74147712212E+01  0.00000000000E+00 0.  1.
</event>
<event>
 7    1  0.3807360E-011  0.4778727E+02  0.7816164E-02  0.1312668E+00
        -11   -1    0    0    0    0  0.00000000000E+00  0.00000000000E+00  0.45593999997E+02  0.45594000000E+02  0.51100000000E-03 0. -1.
         11   -1    0    0    0    0 -0.00000000000E+00 -0.00000000000E+00 -0.45593999997E+02  0.45594000000E+02  0.51100000000E-03 0.  1.
    9900012    2    1    2    0    0 -0.28268531518E+02  0.95572823681E+01 -0.31514635410E+02  0.47787265381E+02  0.19999974180E+02 0.  0.
         12    1    1    2    0    0  0.28268531518E+02 -0.95572823681E+01  0.31514635410E+02  0.43400734619E+02  0.00000000000E+00 0. -1.
         11    1    3    3    0    0 -0.53762645627E+01  0.24210149028E+01 -0.12968575139E+02  0.14246033666E+02  0.51100000000E-03 0. -1.
        -11    1    3    3    0    0 -0.15836889071E+02  0.78778480535E+01 -0.19563733325E+02  0.26374366481E+02  0.51100000000E-03 0.  1.
         12    1    3    3    0    0 -0.70553778834E+01 -0.74158058826E+00  0.10176730539E+01  0.71668652346E+01  0.00000000000E+00 0. -1.
</event>
<event>
 7    1  0.3807360E-011  0.4778727E+02  0.7816164E-02  0.1312668E+00
        -11   -1    0    0    0    0  0.00000000000E+00  0.00000000000E+00  0.45593999997E+02  0.45594000000E+02  0.51100000000E-03 0.  1.
         11   -1    0    0    0    0 -0.00000000000E+00 -0.00000000000E+00 -0.45593999997E+02  0.45594000000E+02  0.51100000000E-03 0. -1.
    9900012    2    1    2    0    0 -0.37884464392E+02  0.18209255049E+02  0.10808039699E+02  0.47787270353E+02  0.19999996850E+02 0.  0.
        -12    1    1    2    0    0  0.37884464392E+02 -0.18209255049E+02 -0.10808039699E+02  0.43400729647E+02  0.00000000000E+00 0.  1.
         11    1    3    3    0    0 -0.15110905280E+02  0.40678911129E+01  0.89482736505E+01  0.18026613605E+02  0.51100000000E-03 0. -1.
        -11    1    3    3    0    0 -0.29514746930E+01 -0.60441363880E+00  0.39491691359E+01  0.49671375898E+01  0.51100000000E-03 0.  1.
        -12    1    3    3    0    0 -0.19822084419E+02  0.14745777575E+02 -0.20894030872E+01  0.24793519158E+02  0.00000000000E+00 0.  1.
</event>
<event>
 7    1  0.3807360E-011  0.4778727E+02  0.7816164E-02  0.1312668E+00
        -11   -1    0    0    0    0  0.00000000000E+00  0.00000000000E+00  0.45593999997E+02  0.45594000000E+02  0.51100000000E-03 0.  1.
         11   -1    0    0    0    0 -0.00000000000E+00 -0.00000000000E+00 -0.45593999997E+02  0.45594000000E+02  0.51100000000E-03 0. -1.
    9900012    2    1    2    0    0  0.22099259188E+02  0.26472271417E+02  0.26352704199E+02  0.47787269255E+02  0.19999991839E+02 0.  0.
        -12    1    1    2    0    0 -0.22099259188E+02 -0.26472271417E+02 -0.26352704199E+02  0.43400730745E+02  0.00000000000E+00 0.  1.
         11    1    3    3    0    0  0.54290141583E+01 -0.84192772879E+00  0.17806895945E+01  0.57752829130E+01  0.51100000000E-03 0. -1.
        -11    1    3    3    0    0  0.11572359661E+01  0.12210056178E+02  0.69605258830E+01  0.14102254706E+02  0.51100000000E-03 0.  1.
        -12    1    3    3    0    0  0.15513009063E+02  0.15104142968E+02  0.17611488721E+02  0.27909731636E+02  0.00000000000E+00 0.  1.
</event>
<event>
 7    1  0.3807360E-011  0.4778727E+02  0.7816164E-02  0.1312668E+00
        -11   -1    0    0    0    0  0.00000000000E+00  0.00000000000E+00  0.45593999997E+02  0.45594000000E+02  0.51100000000E-03 0.  1.
         11   -1    0    0    0    0 -0.00000000000E+00 -0.00000000000E+00 -0.45593999997E+02  0.45594000000E+02  0.51100000000E-03 0. -1.
    9900012    2    1    2    0    0 -0.17947140586E+02  0.28574915724E+02 -0.27294645026E+02  0.47787270618E+02  0.19999998054E+02 0.  0.
         12    1    1    2    0    0  0.17947140586E+02 -0.28574915724E+02  0.27294645026E+02  0.43400729382E+02  0.00000000000E+00 0. -1.
         11    1    3    3    0    0 -0.39568907980E+01  0.33648327492E+01  0.27247155144E+01  0.58654206254E+01  0.51100000000E-03 0. -1.
        -11    1    3    3    0    0 -0.39521525404E+01  0.11738647686E+02 -0.11258334924E+02  0.16738144004E+02  0.51100000000E-03 0.  1.
         12    1    3    3    0    0 -0.10038097247E+02  0.13471435289E+02 -0.18761025617E+02  0.25183705988E+02  0.00000000000E+00 0. -1.
</event>
<event>
 7    1  0.3807360E-011  0.4778727E+02  0.7816164E-02  0.1312668E+00
        -11   -1    0    0    0    0  0.00000000000E+00  0.00000000000E+00  0.45593999997E+02  0.45594000000E+02  0.51100000000E-03 0.  1.
         11   -1    0    0    0    0 -0.00000000000E+00 -0.00000000000E+00 -0.45593999997E+02  0.45594000000E+02  0.51100000000E-03 0. -1.
    9900012    2    1    2    0    0  0.14311184119E+02  0.40771411990E+02 -0.40626484658E+01  0.47787272597E+02  0.20000007078E+02 0.  0.
        -12    1    1    2    0    0 -0.14311184119E+02 -0.40771411990E+02  0.40626484658E+01  0.43400727403E+02  0.00000000000E+00 0.  1.
         11    1    3    3    0    0  0.46999831460E+01  0.20615327040E+02  0.48564885653E+01  0.21694861879E+02  0.51100000000E-03 0.  1.
        -11    1    3    3    0    0  0.10216058534E+02  0.18708228785E+02 -0.50337696098E+01  0.21902157724E+02  0.51100000000E-03 0. -1.
        -12    1    3    3    0    0 -0.60485756087E+00  0.14478561657E+01 -0.38853674213E+01  0.41902529928E+01  0.00000000000E+00 0.  1.
</event>
<event>
 7    1  0.3807360E-011  0.4778727E+02  0.7816164E-02  0.1312668E+00
        -11   -1    0    0    0    0  0.00000000000E+00  0.00000000000E+00  0.45593999997E+02  0.45594000000E+02  0.51100000000E-03 0. -1.
         11   -1    0    0    0    0 -0.00000000000E+00 -0.00000000000E+00 -0.45593999997E+02  0.45594000000E+02  0.51100000000E-03 0.  1.
    9900012    2    1    2    0    0 -0.18095106806E+01 -0.39759688600E+01 -0.43180326398E+02  0.47787271376E+02  0.20000001512E+02 0.  0.
         12    1    1    2    0    0  0.18095106806E+01  0.39759688600E+01  0.43180326398E+02  0.43400728624E+02  0.00000000000E+00 0. -1.
         11    1    3    3    0    0 -0.26862075829E+01 -0.29686146136E-01 -0.88968213771E+01  0.92935474025E+01  0.51100000000E-03 0. -1.
        -11    1    3    3    0    0  0.10578651660E+01 -0.32861857936E+01 -0.36248703299E+02  0.36412725618E+02  0.51100000000E-03 0.  1.
         12    1    3    3    0    0 -0.18116826363E+00 -0.66009692030E+00  0.19651982785E+01  0.20809983560E+01  0.00000000000E+00 0. -1.
</event>
<event>
 7    1  0.3807360E-011  0.4778727E+02  0.7816164E-02  0.1312668E+00
        -11   -1    0    0    0    0  0.00000000000E+00  0.00000000000E+00  0.45593999997E+02  0.45594000000E+02  0.51100000000E-03 0. -1.
         11   -1    0    0    0    0 -0.00000000000E+00 -0.00000000000E+00 -0.45593999997E+02  0.45594000000E+02  0.51100000000E-03 0.  1.
    9900012    2    1    2    0    0 -0.62698518226E+01  0.10955363819E+02 -0.41524596929E+02  0.47787272029E+02  0.20000004489E+02 0.  0.
         12    1    1    2    0    0  0.62698518226E+01 -0.10955363819E+02  0.41524596929E+02  0.43400727971E+02  0.00000000000E+00 0. -1.
         11    1    3    3    0    0 -0.37903802804E+01  0.10074708238E+01 -0.59368278642E+00  0.39666660614E+01  0.51100000000E-03 0. -1.
        -11    1    3    3    0    0 -0.10880163756E+01 -0.12283987494E+01 -0.19867834556E+02  0.19935485781E+02  0.51100000000E-03 0.  1.
         12    1    3    3    0    0 -0.13914551666E+01  0.11176291744E+02 -0.21063079587E+02  0.23885120186E+02  0.00000000000E+00 0. -1.
</event>
<event>
 7    1  0.3807360E-011  0.4778727E+02  0.7816164E-02  0.1312668E+00
        -11   -1    0    0    0    0  0.00000000000E+00  0.00000000000E+00  0.45593999997E+02  0.45594000000E+02  0.51100000000E-03 0. -1.
         11   -1    0    0    0    0 -0.00000000000E+00 -0.00000000000E+00 -0.45593999997E+02  0.45594000000E+02  0.51100000000E-03 0.  1.
    9900012    2    1    2    0    0 -0.13041079728E+02 -0.41116893116E+02  0.47911077825E+01  0.47787269894E+02  0.19999994754E+02 0.  0.
         12    1    1    2    0    0  0.13041079728E+02  0.41116893116E+02 -0.47911077825E+01  0.43400730106E+02  0.00000000000E+00 0. -1.
         11    1    3    3    0    0  0.35341740998E+00 -0.64966656802E+01  0.20676699636E+01  0.68269193759E+01  0.51100000000E-03 0. -1.
        -11    1    3    3    0    0  0.12474500901E+01 -0.19948404415E+02  0.31151622799E+01  0.20228672886E+02  0.51100000000E-03 0.  1.
         12    1    3    3    0    0 -0.14641947228E+02 -0.14671823020E+02 -0.39172446098E+00  0.20731677632E+02  0.00000000000E+00 0. -1.
</event>
<event>
 7    1  0.3807360E-011  0.4778727E+02  0.7816164E-02  0.1312668E+00
        -11   -1    0    0    0    0  0.00000000000E+00  0.00000000000E+00  0.45593999997E+02  0.45594000000E+02  0.51100000000E-03 0. -1.
         11   -1    0    0    0    0 -0.00000000000E+00 -0.00000000000E+00 -0.45593999997E+02  0.45594000000E+02  0.51100000000E-03 0.  1.
    9900012    2    1    2    0    0 -0.11294203722E+02 -0.13241370952E+02  0.39758396588E+02  0.47787273719E+02  0.20000012197E+02 0.  0.
        -12    1    1    2    0    0  0.11294203722E+02  0.13241370952E+02 -0.39758396588E+02  0.43400726281E+02  0.00000000000E+00 0.  1.
         11    1    3    3    0    0 -0.89989276228E+01 -0.62654355735E+00  0.16367921122E+02  0.18689090328E+02  0.51100000000E-03 0. -1.
        -11    1    3    3    0    0 -0.32316650207E+01  0.11804654105E+01  0.38921753569E+01  0.51948230636E+01  0.51100000000E-03 0.  1.
        -12    1    3    3    0    0  0.93638892142E+00 -0.13795292805E+02  0.19498300110E+02  0.23903360328E+02  0.00000000000E+00 0.  1.
</event>
<event>
 7    1  0.3807360E-011  0.4778727E+02  0.7816164E-02  0.1312668E+00
        -11   -1    0    0    0    0  0.00000000000E+00  0.00000000000E+00  0.45593999997E+02  0.45594000000E+02  0.51100000000E-03 0. -1.
         11   -1    0    0    0    0 -0.00000000000E+00 -0.00000000000E+00 -0.45593999997E+02  0.45594000000E+02  0.51100000000E-03 0.  1.
    9900012    2    1    2    0    0 -0.19769473947E+02  0.39060944028E+01  0.38438699644E+02  0.47787270698E+02  0.19999998420E+02 0.  0.
        -12    1    1    2    0    0  0.19769473947E+02 -0.39060944028E+01 -0.38438699644E+02  0.43400729302E+02  0.00000000000E+00 0.  1.
         11    1    3    3    0    0 -0.13734557745E+02  0.27749176125E+01  0.12753927728E+02  0.18947319519E+02  0.51100000000E-03 0. -1.
        -11    1    3    3    0    0  0.22334780997E+01  0.31284179490E+01  0.40050339366E+01  0.55511908974E+01  0.51100000000E-03 0.  1.
         12    1    3    3    0    0 -0.82683943011E+01 -0.19972411586E+01  0.21679737980E+02  0.23288760281E+02  0.00000000000E+00 0. -1.
</event>
<event>
 7    1  0.3807360E-011  0.4778727E+02  0.7816164E-02  0.1312668E+00
        -11   -1    0    0    0    0  0.00000000000E+00  0.00000000000E+00  0.45593999997E+02  0.45594000000E+02  0.51100000000E-03 0.  1.
         11   -1    0    0    0    0 -0.00000000000E+00 -0.00000000000E+00 -0.45593999997E+02  0.45594000000E+02  0.51100000000E-03 0. -1.
    9900012    2    1    2    0    0  0.14311431840E+02 -0.16439801872E+02  0.37530504448E+02  0.47787274994E+02  0.20000018008E+02 0.  0.
        -12    1    1    2    0    0 -0.14311431840E+02  0.16439801872E+02 -0.37530504448E+02  0.43400725006E+02  0.00000000000E+00 0.  1.
         11    1    3    3    0    0  0.99576867221E+01 -0.56154985777E+01  0.77736465799E+01  0.13824577048E+02  0.51100000000E-03 0. -1.
        -11    1    3    3    0    0  0.48521951795E+01 -0.80854058978E+01  0.90509177911E+01  0.13070451397E+02  0.51100000000E-03 0.  1.
        -12    1    3    3    0    0 -0.49845006206E+00 -0.27388973962E+01  0.20705940077E+02  0.20892246550E+02  0.00000000000E+00 0.  1.
</event>
<event>
 7    1  0.3807360E-011  0.4778726E+02  0.7816164E-02  0.1312668E+00
        -11   -1    0    0    0    0  0.00000000000E+00  0.00000000000E+00  0.45593999997E+02  0.45594000000E+02  0.51100000000E-03 0.  1.
         11   -1    0    0    0    0 -0.00000000000E+00 -0.00000000000E+00 -0.45593999997E+02  0.45594000000E+02  0.51100000000E-03 0. -1.
    9900012    2    1    2    0    0  0.24581679122E+02  0.22055734367E+02 -0.28158650016E+02  0.47787263398E+02  0.19999965137E+02 0.  0.
         12    1    1    2    0    0 -0.24581679122E+02 -0.22055734367E+02  0.28158650016E+02  0.43400736602E+02  0.00000000000E+00 0. -1.
         11    1    3    3    0    0  0.16655802988E+02  0.79438961254E+01 -0.10553627740E+02  0.21257947162E+02  0.51100000000E-03 0. -1.
        -11    1    3    3    0    0 -0.24741814884E+00 -0.77400687755E+00 -0.57774781101E+01  0.58343428045E+01  0.51100000000E-03 0.  1.
        -12    1    3    3    0    0  0.81732942823E+01  0.14885845119E+02 -0.11827544166E+02  0.20694973431E+02  0.00000000000E+00 0.  1.
</event>
<event>
 7    1  0.3807360E-011  0.4778727E+02  0.7816164E-02  0.1312668E+00
        -11   -1    0    0    0    0  0.00000000000E+00  0.00000000000E+00  0.45593999997E+02  0.45594000000E+02  0.51100000000E-03 0. -1.
         11   -1    0    0    0    0 -0.00000000000E+00 -0.00000000000E+00 -0.45593999997E+02  0.45594000000E+02  0.51100000000E-03 0.  1.
    9900012    2    1    2    0    0 -0.39011922992E+02  0.28484202556E+01  0.18803715240E+02  0.47787270279E+02  0.19999996510E+02 0.  0.
        -12    1    1    2    0    0  0.39011922992E+02 -0.28484202556E+01 -0.18803715240E+02  0.43400729721E+02  0.00000000000E+00 0.  1.
         11    1    3    3    0    0 -0.86666511809E+01  0.35603568281E+01 -0.31740189103E+01  0.98924910785E+01  0.51100000000E-03 0. -1.
        -11    1    3    3    0    0 -0.96443550549E+01  0.22546047049E+01  0.81219722935E+01  0.12808718164E+02  0.51100000000E-03 0.  1.
         12    1    3    3    0    0 -0.20700916756E+02 -0.29665412774E+01  0.13855761857E+02  0.25086061037E+02  0.00000000000E+00 0. -1.
</event>
<event>
 7    1  0.3807360E-011  0.4778727E+02  0.7816164E-02  0.1312668E+00
        -11   -1    0    0    0    0  0.00000000000E+00  0.00000000000E+00  0.45593999997E+02  0.45594000000E+02  0.51100000000E-03 0.  1.
         11   -1    0    0    0    0 -0.00000000000E+00 -0.00000000000E+00 -0.45593999997E+02  0.45594000000E+02  0.51100000000E-03 0. -1.
    9900012    2    1    2    0    0 -0.33933883966E+02 -0.26906497155E+02 -0.28556950299E+01  0.47787273459E+02  0.20000011009E+02 0.  0.
        -12    1    1    2    0    0  0.33933883966E+02  0.26906497155E+02  0.28556950299E+01  0.43400726541E+02  0.00000000000E+00 0.  1.
         11    1    3    3    0    0 -0.13471911350E+02 -0.14389087965E+02 -0.59605729293E+01  0.20592879298E+02  0.51100000000E-03 0. -1.
        -11    1    3    3    0    0 -0.36171106010E+01  0.22374457866E+01 -0.11379691772E+01  0.44027976172E+01  0.51100000000E-03 0.  1.
         12    1    3    3    0    0 -0.16844862015E+02 -0.14754854977E+02  0.42428470765E+01  0.22791596543E+02  0.00000000000E+00 0. -1.
</event>
<event>
 7    1  0.3807360E-011  0.4778727E+02  0.7816164E-02  0.1312668E+00
        -11   -1    0    0    0    0  0.00000000000E+00  0.00000000000E+00  0.45593999997E+02  0.45594000000E+02  0.51100000000E-03 0. -1.
         11   -1    0    0    0    0 -0.00000000000E+00 -0.00000000000E+00 -0.45593999997E+02  0.45594000000E+02  0.51100000000E-03 0.  1.
    9900012    2    1    2    0    0 -0.78739009316E+01  0.12590300446E+02 -0.40781236785E+02  0.47787271262E+02  0.20000000993E+02 0.  0.
         12    1    1    2    0    0  0.78739009316E+01 -0.12590300446E+02  0.40781236785E+02  0.43400728738E+02  0.00000000000E+00 0. -1.
         11    1    3    3    0    0 -0.58222414857E+01 -0.23915448250E+01 -0.57423896974E+01  0.85201538874E+01  0.51100000000E-03 0. -1.
        -11    1    3    3    0    0 -0.27761597844E+01  0.47780388127E+01 -0.22059954735E+02  0.22741554942E+02  0.51100000000E-03 0.  1.
        -12    1    3    3    0    0  0.72450033849E+00  0.10203806459E+02 -0.12978892353E+02  0.16525562432E+02  0.00000000000E+00 0.  1.
</event>
<event>
 7    1  0.3807360E-011  0.4778728E+02  0.7816164E-02  0.1312668E+00
        -11   -1    0    0    0    0  0.00000000000E+00  0.00000000000E+00  0.45593999997E+02  0.45594000000E+02  0.51100000000E-03 0. -1.
         11   -1    0    0    0    0 -0.00000000000E+00 -0.00000000000E+00 -0.45593999997E+02  0.45594000000E+02  0.51100000000E-03 0.  1.
    9900012    2    1    2    0    0 -0.39143937322E+02 -0.11783258003E+02 -0.14578380724E+02  0.47787283615E+02  0.20000057312E+02 0.  0.
         12    1    1    2    0    0  0.39143937322E+02  0.11783258003E+02  0.14578380724E+02  0.43400716385E+02  0.00000000000E+00 0. -1.
         11    1    3    3    0    0 -0.16878330062E+02 -0.97144511210E+01 -0.47900696208E+00  0.19480195948E+02  0.51100000000E-03 0.  1.
        -11    1    3    3    0    0 -0.12949607361E+02  0.27248666297E+01 -0.41757811647E+01  0.13876396418E+02  0.51100000000E-03 0. -1.
         12    1    3    3    0    0 -0.93159998989E+01 -0.47936735115E+01 -0.99235925975E+01  0.14430691248E+02  0.00000000000E+00 0. -1.
</event>
<event>
 7    1  0.3807360E-011  0.4778727E+02  0.7816164E-02  0.1312668E+00
        -11   -1    0    0    0    0  0.00000000000E+00  0.00000000000E+00  0.45593999997E+02  0.45594000000E+02  0.51100000000E-03 0. -1.
         11   -1    0    0    0    0 -0.00000000000E+00 -0.00000000000E+00 -0.45593999997E+02  0.45594000000E+02  0.51100000000E-03 0.  1.
    9900012    2    1    2    0    0  0.24087795811E+02  0.11839624404E+02 -0.34106078044E+02  0.47787272211E+02  0.20000005320E+02 0.  0.
         12    1    1    2    0    0 -0.24087795811E+02 -0.11839624404E+02  0.34106078044E+02  0.43400727789E+02  0.00000000000E+00 0. -1.
         11    1    3    3    0    0 -0.22246930701E+01 -0.52874420652E-01 -0.63203445866E-01  0.22262187442E+01  0.51100000000E-03 0. -1.
        -11    1    3    3    0    0  0.13388082932E+02  0.41993092997E+01 -0.10109269295E+02  0.17293706634E+02  0.51100000000E-03 0.  1.
        -12    1    3    3    0    0  0.12924405949E+02  0.76931895254E+01 -0.23933605303E+02  0.28267346833E+02  0.00000000000E+00 0.  1.
</event>
<event>
 7    1  0.3807360E-011  0.4778729E+02  0.7816164E-02  0.1312668E+00
        -11   -1    0    0    0    0  0.00000000000E+00  0.00000000000E+00  0.45593999997E+02  0.45594000000E+02  0.51100000000E-03 0. -1.
         11   -1    0    0    0    0 -0.00000000000E+00 -0.00000000000E+00 -0.45593999997E+02  0.45594000000E+02  0.51100000000E-03 0.  1.
    9900012    2    1    2    0    0  0.11328186586E+02  0.28080741631E+02  0.31092860291E+02  0.47787287760E+02  0.20000076212E+02 0.  0.
        -12    1    1    2    0    0 -0.11328186586E+02 -0.28080741631E+02 -0.31092860291E+02  0.43400712240E+02  0.00000000000E+00 0.  1.
         11    1    3    3    0    0  0.12024099936E+02  0.29115586119E+02  0.27125327931E+02  0.41570178614E+02  0.51100000000E-03 0.  1.
        -11    1    3    3    0    0  0.78353307856E+00 -0.57111475092E+00  0.44803621288E+01  0.45840747387E+01  0.51100000000E-03 0. -1.
        -12    1    3    3    0    0 -0.14794464285E+01 -0.46372973773E+00 -0.51282976850E+00  0.16330344075E+01  0.00000000000E+00 0.  1.
</event>
<event>
 7    1  0.3807360E-011  0.4778727E+02  0.7816164E-02  0.1312668E+00
        -11   -1    0    0    0    0  0.00000000000E+00  0.00000000000E+00  0.45593999997E+02  0.45594000000E+02  0.51100000000E-03 0. -1.
         11   -1    0    0    0    0 -0.00000000000E+00 -0.00000000000E+00 -0.45593999997E+02  0.45594000000E+02  0.51100000000E-03 0.  1.
    9900012    2    1    2    0    0  0.28721896704E+02  0.52726869318E+01 -0.32107242881E+02  0.47787267020E+02  0.19999981653E+02 0.  0.
         12    1    1    2    0    0 -0.28721896704E+02 -0.52726869318E+01  0.32107242881E+02  0.43400732980E+02  0.00000000000E+00 0. -1.
         11    1    3    3    0    0  0.62149980344E+01  0.28219995299E+01 -0.43272296606E+01  0.80817571549E+01  0.51100000000E-03 0. -1.
        -11    1    3    3    0    0  0.23247811005E+02  0.31161743471E+01 -0.17218674487E+02  0.29097319643E+02  0.51100000000E-03 0.  1.
         12    1    3    3    0    0 -0.74091233461E+00 -0.66548694520E+00 -0.10561338733E+02  0.10608190222E+02  0.00000000000E+00 0. -1.
</event>
<event>
 7    1  0.3807360E-011  0.4778727E+02  0.7816164E-02  0.1312668E+00
        -11   -1    0    0    0    0  0.00000000000E+00  0.00000000000E+00  0.45593999997E+02  0.45594000000E+02  0.51100000000E-03 0.  1.
         11   -1    0    0    0    0 -0.00000000000E+00 -0.00000000000E+00 -0.45593999997E+02  0.45594000000E+02  0.51100000000E-03 0. -1.
    9900012    2    1    2    0    0  0.22562823364E+02  0.36159064787E+02 -0.81892743801E+01  0.47787272134E+02  0.20000004967E+02 0.  0.
         12    1    1    2    0    0 -0.22562823364E+02 -0.36159064787E+02  0.81892743801E+01  0.43400727866E+02  0.00000000000E+00 0. -1.
         11    1    3    3    0    0  0.30482810981E+01  0.18063363404E+00 -0.13069492060E+01  0.33215602735E+01  0.51100000000E-03 0. -1.
        -11    1    3    3    0    0  0.15868482637E+02  0.14925816398E+02  0.69423176724E+00  0.21796116497E+02  0.51100000000E-03 0.  1.
        -12    1    3    3    0    0  0.36460596290E+01  0.21052614755E+02 -0.75765569413E+01  0.22669595363E+02  0.00000000000E+00 0.  1.
</event>
<event>
 7    1  0.3807360E-011  0.4778727E+02  0.7816164E-02  0.1312668E+00
        -11   -1    0    0    0    0  0.00000000000E+00  0.00000000000E+00  0.45593999997E+02  0.45594000000E+02  0.51100000000E-03 0. -1.
         11   -1    0    0    0    0 -0.00000000000E+00 -0.00000000000E+00 -0.45593999997E+02  0.45594000000E+02  0.51100000000E-03 0.  1.
    9900012    2    1    2    0    0 -0.67219880907E+01 -0.24907385079E+02 -0.34900721048E+02  0.47787270916E+02  0.19999999415E+02 0.  0.
         12    1    1    2    0    0  0.67219880907E+01  0.24907385079E+02  0.34900721048E+02  0.43400729084E+02  0.00000000000E+00 0. -1.
         11    1    3    3    0    0 -0.18076012304E+01  0.13758247621E+01 -0.32458373312E+01  0.39617895231E+01  0.51100000000E-03 0. -1.
        -11    1    3    3    0    0 -0.93074634057E+01 -0.18092649623E+02 -0.25733102064E+02  0.32804959801E+02  0.51100000000E-03 0.  1.
         12    1    3    3    0    0  0.43930765454E+01 -0.81905602182E+01 -0.59217816523E+01  0.11020521592E+02  0.00000000000E+00 0. -1.
</event>
<event>
 7    1  0.3807360E-011  0.4778727E+02  0.7816164E-02  0.1312668E+00
        -11   -1    0    0    0    0  0.00000000000E+00  0.00000000000E+00  0.45593999997E+02  0.45594000000E+02  0.51100000000E-03 0. -1.
         11   -1    0    0    0    0 -0.00000000000E+00 -0.00000000000E+00 -0.45593999997E+02  0.45594000000E+02  0.51100000000E-03 0.  1.
    9900012    2    1    2    0    0 -0.62165459760E+00  0.35083444089E+02  0.25541907216E+02  0.47787268119E+02  0.19999986661E+02 0.  0.
        -12    1    1    2    0    0  0.62165459760E+00 -0.35083444089E+02 -0.25541907216E+02  0.43400731881E+02  0.00000000000E+00 0.  1.
         11    1    3    3    0    0  0.62858271054E+01  0.13834572304E+02  0.14899881962E+02  0.21281764400E+02  0.51100000000E-03 0. -1.
        -11    1    3    3    0    0 -0.32390516625E+01  0.12412069327E+01  0.35502887666E+01  0.49635270635E+01  0.51100000000E-03 0.  1.
        -12    1    3    3    0    0 -0.36684300405E+01  0.20007664853E+02  0.70917364867E+01  0.21541976655E+02  0.00000000000E+00 0.  1.
</event>
<event>
 7    1  0.3807360E-011  0.4778729E+02  0.7816164E-02  0.1312668E+00
        -11   -1    0    0    0    0  0.00000000000E+00  0.00000000000E+00  0.45593999997E+02  0.45594000000E+02  0.51100000000E-03 0. -1.
         11   -1    0    0    0    0 -0.00000000000E+00 -0.00000000000E+00 -0.45593999997E+02  0.45594000000E+02  0.51100000000E-03 0.  1.
    9900012    2    1    2    0    0  0.22760913606E+02  0.11041727953E+02 -0.35265316590E+02  0.47787291497E+02  0.20000093250E+02 0.  0.
         12    1    1    2    0    0 -0.22760913606E+02 -0.11041727953E+02  0.35265316590E+02  0.43400708503E+02  0.00000000000E+00 0. -1.
         11    1    3    3    0    0  0.10931662357E+01  0.57044447106E+01 -0.90542533710E+01  0.10757100271E+02  0.51100000000E-03 0. -1.
        -11    1    3    3    0    0  0.11010428730E+02 -0.15386000569E+01 -0.20059279859E+02  0.22934069409E+02  0.51100000000E-03 0.  1.
        -12    1    3    3    0    0  0.10657318640E+02  0.68758832993E+01 -0.61517833606E+01  0.14096121816E+02  0.00000000000E+00 0.  1.
</event>
<event>
 7    1  0.3807360E-011  0.4778727E+02  0.7816164E-02  0.1312668E+00
        -11   -1    0    0    0    0  0.00000000000E+00  0.00000000000E+00  0.45593999997E+02  0.45594000000E+02  0.51100000000E-03 0. -1.
         11   -1    0    0    0    0 -0.00000000000E+00 -0.00000000000E+00 -0.45593999997E+02  0.45594000000E+02  0.51100000000E-03 0.  1.
    9900012    2    1    2    0    0 -0.16130626069E+02  0.37511090365E+02  0.14708643354E+02  0.47787272044E+02  0.20000004559E+02 0.  0.
        -12    1    1    2    0    0  0.16130626069E+02 -0.37511090365E+02 -0.14708643354E+02  0.43400727956E+02  0.00000000000E+00 0.  1.
         11    1    3    3    0    0 -0.14374887161E+02  0.25856200852E+02  0.32318977745E+01  0.29759463484E+02  0.51100000000E-03 0. -1.
        -11    1    3    3    0    0  0.22636849660E-02  0.10597137016E+02  0.59964948530E+01  0.12176094154E+02  0.51100000000E-03 0.  1.
        -12    1    3    3    0    0 -0.17580025932E+01  0.10577524969E+01  0.54802507269E+01  0.58517144062E+01  0.00000000000E+00 0.  1.
</event>
<event>
 7    1  0.3807360E-011  0.4778728E+02  0.7816164E-02  0.1312668E+00
        -11   -1    0    0    0    0  0.00000000000E+00  0.00000000000E+00  0.45593999997E+02  0.45594000000E+02  0.51100000000E-03 0. -1.
         11   -1    0    0    0    0 -0.00000000000E+00 -0.00000000000E+00 -0.45593999997E+02  0.45594000000E+02  0.51100000000E-03 0.  1.
    9900012    2    1    2    0    0  0.31446111160E+02 -0.73622798831E+01  0.28992441822E+02  0.47787277022E+02  0.20000027256E+02 0.  0.
        -12    1    1    2    0    0 -0.31446111160E+02  0.73622798831E+01 -0.28992441822E+02  0.43400722978E+02  0.00000000000E+00 0.  1.
         11    1    3    3    0    0  0.12300427383E+02  0.40626041443E+01  0.96298266374E+01  0.16141215182E+02  0.51100000000E-03 0. -1.
        -11    1    3    3    0    0  0.19569166442E+02 -0.89477910583E+01  0.19620177271E+02  0.29119866010E+02  0.51100000000E-03 0.  1.
         12    1    3    3    0    0 -0.42348266453E+00 -0.24770929692E+01 -0.25756208577E+00  0.25261958303E+01  0.00000000000E+00 0. -1.
</event>
<event>
 7    1  0.3807360E-011  0.4778727E+02  0.7816164E-02  0.1312668E+00
        -11   -1    0    0    0    0  0.00000000000E+00  0.00000000000E+00  0.45593999997E+02  0.45594000000E+02  0.51100000000E-03 0. -1.
         11   -1    0    0    0    0 -0.00000000000E+00 -0.00000000000E+00 -0.45593999997E+02  0.45594000000E+02  0.51100000000E-03 0.  1.
    9900012    2    1    2    0    0  0.11517219535E+02 -0.32267287113E+02 -0.26642058277E+02  0.47787269215E+02  0.19999991660E+02 0.  0.
         12    1    1    2    0    0 -0.11517219535E+02  0.32267287113E+02  0.26642058277E+02  0.43400730785E+02  0.00000000000E+00 0. -1.
         11    1    3    3    0    0  0.80760479961E+00  0.16531410913E+01  0.36874290068E-01  0.18402339402E+01  0.51100000000E-03 0. -1.
        -11    1    3    3    0    0  0.64086280155E+00 -0.19921311611E+02 -0.11741240959E+02  0.23132792762E+02  0.51100000000E-03 0.  1.
        -12    1    3    3    0    0  0.10068751934E+02 -0.13999116593E+02 -0.14937691608E+02  0.22814242514E+02  0.00000000000E+00 0.  1.
</event>
<event>
 7    1  0.3807360E-011  0.4778727E+02  0.7816164E-02  0.1312668E+00
        -11   -1    0    0    0    0  0.00000000000E+00  0.00000000000E+00  0.45593999997E+02  0.45594000000E+02  0.51100000000E-03 0.  1.
         11   -1    0    0    0    0 -0.00000000000E+00 -0.00000000000E+00 -0.45593999997E+02  0.45594000000E+02  0.51100000000E-03 0. -1.
    9900012    2    1    2    0    0  0.14853366524E+02 -0.40169546309E+02 -0.70290874574E+01  0.47787273990E+02  0.20000013428E+02 0.  0.
         12    1    1    2    0    0 -0.14853366524E+02  0.40169546309E+02  0.70290874574E+01  0.43400726010E+02  0.00000000000E+00 0. -1.
         11    1    3    3    0    0 -0.20179852181E+01 -0.14270999713E+01 -0.40443972095E+01  0.47398341446E+01  0.51100000000E-03 0. -1.
        -11    1    3    3    0    0  0.47185821420E+01 -0.19318047214E+02 -0.31507038166E+01  0.20134023453E+02  0.51100000000E-03 0.  1.
        -12    1    3    3    0    0  0.12152769600E+02 -0.19424399123E+02  0.16601356877E+00  0.22913416392E+02  0.00000000000E+00 0.  1.
</event>
<event>
 7    1  0.3807360E-011  0.4778728E+02  0.7816164E-02  0.1312668E+00
        -11   -1    0    0    0    0  0.00000000000E+00  0.00000000000E+00  0.45593999997E+02  0.45594000000E+02  0.51100000000E-03 0. -1.
         11   -1    0    0    0    0 -0.00000000000E+00 -0.00000000000E+00 -0.45593999997E+02  0.45594000000E+02  0.51100000000E-03 0.  1.
    9900012    2    1    2    0    0  0.85982292509E+01  0.12071709890E+02  0.40791754119E+02  0.47787275006E+02  0.20000018062E+02 0.  0.
        -12    1    1    2    0    0 -0.85982292509E+01 -0.12071709890E+02 -0.40791754119E+02  0.43400724994E+02  0.00000000000E+00 0.  1.
         11    1    3    3    0    0  0.66283260823E+01  0.24917226425E+01  0.23870458998E+01  0.74727087973E+01  0.51100000000E-03 0. -1.
        -11    1    3    3    0    0 -0.17196617102E+01  0.73547847889E-01  0.97197576210E+01  0.98709844573E+01  0.51100000000E-03 0.  1.
         12    1    3    3    0    0  0.36895648788E+01  0.95064394000E+01  0.28684950598E+02  0.30443581752E+02  0.00000000000E+00 0. -1.
</event>
<event>
 7    1  0.3807360E-011  0.4778727E+02  0.7816164E-02  0.1312668E+00
        -11   -1    0    0    0    0  0.00000000000E+00  0.00000000000E+00  0.45593999997E+02  0.45594000000E+02  0.51100000000E-03 0. -1.
         11   -1    0    0    0    0 -0.00000000000E+00 -0.00000000000E+00 -0.45593999997E+02  0.45594000000E+02  0.51100000000E-03 0.  1.
    9900012    2    1    2    0    0 -0.14654989255E+02 -0.18948938706E+02 -0.36191052638E+02  0.47787270983E+02  0.19999999720E+02 0.  0.
         12    1    1    2    0    0  0.14654989255E+02  0.18948938706E+02  0.36191052638E+02  0.43400729017E+02  0.00000000000E+00 0. -1.
         11    1    3    3    0    0 -0.14005891917E+02 -0.20085769401E+01 -0.17393526399E+02  0.22421733889E+02  0.51100000000E-03 0. -1.
        -11    1    3    3    0    0 -0.11862115190E+00 -0.53942085256E+01 -0.48872900960E+01  0.72799149266E+01  0.51100000000E-03 0.  1.
         12    1    3    3    0    0 -0.53047618541E+00 -0.11546153241E+02 -0.13910236143E+02  0.18085622167E+02  0.00000000000E+00 0. -1.
</event>
<event>
 7    1  0.3807360E-011  0.4778728E+02  0.7816164E-02  0.1312668E+00
        -11   -1    0    0    0    0  0.00000000000E+00  0.00000000000E+00  0.45593999997E+02  0.45594000000E+02  0.51100000000E-03 0.  1.
         11   -1    0    0    0    0 -0.00000000000E+00 -0.00000000000E+00 -0.45593999997E+02  0.45594000000E+02  0.51100000000E-03 0. -1.
    9900012    2    1    2    0    0 -0.30830899838E+02 -0.28586365740E+02 -0.10765601766E+02  0.47787275669E+02  0.20000021086E+02 0.  0.
         12    1    1    2    0    0  0.30830899838E+02  0.28586365740E+02  0.10765601766E+02  0.43400724331E+02  0.00000000000E+00 0. -1.
         11    1    3    3    0    0 -0.61272887327E+01 -0.99978193245E+01 -0.11540398732E+02  0.16452381640E+02  0.51100000000E-03 0. -1.
        -11    1    3    3    0    0 -0.11550274969E+02 -0.79634628238E+01 -0.20931487044E+01  0.14184740525E+02  0.51100000000E-03 0.  1.
         12    1    3    3    0    0 -0.13153336136E+02 -0.10625083592E+02  0.28679456706E+01  0.17150153504E+02  0.00000000000E+00 0. -1.
</event>
<event>
 7    1  0.3807360E-011  0.4778727E+02  0.7816164E-02  0.1312668E+00
        -11   -1    0    0    0    0  0.00000000000E+00  0.00000000000E+00  0.45593999997E+02  0.45594000000E+02  0.51100000000E-03 0. -1.
         11   -1    0    0    0    0 -0.00000000000E+00 -0.00000000000E+00 -0.45593999997E+02  0.45594000000E+02  0.51100000000E-03 0.  1.
    9900012    2    1    2    0    0 -0.24894472502E+02  0.62889991547E+01  0.34990529072E+02  0.47787269635E+02  0.19999993572E+02 0.  0.
        -12    1    1    2    0    0  0.24894472502E+02 -0.62889991547E+01 -0.34990529072E+02  0.43400730365E+02  0.00000000000E+00 0.  1.
         11    1    3    3    0    0 -0.54807886227E+01 -0.16545166414E+01  0.72052416868E+01  0.92028244180E+01  0.51100000000E-03 0. -1.
        -11    1    3    3    0    0 -0.94349578524E+01 -0.13913166406E+01  0.25256533270E+01  0.98657547436E+01  0.51100000000E-03 0.  1.
         12    1    3    3    0    0 -0.99787260270E+01  0.93348324366E+01  0.25259634058E+02  0.28718690473E+02  0.00000000000E+00 0. -1.
</event>
<event>
 7    1  0.3807360E-011  0.4778727E+02  0.7816164E-02  0.1312668E+00
        -11   -1    0    0    0    0  0.00000000000E+00  0.00000000000E+00  0.45593999997E+02  0.45594000000E+02  0.51100000000E-03 0. -1.
         11   -1    0    0    0    0 -0.00000000000E+00 -0.00000000000E+00 -0.45593999997E+02  0.45594000000E+02  0.51100000000E-03 0.  1.
    9900012    2    1    2    0    0 -0.32511509604E+02 -0.29947563230E+00  0.28749532703E+02  0.47787267598E+02  0.19999984286E+02 0.  0.
        -12    1    1    2    0    0  0.32511509604E+02  0.29947563230E+00 -0.28749532703E+02  0.43400732402E+02  0.00000000000E+00 0.  1.
         11    1    3    3    0    0 -0.25284311146E+02 -0.46504844869E+00  0.15576703242E+02  0.29700948543E+02  0.51100000000E-03 0. -1.
        -11    1    3    3    0    0 -0.50527818662E+01 -0.36109483410E+01  0.12096477392E+02  0.13597585008E+02  0.51100000000E-03 0.  1.
        -12    1    3    3    0    0 -0.21744165915E+01  0.37765211574E+01  0.10763520702E+01  0.44887340470E+01  0.00000000000E+00 0.  1.
</event>
<event>
 7    1  0.3807360E-011  0.4778727E+02  0.7816164E-02  0.1312668E+00
        -11   -1    0    0    0    0  0.00000000000E+00  0.00000000000E+00  0.45593999997E+02  0.45594000000E+02  0.51100000000E-03 0. -1.
         11   -1    0    0    0    0 -0.00000000000E+00 -0.00000000000E+00 -0.45593999997E+02  0.45594000000E+02  0.51100000000E-03 0.  1.
    9900012    2    1    2    0    0 -0.25176922216E+02  0.15427734263E+02  0.31807717587E+02  0.47787270802E+02  0.19999998895E+02 0.  0.
        -12    1    1    2    0    0  0.25176922216E+02 -0.15427734263E+02 -0.31807717587E+02  0.43400729198E+02  0.00000000000E+00 0.  1.
         11    1    3    3    0    0 -0.15815847217E+02  0.14886450321E+02  0.15103904737E+02  0.26455157624E+02  0.51100000000E-03 0. -1.
        -11    1    3    3    0    0 -0.81521810729E+01 -0.14325628604E+01  0.56093069963E+01  0.99987308111E+01  0.51100000000E-03 0.  1.
        -12    1    3    3    0    0 -0.12088939262E+01  0.19738468026E+01  0.11094505854E+02  0.11333382367E+02  0.00000000000E+00 0.  1.
</event>
<event>
 7    1  0.3807360E-011  0.4778727E+02  0.7816164E-02  0.1312668E+00
        -11   -1    0    0    0    0  0.00000000000E+00  0.00000000000E+00  0.45593999997E+02  0.45594000000E+02  0.51100000000E-03 0. -1.
         11   -1    0    0    0    0 -0.00000000000E+00 -0.00000000000E+00 -0.45593999997E+02  0.45594000000E+02  0.51100000000E-03 0.  1.
    9900012    2    1    2    0    0  0.86874949271E+01  0.38372808205E+01  0.42348865029E+02  0.47787266579E+02  0.19999979641E+02 0.  0.
        -12    1    1    2    0    0 -0.86874949271E+01 -0.38372808205E+01 -0.42348865029E+02  0.43400733421E+02  0.00000000000E+00 0.  1.
         11    1    3    3    0    0  0.12947244894E+01  0.11149230810E+02  0.20462624504E+02  0.23338823042E+02  0.51100000000E-03 0. -1.
        -11    1    3    3    0    0  0.33615163014E+01 -0.12676388058E+01  0.63079473617E+01  0.72592630594E+01  0.51100000000E-03 0.  1.
         12    1    3    3    0    0  0.40312541363E+01 -0.60443111833E+01  0.15578293164E+02  0.17189180478E+02  0.00000000000E+00 0. -1.
</event>
<event>
 7    1  0.3807360E-011  0.4778730E+02  0.7816164E-02  0.1312668E+00
        -11   -1    0    0    0    0  0.00000000000E+00  0.00000000000E+00  0.45593999997E+02  0.45594000000E+02  0.51100000000E-03 0. -1.
         11   -1    0    0    0    0 -0.00000000000E+00 -0.00000000000E+00 -0.45593999997E+02  0.45594000000E+02  0.51100000000E-03 0.  1.
    9900012    2    1    2    0    0 -0.22665598873E+02  0.43820261814E+01 -0.36751729732E+02  0.47787295351E+02  0.20000110824E+02 0.  0.
         12    1    1    2    0    0  0.22665598873E+02 -0.43820261814E+01  0.36751729732E+02  0.43400704649E+02  0.00000000000E+00 0. -1.
         11    1    3    3    0    0 -0.38097596960E+01  0.52811801228E+00  0.70101366914E+00  0.39095521485E+01  0.51100000000E-03 0. -1.
        -11    1    3    3    0    0 -0.17693729993E+02  0.58365540744E+01 -0.24805058351E+02  0.31022965116E+02  0.51100000000E-03 0.  1.
        -12    1    3    3    0    0 -0.11621091841E+01 -0.19826459053E+01 -0.12647685049E+02  0.12854778086E+02  0.00000000000E+00 0.  1.
</event>
<event>
 7    1  0.3807360E-011  0.4778727E+02  0.7816164E-02  0.1312668E+00
        -11   -1    0    0    0    0  0.00000000000E+00  0.00000000000E+00  0.45593999997E+02  0.45594000000E+02  0.51100000000E-03 0. -1.
         11   -1    0    0    0    0 -0.00000000000E+00 -0.00000000000E+00 -0.45593999997E+02  0.45594000000E+02  0.51100000000E-03 0.  1.
    9900012    2    1    2    0    0 -0.27210688311E+02  0.19440995943E+02  0.27663142638E+02  0.47787270257E+02  0.19999996410E+02 0.  0.
        -12    1    1    2    0    0  0.27210688311E+02 -0.19440995943E+02 -0.27663142638E+02  0.43400729743E+02  0.00000000000E+00 0.  1.
         11    1    3    3    0    0 -0.17037778342E+02  0.76270075383E+01  0.12944208934E+02  0.22715846451E+02  0.51100000000E-03 0. -1.
        -11    1    3    3    0    0 -0.90139756046E+00  0.55397080599E+01  0.12439063822E+02  0.13646654974E+02  0.51100000000E-03 0.  1.
         12    1    3    3    0    0 -0.92715124083E+01  0.62742803448E+01  0.22798698824E+01  0.11424768832E+02  0.00000000000E+00 0. -1.
</event>
<event>
 7    1  0.3807360E-011  0.4778727E+02  0.7816164E-02  0.1312668E+00
        -11   -1    0    0    0    0  0.00000000000E+00  0.00000000000E+00  0.45593999997E+02  0.45594000000E+02  0.51100000000E-03 0. -1.
         11   -1    0    0    0    0 -0.00000000000E+00 -0.00000000000E+00 -0.45593999997E+02  0.45594000000E+02  0.51100000000E-03 0.  1.
    9900012    2    1    2    0    0  0.36318105860E+02  0.12623481991E+02  0.20131225695E+02  0.47787270066E+02  0.19999995539E+02 0.  0.
        -12    1    1    2    0    0 -0.36318105860E+02 -0.12623481991E+02 -0.20131225695E+02  0.43400729934E+02  0.00000000000E+00 0.  1.
         11    1    3    3    0    0  0.10441484762E+02 -0.67882050208E+00  0.72241792888E+01  0.12715115728E+02  0.51100000000E-03 0. -1.
        -11    1    3    3    0    0  0.23202145759E+02  0.10931947870E+02  0.46388002994E+01  0.26064641193E+02  0.51100000000E-03 0.  1.
        -12    1    3    3    0    0  0.26744753386E+01  0.23703546236E+01  0.82682461064E+01  0.90075131448E+01  0.00000000000E+00 0.  1.
</event>
<event>
 7    1  0.3807360E-011  0.4778727E+02  0.7816164E-02  0.1312668E+00
        -11   -1    0    0    0    0  0.00000000000E+00  0.00000000000E+00  0.45593999997E+02  0.45594000000E+02  0.51100000000E-03 0. -1.
         11   -1    0    0    0    0 -0.00000000000E+00 -0.00000000000E+00 -0.45593999997E+02  0.45594000000E+02  0.51100000000E-03 0.  1.
    9900012    2    1    2    0    0 -0.33820491197E+02  0.10599716631E+02 -0.25048823558E+02  0.47787272136E+02  0.20000004979E+02 0.  0.
         12    1    1    2    0    0  0.33820491197E+02 -0.10599716631E+02  0.25048823558E+02  0.43400727864E+02  0.00000000000E+00 0. -1.
         11    1    3    3    0    0 -0.30744958066E-01 -0.27485653835E+01 -0.10047929563E+00  0.27505732620E+01  0.51100000000E-03 0. -1.
        -11    1    3    3    0    0 -0.16508765608E+02  0.31059328097E+01 -0.73727058330E+01  0.18345107034E+02  0.51100000000E-03 0.  1.
        -12    1    3    3    0    0 -0.17280980631E+02  0.10242349205E+02 -0.17575638429E+02  0.26691591841E+02  0.00000000000E+00 0.  1.
</event>
<event>
 7    1  0.3807360E-011  0.4778731E+02  0.7816164E-02  0.1312668E+00
        -11   -1    0    0    0    0  0.00000000000E+00  0.00000000000E+00  0.45593999997E+02  0.45594000000E+02  0.51100000000E-03 0. -1.
         11   -1    0    0    0    0 -0.00000000000E+00 -0.00000000000E+00 -0.45593999997E+02  0.45594000000E+02  0.51100000000E-03 0.  1.
    9900012    2    1    2    0    0  0.11949760890E+01  0.15120686173E+02  0.40663947226E+02  0.47787311962E+02  0.20000186558E+02 0.  0.
        -12    1    1    2    0    0 -0.11949760890E+01 -0.15120686173E+02 -0.40663947226E+02  0.43400688038E+02  0.00000000000E+00 0.  1.
         11    1    3    3    0    0 -0.33023474871E+01  0.39182609411E+01  0.20737458299E+02  0.21361190152E+02  0.51100000000E-03 0. -1.
        -11    1    3    3    0    0 -0.33231566854E+00 -0.10800756827E+01 -0.11153455262E+01  0.15877635491E+01  0.51100000000E-03 0.  1.
        -12    1    3    3    0    0  0.48296392447E+01  0.12282500915E+02  0.21041834453E+02  0.24838358261E+02  0.00000000000E+00 0.  1.
</event>
<event>
 7    1  0.3807360E-011  0.4778726E+02  0.7816164E-02  0.1312668E+00
        -11   -1    0    0    0    0  0.00000000000E+00  0.00000000000E+00  0.45593999997E+02  0.45594000000E+02  0.51100000000E-03 0. -1.
         11   -1    0    0    0    0 -0.00000000000E+00 -0.00000000000E+00 -0.45593999997E+02  0.45594000000E+02  0.51100000000E-03 0.  1.
    9900012    2    1    2    0    0 -0.17593600313E+02  0.73713917502E+00  0.39667944765E+02  0.47787262817E+02  0.19999962489E+02 0.  0.
        -12    1    1    2    0    0  0.17593600313E+02 -0.73713917502E+00 -0.39667944765E+02  0.43400737183E+02  0.00000000000E+00 0.  1.
         11    1    3    3    0    0 -0.11728087324E+01  0.33647190172E+00  0.10685827341E+02  0.10755259173E+02  0.51100000000E-03 0. -1.
        -11    1    3    3    0    0  0.39768810286E+00  0.49129231643E+01  0.10718317689E+02  0.11797343099E+02  0.51100000000E-03 0.  1.
        -12    1    3    3    0    0 -0.16818479683E+02 -0.45122558910E+01  0.18263799736E+02  0.25234660546E+02  0.00000000000E+00 0.  1.
</event>
<event>
 7    1  0.3807360E-011  0.4778727E+02  0.7816164E-02  0.1312668E+00
        -11   -1    0    0    0    0  0.00000000000E+00  0.00000000000E+00  0.45593999997E+02  0.45594000000E+02  0.51100000000E-03 0. -1.
         11   -1    0    0    0    0 -0.00000000000E+00 -0.00000000000E+00 -0.45593999997E+02  0.45594000000E+02  0.51100000000E-03 0.  1.
    9900012    2    1    2    0    0 -0.11972391006E+02  0.25727181199E+01  0.41637321151E+02  0.47787268006E+02  0.19999986148E+02 0.  0.
        -12    1    1    2    0    0  0.11972391006E+02 -0.25727181199E+01 -0.41637321151E+02  0.43400731994E+02  0.00000000000E+00 0.  1.
         11    1    3    3    0    0  0.27865615526E+00 -0.34638200832E+01  0.55571929259E+01  0.65542423131E+01  0.51100000000E-03 0. -1.
        -11    1    3    3    0    0 -0.25033039454E+01  0.80167097731E+01  0.86558337780E+01  0.12060581449E+02  0.51100000000E-03 0.  1.
        -12    1    3    3    0    0 -0.97477432162E+01 -0.19801715700E+01  0.27424294447E+02  0.29172444244E+02  0.00000000000E+00 0.  1.
</event>
<event>
 7    1  0.3807360E-011  0.4778727E+02  0.7816164E-02  0.1312668E+00
        -11   -1    0    0    0    0  0.00000000000E+00  0.00000000000E+00  0.45593999997E+02  0.45594000000E+02  0.51100000000E-03 0. -1.
         11   -1    0    0    0    0 -0.00000000000E+00 -0.00000000000E+00 -0.45593999997E+02  0.45594000000E+02  0.51100000000E-03 0.  1.
    9900012    2    1    2    0    0  0.19932667714E+02  0.33044445086E+02 -0.19858918149E+02  0.47787271627E+02  0.20000002658E+02 0.  0.
         12    1    1    2    0    0 -0.19932667714E+02 -0.33044445086E+02  0.19858918149E+02  0.43400728373E+02  0.00000000000E+00 0. -1.
         11    1    3    3    0    0 -0.23808312531E+01  0.14940285730E+01 -0.33984320536E+01  0.44101949522E+01  0.51100000000E-03 0. -1.
        -11    1    3    3    0    0  0.97177858262E+01  0.21333273303E+02 -0.64330874268E+01  0.24309021480E+02  0.51100000000E-03 0.  1.
        -12    1    3    3    0    0  0.12595713140E+02  0.10217143209E+02 -0.10027398669E+02  0.19068055196E+02  0.00000000000E+00 0.  1.
</event>
<event>
 7    1  0.3807360E-011  0.4778727E+02  0.7816164E-02  0.1312668E+00
        -11   -1    0    0    0    0  0.00000000000E+00  0.00000000000E+00  0.45593999997E+02  0.45594000000E+02  0.51100000000E-03 0. -1.
         11   -1    0    0    0    0 -0.00000000000E+00 -0.00000000000E+00 -0.45593999997E+02  0.45594000000E+02  0.51100000000E-03 0.  1.
    9900012    2    1    2    0    0 -0.60969471290E-01  0.39732010556E+02 -0.17463868952E+02  0.47787273061E+02  0.20000009192E+02 0.  0.
         12    1    1    2    0    0  0.60969471290E-01 -0.39732010556E+02  0.17463868952E+02  0.43400726939E+02  0.00000000000E+00 0. -1.
         11    1    3    3    0    0  0.75003820823E+01  0.11414992350E+02 -0.94840084721E+00  0.13691502699E+02  0.51100000000E-03 0. -1.
        -11    1    3    3    0    0 -0.16263932390E+01  0.16559493211E+02 -0.86107321599E+01  0.18735172243E+02  0.51100000000E-03 0.  1.
        -12    1    3    3    0    0 -0.59349583146E+01  0.11757524995E+02 -0.79047359448E+01  0.15360598118E+02  0.00000000000E+00 0.  1.
</event>
<event>
 7    1  0.3807360E-011  0.4778727E+02  0.7816164E-02  0.1312668E+00
        -11   -1    0    0    0    0  0.00000000000E+00  0.00000000000E+00  0.45593999997E+02  0.45594000000E+02  0.51100000000E-03 0. -1.
         11   -1    0    0    0    0 -0.00000000000E+00 -0.00000000000E+00 -0.45593999997E+02  0.45594000000E+02  0.51100000000E-03 0.  1.
    9900012    2    1    2    0    0  0.24033532352E+02 -0.35936423235E+02  0.38191681655E+01  0.47787271461E+02  0.20000001899E+02 0.  0.
        -12    1    1    2    0    0 -0.24033532352E+02  0.35936423235E+02 -0.38191681655E+01  0.43400728539E+02  0.00000000000E+00 0.  1.
         11    1    3    3    0    0  0.13242317178E+02 -0.22455056369E+02 -0.26161623180E+01  0.26199863097E+02  0.51100000000E-03 0. -1.
        -11    1    3    3    0    0  0.12141700927E+02 -0.76802219950E+01  0.28861814239E+01  0.14653898961E+02  0.51100000000E-03 0.  1.
        -12    1    3    3    0    0 -0.13504857533E+01 -0.58011448710E+01  0.35491490596E+01  0.69335094023E+01  0.00000000000E+00 0.  1.
</event>
<event>
 7    1  0.3807360E-011  0.4778728E+02  0.7816164E-02  0.1312668E+00
        -11   -1    0    0    0    0  0.00000000000E+00  0.00000000000E+00  0.45593999997E+02  0.45594000000E+02  0.51100000000E-03 0.  1.
         11   -1    0    0    0    0 -0.00000000000E+00 -0.00000000000E+00 -0.45593999997E+02  0.45594000000E+02  0.51100000000E-03 0. -1.
    9900012    2    1    2    0    0 -0.23962521402E+02  0.35884072545E+02 -0.46640796564E+01  0.47787277271E+02  0.20000028389E+02 0.  0.
         12    1    1    2    0    0  0.23962521402E+02 -0.35884072545E+02  0.46640796564E+01  0.43400722729E+02  0.00000000000E+00 0. -1.
         11    1    3    3    0    0 -0.29085065157E+01  0.24196794067E+01 -0.18885271950E+01  0.42285687662E+01  0.51100000000E-03 0. -1.
        -11    1    3    3    0    0 -0.16487848113E+02  0.11742190544E+02 -0.60384505562E+01  0.21123235064E+02  0.51100000000E-03 0.  1.
         12    1    3    3    0    0 -0.45661667733E+01  0.21722202594E+02  0.32628980948E+01  0.22435473441E+02  0.00000000000E+00 0. -1.
</event>
<event>
 7    1  0.3807360E-011  0.4778727E+02  0.7816164E-02  0.1312668E+00
        -11   -1    0    0    0    0  0.00000000000E+00  0.00000000000E+00  0.45593999997E+02  0.45594000000E+02  0.51100000000E-03 0. -1.
         11   -1    0    0    0    0 -0.00000000000E+00 -0.00000000000E+00 -0.45593999997E+02  0.45594000000E+02  0.51100000000E-03 0.  1.
    9900012    2    1    2    0    0 -0.39271572880E+02 -0.56214879719E+01  0.17600156627E+02  0.47787273315E+02  0.20000010354E+02 0.  0.
        -12    1    1    2    0    0  0.39271572880E+02  0.56214879719E+01 -0.17600156627E+02  0.43400726685E+02  0.00000000000E+00 0.  1.
         11    1    3    3    0    0 -0.14026730606E+02  0.36209279285E+01  0.11154878608E+02  0.18283643170E+02  0.51100000000E-03 0. -1.
        -11    1    3    3    0    0 -0.13681558483E+01 -0.28447934985E+00 -0.21742067257E+01  0.25845607118E+01  0.51100000000E-03 0.  1.
        -12    1    3    3    0    0 -0.23876686425E+02 -0.89579365505E+01  0.86194847447E+01  0.26919069434E+02  0.00000000000E+00 0.  1.
</event>
<event>
 7    1  0.3807360E-011  0.4778727E+02  0.7816164E-02  0.1312668E+00
        -11   -1    0    0    0    0  0.00000000000E+00  0.00000000000E+00  0.45593999997E+02  0.45594000000E+02  0.51100000000E-03 0. -1.
         11   -1    0    0    0    0 -0.00000000000E+00 -0.00000000000E+00 -0.45593999997E+02  0.45594000000E+02  0.51100000000E-03 0.  1.
    9900012    2    1    2    0    0 -0.26263046068E+02  0.25842908063E+02  0.22935117104E+02  0.47787273249E+02  0.20000010050E+02 0.  0.
        -12    1    1    2    0    0  0.26263046068E+02 -0.25842908063E+02 -0.22935117104E+02  0.43400726751E+02  0.00000000000E+00 0.  1.
         11    1    3    3    0    0 -0.32817892746E+01  0.11105236544E+02  0.79374246765E+01  0.14039199774E+02  0.51100000000E-03 0. -1.
        -11    1    3    3    0    0 -0.86966484914E+01  0.17017385874E+01  0.10779990005E+02  0.13954776744E+02  0.51100000000E-03 0.  1.
         12    1    3    3    0    0 -0.14284608302E+02  0.13035932932E+02  0.42177024235E+01  0.19793296731E+02  0.00000000000E+00 0. -1.
</event>
<event>
 7    1  0.3807360E-011  0.4778727E+02  0.7816164E-02  0.1312668E+00
        -11   -1    0    0    0    0  0.00000000000E+00  0.00000000000E+00  0.45593999997E+02  0.45594000000E+02  0.51100000000E-03 0. -1.
         11   -1    0    0    0    0 -0.00000000000E+00 -0.00000000000E+00 -0.45593999997E+02  0.45594000000E+02  0.51100000000E-03 0.  1.
    9900012    2    1    2    0    0 -0.35736756155E+02  0.18558468610E+02 -0.16189219415E+02  0.47787270480E+02  0.19999997424E+02 0.  0.
         12    1    1    2    0    0  0.35736756155E+02 -0.18558468610E+02  0.16189219415E+02  0.43400729520E+02  0.00000000000E+00 0. -1.
         11    1    3    3    0    0 -0.51022170795E+00  0.15339060152E+01  0.12212709042E+01  0.20260051178E+01  0.51100000000E-03 0. -1.
        -11    1    3    3    0    0 -0.24107154674E+02  0.77911621848E+01 -0.18342720025E+02  0.31277987352E+02  0.51100000000E-03 0.  1.
        -12    1    3    3    0    0 -0.11119379773E+02  0.92334004098E+01  0.93222970514E+00  0.14483278009E+02  0.00000000000E+00 0.  1.
</event>
<event>
 7    1  0.3807360E-011  0.4778727E+02  0.7816164E-02  0.1312668E+00
        -11   -1    0    0    0    0  0.00000000000E+00  0.00000000000E+00  0.45593999997E+02  0.45594000000E+02  0.51100000000E-03 0. -1.
         11   -1    0    0    0    0 -0.00000000000E+00 -0.00000000000E+00 -0.45593999997E+02  0.45594000000E+02  0.51100000000E-03 0.  1.
    9900012    2    1    2    0    0 -0.25200660165E+01  0.35153516560E+02 -0.25327904667E+02  0.47787271733E+02  0.20000003138E+02 0.  0.
         12    1    1    2    0    0  0.25200660165E+01 -0.35153516560E+02  0.25327904667E+02  0.43400728267E+02  0.00000000000E+00 0. -1.
         11    1    3    3    0    0 -0.33326834946E+01  0.14205268858E+02 -0.84221867871E+01  0.16847245269E+02  0.51100000000E-03 0. -1.
        -11    1    3    3    0    0 -0.11276201582E+00  0.14780031448E+02 -0.19256067840E+02  0.24274640961E+02  0.51100000000E-03 0.  1.
        -12    1    3    3    0    0  0.92537949397E+00  0.61682162544E+01  0.23503499595E+01  0.66653855029E+01  0.00000000000E+00 0.  1.
</event>
<event>
 7    1  0.3807360E-011  0.4778727E+02  0.7816164E-02  0.1312668E+00
        -11   -1    0    0    0    0  0.00000000000E+00  0.00000000000E+00  0.45593999997E+02  0.45594000000E+02  0.51100000000E-03 0.  1.
         11   -1    0    0    0    0 -0.00000000000E+00 -0.00000000000E+00 -0.45593999997E+02  0.45594000000E+02  0.51100000000E-03 0. -1.
    9900012    2    1    2    0    0 -0.35848259008E+02  0.22695015885E+02 -0.91357447895E+01  0.47787271287E+02  0.20000001106E+02 0.  0.
         12    1    1    2    0    0  0.35848259008E+02 -0.22695015885E+02  0.91357447895E+01  0.43400728713E+02  0.00000000000E+00 0. -1.
         11    1    3    3    0    0 -0.15409725251E+02  0.37445784700E+01 -0.10445329498E+02  0.18989112902E+02  0.51100000000E-03 0. -1.
        -11    1    3    3    0    0 -0.10564889730E+02  0.80145738544E+01 -0.26906582700E+01  0.13531072805E+02  0.51100000000E-03 0.  1.
         12    1    3    3    0    0 -0.98736440278E+01  0.10935863561E+02  0.40002429788E+01  0.15267085580E+02  0.00000000000E+00 0. -1.
</event>
<event>
 7    1  0.3807360E-011  0.4778727E+02  0.7816164E-02  0.1312668E+00
        -11   -1    0    0    0    0  0.00000000000E+00  0.00000000000E+00  0.45593999997E+02  0.45594000000E+02  0.51100000000E-03 0. -1.
         11   -1    0    0    0    0 -0.00000000000E+00 -0.00000000000E+00 -0.45593999997E+02  0.45594000000E+02  0.51100000000E-03 0.  1.
    9900012    2    1    2    0    0 -0.20610231984E+02  0.21695686723E+02  0.31434677369E+02  0.47787269291E+02  0.19999992005E+02 0.  0.
        -12    1    1    2    0    0  0.20610231984E+02 -0.21695686723E+02 -0.31434677369E+02  0.43400730709E+02  0.00000000000E+00 0.  1.
         11    1    3    3    0    0 -0.74595173643E+01  0.13436604095E+01  0.25284919640E+01  0.79901873869E+01  0.51100000000E-03 0. -1.
        -11    1    3    3    0    0 -0.15472252082E+02  0.15600674574E+02  0.21933906249E+02  0.31046221594E+02  0.51100000000E-03 0.  1.
        -12    1    3    3    0    0  0.23215374624E+01  0.47513517397E+01  0.69722791551E+01  0.87508603098E+01  0.00000000000E+00 0.  1.
</event>
<event>
 7    1  0.3807360E-011  0.4778727E+02  0.7816164E-02  0.1312668E+00
        -11   -1    0    0    0    0  0.00000000000E+00  0.00000000000E+00  0.45593999997E+02  0.45594000000E+02  0.51100000000E-03 0.  1.
         11   -1    0    0    0    0 -0.00000000000E+00 -0.00000000000E+00 -0.45593999997E+02  0.45594000000E+02  0.51100000000E-03 0. -1.
    9900012    2    1    2    0    0  0.41593320402E+02  0.69249178226E+01 -0.10279318424E+02  0.47787272170E+02  0.20000005133E+02 0.  0.
         12    1    1    2    0    0 -0.41593320402E+02 -0.69249178226E+01  0.10279318424E+02  0.43400727830E+02  0.00000000000E+00 0. -1.
         11    1    3    3    0    0  0.36919411843E+01  0.54282355864E+01 -0.11912682411E+01  0.66719780855E+01  0.51100000000E-03 0. -1.
        -11    1    3    3    0    0  0.17315664050E+02 -0.57230318823E+01 -0.31547756654E+01  0.18507780126E+02  0.51100000000E-03 0.  1.
         12    1    3    3    0    0  0.20585715168E+02  0.72197141185E+01 -0.59332745173E+01  0.22607513959E+02  0.00000000000E+00 0. -1.
</event>
<event>
 7    1  0.3807360E-011  0.4778727E+02  0.7816164E-02  0.1312668E+00
        -11   -1    0    0    0    0  0.00000000000E+00  0.00000000000E+00  0.45593999997E+02  0.45594000000E+02  0.51100000000E-03 0. -1.
         11   -1    0    0    0    0 -0.00000000000E+00 -0.00000000000E+00 -0.45593999997E+02  0.45594000000E+02  0.51100000000E-03 0.  1.
    9900012    2    1    2    0    0 -0.24041122944E+02 -0.16682222707E+02  0.32052318286E+02  0.47787271269E+02  0.20000001024E+02 0.  0.
        -12    1    1    2    0    0  0.24041122944E+02  0.16682222707E+02 -0.32052318286E+02  0.43400728731E+02  0.00000000000E+00 0.  1.
         11    1    3    3    0    0  0.27914010028E+01 -0.29819411150E+01  0.61612021301E+01  0.73921785910E+01  0.51100000000E-03 0. -1.
        -11    1    3    3    0    0 -0.14192940105E+02 -0.73154169067E+01  0.18444510029E+02  0.24395795207E+02  0.51100000000E-03 0.  1.
        -12    1    3    3    0    0 -0.12639583842E+02 -0.63848646855E+01  0.74466061279E+01  0.15999297471E+02  0.00000000000E+00 0.  1.
</event>
<event>
 7    1  0.3807360E-011  0.4778727E+02  0.7816164E-02  0.1312668E+00
        -11   -1    0    0    0    0  0.00000000000E+00  0.00000000000E+00  0.45593999997E+02  0.45594000000E+02  0.51100000000E-03 0. -1.
         11   -1    0    0    0    0 -0.00000000000E+00 -0.00000000000E+00 -0.45593999997E+02  0.45594000000E+02  0.51100000000E-03 0.  1.
    9900012    2    1    2    0    0  0.10076918403E+02  0.36960001960E+02 -0.20397001280E+02  0.47787266243E+02  0.19999978111E+02 0.  0.
         12    1    1    2    0    0 -0.10076918403E+02 -0.36960001960E+02  0.20397001280E+02  0.43400733757E+02  0.00000000000E+00 0. -1.
         11    1    3    3    0    0  0.13353673985E+02  0.19153782629E+02 -0.15217968200E+02  0.27870675526E+02  0.51100000000E-03 0. -1.
        -11    1    3    3    0    0 -0.20260143803E+01  0.80872659795E+00 -0.75369544248E+00  0.23079926475E+01  0.51100000000E-03 0.  1.
        -12    1    3    3    0    0 -0.12507412018E+01  0.16997492734E+02 -0.44253376373E+01  0.17608598070E+02  0.00000000000E+00 0.  1.
</event>
<event>
 7    1  0.3807360E-011  0.4778727E+02  0.7816164E-02  0.1312668E+00
        -11   -1    0    0    0    0  0.00000000000E+00  0.00000000000E+00  0.45593999997E+02  0.45594000000E+02  0.51100000000E-03 0. -1.
         11   -1    0    0    0    0 -0.00000000000E+00 -0.00000000000E+00 -0.45593999997E+02  0.45594000000E+02  0.51100000000E-03 0.  1.
    9900012    2    1    2    0    0 -0.26531557378E+02  0.14503311757E+02  0.31134448011E+02  0.47787269110E+02  0.19999991180E+02 0.  0.
        -12    1    1    2    0    0  0.26531557378E+02 -0.14503311757E+02 -0.31134448011E+02  0.43400730890E+02  0.00000000000E+00 0.  1.
         11    1    3    3    0    0 -0.93528622972E+01  0.32117003137E+01  0.47816707295E+01  0.10984326437E+02  0.51100000000E-03 0. -1.
        -11    1    3    3    0    0  0.13417478559E+01 -0.15762059542E+01  0.62781534512E+01  0.66105917690E+01  0.51100000000E-03 0.  1.
        -12    1    3    3    0    0 -0.18520442937E+02  0.12867817398E+02  0.20074623830E+02  0.30192350904E+02  0.00000000000E+00 0.  1.
</event>
<event>
 7    1  0.3807360E-011  0.4778728E+02  0.7816164E-02  0.1312668E+00
        -11   -1    0    0    0    0  0.00000000000E+00  0.00000000000E+00  0.45593999997E+02  0.45594000000E+02  0.51100000000E-03 0. -1.
         11   -1    0    0    0    0 -0.00000000000E+00 -0.00000000000E+00 -0.45593999997E+02  0.45594000000E+02  0.51100000000E-03 0.  1.
    9900012    2    1    2    0    0  0.13235664113E+02  0.66113062980E+01  0.40801112057E+02  0.47787275115E+02  0.20000018558E+02 0.  0.
        -12    1    1    2    0    0 -0.13235664113E+02 -0.66113062980E+01 -0.40801112057E+02  0.43400724885E+02  0.00000000000E+00 0.  1.
         11    1    3    3    0    0  0.29471375323E+01  0.15634385719E+01  0.22082890639E+02  0.22333473062E+02  0.51100000000E-03 0. -1.
        -11    1    3    3    0    0 -0.23940112585E+01  0.29678341209E+01  0.18243073516E+01  0.42269879169E+01  0.51100000000E-03 0.  1.
        -12    1    3    3    0    0  0.12682537840E+02  0.20800336051E+01  0.16893914066E+02  0.21226814135E+02  0.00000000000E+00 0.  1.
</event>
<event>
 7    1  0.3807360E-011  0.4778727E+02  0.7816164E-02  0.1312668E+00
        -11   -1    0    0    0    0  0.00000000000E+00  0.00000000000E+00  0.45593999997E+02  0.45594000000E+02  0.51100000000E-03 0. -1.
         11   -1    0    0    0    0 -0.00000000000E+00 -0.00000000000E+00 -0.45593999997E+02  0.45594000000E+02  0.51100000000E-03 0.  1.
    9900012    2    1    2    0    0 -0.36545071858E+02  0.21873664785E+02  0.83440789748E+01  0.47787272562E+02  0.20000006918E+02 0.  0.
        -12    1    1    2    0    0  0.36545071858E+02 -0.21873664785E+02 -0.83440789748E+01  0.43400727438E+02  0.00000000000E+00 0.  1.
         11    1    3    3    0    0 -0.11287051134E+02 -0.12303589417E+01  0.11642030612E+01  0.11413442752E+02  0.51100000000E-03 0. -1.
        -11    1    3    3    0    0 -0.22322756761E+02  0.14632069685E+02  0.52419545103E+01  0.27200754034E+02  0.51100000000E-03 0.  1.
        -12    1    3    3    0    0 -0.29352639626E+01  0.84719540415E+01  0.19379214034E+01  0.91730757752E+01  0.00000000000E+00 0.  1.
</event>
<event>
 7    1  0.3807360E-011  0.4778727E+02  0.7816164E-02  0.1312668E+00
        -11   -1    0    0    0    0  0.00000000000E+00  0.00000000000E+00  0.45593999997E+02  0.45594000000E+02  0.51100000000E-03 0. -1.
         11   -1    0    0    0    0 -0.00000000000E+00 -0.00000000000E+00 -0.45593999997E+02  0.45594000000E+02  0.51100000000E-03 0.  1.
    9900012    2    1    2    0    0  0.26398586585E+02  0.15744564130E+00 -0.34448701625E+02  0.47787271821E+02  0.20000003539E+02 0.  0.
         12    1    1    2    0    0 -0.26398586585E+02 -0.15744564130E+00  0.34448701625E+02  0.43400728179E+02  0.00000000000E+00 0. -1.
         11    1    3    3    0    0  0.93105856444E+01 -0.35126971049E+01 -0.47787767288E+01  0.11039146402E+02  0.51100000000E-03 0.  1.
        -11    1    3    3    0    0  0.52833950160E+01 -0.38981911957E+01 -0.45793597763E+01  0.80050417685E+01  0.51100000000E-03 0. -1.
        -12    1    3    3    0    0  0.11804605925E+02  0.75683339419E+01 -0.25090565120E+02  0.28743083651E+02  0.00000000000E+00 0.  1.
</event>
<event>
 7    1  0.3807360E-011  0.4778727E+02  0.7816164E-02  0.1312668E+00
        -11   -1    0    0    0    0  0.00000000000E+00  0.00000000000E+00  0.45593999997E+02  0.45594000000E+02  0.51100000000E-03 0. -1.
         11   -1    0    0    0    0 -0.00000000000E+00 -0.00000000000E+00 -0.45593999997E+02  0.45594000000E+02  0.51100000000E-03 0.  1.
    9900012    2    1    2    0    0  0.30986220842E+01 -0.65350588700E+01  0.42793861218E+02  0.47787274071E+02  0.20000013798E+02 0.  0.
        -12    1    1    2    0    0 -0.30986220842E+01  0.65350588700E+01 -0.42793861218E+02  0.43400725929E+02  0.00000000000E+00 0.  1.
         11    1    3    3    0    0  0.71318537648E+01 -0.38647190460E+01  0.12093406358E+02  0.14561932187E+02  0.51100000000E-03 0.  1.
        -11    1    3    3    0    0 -0.42243624911E+00  0.37512282623E+01  0.19199903185E+02  0.19567484468E+02  0.51100000000E-03 0. -1.
        -12    1    3    3    0    0 -0.36107954315E+01 -0.64215680862E+01  0.11500551676E+02  0.13657857415E+02  0.00000000000E+00 0.  1.
</event>
<event>
 7    1  0.3807360E-011  0.4778727E+02  0.7816164E-02  0.1312668E+00
        -11   -1    0    0    0    0  0.00000000000E+00  0.00000000000E+00  0.45593999997E+02  0.45594000000E+02  0.51100000000E-03 0. -1.
         11   -1    0    0    0    0 -0.00000000000E+00 -0.00000000000E+00 -0.45593999997E+02  0.45594000000E+02  0.51100000000E-03 0.  1.
    9900012    2    1    2    0    0 -0.21174023790E+02 -0.37832233295E+02 -0.20014980687E+01  0.47787272425E+02  0.20000006293E+02 0.  0.
         12    1    1    2    0    0  0.21174023790E+02  0.37832233295E+02  0.20014980687E+01  0.43400727575E+02  0.00000000000E+00 0. -1.
         11    1    3    3    0    0 -0.11541754207E+02 -0.12248150964E+02  0.76957204704E+01  0.18505496643E+02  0.51100000000E-03 0. -1.
        -11    1    3    3    0    0 -0.54335241109E+01 -0.16049956769E+02 -0.40100100971E+01  0.17412767666E+02  0.51100000000E-03 0.  1.
         12    1    3    3    0    0 -0.41987454728E+01 -0.95341255620E+01 -0.56872084419E+01  0.11869008115E+02  0.00000000000E+00 0. -1.
</event>
<event>
 7    1  0.3807360E-011  0.4778727E+02  0.7816164E-02  0.1312668E+00
        -11   -1    0    0    0    0  0.00000000000E+00  0.00000000000E+00  0.45593999997E+02  0.45594000000E+02  0.51100000000E-03 0. -1.
         11   -1    0    0    0    0 -0.00000000000E+00 -0.00000000000E+00 -0.45593999997E+02  0.45594000000E+02  0.51100000000E-03 0.  1.
    9900012    2    1    2    0    0 -0.19665805993E+02  0.57631323712E+00 -0.38685234262E+02  0.47787269451E+02  0.19999992735E+02 0.  0.
         12    1    1    2    0    0  0.19665805993E+02 -0.57631323712E+00  0.38685234262E+02  0.43400730549E+02  0.00000000000E+00 0. -1.
         11    1    3    3    0    0 -0.83773410029E+01 -0.27416270324E+01 -0.29255547150E+02  0.30554597041E+02  0.51100000000E-03 0.  1.
        -11    1    3    3    0    0 -0.11469977523E+02  0.11833659933E+01 -0.97067544616E+01  0.15072551937E+02  0.51100000000E-03 0. -1.
        -12    1    3    3    0    0  0.18151253270E+00  0.21345742762E+01  0.27706735003E+00  0.21601204727E+01  0.00000000000E+00 0.  1.
</event>
<event>
 7    1  0.3807360E-011  0.4778727E+02  0.7816164E-02  0.1312668E+00
        -11   -1    0    0    0    0  0.00000000000E+00  0.00000000000E+00  0.45593999997E+02  0.45594000000E+02  0.51100000000E-03 0. -1.
         11   -1    0    0    0    0 -0.00000000000E+00 -0.00000000000E+00 -0.45593999997E+02  0.45594000000E+02  0.51100000000E-03 0.  1.
    9900012    2    1    2    0    0 -0.75796611132E+01 -0.33544645689E+02 -0.26475055585E+02  0.47787273218E+02  0.20000009910E+02 0.  0.
         12    1    1    2    0    0  0.75796611132E+01  0.33544645689E+02  0.26475055585E+02  0.43400726782E+02  0.00000000000E+00 0. -1.
         11    1    3    3    0    0  0.45495947261E+01 -0.90303096772E+01 -0.10516924726E+01  0.10166187208E+02  0.51100000000E-03 0. -1.
        -11    1    3    3    0    0 -0.64217008271E+01 -0.14138975131E+02 -0.11384736402E+02  0.19255157296E+02  0.51100000000E-03 0.  1.
         12    1    3    3    0    0 -0.57075550122E+01 -0.10375360880E+02 -0.14038626710E+02  0.18365928714E+02  0.00000000000E+00 0. -1.
</event>
<event>
 7    1  0.3807360E-011  0.4778730E+02  0.7816164E-02  0.1312668E+00
        -11   -1    0    0    0    0  0.00000000000E+00  0.00000000000E+00  0.45593999997E+02  0.45594000000E+02  0.51100000000E-03 0. -1.
         11   -1    0    0    0    0 -0.00000000000E+00 -0.00000000000E+00 -0.45593999997E+02  0.45594000000E+02  0.51100000000E-03 0.  1.
    9900012    2    1    2    0    0 -0.31145974083E+02 -0.10750657388E+02 -0.28248401407E+02  0.47787302795E+02  0.20000144761E+02 0.  0.
         12    1    1    2    0    0  0.31145974083E+02  0.10750657388E+02  0.28248401407E+02  0.43400697205E+02  0.00000000000E+00 0. -1.
         11    1    3    3    0    0 -0.10404071421E+02 -0.87500010566E+01 -0.13591359140E+02  0.19223222002E+02  0.51100000000E-03 0. -1.
        -11    1    3    3    0    0 -0.97895943272E+01 -0.68076949716E+01 -0.10540030332E+02  0.15914556468E+02  0.51100000000E-03 0.  1.
         12    1    3    3    0    0 -0.10952308335E+02  0.48070386399E+01 -0.41170119349E+01  0.12649524324E+02  0.00000000000E+00 0. -1.
</event>
<event>
 7    1  0.3807360E-011  0.4778728E+02  0.7816164E-02  0.1312668E+00
        -11   -1    0    0    0    0  0.00000000000E+00  0.00000000000E+00  0.45593999997E+02  0.45594000000E+02  0.51100000000E-03 0. -1.
         11   -1    0    0    0    0 -0.00000000000E+00 -0.00000000000E+00 -0.45593999997E+02  0.45594000000E+02  0.51100000000E-03 0.  1.
    9900012    2    1    2    0    0  0.32237102094E+02 -0.71495764846E+01 -0.28165147763E+02  0.47787277151E+02  0.20000027841E+02 0.  0.
         12    1    1    2    0    0 -0.32237102094E+02  0.71495764846E+01  0.28165147763E+02  0.43400722849E+02  0.00000000000E+00 0. -1.
         11    1    3    3    0    0  0.18554989943E+02 -0.28306961620E+01 -0.17364895395E+02  0.25570296926E+02  0.51100000000E-03 0. -1.
        -11    1    3    3    0    0  0.27985800890E+01  0.45722323161E+01 -0.30760574373E+01  0.61805734754E+01  0.51100000000E-03 0.  1.
         12    1    3    3    0    0  0.10883532062E+02 -0.88911126386E+01 -0.77241949305E+01  0.16036406749E+02  0.00000000000E+00 0. -1.
</event>
<event>
 7    1  0.3807360E-011  0.4778727E+02  0.7816164E-02  0.1312668E+00
        -11   -1    0    0    0    0  0.00000000000E+00  0.00000000000E+00  0.45593999997E+02  0.45594000000E+02  0.51100000000E-03 0. -1.
         11   -1    0    0    0    0 -0.00000000000E+00 -0.00000000000E+00 -0.45593999997E+02  0.45594000000E+02  0.51100000000E-03 0.  1.
    9900012    2    1    2    0    0  0.24344941868E+02 -0.30882479504E+02  0.18363541302E+02  0.47787269775E+02  0.19999994213E+02 0.  0.
        -12    1    1    2    0    0 -0.24344941868E+02  0.30882479504E+02 -0.18363541302E+02  0.43400730225E+02  0.00000000000E+00 0.  1.
         11    1    3    3    0    0  0.76997343497E+01 -0.23249840464E+00  0.69867825488E+01  0.10399764190E+02  0.51100000000E-03 0. -1.
        -11    1    3    3    0    0  0.10227409146E+01 -0.80486154946E+01  0.19980574798E+01  0.83557431933E+01  0.51100000000E-03 0.  1.
        -12    1    3    3    0    0  0.15622466604E+02 -0.22601365605E+02  0.93787012737E+01  0.29031762392E+02  0.00000000000E+00 0.  1.
</event>
<event>
 7    1  0.3807360E-011  0.4778726E+02  0.7816164E-02  0.1312668E+00
        -11   -1    0    0    0    0  0.00000000000E+00  0.00000000000E+00  0.45593999997E+02  0.45594000000E+02  0.51100000000E-03 0. -1.
         11   -1    0    0    0    0 -0.00000000000E+00 -0.00000000000E+00 -0.45593999997E+02  0.45594000000E+02  0.51100000000E-03 0.  1.
    9900012    2    1    2    0    0  0.29757753605E+02 -0.33165908696E+00 -0.31590981032E+02  0.47787262911E+02  0.19999962915E+02 0.  0.
         12    1    1    2    0    0 -0.29757753605E+02  0.33165908696E+00  0.31590981032E+02  0.43400737089E+02  0.00000000000E+00 0. -1.
         11    1    3    3    0    0  0.66804180407E+01  0.48378627167E+01 -0.88175232582E+01  0.12074005861E+02  0.51100000000E-03 0. -1.
        -11    1    3    3    0    0  0.15173109734E+02 -0.79459164686E+01 -0.21088677502E+02  0.27167870115E+02  0.51100000000E-03 0.  1.
        -12    1    3    3    0    0  0.79042258296E+01  0.27763946650E+01 -0.16847802718E+01  0.85453869348E+01  0.00000000000E+00 0.  1.
</event>
<event>
 7    1  0.3807360E-011  0.4778727E+02  0.7816164E-02  0.1312668E+00
        -11   -1    0    0    0    0  0.00000000000E+00  0.00000000000E+00  0.45593999997E+02  0.45594000000E+02  0.51100000000E-03 0. -1.
         11   -1    0    0    0    0 -0.00000000000E+00 -0.00000000000E+00 -0.45593999997E+02  0.45594000000E+02  0.51100000000E-03 0.  1.
    9900012    2    1    2    0    0 -0.59531583924E+00 -0.97175813150E+00  0.43385769891E+02  0.47787265630E+02  0.19999975314E+02 0.  0.
        -12    1    1    2    0    0  0.59531583924E+00  0.97175813150E+00 -0.43385769891E+02  0.43400734370E+02  0.00000000000E+00 0.  1.
         11    1    3    3    0    0 -0.33940876094E+01  0.21119377437E+01  0.11470333254E+02  0.12146960811E+02  0.51100000000E-03 0. -1.
        -11    1    3    3    0    0 -0.41230226877E+00 -0.84665811324E+01  0.11513956429E+02  0.14297698491E+02  0.51100000000E-03 0.  1.
        -12    1    3    3    0    0  0.32110740390E+01  0.53828852572E+01  0.20401480208E+02  0.21342606327E+02  0.00000000000E+00 0.  1.
</event>
<event>
 7    1  0.3807360E-011  0.4778727E+02  0.7816164E-02  0.1312668E+00
        -11   -1    0    0    0    0  0.00000000000E+00  0.00000000000E+00  0.45593999997E+02  0.45594000000E+02  0.51100000000E-03 0.  1.
         11   -1    0    0    0    0 -0.00000000000E+00 -0.00000000000E+00 -0.45593999997E+02  0.45594000000E+02  0.51100000000E-03 0. -1.
    9900012    2    1    2    0    0 -0.30598716356E+02 -0.20441072830E+02  0.23010954606E+02  0.47787274972E+02  0.20000017909E+02 0.  0.
        -12    1    1    2    0    0  0.30598716356E+02  0.20441072830E+02 -0.23010954606E+02  0.43400725028E+02  0.00000000000E+00 0.  1.
         11    1    3    3    0    0 -0.38125863946E+01 -0.77659907381E+01 -0.33497688608E+00  0.86578656109E+01  0.51100000000E-03 0. -1.
        -11    1    3    3    0    0 -0.15238262325E+01 -0.33149040786E+01  0.27243556223E+00  0.36585320600E+01  0.51100000000E-03 0.  1.
         12    1    3    3    0    0 -0.25262303729E+02 -0.93601780130E+01  0.23073495930E+02  0.35470877302E+02  0.00000000000E+00 0. -1.
</event>
<event>
 7    1  0.3807360E-011  0.4778727E+02  0.7816164E-02  0.1312668E+00
        -11   -1    0    0    0    0  0.00000000000E+00  0.00000000000E+00  0.45593999997E+02  0.45594000000E+02  0.51100000000E-03 0. -1.
         11   -1    0    0    0    0 -0.00000000000E+00 -0.00000000000E+00 -0.45593999997E+02  0.45594000000E+02  0.51100000000E-03 0.  1.
    9900012    2    1    2    0    0  0.15858552377E+02  0.40322364763E+02 -0.24972856850E+01  0.47787271672E+02  0.20000002861E+02 0.  0.
        -12    1    1    2    0    0 -0.15858552377E+02 -0.40322364763E+02  0.24972856850E+01  0.43400728328E+02  0.00000000000E+00 0.  1.
         11    1    3    3    0    0  0.20133275491E+01  0.61713223025E+01 -0.73325477806E+01  0.97931079845E+01  0.51100000000E-03 0. -1.
        -11    1    3    3    0    0  0.26812317712E+01  0.17024422852E+02  0.25764654639E+01  0.17425789847E+02  0.51100000000E-03 0.  1.
         12    1    3    3    0    0  0.11163993057E+02  0.17126619609E+02  0.22587966317E+01  0.20568373840E+02  0.00000000000E+00 0. -1.
</event>
<event>
 7    1  0.3807360E-011  0.4778732E+02  0.7816164E-02  0.1312668E+00
        -11   -1    0    0    0    0  0.00000000000E+00  0.00000000000E+00  0.45593999997E+02  0.45594000000E+02  0.51100000000E-03 0. -1.
         11   -1    0    0    0    0 -0.00000000000E+00 -0.00000000000E+00 -0.45593999997E+02  0.45594000000E+02  0.51100000000E-03 0.  1.
    9900012    2    1    2    0    0  0.23307280596E+02  0.81630549915E+01  0.35689691597E+02  0.47787321643E+02  0.20000230698E+02 0.  0.
        -12    1    1    2    0    0 -0.23307280596E+02 -0.81630549915E+01 -0.35689691597E+02  0.43400678357E+02  0.00000000000E+00 0.  1.
         11    1    3    3    0    0  0.15490090900E+02  0.66169583162E+01  0.13971256897E+02  0.21884311116E+02  0.51100000000E-03 0. -1.
        -11    1    3    3    0    0  0.81341723422E+01 -0.36451781507E+01  0.13506266076E+02  0.16182438229E+02  0.51100000000E-03 0.  1.
        -12    1    3    3    0    0 -0.31698264648E+00  0.51912748261E+01  0.82121686232E+01  0.97205722987E+01  0.00000000000E+00 0.  1.
</event>
<event>
 7    1  0.3807360E-011  0.4778728E+02  0.7816164E-02  0.1312668E+00
        -11   -1    0    0    0    0  0.00000000000E+00  0.00000000000E+00  0.45593999997E+02  0.45594000000E+02  0.51100000000E-03 0. -1.
         11   -1    0    0    0    0 -0.00000000000E+00 -0.00000000000E+00 -0.45593999997E+02  0.45594000000E+02  0.51100000000E-03 0.  1.
    9900012    2    1    2    0    0 -0.15206802318E+02 -0.93642548514E+01  0.39556117029E+02  0.47787279959E+02  0.20000040647E+02 0.  0.
        -12    1    1    2    0    0  0.15206802318E+02  0.93642548514E+01 -0.39556117029E+02  0.43400720041E+02  0.00000000000E+00 0.  1.
         11    1    3    3    0    0  0.41850564994E+01 -0.17912138114E+01  0.12848083881E+02  0.13630715480E+02  0.51100000000E-03 0.  1.
        -11    1    3    3    0    0 -0.85231900459E+01 -0.17885449928E+01  0.13800358275E+02  0.16318503318E+02  0.51100000000E-03 0. -1.
         12    1    3    3    0    0 -0.10868668772E+02 -0.57844960472E+01  0.12907674872E+02  0.17838061161E+02  0.00000000000E+00 0. -1.
</event>
<event>
 7    1  0.3807360E-011  0.4778727E+02  0.7816164E-02  0.1312668E+00
        -11   -1    0    0    0    0  0.00000000000E+00  0.00000000000E+00  0.45593999997E+02  0.45594000000E+02  0.51100000000E-03 0. -1.
         11   -1    0    0    0    0 -0.00000000000E+00 -0.00000000000E+00 -0.45593999997E+02  0.45594000000E+02  0.51100000000E-03 0.  1.
    9900012    2    1    2    0    0  0.17766187875E+02  0.16830160662E+02  0.35843151734E+02  0.47787271138E+02  0.20000000426E+02 0.  0.
        -12    1    1    2    0    0 -0.17766187875E+02 -0.16830160662E+02 -0.35843151734E+02  0.43400728862E+02  0.00000000000E+00 0.  1.
         11    1    3    3    0    0  0.22782298098E+01 -0.14141555504E+01  0.58439406811E+01  0.64297597103E+01  0.51100000000E-03 0. -1.
        -11    1    3    3    0    0 -0.51912970776E+00  0.62674735080E+01  0.15304043499E+02  0.16545829308E+02  0.51100000000E-03 0.  1.
         12    1    3    3    0    0  0.16007087773E+02  0.11976842705E+02  0.14695167554E+02  0.24811682119E+02  0.00000000000E+00 0. -1.
</event>
<event>
 7    1  0.3807360E-011  0.4778727E+02  0.7816164E-02  0.1312668E+00
        -11   -1    0    0    0    0  0.00000000000E+00  0.00000000000E+00  0.45593999997E+02  0.45594000000E+02  0.51100000000E-03 0.  1.
         11   -1    0    0    0    0 -0.00000000000E+00 -0.00000000000E+00 -0.45593999997E+02  0.45594000000E+02  0.51100000000E-03 0. -1.
    9900012    2    1    2    0    0 -0.23281454291E+02 -0.36601422064E+02 -0.13904245889E+01  0.47787268537E+02  0.19999988568E+02 0.  0.
         12    1    1    2    0    0  0.23281454291E+02  0.36601422064E+02  0.13904245889E+01  0.43400731463E+02  0.00000000000E+00 0. -1.
         11    1    3    3    0    0  0.95413931772E-01 -0.74702925196E+01  0.57553282492E+00  0.74930375977E+01  0.51100000000E-03 0. -1.
        -11    1    3    3    0    0 -0.13288973647E+01 -0.11849757116E+02  0.16897067053E+01  0.12043164904E+02  0.51100000000E-03 0.  1.
         12    1    3    3    0    0 -0.22047970858E+02 -0.17281372428E+02 -0.36556641191E+01  0.28251066035E+02  0.00000000000E+00 0. -1.
</event>
<event>
 7    1  0.3807360E-011  0.4778731E+02  0.7816164E-02  0.1312668E+00
        -11   -1    0    0    0    0  0.00000000000E+00  0.00000000000E+00  0.45593999997E+02  0.45594000000E+02  0.51100000000E-03 0. -1.
         11   -1    0    0    0    0 -0.00000000000E+00 -0.00000000000E+00 -0.45593999997E+02  0.45594000000E+02  0.51100000000E-03 0.  1.
    9900012    2    1    2    0    0  0.14415430990E+02 -0.34359684319E+01 -0.40792272768E+02  0.47787308216E+02  0.20000169481E+02 0.  0.
         12    1    1    2    0    0 -0.14415430990E+02  0.34359684319E+01  0.40792272768E+02  0.43400691784E+02  0.00000000000E+00 0. -1.
         11    1    3    3    0    0  0.95155699131E+01  0.28192666708E+01 -0.20524242108E+02  0.22797781684E+02  0.51100000000E-03 0.  1.
        -11    1    3    3    0    0  0.51836782036E+01 -0.52317036551E+01 -0.34411042921E+01  0.81291107671E+01  0.51100000000E-03 0. -1.
         12    1    3    3    0    0 -0.28381712714E+00 -0.10235314476E+01 -0.16826926368E+02  0.16860415765E+02  0.00000000000E+00 0. -1.
</event>
<event>
 7    1  0.3807360E-011  0.4778727E+02  0.7816164E-02  0.1312668E+00
        -11   -1    0    0    0    0  0.00000000000E+00  0.00000000000E+00  0.45593999997E+02  0.45594000000E+02  0.51100000000E-03 0. -1.
         11   -1    0    0    0    0 -0.00000000000E+00 -0.00000000000E+00 -0.45593999997E+02  0.45594000000E+02  0.51100000000E-03 0.  1.
    9900012    2    1    2    0    0 -0.67339226498E+01 -0.88164427148E+01  0.41958882645E+02  0.47787271789E+02  0.20000003395E+02 0.  0.
        -12    1    1    2    0    0  0.67339226498E+01  0.88164427148E+01 -0.41958882645E+02  0.43400728211E+02  0.00000000000E+00 0.  1.
         11    1    3    3    0    0  0.32846801191E+01 -0.11703518854E+02  0.24775327839E+02  0.27596708986E+02  0.51100000000E-03 0. -1.
        -11    1    3    3    0    0 -0.33818153785E+01  0.57763032113E+00  0.41606943967E+01  0.53927460691E+01  0.51100000000E-03 0.  1.
         12    1    3    3    0    0 -0.66367873905E+01  0.23094458183E+01  0.13022860410E+02  0.14797816734E+02  0.00000000000E+00 0. -1.
</event>
<event>
 7    1  0.3807360E-011  0.4778728E+02  0.7816164E-02  0.1312668E+00
        -11   -1    0    0    0    0  0.00000000000E+00  0.00000000000E+00  0.45593999997E+02  0.45594000000E+02  0.51100000000E-03 0. -1.
         11   -1    0    0    0    0 -0.00000000000E+00 -0.00000000000E+00 -0.45593999997E+02  0.45594000000E+02  0.51100000000E-03 0.  1.
    9900012    2    1    2    0    0  0.57235088860E+01 -0.19391446727E+02 -0.38403593124E+02  0.47787277369E+02  0.20000028835E+02 0.  0.
         12    1    1    2    0    0 -0.57235088860E+01  0.19391446727E+02  0.38403593124E+02  0.43400722631E+02  0.00000000000E+00 0. -1.
         11    1    3    3    0    0  0.53651669994E+01 -0.21206744331E+01 -0.26666045800E+01  0.63555532592E+01  0.51100000000E-03 0. -1.
        -11    1    3    3    0    0 -0.84094982482E+00 -0.64767086098E+00 -0.14003064542E+02  0.14043236485E+02  0.51100000000E-03 0.  1.
        -12    1    3    3    0    0  0.11992917114E+01 -0.16623101432E+02 -0.21733924002E+02  0.27388487625E+02  0.00000000000E+00 0.  1.
</event>
<event>
 7    1  0.3807360E-011  0.4778725E+02  0.7816164E-02  0.1312668E+00
        -11   -1    0    0    0    0  0.00000000000E+00  0.00000000000E+00  0.45593999997E+02  0.45594000000E+02  0.51100000000E-03 0. -1.
         11   -1    0    0    0    0 -0.00000000000E+00 -0.00000000000E+00 -0.45593999997E+02  0.45594000000E+02  0.51100000000E-03 0.  1.
    9900012    2    1    2    0    0 -0.11926610988E+02  0.13483723036E+02  0.39491390711E+02  0.47787253729E+02  0.19999921051E+02 0.  0.
        -12    1    1    2    0    0  0.11926610988E+02 -0.13483723036E+02 -0.39491390711E+02  0.43400746271E+02  0.00000000000E+00 0.  1.
         11    1    3    3    0    0 -0.68784388270E+01  0.69361859646E+01  0.17343252450E+02  0.19905074786E+02  0.51100000000E-03 0. -1.
        -11    1    3    3    0    0 -0.26554328736E+01 -0.44162957215E+01  0.39119055003E+01  0.64697756182E+01  0.51100000000E-03 0.  1.
        -12    1    3    3    0    0 -0.23927392870E+01  0.10963832793E+02  0.18236232762E+02  0.21412403325E+02  0.00000000000E+00 0.  1.
</event>
<event>
 7    1  0.3807360E-011  0.4778727E+02  0.7816164E-02  0.1312668E+00
        -11   -1    0    0    0    0  0.00000000000E+00  0.00000000000E+00  0.45593999997E+02  0.45594000000E+02  0.51100000000E-03 0. -1.
         11   -1    0    0    0    0 -0.00000000000E+00 -0.00000000000E+00 -0.45593999997E+02  0.45594000000E+02  0.51100000000E-03 0.  1.
    9900012    2    1    2    0    0  0.94428810827E+01 -0.41048208480E+02 -0.10464220633E+02  0.47787270328E+02  0.19999996734E+02 0.  0.
        -12    1    1    2    0    0 -0.94428810827E+01  0.41048208480E+02  0.10464220633E+02  0.43400729672E+02  0.00000000000E+00 0.  1.
         11    1    3    3    0    0  0.15343618910E+01 -0.12735321905E+01 -0.53350269797E+01  0.56954950432E+01  0.51100000000E-03 0.  1.
        -11    1    3    3    0    0 -0.17075321001E+01 -0.15985227538E+02 -0.10532259063E+01  0.16110631595E+02  0.51100000000E-03 0. -1.
        -12    1    3    3    0    0  0.96160512919E+01 -0.23789448751E+02 -0.40759677469E+01  0.25981143690E+02  0.00000000000E+00 0.  1.
</event>
<event>
 7    1  0.3807360E-011  0.4778725E+02  0.7816164E-02  0.1312668E+00
        -11   -1    0    0    0    0  0.00000000000E+00  0.00000000000E+00  0.45593999997E+02  0.45594000000E+02  0.51100000000E-03 0. -1.
         11   -1    0    0    0    0 -0.00000000000E+00 -0.00000000000E+00 -0.45593999997E+02  0.45594000000E+02  0.51100000000E-03 0.  1.
    9900012    2    1    2    0    0 -0.24016532347E+02  0.14616473948E+02  0.33063423595E+02  0.47787249817E+02  0.19999903215E+02 0.  0.
        -12    1    1    2    0    0  0.24016532347E+02 -0.14616473948E+02 -0.33063423595E+02  0.43400750183E+02  0.00000000000E+00 0.  1.
         11    1    3    3    0    0 -0.16458762930E+02  0.13807632696E+02  0.12607325170E+02  0.24909561338E+02  0.51100000000E-03 0. -1.
        -11    1    3    3    0    0 -0.51381954970E+01  0.35910208286E+01  0.15339758203E+02  0.16571199883E+02  0.51100000000E-03 0.  1.
        -12    1    3    3    0    0 -0.24195739199E+01 -0.27821795764E+01  0.51163402210E+01  0.63064885956E+01  0.00000000000E+00 0.  1.
</event>
<event>
 7    1  0.3807360E-011  0.4778727E+02  0.7816164E-02  0.1312668E+00
        -11   -1    0    0    0    0  0.00000000000E+00  0.00000000000E+00  0.45593999997E+02  0.45594000000E+02  0.51100000000E-03 0. -1.
         11   -1    0    0    0    0 -0.00000000000E+00 -0.00000000000E+00 -0.45593999997E+02  0.45594000000E+02  0.51100000000E-03 0.  1.
    9900012    2    1    2    0    0  0.26490811265E+02  0.11536409598E+02  0.32384747408E+02  0.47787266221E+02  0.19999978009E+02 0.  0.
        -12    1    1    2    0    0 -0.26490811265E+02 -0.11536409598E+02 -0.32384747408E+02  0.43400733779E+02  0.00000000000E+00 0.  1.
         11    1    3    3    0    0  0.34126697941E+01  0.62222603533E+01  0.12220167403E+02  0.14131359830E+02  0.51100000000E-03 0. -1.
        -11    1    3    3    0    0  0.22344998722E+02  0.69986913513E+01  0.21165675646E+02  0.31563689175E+02  0.51100000000E-03 0.  1.
        -12    1    3    3    0    0  0.73314274893E+00 -0.16845421067E+01 -0.10010956411E+01  0.20922172168E+01  0.00000000000E+00 0.  1.
</event>
<event>
 7    1  0.3807360E-011  0.4778727E+02  0.7816164E-02  0.1312668E+00
        -11   -1    0    0    0    0  0.00000000000E+00  0.00000000000E+00  0.45593999997E+02  0.45594000000E+02  0.51100000000E-03 0. -1.
         11   -1    0    0    0    0 -0.00000000000E+00 -0.00000000000E+00 -0.45593999997E+02  0.45594000000E+02  0.51100000000E-03 0.  1.
    9900012    2    1    2    0    0 -0.42497242632E+02 -0.97675602321E+00  0.87551966696E+01  0.47787272444E+02  0.20000006381E+02 0.  0.
        -12    1    1    2    0    0  0.42497242632E+02  0.97675602321E+00 -0.87551966696E+01  0.43400727556E+02  0.00000000000E+00 0.  1.
         11    1    3    3    0    0 -0.29736647376E+02 -0.15449716756E+01  0.83586619812E+01  0.30927695760E+02  0.51100000000E-03 0. -1.
        -11    1    3    3    0    0 -0.17161861748E+01 -0.29480402887E+00  0.46713317032E+01  0.49853329422E+01  0.51100000000E-03 0.  1.
         12    1    3    3    0    0 -0.11044409081E+02  0.86301968126E+00 -0.42747970147E+01  0.11874243742E+02  0.00000000000E+00 0. -1.
</event>
<event>
 7    1  0.3807360E-011  0.4778727E+02  0.7816164E-02  0.1312668E+00
        -11   -1    0    0    0    0  0.00000000000E+00  0.00000000000E+00  0.45593999997E+02  0.45594000000E+02  0.51100000000E-03 0. -1.
         11   -1    0    0    0    0 -0.00000000000E+00 -0.00000000000E+00 -0.45593999997E+02  0.45594000000E+02  0.51100000000E-03 0.  1.
    9900012    2    1    2    0    0  0.11536447511E+02  0.19667586839E+02  0.36928575009E+02  0.47787271372E+02  0.20000001493E+02 0.  0.
        -12    1    1    2    0    0 -0.11536447511E+02 -0.19667586839E+02 -0.36928575009E+02  0.43400728628E+02  0.00000000000E+00 0.  1.
         11    1    3    3    0    0  0.10361026506E+02  0.19843205957E+02  0.26422517744E+02  0.34630234436E+02  0.51100000000E-03 0. -1.
        -11    1    3    3    0    0 -0.25157015379E+00  0.21071616215E+01 -0.18695631825E+00  0.21303451756E+01  0.51100000000E-03 0.  1.
        -12    1    3    3    0    0  0.14269911593E+01 -0.22827807398E+01  0.10693013584E+02  0.11026691760E+02  0.00000000000E+00 0.  1.
</event>
<event>
 7    1  0.3807360E-011  0.4778727E+02  0.7816164E-02  0.1312668E+00
        -11   -1    0    0    0    0  0.00000000000E+00  0.00000000000E+00  0.45593999997E+02  0.45594000000E+02  0.51100000000E-03 0. -1.
         11   -1    0    0    0    0 -0.00000000000E+00 -0.00000000000E+00 -0.45593999997E+02  0.45594000000E+02  0.51100000000E-03 0.  1.
    9900012    2    1    2    0    0  0.66299928396E+01 -0.13307749856E+02 -0.40774627048E+02  0.47787271640E+02  0.20000002717E+02 0.  0.
         12    1    1    2    0    0 -0.66299928396E+01  0.13307749856E+02  0.40774627048E+02  0.43400728360E+02  0.00000000000E+00 0. -1.
         11    1    3    3    0    0  0.72220971172E+01 -0.23304514263E+01 -0.30066804926E+02  0.31009715403E+02  0.51100000000E-03 0. -1.
        -11    1    3    3    0    0  0.14071047229E+01 -0.93805565676E+01 -0.10588932955E+02  0.14216198036E+02  0.51100000000E-03 0.  1.
        -12    1    3    3    0    0 -0.19992090005E+01 -0.15967418621E+01 -0.11888916644E+00  0.25613582014E+01  0.00000000000E+00 0.  1.
</event>
<event>
 7    1  0.3807360E-011  0.4778727E+02  0.7816164E-02  0.1312668E+00
        -11   -1    0    0    0    0  0.00000000000E+00  0.00000000000E+00  0.45593999997E+02  0.45594000000E+02  0.51100000000E-03 0. -1.
         11   -1    0    0    0    0 -0.00000000000E+00 -0.00000000000E+00 -0.45593999997E+02  0.45594000000E+02  0.51100000000E-03 0.  1.
    9900012    2    1    2    0    0 -0.26512368046E+02  0.23220785812E+02  0.25328102094E+02  0.47787270642E+02  0.19999998165E+02 0.  0.
        -12    1    1    2    0    0  0.26512368046E+02 -0.23220785812E+02 -0.25328102094E+02  0.43400729358E+02  0.00000000000E+00 0.  1.
         11    1    3    3    0    0 -0.18771258570E+02  0.23998447220E+02  0.15333782661E+02  0.34108803970E+02  0.51100000000E-03 0. -1.
        -11    1    3    3    0    0 -0.70409187131E+01  0.12217218563E+01  0.69405918574E+01  0.99618751353E+01  0.51100000000E-03 0.  1.
        -12    1    3    3    0    0 -0.70019076297E+00 -0.19993832650E+01  0.30537275757E+01  0.37165915368E+01  0.00000000000E+00 0.  1.
</event>
<event>
 7    1  0.3807360E-011  0.4778727E+02  0.7816164E-02  0.1312668E+00
        -11   -1    0    0    0    0  0.00000000000E+00  0.00000000000E+00  0.45593999997E+02  0.45594000000E+02  0.51100000000E-03 0. -1.
         11   -1    0    0    0    0 -0.00000000000E+00 -0.00000000000E+00 -0.45593999997E+02  0.45594000000E+02  0.51100000000E-03 0.  1.
    9900012    2    1    2    0    0 -0.63181270496E+01  0.14531102525E+02  0.40404846909E+02  0.47787270470E+02  0.19999997380E+02 0.  0.
        -12    1    1    2    0    0  0.63181270496E+01 -0.14531102525E+02 -0.40404846909E+02  0.43400729530E+02  0.00000000000E+00 0.  1.
         11    1    3    3    0    0  0.55606822251E+01  0.50399240177E+01  0.11784705754E+02  0.13971446270E+02  0.51100000000E-03 0. -1.
        -11    1    3    3    0    0 -0.32070881892E+00  0.76640392620E+00  0.10897273620E+02  0.10928897554E+02  0.51100000000E-03 0.  1.
        -12    1    3    3    0    0 -0.11558100456E+02  0.87247745814E+01  0.17722867535E+02  0.22886926646E+02  0.00000000000E+00 0.  1.
</event>
<event>
 7    1  0.3807360E-011  0.4778728E+02  0.7816164E-02  0.1312668E+00
        -11   -1    0    0    0    0  0.00000000000E+00  0.00000000000E+00  0.45593999997E+02  0.45594000000E+02  0.51100000000E-03 0. -1.
         11   -1    0    0    0    0 -0.00000000000E+00 -0.00000000000E+00 -0.45593999997E+02  0.45594000000E+02  0.51100000000E-03 0.  1.
    9900012    2    1    2    0    0  0.40573037133E+02 -0.12723506055E+02  0.86927143246E+01  0.47787283060E+02  0.20000054784E+02 0.  0.
        -12    1    1    2    0    0 -0.40573037133E+02  0.12723506055E+02 -0.86927143246E+01  0.43400716940E+02  0.00000000000E+00 0.  1.
         11    1    3    3    0    0  0.16932842145E+02 -0.12083055764E+02  0.99693185933E+01  0.23067481293E+02  0.51100000000E-03 0. -1.
        -11    1    3    3    0    0  0.68666312752E+01  0.18929880648E+01  0.20943539312E+01  0.74243078824E+01  0.51100000000E-03 0.  1.
        -12    1    3    3    0    0  0.16773563713E+02 -0.25334383559E+01 -0.33709581999E+01  0.17295493885E+02  0.00000000000E+00 0.  1.
</event>
<event>
 7    1  0.3807360E-011  0.4778727E+02  0.7816164E-02  0.1312668E+00
        -11   -1    0    0    0    0  0.00000000000E+00  0.00000000000E+00  0.45593999997E+02  0.45594000000E+02  0.51100000000E-03 0. -1.
         11   -1    0    0    0    0 -0.00000000000E+00 -0.00000000000E+00 -0.45593999997E+02  0.45594000000E+02  0.51100000000E-03 0.  1.
    9900012    2    1    2    0    0  0.19616294132E+02 -0.29253925353E+01 -0.38603971001E+02  0.47787268509E+02  0.19999988439E+02 0.  0.
         12    1    1    2    0    0 -0.19616294132E+02  0.29253925353E+01  0.38603971001E+02  0.43400731491E+02  0.00000000000E+00 0. -1.
         11    1    3    3    0    0  0.34841771996E+01 -0.40549525801E+01 -0.16731917556E+01  0.56019373522E+01  0.51100000000E-03 0. -1.
        -11    1    3    3    0    0 -0.14165410308E+01  0.17114713323E+01 -0.16185812018E+01  0.27487320679E+01  0.51100000000E-03 0.  1.
        -12    1    3    3    0    0  0.17548657963E+02 -0.58191128752E+00 -0.35312198043E+02  0.39436599089E+02  0.00000000000E+00 0.  1.
</event>
<event>
 7    1  0.3807360E-011  0.4778725E+02  0.7816164E-02  0.1312668E+00
        -11   -1    0    0    0    0  0.00000000000E+00  0.00000000000E+00  0.45593999997E+02  0.45594000000E+02  0.51100000000E-03 0. -1.
         11   -1    0    0    0    0 -0.00000000000E+00 -0.00000000000E+00 -0.45593999997E+02  0.45594000000E+02  0.51100000000E-03 0.  1.
    9900012    2    1    2    0    0 -0.16058398434E+02  0.65560953268E+01 -0.39784050666E+02  0.47787248468E+02  0.19999897063E+02 0.  0.
         12    1    1    2    0    0  0.16058398434E+02 -0.65560953268E+01  0.39784050666E+02  0.43400751532E+02  0.00000000000E+00 0. -1.
         11    1    3    3    0    0 -0.49401677751E+01 -0.36535876402E+01 -0.67530051541E+01  0.91300076212E+01  0.51100000000E-03 0. -1.
        -11    1    3    3    0    0 -0.79166123387E+00  0.41273656809E+01 -0.21904036521E+02  0.22303557814E+02  0.51100000000E-03 0.  1.
        -12    1    3    3    0    0 -0.10326569425E+02  0.60823172861E+01 -0.11127008990E+02  0.16353683032E+02  0.00000000000E+00 0.  1.
</event>
<event>
 7    1  0.3807360E-011  0.4778728E+02  0.7816164E-02  0.1312668E+00
        -11   -1    0    0    0    0  0.00000000000E+00  0.00000000000E+00  0.45593999997E+02  0.45594000000E+02  0.51100000000E-03 0. -1.
         11   -1    0    0    0    0 -0.00000000000E+00 -0.00000000000E+00 -0.45593999997E+02  0.45594000000E+02  0.51100000000E-03 0.  1.
    9900012    2    1    2    0    0  0.27162657630E+02 -0.79037960978E+01 -0.32914171190E+02  0.47787278492E+02  0.20000033956E+02 0.  0.
         12    1    1    2    0    0 -0.27162657630E+02  0.79037960978E+01  0.32914171190E+02  0.43400721508E+02  0.00000000000E+00 0. -1.
         11    1    3    3    0    0  0.26918610207E+02 -0.88001777171E+01 -0.25274651358E+02  0.37958697355E+02  0.51100000000E-03 0. -1.
        -11    1    3    3    0    0  0.19443062382E+01  0.29152836896E+01 -0.49036858406E+01  0.60270507566E+01  0.51100000000E-03 0.  1.
         12    1    3    3    0    0 -0.17002588150E+01 -0.20189020703E+01 -0.27358339912E+01  0.38015303806E+01  0.00000000000E+00 0. -1.
</event>
<event>
 7    1  0.3807360E-011  0.4778727E+02  0.7816164E-02  0.1312668E+00
        -11   -1    0    0    0    0  0.00000000000E+00  0.00000000000E+00  0.45593999997E+02  0.45594000000E+02  0.51100000000E-03 0. -1.
         11   -1    0    0    0    0 -0.00000000000E+00 -0.00000000000E+00 -0.45593999997E+02  0.45594000000E+02  0.51100000000E-03 0.  1.
    9900012    2    1    2    0    0 -0.22524770969E+02  0.48342167020E+01  0.36781629908E+02  0.47787271238E+02  0.20000000884E+02 0.  0.
        -12    1    1    2    0    0  0.22524770969E+02 -0.48342167020E+01 -0.36781629908E+02  0.43400728762E+02  0.00000000000E+00 0.  1.
         11    1    3    3    0    0 -0.16151560462E+02 -0.43554592931E+01  0.24012110812E+02  0.29264729572E+02  0.51100000000E-03 0. -1.
        -11    1    3    3    0    0 -0.41423901801E+01  0.25516821215E+01  0.12200324179E+01  0.50158705541E+01  0.51100000000E-03 0.  1.
        -12    1    3    3    0    0 -0.22308203273E+01  0.66379938736E+01  0.11549486679E+02  0.13506671113E+02  0.00000000000E+00 0.  1.
</event>
<event>
 7    1  0.3807360E-011  0.4778726E+02  0.7816164E-02  0.1312668E+00
        -11   -1    0    0    0    0  0.00000000000E+00  0.00000000000E+00  0.45593999997E+02  0.45594000000E+02  0.51100000000E-03 0.  1.
         11   -1    0    0    0    0 -0.00000000000E+00 -0.00000000000E+00 -0.45593999997E+02  0.45594000000E+02  0.51100000000E-03 0. -1.
    9900012    2    1    2    0    0  0.16304840782E+01  0.43369371266E+02  0.25117381481E+00  0.47787263478E+02  0.19999965504E+02 0.  0.
         12    1    1    2    0    0 -0.16304840782E+01 -0.43369371266E+02 -0.25117381481E+00  0.43400736522E+02  0.00000000000E+00 0. -1.
         11    1    3    3    0    0 -0.18299799084E+00  0.24649966446E+02 -0.37558626243E+01  0.24935132612E+02  0.51100000000E-03 0.  1.
        -11    1    3    3    0    0  0.70550643915E+01  0.12183262396E+02  0.18411556600E+01  0.14198439020E+02  0.51100000000E-03 0. -1.
        -12    1    3    3    0    0 -0.52415823225E+01  0.65361424239E+01  0.21658807791E+01  0.86536918467E+01  0.00000000000E+00 0.  1.
</event>
<event>
 7    1  0.3807360E-011  0.4778729E+02  0.7816164E-02  0.1312668E+00
        -11   -1    0    0    0    0  0.00000000000E+00  0.00000000000E+00  0.45593999997E+02  0.45594000000E+02  0.51100000000E-03 0. -1.
         11   -1    0    0    0    0 -0.00000000000E+00 -0.00000000000E+00 -0.45593999997E+02  0.45594000000E+02  0.51100000000E-03 0.  1.
    9900012    2    1    2    0    0  0.43253344124E+02 -0.35375638367E+01  0.50579147568E+00  0.47787286172E+02  0.20000068971E+02 0.  0.
         12    1    1    2    0    0 -0.43253344124E+02  0.35375638367E+01 -0.50579147568E+00  0.43400713828E+02  0.00000000000E+00 0. -1.
         11    1    3    3    0    0  0.87182989926E+01  0.60535342534E+01  0.18035734354E+01  0.10766006301E+02  0.51100000000E-03 0. -1.
        -11    1    3    3    0    0  0.23490070773E+02 -0.36885316245E+01 -0.42500626171E+01  0.24154745351E+02  0.51100000000E-03 0.  1.
        -12    1    3    3    0    0  0.11044974358E+02 -0.59025664657E+01  0.29522806574E+01  0.12866534519E+02  0.00000000000E+00 0.  1.
</event>
<event>
 7    1  0.3807360E-011  0.4778728E+02  0.7816164E-02  0.1312668E+00
        -11   -1    0    0    0    0  0.00000000000E+00  0.00000000000E+00  0.45593999997E+02  0.45594000000E+02  0.51100000000E-03 0. -1.
         11   -1    0    0    0    0 -0.00000000000E+00 -0.00000000000E+00 -0.45593999997E+02  0.45594000000E+02  0.51100000000E-03 0.  1.
    9900012    2    1    2    0    0 -0.17802121651E+00 -0.33620325600E+02  0.27445670166E+02  0.47787276552E+02  0.20000025109E+02 0.  0.
        -12    1    1    2    0    0  0.17802121651E+00  0.33620325600E+02 -0.27445670166E+02  0.43400723448E+02  0.00000000000E+00 0.  1.
         11    1    3    3    0    0  0.15956259064E+01 -0.82542432959E+00  0.75827575250E+01  0.77926606048E+01  0.51100000000E-03 0.  1.
        -11    1    3    3    0    0  0.33676398292E+01 -0.89715730680E+01  0.95554488773E+01  0.13532801811E+02  0.51100000000E-03 0. -1.
         12    1    3    3    0    0 -0.51412869521E+01 -0.23823328202E+02  0.10307463764E+02  0.26461814136E+02  0.00000000000E+00 0. -1.
</event>
<event>
 7    1  0.3807360E-011  0.4778727E+02  0.7816164E-02  0.1312668E+00
        -11   -1    0    0    0    0  0.00000000000E+00  0.00000000000E+00  0.45593999997E+02  0.45594000000E+02  0.51100000000E-03 0. -1.
         11   -1    0    0    0    0 -0.00000000000E+00 -0.00000000000E+00 -0.45593999997E+02  0.45594000000E+02  0.51100000000E-03 0.  1.
    9900012    2    1    2    0    0  0.63639463371E+01 -0.34185773286E+01 -0.42795289243E+02  0.47787271143E+02  0.20000000449E+02 0.  0.
         12    1    1    2    0    0 -0.63639463371E+01  0.34185773286E+01  0.42795289243E+02  0.43400728857E+02  0.00000000000E+00 0. -1.
         11    1    3    3    0    0 -0.71534161501E-01  0.60866820933E+00  0.11570510714E+01  0.13093363083E+01  0.51100000000E-03 0. -1.
        -11    1    3    3    0    0  0.54536109909E+01 -0.27879407614E+01 -0.62794719517E+01  0.87719014348E+01  0.51100000000E-03 0.  1.
        -12    1    3    3    0    0  0.98186950774E+00 -0.12393047766E+01 -0.37672868363E+02  0.37706033400E+02  0.00000000000E+00 0.  1.
</event>
<event>
 7    1  0.3807360E-011  0.4778727E+02  0.7816164E-02  0.1312668E+00
        -11   -1    0    0    0    0  0.00000000000E+00  0.00000000000E+00  0.45593999997E+02  0.45594000000E+02  0.51100000000E-03 0. -1.
         11   -1    0    0    0    0 -0.00000000000E+00 -0.00000000000E+00 -0.45593999997E+02  0.45594000000E+02  0.51100000000E-03 0.  1.
    9900012    2    1    2    0    0  0.13068522369E+02 -0.20407700405E+02 -0.36005037752E+02  0.47787271248E+02  0.20000000927E+02 0.  0.
         12    1    1    2    0    0 -0.13068522369E+02  0.20407700405E+02  0.36005037752E+02  0.43400728752E+02  0.00000000000E+00 0. -1.
         11    1    3    3    0    0  0.84694380018E+01 -0.11192606789E+02 -0.21932229389E+02  0.26038980644E+02  0.51100000000E-03 0.  1.
        -11    1    3    3    0    0  0.77442894341E+01 -0.32600929785E+01 -0.32662428617E+01  0.90150190105E+01  0.51100000000E-03 0. -1.
         12    1    3    3    0    0 -0.31452050672E+01 -0.59550006375E+01 -0.10806565502E+02  0.12733271593E+02  0.00000000000E+00 0. -1.
</event>
<event>
 7    1  0.3807360E-011  0.4778727E+02  0.7816164E-02  0.1312668E+00
        -11   -1    0    0    0    0  0.00000000000E+00  0.00000000000E+00  0.45593999997E+02  0.45594000000E+02  0.51100000000E-03 0. -1.
         11   -1    0    0    0    0 -0.00000000000E+00 -0.00000000000E+00 -0.45593999997E+02  0.45594000000E+02  0.51100000000E-03 0.  1.
    9900012    2    1    2    0    0 -0.51558337481E+01  0.43186897497E+01 -0.42876443114E+02  0.47787273314E+02  0.20000010346E+02 0.  0.
         12    1    1    2    0    0  0.51558337481E+01 -0.43186897497E+01  0.42876443114E+02  0.43400726686E+02  0.00000000000E+00 0. -1.
         11    1    3    3    0    0 -0.19431831523E+01 -0.52292343851E+01 -0.52827297222E+01  0.76829738121E+01  0.51100000000E-03 0. -1.
        -11    1    3    3    0    0  0.30335822055E+01  0.44884921224E+01 -0.10120181316E+02  0.11478991797E+02  0.51100000000E-03 0.  1.
         12    1    3    3    0    0 -0.62462328012E+01  0.50594320124E+01 -0.27473532075E+02  0.28625307705E+02  0.00000000000E+00 0. -1.
</event>
<event>
 7    1  0.3807360E-011  0.4778727E+02  0.7816164E-02  0.1312668E+00
        -11   -1    0    0    0    0  0.00000000000E+00  0.00000000000E+00  0.45593999997E+02  0.45594000000E+02  0.51100000000E-03 0.  1.
         11   -1    0    0    0    0 -0.00000000000E+00 -0.00000000000E+00 -0.45593999997E+02  0.45594000000E+02  0.51100000000E-03 0. -1.
    9900012    2    1    2    0    0  0.32413118453E+02 -0.24774848170E+02  0.14806091185E+02  0.47787266298E+02  0.19999978360E+02 0.  0.
        -12    1    1    2    0    0 -0.32413118453E+02  0.24774848170E+02 -0.14806091185E+02  0.43400733702E+02  0.00000000000E+00 0.  1.
         11    1    3    3    0    0  0.70363790319E+01 -0.91097976313E+01  0.25008070110E+00  0.11513539134E+02  0.51100000000E-03 0. -1.
        -11    1    3    3    0    0  0.18259648276E+02 -0.32678178336E+01  0.54851961354E+01  0.19343752621E+02  0.51100000000E-03 0.  1.
         12    1    3    3    0    0  0.71170911453E+01 -0.12397232705E+02  0.90708143482E+01  0.16929974544E+02  0.00000000000E+00 0. -1.
</event>
<event>
 7    1  0.3807360E-011  0.4778726E+02  0.7816164E-02  0.1312668E+00
        -11   -1    0    0    0    0  0.00000000000E+00  0.00000000000E+00  0.45593999997E+02  0.45594000000E+02  0.51100000000E-03 0. -1.
         11   -1    0    0    0    0 -0.00000000000E+00 -0.00000000000E+00 -0.45593999997E+02  0.45594000000E+02  0.51100000000E-03 0.  1.
    9900012    2    1    2    0    0  0.78213547081E+01 -0.13940735762E+02  0.40349804075E+02  0.47787258164E+02  0.19999941273E+02 0.  0.
        -12    1    1    2    0    0 -0.78213547081E+01  0.13940735762E+02 -0.40349804075E+02  0.43400741836E+02  0.00000000000E+00 0.  1.
         11    1    3    3    0    0  0.28354994587E+01  0.10309053016E+01  0.18207047084E+02  0.18455334912E+02  0.51100000000E-03 0. -1.
        -11    1    3    3    0    0  0.37304016855E+01 -0.24474294565E+01  0.76912115280E+00  0.45274005001E+01  0.51100000000E-03 0.  1.
        -12    1    3    3    0    0  0.12554535638E+01 -0.12524211607E+02  0.21373635838E+02  0.24804522752E+02  0.00000000000E+00 0.  1.
</event>
<event>
 7    1  0.3807360E-011  0.4778727E+02  0.7816164E-02  0.1312668E+00
        -11   -1    0    0    0    0  0.00000000000E+00  0.00000000000E+00  0.45593999997E+02  0.45594000000E+02  0.51100000000E-03 0. -1.
         11   -1    0    0    0    0 -0.00000000000E+00 -0.00000000000E+00 -0.45593999997E+02  0.45594000000E+02  0.51100000000E-03 0.  1.
    9900012    2    1    2    0    0 -0.22685474694E+02  0.10303754468E+02 -0.35536253021E+02  0.47787269626E+02  0.19999993532E+02 0.  0.
         12    1    1    2    0    0  0.22685474694E+02 -0.10303754468E+02  0.35536253021E+02  0.43400730374E+02  0.00000000000E+00 0. -1.
         11    1    3    3    0    0 -0.17991332012E+01 -0.28546224195E+01  0.14955732066E+00  0.33775904261E+01  0.51100000000E-03 0. -1.
        -11    1    3    3    0    0 -0.75036368848E+01  0.20639938265E+01 -0.18003764217E+02  0.19613774835E+02  0.51100000000E-03 0.  1.
        -12    1    3    3    0    0 -0.13382704608E+02  0.11094383061E+02 -0.17682046124E+02  0.24795904365E+02  0.00000000000E+00 0.  1.
</event>
<event>
 7    1  0.3807360E-011  0.4778727E+02  0.7816164E-02  0.1312668E+00
        -11   -1    0    0    0    0  0.00000000000E+00  0.00000000000E+00  0.45593999997E+02  0.45594000000E+02  0.51100000000E-03 0. -1.
         11   -1    0    0    0    0 -0.00000000000E+00 -0.00000000000E+00 -0.45593999997E+02  0.45594000000E+02  0.51100000000E-03 0.  1.
    9900012    2    1    2    0    0  0.96904336333E+01 -0.75374312049E+01  0.41628186762E+02  0.47787270672E+02  0.19999998301E+02 0.  0.
        -12    1    1    2    0    0 -0.96904336333E+01  0.75374312049E+01 -0.41628186762E+02  0.43400729328E+02  0.00000000000E+00 0.  1.
         11    1    3    3    0    0  0.64057698819E+01 -0.76808316470E+01  0.14967934195E+02  0.18001892037E+02  0.51100000000E-03 0. -1.
        -11    1    3    3    0    0  0.45578599408E+01 -0.42679790885E+01  0.61382384195E+01  0.87560095875E+01  0.51100000000E-03 0.  1.
         12    1    3    3    0    0 -0.12731961893E+01  0.44113795306E+01  0.20522014147E+02  0.21029369048E+02  0.00000000000E+00 0. -1.
</event>
<event>
 7    1  0.3807360E-011  0.4778727E+02  0.7816164E-02  0.1312668E+00
        -11   -1    0    0    0    0  0.00000000000E+00  0.00000000000E+00  0.45593999997E+02  0.45594000000E+02  0.51100000000E-03 0.  1.
         11   -1    0    0    0    0 -0.00000000000E+00 -0.00000000000E+00 -0.45593999997E+02  0.45594000000E+02  0.51100000000E-03 0. -1.
    9900012    2    1    2    0    0 -0.34493836838E+02 -0.21688321160E+02  0.14947079037E+02  0.47787271593E+02  0.20000002501E+02 0.  0.
         12    1    1    2    0    0  0.34493836838E+02  0.21688321160E+02 -0.14947079037E+02  0.43400728407E+02  0.00000000000E+00 0. -1.
         11    1    3    3    0    0 -0.14875546853E+02  0.28365682486E+00  0.90085325351E+01  0.17392987497E+02  0.51100000000E-03 0.  1.
        -11    1    3    3    0    0 -0.82119482913E+01 -0.78125307235E+01  0.22972430726E+00  0.11336864847E+02  0.51100000000E-03 0. -1.
        -12    1    3    3    0    0 -0.11406341694E+02 -0.14159447262E+02  0.57088221944E+01  0.19057419249E+02  0.00000000000E+00 0.  1.
</event>
<event>
 7    1  0.3807360E-011  0.4778727E+02  0.7816164E-02  0.1312668E+00
        -11   -1    0    0    0    0  0.00000000000E+00  0.00000000000E+00  0.45593999997E+02  0.45594000000E+02  0.51100000000E-03 0. -1.
         11   -1    0    0    0    0 -0.00000000000E+00 -0.00000000000E+00 -0.45593999997E+02  0.45594000000E+02  0.51100000000E-03 0.  1.
    9900012    2    1    2    0    0 -0.21370822079E+02 -0.33959996444E+02  0.16541769597E+02  0.47787268022E+02  0.19999986220E+02 0.  0.
        -12    1    1    2    0    0  0.21370822079E+02  0.33959996444E+02 -0.16541769597E+02  0.43400731978E+02  0.00000000000E+00 0.  1.
         11    1    3    3    0    0 -0.15525295472E+02 -0.13187802673E+02 -0.19868907214E+00  0.20371362656E+02  0.51100000000E-03 0. -1.
        -11    1    3    3    0    0 -0.21170503459E+01 -0.50571783411E+01  0.52817579489E+01  0.76127473512E+01  0.51100000000E-03 0.  1.
         12    1    3    3    0    0 -0.37284762612E+01 -0.15715015430E+02  0.11458700720E+02  0.19803158015E+02  0.00000000000E+00 0. -1.
</event>
<event>
 7    1  0.3807360E-011  0.4778728E+02  0.7816164E-02  0.1312668E+00
        -11   -1    0    0    0    0  0.00000000000E+00  0.00000000000E+00  0.45593999997E+02  0.45594000000E+02  0.51100000000E-03 0. -1.
         11   -1    0    0    0    0 -0.00000000000E+00 -0.00000000000E+00 -0.45593999997E+02  0.45594000000E+02  0.51100000000E-03 0.  1.
    9900012    2    1    2    0    0  0.18473510813E+02  0.12028439181E+01 -0.39254368730E+02  0.47787275355E+02  0.20000019656E+02 0.  0.
         12    1    1    2    0    0 -0.18473510813E+02 -0.12028439181E+01  0.39254368730E+02  0.43400724645E+02  0.00000000000E+00 0. -1.
         11    1    3    3    0    0 -0.79134527320E+00  0.28580287795E+01  0.25103465170E+00  0.29761677546E+01  0.51100000000E-03 0. -1.
        -11    1    3    3    0    0  0.66241162028E+01 -0.46088923574E+01 -0.13072320496E+02  0.15362498743E+02  0.51100000000E-03 0.  1.
         12    1    3    3    0    0  0.12640739883E+02  0.29537074960E+01 -0.26433082887E+02  0.29448608858E+02  0.00000000000E+00 0. -1.
</event>
<event>
 7    1  0.3807360E-011  0.4778727E+02  0.7816164E-02  0.1312668E+00
        -11   -1    0    0    0    0  0.00000000000E+00  0.00000000000E+00  0.45593999997E+02  0.45594000000E+02  0.51100000000E-03 0. -1.
         11   -1    0    0    0    0 -0.00000000000E+00 -0.00000000000E+00 -0.45593999997E+02  0.45594000000E+02  0.51100000000E-03 0.  1.
    9900012    2    1    2    0    0  0.82670822203E+01  0.30718889137E+02 -0.29523355780E+02  0.47787270343E+02  0.19999996800E+02 0.  0.
         12    1    1    2    0    0 -0.82670822203E+01 -0.30718889137E+02  0.29523355780E+02  0.43400729657E+02  0.00000000000E+00 0. -1.
         11    1    3    3    0    0  0.66447110686E+01  0.10981925598E+02 -0.10453334079E+02  0.16553762975E+02  0.51100000000E-03 0. -1.
        -11    1    3    3    0    0  0.40025984548E+01  0.14847533232E+02 -0.50335358032E+01  0.16180436348E+02  0.51100000000E-03 0.  1.
         12    1    3    3    0    0 -0.23802273031E+01  0.48894303078E+01 -0.14036485898E+02  0.15053071020E+02  0.00000000000E+00 0. -1.
</event>
<event>
 7    1  0.3807360E-011  0.4778727E+02  0.7816164E-02  0.1312668E+00
        -11   -1    0    0    0    0  0.00000000000E+00  0.00000000000E+00  0.45593999997E+02  0.45594000000E+02  0.51100000000E-03 0. -1.
         11   -1    0    0    0    0 -0.00000000000E+00 -0.00000000000E+00 -0.45593999997E+02  0.45594000000E+02  0.51100000000E-03 0.  1.
    9900012    2    1    2    0    0  0.38825944010E+02 -0.17556344415E+02 -0.82428289226E+01  0.47787269751E+02  0.19999994102E+02 0.  0.
         12    1    1    2    0    0 -0.38825944010E+02  0.17556344415E+02  0.82428289226E+01  0.43400730249E+02  0.00000000000E+00 0. -1.
         11    1    3    3    0    0 -0.36221057063E+00  0.61942043497E+00 -0.16126375559E+00  0.73544845688E+00  0.51100000000E-03 0. -1.
        -11    1    3    3    0    0 -0.15725709379E+01 -0.17019263725E+01  0.15747678051E+00  0.23225701130E+01  0.51100000000E-03 0.  1.
        -12    1    3    3    0    0  0.40760725519E+02 -0.16473838477E+02 -0.82390419476E+01  0.44729251181E+02  0.00000000000E+00 0.  1.
</event>
<event>
 7    1  0.3807360E-011  0.4778726E+02  0.7816164E-02  0.1312668E+00
        -11   -1    0    0    0    0  0.00000000000E+00  0.00000000000E+00  0.45593999997E+02  0.45594000000E+02  0.51100000000E-03 0.  1.
         11   -1    0    0    0    0 -0.00000000000E+00 -0.00000000000E+00 -0.45593999997E+02  0.45594000000E+02  0.51100000000E-03 0. -1.
    9900012    2    1    2    0    0 -0.40696520587E+01  0.42894622012E+02  0.52070649612E+01  0.47787260480E+02  0.19999951831E+02 0.  0.
        -12    1    1    2    0    0  0.40696520587E+01 -0.42894622012E+02 -0.52070649612E+01  0.43400739520E+02  0.00000000000E+00 0.  1.
         11    1    3    3    0    0  0.17712851001E+00  0.36247688374E+01  0.38611444465E+01  0.52989395479E+01  0.51100000000E-03 0. -1.
        -11    1    3    3    0    0  0.39410489143E+01  0.18594194841E+02 -0.44214204437E+01  0.19514735646E+02  0.51100000000E-03 0.  1.
        -12    1    3    3    0    0 -0.81878294830E+01  0.20675658333E+02  0.57673409584E+01  0.22973585286E+02  0.00000000000E+00 0.  1.
</event>
<event>
 7    1  0.3807360E-011  0.4778727E+02  0.7816164E-02  0.1312668E+00
        -11   -1    0    0    0    0  0.00000000000E+00  0.00000000000E+00  0.45593999997E+02  0.45594000000E+02  0.51100000000E-03 0.  1.
         11   -1    0    0    0    0 -0.00000000000E+00 -0.00000000000E+00 -0.45593999997E+02  0.45594000000E+02  0.51100000000E-03 0. -1.
    9900012    2    1    2    0    0  0.38522024123E+02 -0.73065997030E+01  0.18608886615E+02  0.47787269559E+02  0.19999993229E+02 0.  0.
        -12    1    1    2    0    0 -0.38522024123E+02  0.73065997030E+01 -0.18608886615E+02  0.43400730441E+02  0.00000000000E+00 0.  1.
         11    1    3    3    0    0  0.34545320009E+02 -0.51050709286E+01  0.10786856067E+02  0.36548558765E+02  0.51100000000E-03 0. -1.
        -11    1    3    3    0    0  0.32374883386E+01 -0.43307376757E+01  0.37358780142E+01  0.65721689233E+01  0.51100000000E-03 0.  1.
         12    1    3    3    0    0  0.73921577541E+00  0.21292089013E+01  0.40861525338E+01  0.46665418714E+01  0.00000000000E+00 0. -1.
</event>
<event>
 7    1  0.3807360E-011  0.4778721E+02  0.7816164E-02  0.1312668E+00
        -11   -1    0    0    0    0  0.00000000000E+00  0.00000000000E+00  0.45593999997E+02  0.45594000000E+02  0.51100000000E-03 0. -1.
         11   -1    0    0    0    0 -0.00000000000E+00 -0.00000000000E+00 -0.45593999997E+02  0.45594000000E+02  0.51100000000E-03 0.  1.
    9900012    2    1    2    0    0 -0.55810283143E+01 -0.14238500799E+01 -0.43016892286E+02  0.47787213739E+02  0.19999738721E+02 0.  0.
         12    1    1    2    0    0  0.55810283143E+01  0.14238500799E+01  0.43016892286E+02  0.43400786261E+02  0.00000000000E+00 0. -1.
         11    1    3    3    0    0 -0.59055554681E+01 -0.46581264143E+01 -0.64192601450E+01  0.98884087773E+01  0.51100000000E-03 0. -1.
        -11    1    3    3    0    0  0.30984324071E+00 -0.26420064580E+01 -0.22039252743E+02  0.22199208605E+02  0.51100000000E-03 0.  1.
        -12    1    3    3    0    0  0.14683913088E-01  0.58762827924E+01 -0.14558379398E+02  0.15699596357E+02  0.00000000000E+00 0.  1.
</event>
<event>
 7    1  0.3807360E-011  0.4778727E+02  0.7816164E-02  0.1312668E+00
        -11   -1    0    0    0    0  0.00000000000E+00  0.00000000000E+00  0.45593999997E+02  0.45594000000E+02  0.51100000000E-03 0. -1.
         11   -1    0    0    0    0 -0.00000000000E+00 -0.00000000000E+00 -0.45593999997E+02  0.45594000000E+02  0.51100000000E-03 0.  1.
    9900012    2    1    2    0    0 -0.17922923671E+02 -0.31514666445E+02  0.23858285686E+02  0.47787272012E+02  0.20000004410E+02 0.  0.
        -12    1    1    2    0    0  0.17922923671E+02  0.31514666445E+02 -0.23858285686E+02  0.43400727988E+02  0.00000000000E+00 0.  1.
         11    1    3    3    0    0 -0.67057947304E+01 -0.60544319543E+01  0.89357554459E+01  0.12707145821E+02  0.51100000000E-03 0. -1.
        -11    1    3    3    0    0 -0.86270187883E+01 -0.39928757331E+01  0.78541328015E+01  0.12331095333E+02  0.51100000000E-03 0.  1.
         12    1    3    3    0    0 -0.25901101525E+01 -0.21467358757E+02  0.70683974384E+01  0.22749030858E+02  0.00000000000E+00 0. -1.
</event>
<event>
 7    1  0.3807360E-011  0.4778728E+02  0.7816164E-02  0.1312668E+00
        -11   -1    0    0    0    0  0.00000000000E+00  0.00000000000E+00  0.45593999997E+02  0.45594000000E+02  0.51100000000E-03 0. -1.
         11   -1    0    0    0    0 -0.00000000000E+00 -0.00000000000E+00 -0.45593999997E+02  0.45594000000E+02  0.51100000000E-03 0.  1.
    9900012    2    1    2    0    0 -0.25884684567E+02  0.32826414607E+02  0.11663293626E+02  0.47787276396E+02  0.20000024401E+02 0.  0.
        -12    1    1    2    0    0  0.25884684567E+02 -0.32826414607E+02 -0.11663293626E+02  0.43400723604E+02  0.00000000000E+00 0.  1.
         11    1    3    3    0    0 -0.62673869769E+01  0.74545888718E+00  0.43824285401E+01  0.76838485566E+01  0.51100000000E-03 0. -1.
        -11    1    3    3    0    0 -0.83246209399E+01  0.99515963835E+01 -0.28320765520E+01  0.13279843457E+02  0.51100000000E-03 0.  1.
         12    1    3    3    0    0 -0.11292676651E+02  0.22129359337E+02  0.10112941638E+02  0.26823584383E+02  0.00000000000E+00 0. -1.
</event>
<event>
 7    1  0.3807360E-011  0.4778727E+02  0.7816164E-02  0.1312668E+00
        -11   -1    0    0    0    0  0.00000000000E+00  0.00000000000E+00  0.45593999997E+02  0.45594000000E+02  0.51100000000E-03 0.  1.
         11   -1    0    0    0    0 -0.00000000000E+00 -0.00000000000E+00 -0.45593999997E+02  0.45594000000E+02  0.51100000000E-03 0. -1.
    9900012    2    1    2    0    0  0.31851646673E+02  0.28770608758E+02  0.64302357413E+01  0.47787271253E+02  0.20000000950E+02 0.  0.
         12    1    1    2    0    0 -0.31851646673E+02 -0.28770608758E+02 -0.64302357413E+01  0.43400728747E+02  0.00000000000E+00 0. -1.
         11    1    3    3    0    0  0.19312824770E+01 -0.16843506115E+01 -0.14789555128E+01  0.29587495093E+01  0.51100000000E-03 0. -1.
        -11    1    3    3    0    0  0.58821440077E+01  0.13449629316E+02  0.27298395327E+01  0.14931315113E+02  0.51100000000E-03 0.  1.
        -12    1    3    3    0    0  0.24038220188E+02  0.17005330053E+02  0.51793517215E+01  0.29897206630E+02  0.00000000000E+00 0.  1.
</event>
<event>
 7    1  0.3807360E-011  0.4778727E+02  0.7816164E-02  0.1312668E+00
        -11   -1    0    0    0    0  0.00000000000E+00  0.00000000000E+00  0.45593999997E+02  0.45594000000E+02  0.51100000000E-03 0. -1.
         11   -1    0    0    0    0 -0.00000000000E+00 -0.00000000000E+00 -0.45593999997E+02  0.45594000000E+02  0.51100000000E-03 0.  1.
    9900012    2    1    2    0    0  0.11260758000E+02 -0.39674382395E+01  0.41726230780E+02  0.47787267609E+02  0.19999984338E+02 0.  0.
        -12    1    1    2    0    0 -0.11260758000E+02  0.39674382395E+01 -0.41726230780E+02  0.43400732391E+02  0.00000000000E+00 0.  1.
         11    1    3    3    0    0 -0.17266469574E+01 -0.72055790128E+01  0.13286793635E+02  0.15213170740E+02  0.51100000000E-03 0. -1.
        -11    1    3    3    0    0  0.42495983735E+01  0.49125695762E+01  0.16107145754E+02  0.17367572392E+02  0.51100000000E-03 0.  1.
        -12    1    3    3    0    0  0.87378065842E+01 -0.16744288028E+01  0.12332291391E+02  0.15206524477E+02  0.00000000000E+00 0.  1.
</event>
<event>
 7    1  0.3807360E-011  0.4778727E+02  0.7816164E-02  0.1312668E+00
        -11   -1    0    0    0    0  0.00000000000E+00  0.00000000000E+00  0.45593999997E+02  0.45594000000E+02  0.51100000000E-03 0. -1.
         11   -1    0    0    0    0 -0.00000000000E+00 -0.00000000000E+00 -0.45593999997E+02  0.45594000000E+02  0.51100000000E-03 0.  1.
    9900012    2    1    2    0    0  0.76715567980E+01 -0.27438262577E+02  0.32740071079E+02  0.47787270845E+02  0.19999999091E+02 0.  0.
        -12    1    1    2    0    0 -0.76715567980E+01  0.27438262577E+02 -0.32740071079E+02  0.43400729155E+02  0.00000000000E+00 0.  1.
         11    1    3    3    0    0  0.25388008707E+01 -0.10418920043E+02  0.10018254485E+02  0.14675313554E+02  0.51100000000E-03 0. -1.
        -11    1    3    3    0    0  0.63155397905E+01 -0.17532975980E+02  0.24582661982E+02  0.30847991182E+02  0.51100000000E-03 0.  1.
        -12    1    3    3    0    0 -0.11827838632E+01  0.51363344630E+00 -0.18608453883E+01  0.22639661091E+01  0.00000000000E+00 0.  1.
</event>
<event>
 7    1  0.3807360E-011  0.4778727E+02  0.7816164E-02  0.1312668E+00
        -11   -1    0    0    0    0  0.00000000000E+00  0.00000000000E+00  0.45593999997E+02  0.45594000000E+02  0.51100000000E-03 0. -1.
         11   -1    0    0    0    0 -0.00000000000E+00 -0.00000000000E+00 -0.45593999997E+02  0.45594000000E+02  0.51100000000E-03 0.  1.
    9900012    2    1    2    0    0  0.82973514145E+01 -0.61713106324E+01  0.42150831762E+02  0.47787265748E+02  0.19999975850E+02 0.  0.
        -12    1    1    2    0    0 -0.82973514145E+01  0.61713106324E+01 -0.42150831762E+02  0.43400734252E+02  0.00000000000E+00 0.  1.
         11    1    3    3    0    0  0.73377582856E+01 -0.60194294990E+01  0.32951490347E+02  0.34291062167E+02  0.51100000000E-03 0. -1.
        -11    1    3    3    0    0  0.61258985027E+00 -0.47973135823E+01  0.28243529727E+01  0.56005762120E+01  0.51100000000E-03 0.  1.
         12    1    3    3    0    0  0.34700327864E+00  0.46454324490E+01  0.63749884418E+01  0.78956273688E+01  0.00000000000E+00 0. -1.
</event>
<event>
 7    1  0.3807360E-011  0.4778728E+02  0.7816164E-02  0.1312668E+00
        -11   -1    0    0    0    0  0.00000000000E+00  0.00000000000E+00  0.45593999997E+02  0.45594000000E+02  0.51100000000E-03 0. -1.
         11   -1    0    0    0    0 -0.00000000000E+00 -0.00000000000E+00 -0.45593999997E+02  0.45594000000E+02  0.51100000000E-03 0.  1.
    9900012    2    1    2    0    0  0.54067728659E+00  0.19055966276E+02 -0.38989751226E+02  0.47787275544E+02  0.20000020514E+02 0.  0.
         12    1    1    2    0    0 -0.54067728659E+00 -0.19055966276E+02  0.38989751226E+02  0.43400724456E+02  0.00000000000E+00 0. -1.
         11    1    3    3    0    0 -0.14470202321E+01  0.13586068418E+01  0.74657861411E+00  0.21206272635E+01  0.51100000000E-03 0.  1.
        -11    1    3    3    0    0 -0.57273908206E+00  0.36115234544E+01 -0.25019825988E+00  0.36652054715E+01  0.51100000000E-03 0. -1.
        -12    1    3    3    0    0  0.25604366007E+01  0.14085835980E+02 -0.39486131580E+02  0.42001442809E+02  0.00000000000E+00 0.  1.
</event>
<event>
 7    1  0.3807360E-011  0.4778727E+02  0.7816164E-02  0.1312668E+00
        -11   -1    0    0    0    0  0.00000000000E+00  0.00000000000E+00  0.45593999997E+02  0.45594000000E+02  0.51100000000E-03 0. -1.
         11   -1    0    0    0    0 -0.00000000000E+00 -0.00000000000E+00 -0.45593999997E+02  0.45594000000E+02  0.51100000000E-03 0.  1.
    9900012    2    1    2    0    0 -0.17065048244E+02 -0.32178532427E+02 -0.23599778867E+02  0.47787269784E+02  0.19999994251E+02 0.  0.
         12    1    1    2    0    0  0.17065048244E+02  0.32178532427E+02  0.23599778867E+02  0.43400730216E+02  0.00000000000E+00 0. -1.
         11    1    3    3    0    0 -0.67146219406E+01 -0.12371433162E+02 -0.65285159463E+01  0.15516443762E+02  0.51100000000E-03 0.  1.
        -11    1    3    3    0    0  0.15925383178E+01  0.71237935357E+00 -0.56715996879E+01  0.59338609621E+01  0.51100000000E-03 0. -1.
         12    1    3    3    0    0 -0.11942964622E+02 -0.20519478618E+02 -0.11399663233E+02  0.26336965059E+02  0.00000000000E+00 0. -1.
</event>
<event>
 7    1  0.3807360E-011  0.4778727E+02  0.7816164E-02  0.1312668E+00
        -11   -1    0    0    0    0  0.00000000000E+00  0.00000000000E+00  0.45593999997E+02  0.45594000000E+02  0.51100000000E-03 0. -1.
         11   -1    0    0    0    0 -0.00000000000E+00 -0.00000000000E+00 -0.45593999997E+02  0.45594000000E+02  0.51100000000E-03 0.  1.
    9900012    2    1    2    0    0  0.20643225156E+02  0.28610052530E+02 -0.25277369029E+02  0.47787271486E+02  0.20000002011E+02 0.  0.
         12    1    1    2    0    0 -0.20643225156E+02 -0.28610052530E+02  0.25277369029E+02  0.43400728514E+02  0.00000000000E+00 0. -1.
         11    1    3    3    0    0 -0.42443303053E+00 -0.18395945173E+01 -0.51612765554E+01  0.54957280981E+01  0.51100000000E-03 0. -1.
        -11    1    3    3    0    0  0.29462444892E+00  0.76728304967E+00  0.58124625936E-01  0.82395726678E+00  0.51100000000E-03 0.  1.
         12    1    3    3    0    0  0.20773033737E+02  0.29682363997E+02 -0.20174217099E+02  0.41467586121E+02  0.00000000000E+00 0. -1.
</event>
<event>
 7    1  0.3807360E-011  0.4778727E+02  0.7816164E-02  0.1312668E+00
        -11   -1    0    0    0    0  0.00000000000E+00  0.00000000000E+00  0.45593999997E+02  0.45594000000E+02  0.51100000000E-03 0. -1.
         11   -1    0    0    0    0 -0.00000000000E+00 -0.00000000000E+00 -0.45593999997E+02  0.45594000000E+02  0.51100000000E-03 0.  1.
    9900012    2    1    2    0    0  0.20737614009E+02 -0.22648911116E+01 -0.38058440595E+02  0.47787271123E+02  0.20000000357E+02 0.  0.
         12    1    1    2    0    0 -0.20737614009E+02  0.22648911116E+01  0.38058440595E+02  0.43400728877E+02  0.00000000000E+00 0. -1.
         11    1    3    3    0    0  0.53237471561E+01 -0.49202872229E+01 -0.68314542060E+01  0.99609375547E+01  0.51100000000E-03 0. -1.
        -11    1    3    3    0    0  0.16720874409E+02  0.30681759781E+01 -0.32012615314E+02  0.36246501685E+02  0.51100000000E-03 0.  1.
         12    1    3    3    0    0 -0.13070075569E+01 -0.41277986677E+00  0.78562892502E+00  0.15798318835E+01  0.00000000000E+00 0. -1.
</event>
<event>
 7    1  0.3807360E-011  0.4778727E+02  0.7816164E-02  0.1312668E+00
        -11   -1    0    0    0    0  0.00000000000E+00  0.00000000000E+00  0.45593999997E+02  0.45594000000E+02  0.51100000000E-03 0. -1.
         11   -1    0    0    0    0 -0.00000000000E+00 -0.00000000000E+00 -0.45593999997E+02  0.45594000000E+02  0.51100000000E-03 0.  1.
    9900012    2    1    2    0    0  0.15598940052E+01  0.35967817706E+02 -0.24238529553E+02  0.47787268500E+02  0.19999988400E+02 0.  0.
         12    1    1    2    0    0 -0.15598940052E+01 -0.35967817706E+02  0.24238529553E+02  0.43400731500E+02  0.00000000000E+00 0. -1.
         11    1    3    3    0    0 -0.12610408115E+01  0.51959981662E+01 -0.82543385715E+01  0.98347712930E+01  0.51100000000E-03 0.  1.
        -11    1    3    3    0    0  0.50720447307E+01  0.31614423768E+02 -0.14867963858E+02  0.35302319718E+02  0.51100000000E-03 0. -1.
         12    1    3    3    0    0 -0.22511099141E+01 -0.84260422865E+00 -0.11162271237E+01  0.26501774890E+01  0.00000000000E+00 0. -1.
</event>
<event>
 7    1  0.3807360E-011  0.4778727E+02  0.7816164E-02  0.1312668E+00
        -11   -1    0    0    0    0  0.00000000000E+00  0.00000000000E+00  0.45593999997E+02  0.45594000000E+02  0.51100000000E-03 0. -1.
         11   -1    0    0    0    0 -0.00000000000E+00 -0.00000000000E+00 -0.45593999997E+02  0.45594000000E+02  0.51100000000E-03 0.  1.
    9900012    2    1    2    0    0 -0.20571071507E+02 -0.14215404694E+02 -0.35473601436E+02  0.47787272904E+02  0.20000008480E+02 0.  0.
         12    1    1    2    0    0  0.20571071507E+02  0.14215404694E+02  0.35473601436E+02  0.43400727096E+02  0.00000000000E+00 0. -1.
         11    1    3    3    0    0 -0.98180345157E+00  0.36894877153E+01 -0.46366933801E+01  0.60062620140E+01  0.51100000000E-03 0. -1.
        -11    1    3    3    0    0 -0.72995247846E+01 -0.12852281755E+02 -0.14286878319E+02  0.20556728844E+02  0.51100000000E-03 0.  1.
        -12    1    3    3    0    0 -0.12289743271E+02 -0.50526106537E+01 -0.16550029737E+02  0.21224282046E+02  0.00000000000E+00 0.  1.
</event>
<event>
 7    1  0.3807360E-011  0.4778728E+02  0.7816164E-02  0.1312668E+00
        -11   -1    0    0    0    0  0.00000000000E+00  0.00000000000E+00  0.45593999997E+02  0.45594000000E+02  0.51100000000E-03 0. -1.
         11   -1    0    0    0    0 -0.00000000000E+00 -0.00000000000E+00 -0.45593999997E+02  0.45594000000E+02  0.51100000000E-03 0.  1.
    9900012    2    1    2    0    0  0.15629629451E+02 -0.36593034861E+01 -0.40323033953E+02  0.47787275514E+02  0.20000020377E+02 0.  0.
         12    1    1    2    0    0 -0.15629629451E+02  0.36593034861E+01  0.40323033953E+02  0.43400724486E+02  0.00000000000E+00 0. -1.
         11    1    3    3    0    0  0.29896335727E+01 -0.80660156381E+01 -0.57092386010E+01  0.10324433294E+02  0.51100000000E-03 0. -1.
        -11    1    3    3    0    0  0.31566984393E+01 -0.22982037467E+00 -0.13388103097E+02  0.13757138773E+02  0.51100000000E-03 0.  1.
         12    1    3    3    0    0  0.94832974393E+01  0.46365325267E+01 -0.21225692255E+02  0.23705703447E+02  0.00000000000E+00 0. -1.
</event>
<event>
 7    1  0.3807360E-011  0.4778721E+02  0.7816164E-02  0.1312668E+00
        -11   -1    0    0    0    0  0.00000000000E+00  0.00000000000E+00  0.45593999997E+02  0.45594000000E+02  0.51100000000E-03 0. -1.
         11   -1    0    0    0    0 -0.00000000000E+00 -0.00000000000E+00 -0.45593999997E+02  0.45594000000E+02  0.51100000000E-03 0.  1.
    9900012    2    1    2    0    0  0.11445981817E+02  0.24275209119E+02 -0.34107655108E+02  0.47787211822E+02  0.19999729978E+02 0.  0.
         12    1    1    2    0    0 -0.11445981817E+02 -0.24275209119E+02  0.34107655108E+02  0.43400788178E+02  0.00000000000E+00 0. -1.
         11    1    3    3    0    0 -0.72615189096E+00  0.79534368562E+01 -0.14644713846E+02  0.16680890212E+02  0.51100000000E-03 0. -1.
        -11    1    3    3    0    0  0.72944803655E+01  0.42176555880E+00 -0.83920864961E+01  0.11127193986E+02  0.51100000000E-03 0.  1.
         12    1    3    3    0    0  0.48776533424E+01  0.15900006704E+02 -0.11070854766E+02  0.19979127623E+02  0.00000000000E+00 0. -1.
</event>
<event>
 7    1  0.3807360E-011  0.4778728E+02  0.7816164E-02  0.1312668E+00
        -11   -1    0    0    0    0  0.00000000000E+00  0.00000000000E+00  0.45593999997E+02  0.45594000000E+02  0.51100000000E-03 0. -1.
         11   -1    0    0    0    0 -0.00000000000E+00 -0.00000000000E+00 -0.45593999997E+02  0.45594000000E+02  0.51100000000E-03 0.  1.
    9900012    2    1    2    0    0 -0.36924684139E+02  0.45508205309E+01  0.22349063317E+02  0.47787275382E+02  0.20000019775E+02 0.  0.
        -12    1    1    2    0    0  0.36924684139E+02 -0.45508205309E+01 -0.22349063317E+02  0.43400724618E+02  0.00000000000E+00 0.  1.
         11    1    3    3    0    0 -0.14811826989E+02 -0.66158696155E+01  0.49060092141E+01  0.16947828067E+02  0.51100000000E-03 0. -1.
        -11    1    3    3    0    0 -0.35457167104E+01  0.44208068233E+01  0.42663685893E+01  0.70934858258E+01  0.51100000000E-03 0.  1.
         12    1    3    3    0    0 -0.18567140439E+02  0.67458833231E+01  0.13176685514E+02  0.23745961489E+02  0.00000000000E+00 0. -1.
</event>
<event>
 7    1  0.3807360E-011  0.4778727E+02  0.7816164E-02  0.1312668E+00
        -11   -1    0    0    0    0  0.00000000000E+00  0.00000000000E+00  0.45593999997E+02  0.45594000000E+02  0.51100000000E-03 0. -1.
         11   -1    0    0    0    0 -0.00000000000E+00 -0.00000000000E+00 -0.45593999997E+02  0.45594000000E+02  0.51100000000E-03 0.  1.
    9900012    2    1    2    0    0  0.28266005868E+02 -0.14113543760E+02 -0.29756748540E+02  0.47787270872E+02  0.19999999214E+02 0.  0.
         12    1    1    2    0    0 -0.28266005868E+02  0.14113543760E+02  0.29756748540E+02  0.43400729128E+02  0.00000000000E+00 0. -1.
         11    1    3    3    0    0  0.89072806149E+00  0.11545964077E+01 -0.43858141497E+01  0.46218887223E+01  0.51100000000E-03 0. -1.
        -11    1    3    3    0    0  0.27961006767E+02 -0.13745552000E+02 -0.26722458835E+02  0.41046898856E+02  0.51100000000E-03 0.  1.
        -12    1    3    3    0    0 -0.58572896045E+00 -0.15225881672E+01  0.13515244452E+01  0.21184832942E+01  0.00000000000E+00 0.  1.
</event>
<event>
 7    1  0.3807360E-011  0.4778727E+02  0.7816164E-02  0.1312668E+00
        -11   -1    0    0    0    0  0.00000000000E+00  0.00000000000E+00  0.45593999997E+02  0.45594000000E+02  0.51100000000E-03 0.  1.
         11   -1    0    0    0    0 -0.00000000000E+00 -0.00000000000E+00 -0.45593999997E+02  0.45594000000E+02  0.51100000000E-03 0. -1.
    9900012    2    1    2    0    0  0.33324765252E+02  0.27621825442E+02  0.31809102608E+01  0.47787269477E+02  0.19999992852E+02 0.  0.
        -12    1    1    2    0    0 -0.33324765252E+02 -0.27621825442E+02 -0.31809102608E+01  0.43400730523E+02  0.00000000000E+00 0.  1.
         11    1    3    3    0    0  0.29561650883E+02  0.22633494478E+02  0.20920935284E+01  0.37289987004E+02  0.51100000000E-03 0. -1.
        -11    1    3    3    0    0  0.43824754868E+01 -0.52080565467E+00  0.20576500983E+01  0.48694203054E+01  0.51100000000E-03 0.  1.
         12    1    3    3    0    0 -0.61936111724E+00  0.55091366191E+01 -0.96883336588E+00  0.56278621672E+01  0.00000000000E+00 0. -1.
</event>
<event>
 7    1  0.3807360E-011  0.4778727E+02  0.7816164E-02  0.1312668E+00
        -11   -1    0    0    0    0  0.00000000000E+00  0.00000000000E+00  0.45593999997E+02  0.45594000000E+02  0.51100000000E-03 0. -1.
         11   -1    0    0    0    0 -0.00000000000E+00 -0.00000000000E+00 -0.45593999997E+02  0.45594000000E+02  0.51100000000E-03 0.  1.
    9900012    2    1    2    0    0 -0.31427215876E+02  0.12081230625E+02  0.27386083505E+02  0.47787267277E+02  0.19999982823E+02 0.  0.
        -12    1    1    2    0    0  0.31427215876E+02 -0.12081230625E+02 -0.27386083505E+02  0.43400732723E+02  0.00000000000E+00 0.  1.
         11    1    3    3    0    0 -0.10656392182E+02  0.34634650831E+01  0.52574482820E+01  0.12377198691E+02  0.51100000000E-03 0. -1.
        -11    1    3    3    0    0  0.22789702198E+01 -0.12119904769E+01  0.22580545493E+01  0.34294951214E+01  0.51100000000E-03 0.  1.
         12    1    3    3    0    0 -0.23049793914E+02  0.98297560184E+01  0.19870580674E+02  0.31980573465E+02  0.00000000000E+00 0. -1.
</event>
<event>
 7    1  0.3807360E-011  0.4778728E+02  0.7816164E-02  0.1312668E+00
        -11   -1    0    0    0    0  0.00000000000E+00  0.00000000000E+00  0.45593999997E+02  0.45594000000E+02  0.51100000000E-03 0. -1.
         11   -1    0    0    0    0 -0.00000000000E+00 -0.00000000000E+00 -0.45593999997E+02  0.45594000000E+02  0.51100000000E-03 0.  1.
    9900012    2    1    2    0    0 -0.16181095379E+02  0.29063347917E+01  0.40166505466E+02  0.47787276609E+02  0.20000025369E+02 0.  0.
        -12    1    1    2    0    0  0.16181095379E+02 -0.29063347917E+01 -0.40166505466E+02  0.43400723391E+02  0.00000000000E+00 0.  1.
         11    1    3    3    0    0 -0.15463056481E+02 -0.29233173035E+01  0.28282797080E+02  0.32366163053E+02  0.51100000000E-03 0. -1.
        -11    1    3    3    0    0 -0.15495353207E+01 -0.54990013812E+00  0.73971697451E+01  0.75777021828E+01  0.51100000000E-03 0.  1.
        -12    1    3    3    0    0  0.83149642314E+00  0.63795522333E+01  0.44865386400E+01  0.78434113731E+01  0.00000000000E+00 0.  1.
</event>
<event>
 7    1  0.3807360E-011  0.4778727E+02  0.7816164E-02  0.1312668E+00
        -11   -1    0    0    0    0  0.00000000000E+00  0.00000000000E+00  0.45593999997E+02  0.45594000000E+02  0.51100000000E-03 0.  1.
         11   -1    0    0    0    0 -0.00000000000E+00 -0.00000000000E+00 -0.45593999997E+02  0.45594000000E+02  0.51100000000E-03 0. -1.
    9900012    2    1    2    0    0  0.38570182820E+02 -0.19390067822E+02 -0.44709912885E+01  0.47787268485E+02  0.19999988332E+02 0.  0.
         12    1    1    2    0    0 -0.38570182820E+02  0.19390067822E+02  0.44709912885E+01  0.43400731515E+02  0.00000000000E+00 0. -1.
         11    1    3    3    0    0  0.56966832490E+01 -0.44775317381E+00  0.51590501479E+01  0.76986025768E+01  0.51100000000E-03 0. -1.
        -11    1    3    3    0    0  0.16627626939E+02 -0.13212635872E+02 -0.22817047727E+01  0.21360194317E+02  0.51100000000E-03 0.  1.
        -12    1    3    3    0    0  0.16245872632E+02 -0.57296787768E+01 -0.73483366638E+01  0.18728471592E+02  0.00000000000E+00 0.  1.
</event>
<event>
 7    1  0.3807360E-011  0.4778727E+02  0.7816164E-02  0.1312668E+00
        -11   -1    0    0    0    0  0.00000000000E+00  0.00000000000E+00  0.45593999997E+02  0.45594000000E+02  0.51100000000E-03 0. -1.
         11   -1    0    0    0    0 -0.00000000000E+00 -0.00000000000E+00 -0.45593999997E+02  0.45594000000E+02  0.51100000000E-03 0.  1.
    9900012    2    1    2    0    0  0.37933170010E+02  0.15413546187E+02  0.14391679668E+02  0.47787271472E+02  0.20000001949E+02 0.  0.
        -12    1    1    2    0    0 -0.37933170010E+02 -0.15413546187E+02 -0.14391679668E+02  0.43400728528E+02  0.00000000000E+00 0.  1.
         11    1    3    3    0    0  0.19892573809E+02  0.97848853234E+01  0.14854425452E+02  0.26685434778E+02  0.51100000000E-03 0. -1.
        -11    1    3    3    0    0 -0.55483665458E+00  0.19890721725E+01 -0.60924705038E+00  0.21530058175E+01  0.51100000000E-03 0.  1.
         12    1    3    3    0    0  0.18595432856E+02  0.36395886914E+01  0.14650126601E+00  0.18948830876E+02  0.00000000000E+00 0. -1.
</event>
<event>
 7    1  0.3807360E-011  0.4778727E+02  0.7816164E-02  0.1312668E+00
        -11   -1    0    0    0    0  0.00000000000E+00  0.00000000000E+00  0.45593999997E+02  0.45594000000E+02  0.51100000000E-03 0. -1.
         11   -1    0    0    0    0 -0.00000000000E+00 -0.00000000000E+00 -0.45593999997E+02  0.45594000000E+02  0.51100000000E-03 0.  1.
    9900012    2    1    2    0    0 -0.31977380627E+02  0.11456005251E+02 -0.27015375881E+02  0.47787268876E+02  0.19999990113E+02 0.  0.
         12    1    1    2    0    0  0.31977380627E+02 -0.11456005251E+02  0.27015375881E+02  0.43400731124E+02  0.00000000000E+00 0. -1.
         11    1    3    3    0    0 -0.15844425652E+02  0.63899041148E+01 -0.16131117000E+02  0.23496587726E+02  0.51100000000E-03 0. -1.
        -11    1    3    3    0    0 -0.14963044381E+02 -0.45183635396E+00 -0.42068589201E+01  0.15549743261E+02  0.51100000000E-03 0.  1.
         12    1    3    3    0    0 -0.11699105942E+01  0.55179374900E+01 -0.66773999608E+01  0.87409378889E+01  0.00000000000E+00 0. -1.
</event>
<event>
 7    1  0.3807360E-011  0.4778728E+02  0.7816164E-02  0.1312668E+00
        -11   -1    0    0    0    0  0.00000000000E+00  0.00000000000E+00  0.45593999997E+02  0.45594000000E+02  0.51100000000E-03 0. -1.
         11   -1    0    0    0    0 -0.00000000000E+00 -0.00000000000E+00 -0.45593999997E+02  0.45594000000E+02  0.51100000000E-03 0.  1.
    9900012    2    1    2    0    0  0.81339134949E+01 -0.23572249129E+02  0.35521981508E+02  0.47787278256E+02  0.20000032878E+02 0.  0.
        -12    1    1    2    0    0 -0.81339134949E+01  0.23572249129E+02 -0.35521981508E+02  0.43400721744E+02  0.00000000000E+00 0.  1.
         11    1    3    3    0    0  0.12490192304E+02 -0.18049177401E+02  0.33105041126E+02  0.39720542001E+02  0.51100000000E-03 0. -1.
        -11    1    3    3    0    0 -0.67440204911E+00 -0.14813789725E+01 -0.70172215851E+00  0.17724886552E+01  0.51100000000E-03 0.  1.
         12    1    3    3    0    0 -0.36818767601E+01 -0.40416927549E+01  0.31186625403E+01  0.62942475994E+01  0.00000000000E+00 0. -1.
</event>
<event>
 7    1  0.3807360E-011  0.4778727E+02  0.7816164E-02  0.1312668E+00
        -11   -1    0    0    0    0  0.00000000000E+00  0.00000000000E+00  0.45593999997E+02  0.45594000000E+02  0.51100000000E-03 0. -1.
         11   -1    0    0    0    0 -0.00000000000E+00 -0.00000000000E+00 -0.45593999997E+02  0.45594000000E+02  0.51100000000E-03 0.  1.
    9900012    2    1    2    0    0  0.15275993460E+02  0.19717152715E+02 -0.35517620311E+02  0.47787269131E+02  0.19999991277E+02 0.  0.
         12    1    1    2    0    0 -0.15275993460E+02 -0.19717152715E+02  0.35517620311E+02  0.43400730869E+02  0.00000000000E+00 0. -1.
         11    1    3    3    0    0  0.11930243922E+02  0.27445321697E+01 -0.63295588389E+01  0.13781382087E+02  0.51100000000E-03 0. -1.
        -11    1    3    3    0    0  0.11429374650E+01  0.73913326336E+01 -0.10525485687E+02  0.12912163001E+02  0.51100000000E-03 0.  1.
         12    1    3    3    0    0  0.22028120724E+01  0.95812879120E+01 -0.18662575785E+02  0.21093724043E+02  0.00000000000E+00 0. -1.
</event>
<event>
 7    1  0.3807360E-011  0.4778727E+02  0.7816164E-02  0.1312668E+00
        -11   -1    0    0    0    0  0.00000000000E+00  0.00000000000E+00  0.45593999997E+02  0.45594000000E+02  0.51100000000E-03 0. -1.
         11   -1    0    0    0    0 -0.00000000000E+00 -0.00000000000E+00 -0.45593999997E+02  0.45594000000E+02  0.51100000000E-03 0.  1.
    9900012    2    1    2    0    0  0.16967462587E+02  0.55026751555E+01 -0.39565753410E+02  0.47787273469E+02  0.20000011056E+02 0.  0.
         12    1    1    2    0    0 -0.16967462587E+02 -0.55026751555E+01  0.39565753410E+02  0.43400726531E+02  0.00000000000E+00 0. -1.
         11    1    3    3    0    0  0.55215461474E+01  0.31716807409E+01 -0.21954503809E+02  0.22859292822E+02  0.51100000000E-03 0.  1.
        -11    1    3    3    0    0  0.87889918281E-01 -0.26602357480E+01  0.75267024402E+00  0.27660606700E+01  0.51100000000E-03 0. -1.
         12    1    3    3    0    0  0.11358026521E+02  0.49912301626E+01 -0.18363919845E+02  0.22161919977E+02  0.00000000000E+00 0. -1.
</event>
<event>
 7    1  0.3807360E-011  0.4778728E+02  0.7816164E-02  0.1312668E+00
        -11   -1    0    0    0    0  0.00000000000E+00  0.00000000000E+00  0.45593999997E+02  0.45594000000E+02  0.51100000000E-03 0. -1.
         11   -1    0    0    0    0 -0.00000000000E+00 -0.00000000000E+00 -0.45593999997E+02  0.45594000000E+02  0.51100000000E-03 0.  1.
    9900012    2    1    2    0    0 -0.49823757015E+01  0.77792379475E+01 -0.42406155791E+02  0.47787278121E+02  0.20000032265E+02 0.  0.
         12    1    1    2    0    0  0.49823757015E+01 -0.77792379475E+01  0.42406155791E+02  0.43400721879E+02  0.00000000000E+00 0. -1.
         11    1    3    3    0    0 -0.28561221899E+01  0.44341265647E+01 -0.35561686354E+01  0.63612300681E+01  0.51100000000E-03 0. -1.
        -11    1    3    3    0    0 -0.41735470166E+01  0.26369880761E+01 -0.36011003854E+01  0.61106566799E+01  0.51100000000E-03 0.  1.
        -12    1    3    3    0    0  0.20472935050E+01  0.70812330670E+00 -0.35248886770E+02  0.35315391373E+02  0.00000000000E+00 0.  1.
</event>
<event>
 7    1  0.3807360E-011  0.4778728E+02  0.7816164E-02  0.1312668E+00
        -11   -1    0    0    0    0  0.00000000000E+00  0.00000000000E+00  0.45593999997E+02  0.45594000000E+02  0.51100000000E-03 0. -1.
         11   -1    0    0    0    0 -0.00000000000E+00 -0.00000000000E+00 -0.45593999997E+02  0.45594000000E+02  0.51100000000E-03 0.  1.
    9900012    2    1    2    0    0 -0.16083375888E+02 -0.34640550114E+02  0.20615047723E+02  0.47787275527E+02  0.20000020436E+02 0.  0.
        -12    1    1    2    0    0  0.16083375888E+02  0.34640550114E+02 -0.20615047723E+02  0.43400724473E+02  0.00000000000E+00 0.  1.
         11    1    3    3    0    0 -0.16652257834E+01 -0.15859751068E+02  0.11744838157E+02  0.19805198924E+02  0.51100000000E-03 0. -1.
        -11    1    3    3    0    0 -0.65256598673E+01 -0.15284697348E+02  0.16000946608E+01  0.16696302372E+02  0.51100000000E-03 0.  1.
         12    1    3    3    0    0 -0.78924902373E+01 -0.34961016987E+01  0.72701149057E+01  0.11285774230E+02  0.00000000000E+00 0. -1.
</event>
<event>
 7    1  0.3807360E-011  0.4778727E+02  0.7816164E-02  0.1312668E+00
        -11   -1    0    0    0    0  0.00000000000E+00  0.00000000000E+00  0.45593999997E+02  0.45594000000E+02  0.51100000000E-03 0. -1.
         11   -1    0    0    0    0 -0.00000000000E+00 -0.00000000000E+00 -0.45593999997E+02  0.45594000000E+02  0.51100000000E-03 0.  1.
    9900012    2    1    2    0    0 -0.43061457143E+02  0.54111731501E+01 -0.23155407499E+00  0.47787268400E+02  0.19999987942E+02 0.  0.
         12    1    1    2    0    0  0.43061457143E+02 -0.54111731501E+01  0.23155407499E+00  0.43400731600E+02  0.00000000000E+00 0. -1.
         11    1    3    3    0    0 -0.18009653989E+02  0.19645977639E+01  0.73198010034E+00  0.18131273433E+02  0.51100000000E-03 0. -1.
        -11    1    3    3    0    0 -0.26847622493E+02  0.21107235154E+01 -0.23342385003E+01  0.27031438307E+02  0.51100000000E-03 0.  1.
         12    1    3    3    0    0  0.17958193386E+01  0.13358518709E+01  0.13707043250E+01  0.26245566605E+01  0.00000000000E+00 0. -1.
</event>
<event>
 7    1  0.3807360E-011  0.4778727E+02  0.7816164E-02  0.1312668E+00
        -11   -1    0    0    0    0  0.00000000000E+00  0.00000000000E+00  0.45593999997E+02  0.45594000000E+02  0.51100000000E-03 0. -1.
         11   -1    0    0    0    0 -0.00000000000E+00 -0.00000000000E+00 -0.45593999997E+02  0.45594000000E+02  0.51100000000E-03 0.  1.
    9900012    2    1    2    0    0 -0.10789752381E+02 -0.32087181259E+02  0.27159110329E+02  0.47787271533E+02  0.20000002229E+02 0.  0.
        -12    1    1    2    0    0  0.10789752381E+02  0.32087181259E+02 -0.27159110329E+02  0.43400728467E+02  0.00000000000E+00 0.  1.
         11    1    3    3    0    0  0.25038493999E+01 -0.40971489538E+01  0.83064271232E+01  0.95944058274E+01  0.51100000000E-03 0. -1.
        -11    1    3    3    0    0 -0.10424446459E+02 -0.24067845446E+02  0.20250452126E+02  0.33136250240E+02  0.51100000000E-03 0.  1.
        -12    1    3    3    0    0 -0.28691553220E+01 -0.39221868587E+01 -0.13977689203E+01  0.50566154660E+01  0.00000000000E+00 0.  1.
</event>
<event>
 7    1  0.3807360E-011  0.4778727E+02  0.7816164E-02  0.1312668E+00
        -11   -1    0    0    0    0  0.00000000000E+00  0.00000000000E+00  0.45593999997E+02  0.45594000000E+02  0.51100000000E-03 0. -1.
         11   -1    0    0    0    0 -0.00000000000E+00 -0.00000000000E+00 -0.45593999997E+02  0.45594000000E+02  0.51100000000E-03 0.  1.
    9900012    2    1    2    0    0 -0.27749812808E+02  0.96804210023E+01  0.31935253105E+02  0.47787273594E+02  0.20000011624E+02 0.  0.
        -12    1    1    2    0    0  0.27749812808E+02 -0.96804210023E+01 -0.31935253105E+02  0.43400726406E+02  0.00000000000E+00 0.  1.
         11    1    3    3    0    0 -0.54459352273E+01  0.59981738720E+01  0.32593607374E+01  0.87326818891E+01  0.51100000000E-03 0. -1.
        -11    1    3    3    0    0 -0.16485852021E+02 -0.38824834303E+01  0.19268480090E+02  0.25654070236E+02  0.51100000000E-03 0.  1.
         12    1    3    3    0    0 -0.58180255605E+01  0.75647305606E+01  0.94074122776E+01  0.13400521469E+02  0.00000000000E+00 0. -1.
</event>
<event>
 7    1  0.3807360E-011  0.4778728E+02  0.7816164E-02  0.1312668E+00
        -11   -1    0    0    0    0  0.00000000000E+00  0.00000000000E+00  0.45593999997E+02  0.45594000000E+02  0.51100000000E-03 0.  1.
         11   -1    0    0    0    0 -0.00000000000E+00 -0.00000000000E+00 -0.45593999997E+02  0.45594000000E+02  0.51100000000E-03 0. -1.
    9900012    2    1    2    0    0 -0.29023192461E+02 -0.35156907818E+01 -0.32076738160E+02  0.47787275199E+02  0.20000018942E+02 0.  0.
         12    1    1    2    0    0  0.29023192461E+02  0.35156907818E+01  0.32076738160E+02  0.43400724801E+02  0.00000000000E+00 0. -1.
         11    1    3    3    0    0 -0.14111958100E+02 -0.72357381136E+01 -0.14832016737E+02  0.21713866266E+02  0.51100000000E-03 0. -1.
        -11    1    3    3    0    0 -0.60295538916E+01 -0.33948106874E+01 -0.23056090404E+01  0.72935651806E+01  0.51100000000E-03 0.  1.
        -12    1    3    3    0    0 -0.88816804695E+01  0.71148580193E+01 -0.14939112382E+02  0.18779843753E+02  0.00000000000E+00 0.  1.
</event>
<event>
 7    1  0.3807360E-011  0.4778727E+02  0.7816164E-02  0.1312668E+00
        -11   -1    0    0    0    0  0.00000000000E+00  0.00000000000E+00  0.45593999997E+02  0.45594000000E+02  0.51100000000E-03 0. -1.
         11   -1    0    0    0    0 -0.00000000000E+00 -0.00000000000E+00 -0.45593999997E+02  0.45594000000E+02  0.51100000000E-03 0.  1.
    9900012    2    1    2    0    0 -0.39747653979E+02 -0.12587510595E+02  0.12054135804E+02  0.47787267174E+02  0.19999982355E+02 0.  0.
        -12    1    1    2    0    0  0.39747653979E+02  0.12587510595E+02 -0.12054135804E+02  0.43400732826E+02  0.00000000000E+00 0.  1.
         11    1    3    3    0    0 -0.18543402389E+02  0.85052944386E+00  0.31551930149E+01  0.18829137413E+02  0.51100000000E-03 0.  1.
        -11    1    3    3    0    0 -0.20550472533E+02 -0.90149795059E+01  0.96439889330E+01  0.24425361812E+02  0.51100000000E-03 0. -1.
         12    1    3    3    0    0 -0.65377905712E+00 -0.44230605326E+01 -0.74504614445E+00  0.45327679499E+01  0.00000000000E+00 0. -1.
</event>
<event>
 7    1  0.3807360E-011  0.4778726E+02  0.7816164E-02  0.1312668E+00
        -11   -1    0    0    0    0  0.00000000000E+00  0.00000000000E+00  0.45593999997E+02  0.45594000000E+02  0.51100000000E-03 0. -1.
         11   -1    0    0    0    0 -0.00000000000E+00 -0.00000000000E+00 -0.45593999997E+02  0.45594000000E+02  0.51100000000E-03 0.  1.
    9900012    2    1    2    0    0  0.15528215051E+02 -0.36258326953E+02  0.18106137533E+02  0.47787263227E+02  0.19999964356E+02 0.  0.
        -12    1    1    2    0    0 -0.15528215051E+02  0.36258326953E+02 -0.18106137533E+02  0.43400736773E+02  0.00000000000E+00 0.  1.
         11    1    3    3    0    0  0.11869257956E+02 -0.20210291993E+02  0.52472866612E+01  0.24018101599E+02  0.51100000000E-03 0. -1.
        -11    1    3    3    0    0 -0.11818460752E+01  0.14290189146E+01  0.11215627024E+01  0.21672005815E+01  0.51100000000E-03 0.  1.
         12    1    3    3    0    0  0.48408031704E+01 -0.17477053875E+02  0.11737288169E+02  0.21601961046E+02  0.00000000000E+00 0. -1.
</event>
<event>
 7    1  0.3807360E-011  0.4778727E+02  0.7816164E-02  0.1312668E+00
        -11   -1    0    0    0    0  0.00000000000E+00  0.00000000000E+00  0.45593999997E+02  0.45594000000E+02  0.51100000000E-03 0. -1.
         11   -1    0    0    0    0 -0.00000000000E+00 -0.00000000000E+00 -0.45593999997E+02  0.45594000000E+02  0.51100000000E-03 0.  1.
    9900012    2    1    2    0    0 -0.27683233417E+01 -0.20767035142E+02  0.38009072927E+02  0.47787274344E+02  0.20000015043E+02 0.  0.
        -12    1    1    2    0    0  0.27683233417E+01  0.20767035142E+02 -0.38009072927E+02  0.43400725656E+02  0.00000000000E+00 0.  1.
         11    1    3    3    0    0 -0.40544180406E+01 -0.13723308939E+00  0.19496721255E+01  0.45009288182E+01  0.51100000000E-03 0. -1.
        -11    1    3    3    0    0  0.11111018202E+01 -0.14531738817E+02  0.13324282289E+02  0.19746961262E+02  0.51100000000E-03 0.  1.
         12    1    3    3    0    0  0.17499287877E+00 -0.60980632354E+01  0.22735118513E+02  0.23539384264E+02  0.00000000000E+00 0. -1.
</event>
<event>
 7    1  0.3807360E-011  0.4778727E+02  0.7816164E-02  0.1312668E+00
        -11   -1    0    0    0    0  0.00000000000E+00  0.00000000000E+00  0.45593999997E+02  0.45594000000E+02  0.51100000000E-03 0. -1.
         11   -1    0    0    0    0 -0.00000000000E+00 -0.00000000000E+00 -0.45593999997E+02  0.45594000000E+02  0.51100000000E-03 0.  1.
    9900012    2    1    2    0    0  0.45985032156E+01  0.76018332596E+01  0.42481631989E+02  0.47787272389E+02  0.20000006131E+02 0.  0.
        -12    1    1    2    0    0 -0.45985032156E+01 -0.76018332596E+01 -0.42481631989E+02  0.43400727611E+02  0.00000000000E+00 0.  1.
         11    1    3    3    0    0  0.26061856144E+01 -0.74121705580E+00  0.25973936723E-02  0.27095411397E+01  0.51100000000E-03 0.  1.
        -11    1    3    3    0    0 -0.49428623285E+01  0.59548519991E+01  0.22642600846E+02  0.23928633970E+02  0.51100000000E-03 0. -1.
         12    1    3    3    0    0  0.69351799297E+01  0.23881983163E+01  0.19836433749E+02  0.21149097279E+02  0.00000000000E+00 0. -1.
</event>
<event>
 7    1  0.3807360E-011  0.4778727E+02  0.7816164E-02  0.1312668E+00
        -11   -1    0    0    0    0  0.00000000000E+00  0.00000000000E+00  0.45593999997E+02  0.45594000000E+02  0.51100000000E-03 0. -1.
         11   -1    0    0    0    0 -0.00000000000E+00 -0.00000000000E+00 -0.45593999997E+02  0.45594000000E+02  0.51100000000E-03 0.  1.
    9900012    2    1    2    0    0  0.42387024469E+01 -0.19329269837E+02 -0.38626881311E+02  0.47787271542E+02  0.20000002270E+02 0.  0.
         12    1    1    2    0    0 -0.42387024469E+01  0.19329269837E+02  0.38626881311E+02  0.43400728458E+02  0.00000000000E+00 0. -1.
         11    1    3    3    0    0  0.44035641233E+00 -0.49026614198E+01 -0.15735065176E+02  0.16487033667E+02  0.51100000000E-03 0. -1.
        -11    1    3    3    0    0 -0.37349835977E+01 -0.65290346633E+01 -0.20864794599E+01  0.78058819430E+01  0.51100000000E-03 0.  1.
        -12    1    3    3    0    0  0.75333296323E+01 -0.78975737541E+01 -0.20805336674E+02  0.23494355932E+02  0.00000000000E+00 0.  1.
</event>
<event>
 7    1  0.3807360E-011  0.4778727E+02  0.7816164E-02  0.1312668E+00
        -11   -1    0    0    0    0  0.00000000000E+00  0.00000000000E+00  0.45593999997E+02  0.45594000000E+02  0.51100000000E-03 0. -1.
         11   -1    0    0    0    0 -0.00000000000E+00 -0.00000000000E+00 -0.45593999997E+02  0.45594000000E+02  0.51100000000E-03 0.  1.
    9900012    2    1    2    0    0  0.15456403317E+02 -0.34170827271E+02 -0.21842107769E+02  0.47787268304E+02  0.19999987507E+02 0.  0.
         12    1    1    2    0    0 -0.15456403317E+02  0.34170827271E+02  0.21842107769E+02  0.43400731696E+02  0.00000000000E+00 0. -1.
         11    1    3    3    0    0 -0.15457986739E+01 -0.82717227913E+01 -0.27678117840E+01  0.88584238897E+01  0.51100000000E-03 0. -1.
        -11    1    3    3    0    0  0.81068032350E-01 -0.11176682740E+02 -0.38534639459E+01  0.11822605201E+02  0.51100000000E-03 0.  1.
         12    1    3    3    0    0  0.16921133959E+02 -0.14722421740E+02 -0.15220832039E+02  0.27106239214E+02  0.00000000000E+00 0. -1.
</event>
<event>
 7    1  0.3807360E-011  0.4778724E+02  0.7816164E-02  0.1312668E+00
        -11   -1    0    0    0    0  0.00000000000E+00  0.00000000000E+00  0.45593999997E+02  0.45594000000E+02  0.51100000000E-03 0. -1.
         11   -1    0    0    0    0 -0.00000000000E+00 -0.00000000000E+00 -0.45593999997E+02  0.45594000000E+02  0.51100000000E-03 0.  1.
    9900012    2    1    2    0    0 -0.32423951499E+02  0.14070873967E+02  0.25185782656E+02  0.47787242253E+02  0.19999868729E+02 0.  0.
        -12    1    1    2    0    0  0.32423951499E+02 -0.14070873967E+02 -0.25185782656E+02  0.43400757747E+02  0.00000000000E+00 0.  1.
         11    1    3    3    0    0 -0.13105490513E+02  0.11902862444E+02  0.16807045767E+02  0.24411243385E+02  0.51100000000E-03 0. -1.
        -11    1    3    3    0    0 -0.17380998745E+02  0.52649499726E+01  0.67251091035E+01  0.19366102042E+02  0.51100000000E-03 0.  1.
        -12    1    3    3    0    0 -0.19374622407E+01 -0.30969384502E+01  0.16536277863E+01  0.40098968258E+01  0.00000000000E+00 0.  1.
</event>
<event>
 7    1  0.3807360E-011  0.4778727E+02  0.7816164E-02  0.1312668E+00
        -11   -1    0    0    0    0  0.00000000000E+00  0.00000000000E+00  0.45593999997E+02  0.45594000000E+02  0.51100000000E-03 0. -1.
         11   -1    0    0    0    0 -0.00000000000E+00 -0.00000000000E+00 -0.45593999997E+02  0.45594000000E+02  0.51100000000E-03 0.  1.
    9900012    2    1    2    0    0 -0.74187247851E+01 -0.27108172582E+01 -0.42675957647E+02  0.47787269952E+02  0.19999995019E+02 0.  0.
         12    1    1    2    0    0  0.74187247851E+01  0.27108172582E+01  0.42675957647E+02  0.43400730048E+02  0.00000000000E+00 0. -1.
         11    1    3    3    0    0  0.34534874042E+00  0.32257179220E+00 -0.33314192118E+01  0.33647693144E+01  0.51100000000E-03 0. -1.
        -11    1    3    3    0    0 -0.59107464110E+00  0.12947588826E+01 -0.34918612731E+02  0.34947607717E+02  0.51100000000E-03 0.  1.
         12    1    3    3    0    0 -0.71729988844E+01 -0.43281479330E+01 -0.44259257039E+01  0.94748929209E+01  0.00000000000E+00 0. -1.
</event>
<event>
 7    1  0.3807360E-011  0.4778727E+02  0.7816164E-02  0.1312668E+00
        -11   -1    0    0    0    0  0.00000000000E+00  0.00000000000E+00  0.45593999997E+02  0.45594000000E+02  0.51100000000E-03 0. -1.
         11   -1    0    0    0    0 -0.00000000000E+00 -0.00000000000E+00 -0.45593999997E+02  0.45594000000E+02  0.51100000000E-03 0.  1.
    9900012    2    1    2    0    0 -0.40055929519E+02 -0.67879169419E+01 -0.15266633530E+02  0.47787269529E+02  0.19999993091E+02 0.  0.
         12    1    1    2    0    0  0.40055929519E+02  0.67879169419E+01  0.15266633530E+02  0.43400730471E+02  0.00000000000E+00 0. -1.
         11    1    3    3    0    0 -0.19119896244E+02  0.41733208716E+01 -0.13676793060E+02  0.23875546237E+02  0.51100000000E-03 0. -1.
        -11    1    3    3    0    0 -0.36706759854E+01 -0.27826210349E+01  0.74155185291E+00  0.46654840505E+01  0.51100000000E-03 0.  1.
        -12    1    3    3    0    0 -0.17265357290E+02 -0.81786167787E+01 -0.23313923230E+01  0.19246239241E+02  0.00000000000E+00 0.  1.
</event>
<event>
 7    1  0.3807360E-011  0.4778727E+02  0.7816164E-02  0.1312668E+00
        -11   -1    0    0    0    0  0.00000000000E+00  0.00000000000E+00  0.45593999997E+02  0.45594000000E+02  0.51100000000E-03 0. -1.
         11   -1    0    0    0    0 -0.00000000000E+00 -0.00000000000E+00 -0.45593999997E+02  0.45594000000E+02  0.51100000000E-03 0.  1.
    9900012    2    1    2    0    0 -0.21443229972E+02 -0.23933724928E+02 -0.29171694419E+02  0.47787273556E+02  0.20000011452E+02 0.  0.
         12    1    1    2    0    0  0.21443229972E+02  0.23933724928E+02  0.29171694419E+02  0.43400726444E+02  0.00000000000E+00 0. -1.
         11    1    3    3    0    0  0.97844950293E+00 -0.26220359517E+00 -0.26687303632E+01  0.28545115462E+01  0.51100000000E-03 0. -1.
        -11    1    3    3    0    0 -0.20941322023E+02 -0.15886328547E+02 -0.13115668202E+02  0.29375757955E+02  0.51100000000E-03 0.  1.
        -12    1    3    3    0    0 -0.14803574521E+01 -0.77851927858E+01 -0.13387295853E+02  0.15557004055E+02  0.00000000000E+00 0.  1.
</event>
<event>
 7    1  0.3807360E-011  0.4778727E+02  0.7816164E-02  0.1312668E+00
        -11   -1    0    0    0    0  0.00000000000E+00  0.00000000000E+00  0.45593999997E+02  0.45594000000E+02  0.51100000000E-03 0. -1.
         11   -1    0    0    0    0 -0.00000000000E+00 -0.00000000000E+00 -0.45593999997E+02  0.45594000000E+02  0.51100000000E-03 0.  1.
    9900012    2    1    2    0    0  0.16677934518E+02 -0.19826681154E+02  0.34819142253E+02  0.47787268985E+02  0.19999990612E+02 0.  0.
        -12    1    1    2    0    0 -0.16677934518E+02  0.19826681154E+02 -0.34819142253E+02  0.43400731015E+02  0.00000000000E+00 0.  1.
         11    1    3    3    0    0 -0.18409320278E+01 -0.64971708991E+00  0.48956454944E+01  0.52705320505E+01  0.51100000000E-03 0. -1.
        -11    1    3    3    0    0  0.14999002083E+02 -0.15231936966E+02  0.30448829852E+02  0.37203671954E+02  0.51100000000E-03 0.  1.
         12    1    3    3    0    0  0.35198644620E+01 -0.39450270973E+01 -0.52533309332E+00  0.53130649806E+01  0.00000000000E+00 0. -1.
</event>
<event>
 7    1  0.3807360E-011  0.4778727E+02  0.7816164E-02  0.1312668E+00
        -11   -1    0    0    0    0  0.00000000000E+00  0.00000000000E+00  0.45593999997E+02  0.45594000000E+02  0.51100000000E-03 0.  1.
         11   -1    0    0    0    0 -0.00000000000E+00 -0.00000000000E+00 -0.45593999997E+02  0.45594000000E+02  0.51100000000E-03 0. -1.
    9900012    2    1    2    0    0  0.38769825326E+02  0.19176238449E+02 -0.35771405577E+01  0.47787269459E+02  0.19999992774E+02 0.  0.
        -12    1    1    2    0    0 -0.38769825326E+02 -0.19176238449E+02  0.35771405577E+01  0.43400730541E+02  0.00000000000E+00 0.  1.
         11    1    3    3    0    0  0.28277839571E+02  0.12161373155E+02  0.52862237168E+00  0.30786598541E+02  0.51100000000E-03 0. -1.
        -11    1    3    3    0    0  0.11140594332E+02  0.63996202179E+01 -0.65334052217E+01  0.14413652038E+02  0.51100000000E-03 0.  1.
        -12    1    3    3    0    0 -0.64860857762E+00  0.61524507608E+00  0.24276422923E+01  0.25870188809E+01  0.00000000000E+00 0.  1.
</event>
<event>
 7    1  0.6611144E-011  0.4778727E+02  0.7816164E-02  0.1312668E+00
        -11   -1    0    0    0    0  0.00000000000E+00  0.00000000000E+00  0.45593999997E+02  0.45594000000E+02  0.51100000000E-03 0. -1.
         11   -1    0    0    0    0 -0.00000000000E+00 -0.00000000000E+00 -0.45593999997E+02  0.45594000000E+02  0.51100000000E-03 0.  1.
    9900012    2    1    2    0    0 -0.13437014053E+02 -0.31784735878E+02 -0.26321100644E+02  0.47787272810E+02  0.20000008052E+02 0.  0.
         12    1    1    2    0    0  0.13437014053E+02  0.31784735878E+02  0.26321100644E+02  0.43400727190E+02  0.00000000000E+00 0. -1.
         11    1    3    3    0    0 -0.46249682719E+01 -0.73590049573E+01 -0.15062914780E+02  0.17390706927E+02  0.51100000000E-03 0. -1.
        -11    1    3    3    0    0 -0.30665082869E+01 -0.19543992698E+02 -0.11444377564E+02  0.22854866041E+02  0.51100000000E-03 0.  1.
         12    1    3    3    0    0 -0.57455374944E+01 -0.48817382219E+01  0.18619170012E+00  0.75416998426E+01  0.00000000000E+00 0. -1.
</event>
<event>
 7    1  0.3807360E-011  0.4778724E+02  0.7816164E-02  0.1312668E+00
        -11   -1    0    0    0    0  0.00000000000E+00  0.00000000000E+00  0.45593999997E+02  0.45594000000E+02  0.51100000000E-03 0. -1.
         11   -1    0    0    0    0 -0.00000000000E+00 -0.00000000000E+00 -0.45593999997E+02  0.45594000000E+02  0.51100000000E-03 0.  1.
    9900012    2    1    2    0    0  0.29948566089E+01 -0.14901972593E+02 -0.40652040494E+02  0.47787235610E+02  0.19999838441E+02 0.  0.
         12    1    1    2    0    0 -0.29948566089E+01  0.14901972593E+02  0.40652040494E+02  0.43400764390E+02  0.00000000000E+00 0. -1.
         11    1    3    3    0    0 -0.29184273228E+01 -0.19624556555E+01 -0.28327478906E+01  0.45158510949E+01  0.51100000000E-03 0. -1.
        -11    1    3    3    0    0  0.76790254409E+01 -0.15680038129E+02 -0.28776208754E+02  0.33658597980E+02  0.51100000000E-03 0.  1.
        -12    1    3    3    0    0 -0.17657415092E+01  0.27405211908E+01 -0.90430838493E+01  0.96127865356E+01  0.00000000000E+00 0.  1.
</event>
<event>
 7    1  0.3807360E-011  0.4778727E+02  0.7816164E-02  0.1312668E+00
        -11   -1    0    0    0    0  0.00000000000E+00  0.00000000000E+00  0.45593999997E+02  0.45594000000E+02  0.51100000000E-03 0. -1.
         11   -1    0    0    0    0 -0.00000000000E+00 -0.00000000000E+00 -0.45593999997E+02  0.45594000000E+02  0.51100000000E-03 0.  1.
    9900012    2    1    2    0    0  0.32431970971E+02 -0.17259459677E+02  0.23106317328E+02  0.47787267404E+02  0.19999983403E+02 0.  0.
        -12    1    1    2    0    0 -0.32431970971E+02  0.17259459677E+02 -0.23106317328E+02  0.43400732596E+02  0.00000000000E+00 0.  1.
         11    1    3    3    0    0  0.15810121445E+02  0.42245322901E+00  0.85587750323E+01  0.17983076410E+02  0.51100000000E-03 0. -1.
        -11    1    3    3    0    0  0.68732419678E+01 -0.66694448812E+01  0.69863906294E+00  0.96026583284E+01  0.51100000000E-03 0.  1.
         12    1    3    3    0    0  0.97486075577E+01 -0.11012468025E+02  0.13848903233E+02  0.20201532666E+02  0.00000000000E+00 0. -1.
</event>
<event>
 7    1  0.3807360E-011  0.4778727E+02  0.7816164E-02  0.1312668E+00
        -11   -1    0    0    0    0  0.00000000000E+00  0.00000000000E+00  0.45593999997E+02  0.45594000000E+02  0.51100000000E-03 0.  1.
         11   -1    0    0    0    0 -0.00000000000E+00 -0.00000000000E+00 -0.45593999997E+02  0.45594000000E+02  0.51100000000E-03 0. -1.
    9900012    2    1    2    0    0 -0.34205107865E+02  0.20819194895E+02 -0.16739032577E+02  0.47787268535E+02  0.19999988557E+02 0.  0.
         12    1    1    2    0    0  0.34205107865E+02 -0.20819194895E+02  0.16739032577E+02  0.43400731465E+02  0.00000000000E+00 0. -1.
         11    1    3    3    0    0 -0.61363199745E+01 -0.26477866417E+01 -0.61240647401E+01  0.90647319944E+01  0.51100000000E-03 0. -1.
        -11    1    3    3    0    0 -0.13029719597E+02  0.10221068993E+02 -0.12663996285E+01  0.16608660765E+02  0.51100000000E-03 0.  1.
        -12    1    3    3    0    0 -0.15039068294E+02  0.13245912544E+02 -0.93485682084E+01  0.22113875775E+02  0.00000000000E+00 0.  1.
</event>
<event>
 7    1  0.3807360E-011  0.4778727E+02  0.7816164E-02  0.1312668E+00
        -11   -1    0    0    0    0  0.00000000000E+00  0.00000000000E+00  0.45593999997E+02  0.45594000000E+02  0.51100000000E-03 0. -1.
         11   -1    0    0    0    0 -0.00000000000E+00 -0.00000000000E+00 -0.45593999997E+02  0.45594000000E+02  0.51100000000E-03 0.  1.
    9900012    2    1    2    0    0  0.62980277774E+01  0.67871952656E+01  0.42401556555E+02  0.47787272221E+02  0.20000005364E+02 0.  0.
        -12    1    1    2    0    0 -0.62980277774E+01 -0.67871952656E+01 -0.42401556555E+02  0.43400727779E+02  0.00000000000E+00 0.  1.
         11    1    3    3    0    0  0.74329092950E+01  0.32057758736E+01  0.13907961309E+02  0.16092126260E+02  0.51100000000E-03 0. -1.
        -11    1    3    3    0    0 -0.82743235464E+00  0.31462507305E+01  0.29959395429E+02  0.30135509166E+02  0.51100000000E-03 0.  1.
        -12    1    3    3    0    0 -0.30744916294E+00  0.43516866149E+00 -0.14658001836E+01  0.15596367942E+01  0.00000000000E+00 0.  1.
</event>
<event>
 7    1  0.3807360E-011  0.4778727E+02  0.7816164E-02  0.1312668E+00
        -11   -1    0    0    0    0  0.00000000000E+00  0.00000000000E+00  0.45593999997E+02  0.45594000000E+02  0.51100000000E-03 0. -1.
         11   -1    0    0    0    0 -0.00000000000E+00 -0.00000000000E+00 -0.45593999997E+02  0.45594000000E+02  0.51100000000E-03 0.  1.
    9900012    2    1    2    0    0  0.38460884217E+02  0.12209569126E+02  0.15978423952E+02  0.47787271608E+02  0.20000002569E+02 0.  0.
        -12    1    1    2    0    0 -0.38460884217E+02 -0.12209569126E+02 -0.15978423952E+02  0.43400728392E+02  0.00000000000E+00 0.  1.
         11    1    3    3    0    0  0.63069048000E+01  0.60117901498E+01  0.44904732517E+00  0.87246955662E+01  0.51100000000E-03 0.  1.
        -11    1    3    3    0    0  0.19857498812E+02  0.10724010426E+02  0.11647259996E+02  0.25396521895E+02  0.51100000000E-03 0. -1.
        -12    1    3    3    0    0  0.12296480605E+02 -0.45262314504E+01  0.38821166309E+01  0.13666054147E+02  0.00000000000E+00 0.  1.
</event>
<event>
 7    1  0.3807360E-011  0.4778734E+02  0.7816164E-02  0.1312667E+00
        -11   -1    0    0    0    0  0.00000000000E+00  0.00000000000E+00  0.45593999997E+02  0.45594000000E+02  0.51100000000E-03 0. -1.
         11   -1    0    0    0    0 -0.00000000000E+00 -0.00000000000E+00 -0.45593999997E+02  0.45594000000E+02  0.51100000000E-03 0.  1.
    9900012    2    1    2    0    0  0.69043986496E+01 -0.14209852377E+02 -0.40423100969E+02  0.47787335060E+02  0.20000291872E+02 0.  0.
         12    1    1    2    0    0 -0.69043986496E+01  0.14209852377E+02  0.40423100969E+02  0.43400664940E+02  0.00000000000E+00 0. -1.
         11    1    3    3    0    0 -0.16563963266E+01  0.11432922314E+01  0.43299366416E+00  0.20587009719E+01  0.51100000000E-03 0. -1.
        -11    1    3    3    0    0  0.71389420751E+00 -0.10197956141E+02 -0.14430150573E+02  0.17684377292E+02  0.51100000000E-03 0.  1.
        -12    1    3    3    0    0  0.78469007687E+01 -0.51551884668E+01 -0.26425944060E+02  0.28044256796E+02  0.00000000000E+00 0.  1.
</event>
<event>
 7    1  0.3807360E-011  0.4778728E+02  0.7816164E-02  0.1312668E+00
        -11   -1    0    0    0    0  0.00000000000E+00  0.00000000000E+00  0.45593999997E+02  0.45594000000E+02  0.51100000000E-03 0. -1.
         11   -1    0    0    0    0 -0.00000000000E+00 -0.00000000000E+00 -0.45593999997E+02  0.45594000000E+02  0.51100000000E-03 0.  1.
    9900012    2    1    2    0    0 -0.24571741293E+02 -0.31731210283E+01 -0.35634022101E+02  0.47787277675E+02  0.20000030231E+02 0.  0.
         12    1    1    2    0    0  0.24571741293E+02  0.31731210283E+01  0.35634022101E+02  0.43400722325E+02  0.00000000000E+00 0. -1.
         11    1    3    3    0    0 -0.75278149053E+01 -0.16481751366E+01 -0.16262356145E+02  0.17995796903E+02  0.51100000000E-03 0. -1.
        -11    1    3    3    0    0 -0.11434112223E+01 -0.41794250419E+01 -0.10572140264E+02  0.11425634903E+02  0.51100000000E-03 0.  1.
         12    1    3    3    0    0 -0.15900515165E+02  0.26544791502E+01 -0.87995256918E+01  0.18365845869E+02  0.00000000000E+00 0. -1.
</event>
<event>
 7    1  0.3807360E-011  0.4778727E+02  0.7816164E-02  0.1312668E+00
        -11   -1    0    0    0    0  0.00000000000E+00  0.00000000000E+00  0.45593999997E+02  0.45594000000E+02  0.51100000000E-03 0.  1.
         11   -1    0    0    0    0 -0.00000000000E+00 -0.00000000000E+00 -0.45593999997E+02  0.45594000000E+02  0.51100000000E-03 0. -1.
    9900012    2    1    2    0    0  0.38796265848E+02 -0.54655398629E+01  0.18670857042E+02  0.47787271061E+02  0.20000000074E+02 0.  0.
        -12    1    1    2    0    0 -0.38796265848E+02  0.54655398629E+01 -0.18670857042E+02  0.43400728939E+02  0.00000000000E+00 0.  1.
         11    1    3    3    0    0  0.50852402522E+01 -0.98348468541E+00 -0.31585109264E+01  0.60665560315E+01  0.51100000000E-03 0.  1.
        -11    1    3    3    0    0  0.31103570322E+02 -0.98647779795E+00  0.18226413251E+02  0.36063934414E+02  0.51100000000E-03 0. -1.
         12    1    3    3    0    0  0.26074552746E+01 -0.34955773795E+01  0.36029547181E+01  0.56567806150E+01  0.00000000000E+00 0. -1.
</event>
<event>
 7    1  0.3807360E-011  0.4778728E+02  0.7816164E-02  0.1312668E+00
        -11   -1    0    0    0    0  0.00000000000E+00  0.00000000000E+00  0.45593999997E+02  0.45594000000E+02  0.51100000000E-03 0. -1.
         11   -1    0    0    0    0 -0.00000000000E+00 -0.00000000000E+00 -0.45593999997E+02  0.45594000000E+02  0.51100000000E-03 0.  1.
    9900012    2    1    2    0    0 -0.31575192960E+01  0.16897750648E+02 -0.39851201443E+02  0.47787283859E+02  0.20000058427E+02 0.  0.
         12    1    1    2    0    0  0.31575192960E+01 -0.16897750648E+02  0.39851201443E+02  0.43400716141E+02  0.00000000000E+00 0. -1.
         11    1    3    3    0    0 -0.10276892044E+01  0.18146303947E+00  0.20516301850E+01  0.23017950848E+01  0.51100000000E-03 0. -1.
        -11    1    3    3    0    0  0.14748346740E+01  0.32429753514E+01 -0.61319714783E+01  0.70917628920E+01  0.51100000000E-03 0.  1.
         12    1    3    3    0    0 -0.36046647656E+01  0.13473312257E+02 -0.35770860150E+02  0.38393725882E+02  0.00000000000E+00 0. -1.
</event>
<event>
 7    1  0.3807360E-011  0.4778727E+02  0.7816164E-02  0.1312668E+00
        -11   -1    0    0    0    0  0.00000000000E+00  0.00000000000E+00  0.45593999997E+02  0.45594000000E+02  0.51100000000E-03 0. -1.
         11   -1    0    0    0    0 -0.00000000000E+00 -0.00000000000E+00 -0.45593999997E+02  0.45594000000E+02  0.51100000000E-03 0.  1.
    9900012    2    1    2    0    0 -0.22452954774E+01 -0.10938039080E+01 -0.43328808623E+02  0.47787269414E+02  0.19999992565E+02 0.  0.
         12    1    1    2    0    0  0.22452954774E+01  0.10938039080E+01  0.43328808623E+02  0.43400730586E+02  0.00000000000E+00 0. -1.
         11    1    3    3    0    0  0.57783829600E+01  0.27705220758E+01 -0.14082283260E+02  0.15471787365E+02  0.51100000000E-03 0. -1.
        -11    1    3    3    0    0 -0.18913850654E+01 -0.28439861596E+01 -0.12499665310E+01  0.36370333146E+01  0.51100000000E-03 0.  1.
        -12    1    3    3    0    0 -0.61322933720E+01 -0.10203398241E+01 -0.27996558832E+02  0.28678448734E+02  0.00000000000E+00 0.  1.
</event>
<event>
 7    1  0.3807360E-011  0.4778727E+02  0.7816164E-02  0.1312668E+00
        -11   -1    0    0    0    0  0.00000000000E+00  0.00000000000E+00  0.45593999997E+02  0.45594000000E+02  0.51100000000E-03 0. -1.
         11   -1    0    0    0    0 -0.00000000000E+00 -0.00000000000E+00 -0.45593999997E+02  0.45594000000E+02  0.51100000000E-03 0.  1.
    9900012    2    1    2    0    0 -0.46130889554E+01 -0.15409445809E+02 -0.40309943585E+02  0.47787272337E+02  0.20000005893E+02 0.  0.
         12    1    1    2    0    0  0.46130889554E+01  0.15409445809E+02  0.40309943585E+02  0.43400727663E+02  0.00000000000E+00 0. -1.
         11    1    3    3    0    0 -0.57991897767E+01 -0.79322714584E+01 -0.48614629809E+01  0.10962908151E+02  0.51100000000E-03 0. -1.
        -11    1    3    3    0    0 -0.26978399089E+01 -0.34088885902E+01 -0.15398788312E+02  0.16000673215E+02  0.51100000000E-03 0.  1.
         12    1    3    3    0    0  0.38839407303E+01 -0.40682857601E+01 -0.20049692292E+02  0.20823690970E+02  0.00000000000E+00 0. -1.
</event>
<event>
 7    1  0.3807360E-011  0.4778727E+02  0.7816164E-02  0.1312668E+00
        -11   -1    0    0    0    0  0.00000000000E+00  0.00000000000E+00  0.45593999997E+02  0.45594000000E+02  0.51100000000E-03 0. -1.
         11   -1    0    0    0    0 -0.00000000000E+00 -0.00000000000E+00 -0.45593999997E+02  0.45594000000E+02  0.51100000000E-03 0.  1.
    9900012    2    1    2    0    0  0.30831887666E+02  0.22606086460E+02  0.20542218602E+02  0.47787272043E+02  0.20000004554E+02 0.  0.
        -12    1    1    2    0    0 -0.30831887666E+02 -0.22606086460E+02 -0.20542218602E+02  0.43400727957E+02  0.00000000000E+00 0.  1.
         11    1    3    3    0    0  0.16156297989E+02  0.10291593251E+02  0.15371582956E+02  0.24560708849E+02  0.51100000000E-03 0. -1.
        -11    1    3    3    0    0  0.60219753469E+01 -0.45358352236E+00  0.49374060681E+01  0.78005066523E+01  0.51100000000E-03 0.  1.
        -12    1    3    3    0    0  0.86536143308E+01  0.12768076731E+02  0.23322957765E+00  0.15426056542E+02  0.00000000000E+00 0.  1.
</event>
<event>
 7    1  0.3807360E-011  0.4778727E+02  0.7816164E-02  0.1312668E+00
        -11   -1    0    0    0    0  0.00000000000E+00  0.00000000000E+00  0.45593999997E+02  0.45594000000E+02  0.51100000000E-03 0. -1.
         11   -1    0    0    0    0 -0.00000000000E+00 -0.00000000000E+00 -0.45593999997E+02  0.45594000000E+02  0.51100000000E-03 0.  1.
    9900012    2    1    2    0    0  0.31828491252E+02  0.24112287058E+02 -0.17004933197E+02  0.47787274250E+02  0.20000014617E+02 0.  0.
         12    1    1    2    0    0 -0.31828491252E+02 -0.24112287058E+02  0.17004933197E+02  0.43400725750E+02  0.00000000000E+00 0. -1.
         11    1    3    3    0    0  0.85240628958E+01 -0.50231439033E+00 -0.61957002021E+01  0.10549818446E+02  0.51100000000E-03 0. -1.
        -11    1    3    3    0    0  0.21405277229E+01  0.75254649541E+00 -0.40373171581E+01  0.46312109924E+01  0.51100000000E-03 0.  1.
        -12    1    3    3    0    0  0.21163900633E+02  0.23862054953E+02 -0.67719158372E+01  0.32606244811E+02  0.00000000000E+00 0.  1.
</event>
<event>
 7    1  0.3807360E-011  0.4778727E+02  0.7816164E-02  0.1312668E+00
        -11   -1    0    0    0    0  0.00000000000E+00  0.00000000000E+00  0.45593999997E+02  0.45594000000E+02  0.51100000000E-03 0. -1.
         11   -1    0    0    0    0 -0.00000000000E+00 -0.00000000000E+00 -0.45593999997E+02  0.45594000000E+02  0.51100000000E-03 0.  1.
    9900012    2    1    2    0    0  0.32536747444E+01  0.23389717563E+01 -0.43215346018E+02  0.47787270517E+02  0.19999997594E+02 0.  0.
         12    1    1    2    0    0 -0.32536747444E+01 -0.23389717563E+01  0.43215346018E+02  0.43400729483E+02  0.00000000000E+00 0. -1.
         11    1    3    3    0    0  0.50592397776E+01  0.86645442006E+00 -0.12919636450E+02  0.13901929961E+02  0.51100000000E-03 0. -1.
        -11    1    3    3    0    0  0.48181284787E+01 -0.26905952648E+01 -0.51409214382E+01  0.75420645987E+01  0.51100000000E-03 0.  1.
        -12    1    3    3    0    0 -0.66236935119E+01  0.41631126010E+01 -0.25154788130E+02  0.26343275957E+02  0.00000000000E+00 0.  1.
</event>
<event>
 7    1  0.3807360E-011  0.4778726E+02  0.7816164E-02  0.1312668E+00
        -11   -1    0    0    0    0  0.00000000000E+00  0.00000000000E+00  0.45593999997E+02  0.45594000000E+02  0.51100000000E-03 0. -1.
         11   -1    0    0    0    0 -0.00000000000E+00 -0.00000000000E+00 -0.45593999997E+02  0.45594000000E+02  0.51100000000E-03 0.  1.
    9900012    2    1    2    0    0 -0.26972115716E+02 -0.29883664665E+01  0.33870322508E+02  0.47787261445E+02  0.19999956232E+02 0.  0.
        -12    1    1    2    0    0  0.26972115716E+02  0.29883664665E+01 -0.33870322508E+02  0.43400738555E+02  0.00000000000E+00 0.  1.
         11    1    3    3    0    0 -0.10792745786E+02  0.40949211039E+01  0.16704046267E+02  0.20304602985E+02  0.51100000000E-03 0. -1.
        -11    1    3    3    0    0 -0.12307074807E+02 -0.17668540824E+01  0.45220091903E+01  0.13230057862E+02  0.51100000000E-03 0.  1.
         12    1    3    3    0    0 -0.38722951234E+01 -0.53164334880E+01  0.12644267051E+02  0.14252600598E+02  0.00000000000E+00 0. -1.
</event>
<event>
 7    1  0.3807360E-011  0.4778727E+02  0.7816164E-02  0.1312668E+00
        -11   -1    0    0    0    0  0.00000000000E+00  0.00000000000E+00  0.45593999997E+02  0.45594000000E+02  0.51100000000E-03 0. -1.
         11   -1    0    0    0    0 -0.00000000000E+00 -0.00000000000E+00 -0.45593999997E+02  0.45594000000E+02  0.51100000000E-03 0.  1.
    9900012    2    1    2    0    0  0.22409306215E+02 -0.21938333260E+02 -0.30002601496E+02  0.47787267658E+02  0.19999984561E+02 0.  0.
         12    1    1    2    0    0 -0.22409306215E+02  0.21938333260E+02  0.30002601496E+02  0.43400732342E+02  0.00000000000E+00 0. -1.
         11    1    3    3    0    0  0.10016371171E+02 -0.13790511495E+02 -0.38612300856E+01  0.17476126480E+02  0.51100000000E-03 0. -1.
        -11    1    3    3    0    0  0.62728981242E+01 -0.27728464505E+01 -0.88420444209E+01  0.11190159879E+02  0.51100000000E-03 0.  1.
        -12    1    3    3    0    0  0.61200369200E+01 -0.53749753144E+01 -0.17299326990E+02  0.19120981299E+02  0.00000000000E+00 0.  1.
</event>
<event>
 7    1  0.3807360E-011  0.4778727E+02  0.7816164E-02  0.1312668E+00
        -11   -1    0    0    0    0  0.00000000000E+00  0.00000000000E+00  0.45593999997E+02  0.45594000000E+02  0.51100000000E-03 0.  1.
         11   -1    0    0    0    0 -0.00000000000E+00 -0.00000000000E+00 -0.45593999997E+02  0.45594000000E+02  0.51100000000E-03 0. -1.
    9900012    2    1    2    0    0 -0.14198599902E+02 -0.25804865734E+02  0.31876821186E+02  0.47787273467E+02  0.20000011044E+02 0.  0.
        -12    1    1    2    0    0  0.14198599902E+02  0.25804865734E+02 -0.31876821186E+02  0.43400726533E+02  0.00000000000E+00 0.  1.
         11    1    3    3    0    0  0.31990960090E+01 -0.66814457191E+01  0.68177343717E+01  0.10067642941E+02  0.51100000000E-03 0.  1.
        -11    1    3    3    0    0 -0.10880361281E+01 -0.83871193950E+01  0.55394967091E+01  0.10110075094E+02  0.51100000000E-03 0. -1.
        -12    1    3    3    0    0 -0.16309659783E+02 -0.10736300619E+02  0.19519590105E+02  0.27609555431E+02  0.00000000000E+00 0.  1.
</event>
<event>
 7    1  0.3807360E-011  0.4778727E+02  0.7816164E-02  0.1312668E+00
        -11   -1    0    0    0    0  0.00000000000E+00  0.00000000000E+00  0.45593999997E+02  0.45594000000E+02  0.51100000000E-03 0. -1.
         11   -1    0    0    0    0 -0.00000000000E+00 -0.00000000000E+00 -0.45593999997E+02  0.45594000000E+02  0.51100000000E-03 0.  1.
    9900012    2    1    2    0    0  0.23494942818E+01 -0.42979768781E+02  0.55536092187E+01  0.47787271628E+02  0.20000002659E+02 0.  0.
        -12    1    1    2    0    0 -0.23494942818E+01  0.42979768781E+02 -0.55536092187E+01  0.43400728372E+02  0.00000000000E+00 0.  1.
         11    1    3    3    0    0 -0.26952523600E+01 -0.13825545534E+02  0.83402863891E+01  0.16369803661E+02  0.51100000000E-03 0. -1.
        -11    1    3    3    0    0 -0.11718010311E+01 -0.19099349940E+02 -0.39508236475E+01  0.19538866230E+02  0.51100000000E-03 0.  1.
        -12    1    3    3    0    0  0.62165476729E+01 -0.10054873307E+02  0.11641464771E+01  0.11878601737E+02  0.00000000000E+00 0.  1.
</event>
<event>
 7    1  0.3807360E-011  0.4778727E+02  0.7816164E-02  0.1312668E+00
        -11   -1    0    0    0    0  0.00000000000E+00  0.00000000000E+00  0.45593999997E+02  0.45594000000E+02  0.51100000000E-03 0.  1.
         11   -1    0    0    0    0 -0.00000000000E+00 -0.00000000000E+00 -0.45593999997E+02  0.45594000000E+02  0.51100000000E-03 0. -1.
    9900012    2    1    2    0    0  0.14576083400E+02  0.40429045349E+02  0.60542139797E+01  0.47787269338E+02  0.19999992219E+02 0.  0.
         12    1    1    2    0    0 -0.14576083400E+02 -0.40429045349E+02 -0.60542139797E+01  0.43400730662E+02  0.00000000000E+00 0. -1.
         11    1    3    3    0    0  0.99339150363E+01  0.31064297322E+02 -0.27573909478E+01  0.32730359624E+02  0.51100000000E-03 0.  1.
        -11    1    3    3    0    0 -0.90858619835E+00 -0.34953773599E+00  0.10972690628E+01  0.14668691714E+01  0.51100000000E-03 0. -1.
        -12    1    3    3    0    0  0.55507545625E+01  0.97142857630E+01  0.77143358647E+01  0.13590040542E+02  0.00000000000E+00 0.  1.
</event>
<event>
 7    1  0.3807360E-011  0.4778727E+02  0.7816164E-02  0.1312668E+00
        -11   -1    0    0    0    0  0.00000000000E+00  0.00000000000E+00  0.45593999997E+02  0.45594000000E+02  0.51100000000E-03 0. -1.
         11   -1    0    0    0    0 -0.00000000000E+00 -0.00000000000E+00 -0.45593999997E+02  0.45594000000E+02  0.51100000000E-03 0.  1.
    9900012    2    1    2    0    0 -0.54842722521E+01 -0.27026550149E+02  0.33512855329E+02  0.47787272732E+02  0.20000007694E+02 0.  0.
        -12    1    1    2    0    0  0.54842722521E+01  0.27026550149E+02 -0.33512855329E+02  0.43400727268E+02  0.00000000000E+00 0.  1.
         11    1    3    3    0    0 -0.54806774915E+01 -0.19486476386E+02  0.15136603531E+02  0.25276023311E+02  0.51100000000E-03 0. -1.
        -11    1    3    3    0    0 -0.71593362702E+00 -0.26534189745E+01 -0.67531854832E+00  0.28300615921E+01  0.51100000000E-03 0.  1.
         12    1    3    3    0    0  0.71233886647E+00 -0.48866547888E+01  0.19051570347E+02  0.19681187829E+02  0.00000000000E+00 0. -1.
</event>
<event>
 7    1  0.3807360E-011  0.4778727E+02  0.7816164E-02  0.1312668E+00
        -11   -1    0    0    0    0  0.00000000000E+00  0.00000000000E+00  0.45593999997E+02  0.45594000000E+02  0.51100000000E-03 0. -1.
         11   -1    0    0    0    0 -0.00000000000E+00 -0.00000000000E+00 -0.45593999997E+02  0.45594000000E+02  0.51100000000E-03 0.  1.
    9900012    2    1    2    0    0  0.28960886666E+02 -0.28573885217E+01 -0.32198224113E+02  0.47787271185E+02  0.20000000641E+02 0.  0.
         12    1    1    2    0    0 -0.28960886666E+02  0.28573885217E+01  0.32198224113E+02  0.43400728815E+02  0.00000000000E+00 0. -1.
         11    1    3    3    0    0  0.56157578429E+01 -0.42043541529E+01  0.70084304120E+00  0.70501426385E+01  0.51100000000E-03 0. -1.
        -11    1    3    3    0    0  0.12532382552E+02 -0.13523885915E+01 -0.14373420769E+02  0.19117656556E+02  0.51100000000E-03 0.  1.
         12    1    3    3    0    0  0.10812746271E+02  0.26993542228E+01 -0.18525646386E+02  0.21619471990E+02  0.00000000000E+00 0. -1.
</event>
<event>
 7    1  0.3807360E-011  0.4778727E+02  0.7816164E-02  0.1312668E+00
        -11   -1    0    0    0    0  0.00000000000E+00  0.00000000000E+00  0.45593999997E+02  0.45594000000E+02  0.51100000000E-03 0. -1.
         11   -1    0    0    0    0 -0.00000000000E+00 -0.00000000000E+00 -0.45593999997E+02  0.45594000000E+02  0.51100000000E-03 0.  1.
    9900012    2    1    2    0    0 -0.27106109302E+02 -0.14411228379E+02  0.30678958832E+02  0.47787272127E+02  0.20000004936E+02 0.  0.
        -12    1    1    2    0    0  0.27106109302E+02  0.14411228379E+02 -0.30678958832E+02  0.43400727873E+02  0.00000000000E+00 0.  1.
         11    1    3    3    0    0 -0.38626761949E+01 -0.28198859839E+01 -0.15043157433E+00  0.47848358664E+01  0.51100000000E-03 0.  1.
        -11    1    3    3    0    0 -0.99363942828E+01 -0.10808202171E+02  0.23717383428E+02  0.27893788600E+02  0.51100000000E-03 0. -1.
        -12    1    3    3    0    0 -0.13307038824E+02 -0.78314022429E+00  0.71120069780E+01  0.15108647661E+02  0.00000000000E+00 0.  1.
</event>
<event>
 7    1  0.3807360E-011  0.4778727E+02  0.7816164E-02  0.1312668E+00
        -11   -1    0    0    0    0  0.00000000000E+00  0.00000000000E+00  0.45593999997E+02  0.45594000000E+02  0.51100000000E-03 0. -1.
         11   -1    0    0    0    0 -0.00000000000E+00 -0.00000000000E+00 -0.45593999997E+02  0.45594000000E+02  0.51100000000E-03 0.  1.
    9900012    2    1    2    0    0  0.15988482963E+02 -0.52704639047E+01  0.40002669918E+02  0.47787274456E+02  0.20000015553E+02 0.  0.
        -12    1    1    2    0    0 -0.15988482963E+02  0.52704639047E+01 -0.40002669918E+02  0.43400725544E+02  0.00000000000E+00 0.  1.
         11    1    3    3    0    0  0.60556154810E+01 -0.11675722765E+02  0.15336099456E+02  0.20203685993E+02  0.51100000000E-03 0. -1.
        -11    1    3    3    0    0  0.15849213093E+01  0.27791100134E+01  0.74900760670E+01  0.81447325170E+01  0.51100000000E-03 0.  1.
         12    1    3    3    0    0  0.83479461725E+01  0.36261488470E+01  0.17176494395E+02  0.19438855945E+02  0.00000000000E+00 0. -1.
</event>
<event>
 7    1  0.3807360E-011  0.4778727E+02  0.7816164E-02  0.1312668E+00
        -11   -1    0    0    0    0  0.00000000000E+00  0.00000000000E+00  0.45593999997E+02  0.45594000000E+02  0.51100000000E-03 0. -1.
         11   -1    0    0    0    0 -0.00000000000E+00 -0.00000000000E+00 -0.45593999997E+02  0.45594000000E+02  0.51100000000E-03 0.  1.
    9900012    2    1    2    0    0 -0.20367615576E+02  0.18196463779E+02 -0.33729395601E+02  0.47787272058E+02  0.20000004619E+02 0.  0.
         12    1    1    2    0    0  0.20367615576E+02 -0.18196463779E+02  0.33729395601E+02  0.43400727942E+02  0.00000000000E+00 0. -1.
         11    1    3    3    0    0 -0.19583412877E+01  0.25315251599E+01 -0.88287510842E+01  0.93909832394E+01  0.51100000000E-03 0. -1.
        -11    1    3    3    0    0 -0.19223662777E+02  0.16166884722E+02 -0.16752349939E+02  0.30192028764E+02  0.51100000000E-03 0.  1.
         12    1    3    3    0    0  0.81438848874E+00 -0.50194610243E+00 -0.81482945782E+01  0.82042600539E+01  0.00000000000E+00 0. -1.
</event>
<event>
 7    1  0.3807360E-011  0.4778727E+02  0.7816164E-02  0.1312668E+00
        -11   -1    0    0    0    0  0.00000000000E+00  0.00000000000E+00  0.45593999997E+02  0.45594000000E+02  0.51100000000E-03 0. -1.
         11   -1    0    0    0    0 -0.00000000000E+00 -0.00000000000E+00 -0.45593999997E+02  0.45594000000E+02  0.51100000000E-03 0.  1.
    9900012    2    1    2    0    0  0.86852575709E+01  0.27514523419E+02 -0.32421296454E+02  0.47787272335E+02  0.20000005886E+02 0.  0.
         12    1    1    2    0    0 -0.86852575709E+01 -0.27514523419E+02  0.32421296454E+02  0.43400727665E+02  0.00000000000E+00 0. -1.
         11    1    3    3    0    0 -0.21599960129E+01  0.81935326972E+01 -0.52019172338E+00  0.84894146162E+01  0.51100000000E-03 0. -1.
        -11    1    3    3    0    0  0.13962973636E+01  0.31921461989E+01 -0.95187523197E+01  0.10136374582E+02  0.51100000000E-03 0.  1.
        -12    1    3    3    0    0  0.94489562202E+01  0.16128844523E+02 -0.22382352411E+02  0.29161483137E+02  0.00000000000E+00 0.  1.
</event>
<event>
 7    1  0.3807360E-011  0.4778727E+02  0.7816164E-02  0.1312668E+00
        -11   -1    0    0    0    0  0.00000000000E+00  0.00000000000E+00  0.45593999997E+02  0.45594000000E+02  0.51100000000E-03 0. -1.
         11   -1    0    0    0    0 -0.00000000000E+00 -0.00000000000E+00 -0.45593999997E+02  0.45594000000E+02  0.51100000000E-03 0.  1.
    9900012    2    1    2    0    0  0.96183395358E+01 -0.20700730259E+02 -0.36913287190E+02  0.47787268901E+02  0.19999990229E+02 0.  0.
         12    1    1    2    0    0 -0.96183395358E+01  0.20700730259E+02  0.36913287190E+02  0.43400731099E+02  0.00000000000E+00 0. -1.
         11    1    3    3    0    0 -0.84111192686E+00 -0.90739236249E+01 -0.64501318293E+01  0.11164576127E+02  0.51100000000E-03 0. -1.
        -11    1    3    3    0    0  0.11252553662E+02 -0.13040420541E+02 -0.21670187629E+02  0.27681574448E+02  0.51100000000E-03 0.  1.
         12    1    3    3    0    0 -0.79310219911E+00  0.14136139066E+01 -0.87929677326E+01  0.89411183261E+01  0.00000000000E+00 0. -1.
</event>
<event>
 7    1  0.3807360E-011  0.4778727E+02  0.7816164E-02  0.1312668E+00
        -11   -1    0    0    0    0  0.00000000000E+00  0.00000000000E+00  0.45593999997E+02  0.45594000000E+02  0.51100000000E-03 0. -1.
         11   -1    0    0    0    0 -0.00000000000E+00 -0.00000000000E+00 -0.45593999997E+02  0.45594000000E+02  0.51100000000E-03 0.  1.
    9900012    2    1    2    0    0 -0.92737864186E+01  0.88852066042E+01 -0.41456881366E+02  0.47787273928E+02  0.20000013148E+02 0.  0.
         12    1    1    2    0    0  0.92737864186E+01 -0.88852066042E+01  0.41456881366E+02  0.43400726072E+02  0.00000000000E+00 0. -1.
         11    1    3    3    0    0 -0.67806566747E+01  0.21857159903E+01 -0.11506222483E+02  0.13533211571E+02  0.51100000000E-03 0.  1.
        -11    1    3    3    0    0 -0.82507293445E+01  0.72303065452E+00 -0.16165974330E+02  0.18164141442E+02  0.51100000000E-03 0. -1.
         12    1    3    3    0    0  0.57575996006E+01  0.59764599594E+01 -0.13784684554E+02  0.16089920915E+02  0.00000000000E+00 0. -1.
</event>
<event>
 7    1  0.3807360E-011  0.4778727E+02  0.7816164E-02  0.1312668E+00
        -11   -1    0    0    0    0  0.00000000000E+00  0.00000000000E+00  0.45593999997E+02  0.45594000000E+02  0.51100000000E-03 0. -1.
         11   -1    0    0    0    0 -0.00000000000E+00 -0.00000000000E+00 -0.45593999997E+02  0.45594000000E+02  0.51100000000E-03 0.  1.
    9900012    2    1    2    0    0 -0.71181292202E+01  0.32582924458E+02  0.27772450287E+02  0.47787265850E+02  0.19999976315E+02 0.  0.
        -12    1    1    2    0    0  0.71181292202E+01 -0.32582924458E+02 -0.27772450287E+02  0.43400734150E+02  0.00000000000E+00 0.  1.
         11    1    3    3    0    0 -0.28464791592E+01  0.17242116352E+02  0.25414674594E+02  0.30843130595E+02  0.51100000000E-03 0. -1.
        -11    1    3    3    0    0  0.33499806758E+00  0.77594471947E+01  0.21971620962E+01  0.80714785518E+01  0.51100000000E-03 0.  1.
         12    1    3    3    0    0 -0.46066481286E+01  0.75813609111E+01  0.16061359666E+00  0.88726567031E+01  0.00000000000E+00 0. -1.
</event>
<event>
 7    1  0.3807360E-011  0.4778727E+02  0.7816164E-02  0.1312668E+00
        -11   -1    0    0    0    0  0.00000000000E+00  0.00000000000E+00  0.45593999997E+02  0.45594000000E+02  0.51100000000E-03 0. -1.
         11   -1    0    0    0    0 -0.00000000000E+00 -0.00000000000E+00 -0.45593999997E+02  0.45594000000E+02  0.51100000000E-03 0.  1.
    9900012    2    1    2    0    0 -0.50720423182E+01 -0.55804194924E+01  0.42740572457E+02  0.47787271562E+02  0.20000002360E+02 0.  0.
        -12    1    1    2    0    0  0.50720423182E+01  0.55804194924E+01 -0.42740572457E+02  0.43400728438E+02  0.00000000000E+00 0.  1.
         11    1    3    3    0    0 -0.10653199926E+02 -0.69650390573E+01  0.25745329188E+02  0.28719756493E+02  0.51100000000E-03 0. -1.
        -11    1    3    3    0    0  0.27788314753E+01 -0.19260605870E+01  0.33911535948E+01  0.47886884131E+01  0.51100000000E-03 0.  1.
        -12    1    3    3    0    0  0.28023261326E+01  0.33106801519E+01  0.13604089674E+02  0.14278826656E+02  0.00000000000E+00 0.  1.
</event>
<event>
 7    1  0.3807360E-011  0.4778727E+02  0.7816164E-02  0.1312668E+00
        -11   -1    0    0    0    0  0.00000000000E+00  0.00000000000E+00  0.45593999997E+02  0.45594000000E+02  0.51100000000E-03 0. -1.
         11   -1    0    0    0    0 -0.00000000000E+00 -0.00000000000E+00 -0.45593999997E+02  0.45594000000E+02  0.51100000000E-03 0.  1.
    9900012    2    1    2    0    0 -0.17029923759E+02 -0.87048995479E+01 -0.38959335064E+02  0.47787269960E+02  0.19999995057E+02 0.  0.
         12    1    1    2    0    0  0.17029923759E+02  0.87048995479E+01  0.38959335064E+02  0.43400730040E+02  0.00000000000E+00 0. -1.
         11    1    3    3    0    0 -0.62714030815E-01  0.20848004738E+01 -0.18263295653E+02  0.18382010076E+02  0.51100000000E-03 0. -1.
        -11    1    3    3    0    0 -0.53216458410E+01 -0.22205599132E+01 -0.28350113105E+01  0.64255809213E+01  0.51100000000E-03 0.  1.
        -12    1    3    3    0    0 -0.11645563887E+02 -0.85691401086E+01 -0.17861028101E+02  0.22979678963E+02  0.00000000000E+00 0.  1.
</event>
<event>
 7    1  0.3807360E-011  0.4778727E+02  0.7816164E-02  0.1312668E+00
        -11   -1    0    0    0    0  0.00000000000E+00  0.00000000000E+00  0.45593999997E+02  0.45594000000E+02  0.51100000000E-03 0. -1.
         11   -1    0    0    0    0 -0.00000000000E+00 -0.00000000000E+00 -0.45593999997E+02  0.45594000000E+02  0.51100000000E-03 0.  1.
    9900012    2    1    2    0    0  0.91930546457E+01  0.40893774461E+02 -0.11261000138E+02  0.47787272270E+02  0.20000005588E+02 0.  0.
         12    1    1    2    0    0 -0.91930546457E+01 -0.40893774461E+02  0.11261000138E+02  0.43400727730E+02  0.00000000000E+00 0. -1.
         11    1    3    3    0    0  0.75172476742E+00  0.10577447842E+01  0.27762173929E+01  0.30645223817E+01  0.51100000000E-03 0. -1.
        -11    1    3    3    0    0 -0.32544359834E+00  0.24095002735E+02 -0.51883764017E+01  0.24649428397E+02  0.51100000000E-03 0.  1.
        -12    1    3    3    0    0  0.87667734766E+01  0.15741026942E+02 -0.88488411296E+01  0.20073321492E+02  0.00000000000E+00 0.  1.
</event>
<event>
 7    1  0.3807360E-011  0.4778726E+02  0.7816164E-02  0.1312668E+00
        -11   -1    0    0    0    0  0.00000000000E+00  0.00000000000E+00  0.45593999997E+02  0.45594000000E+02  0.51100000000E-03 0. -1.
         11   -1    0    0    0    0 -0.00000000000E+00 -0.00000000000E+00 -0.45593999997E+02  0.45594000000E+02  0.51100000000E-03 0.  1.
    9900012    2    1    2    0    0 -0.76920365834E+01  0.11377915583E+02 -0.41170378201E+02  0.47787257713E+02  0.19999939216E+02 0.  0.
         12    1    1    2    0    0  0.76920365834E+01 -0.11377915583E+02  0.41170378201E+02  0.43400742287E+02  0.00000000000E+00 0. -1.
         11    1    3    3    0    0  0.15024114500E+00 -0.78327937102E+00 -0.32461617468E-01  0.79821863700E+00  0.51100000000E-03 0. -1.
        -11    1    3    3    0    0 -0.15521636014E+01 -0.12425585913E+01 -0.25034541017E+02  0.25113371098E+02  0.51100000000E-03 0.  1.
         12    1    3    3    0    0 -0.62901141270E+01  0.13403753545E+02 -0.16103375567E+02  0.21875667978E+02  0.00000000000E+00 0. -1.
</event>
<event>
 7    1  0.3807360E-011  0.4778727E+02  0.7816164E-02  0.1312668E+00
        -11   -1    0    0    0    0  0.00000000000E+00  0.00000000000E+00  0.45593999997E+02  0.45594000000E+02  0.51100000000E-03 0. -1.
         11   -1    0    0    0    0 -0.00000000000E+00 -0.00000000000E+00 -0.45593999997E+02  0.45594000000E+02  0.51100000000E-03 0.  1.
    9900012    2    1    2    0    0 -0.51580262603E+01  0.23734909924E+02  0.35967657083E+02  0.47787267978E+02  0.19999986018E+02 0.  0.
        -12    1    1    2    0    0  0.51580262603E+01 -0.23734909924E+02 -0.35967657083E+02  0.43400732022E+02  0.00000000000E+00 0.  1.
         11    1    3    3    0    0 -0.10334118518E+01  0.10734378446E+01 -0.13845100620E+01  0.20339806377E+01  0.51100000000E-03 0. -1.
        -11    1    3    3    0    0  0.30984939059E+01  0.13030255706E+02  0.25794920042E+02  0.29064860717E+02  0.51100000000E-03 0.  1.
         12    1    3    3    0    0 -0.72231083144E+01  0.96312163733E+01  0.11557247104E+02  0.16688426623E+02  0.00000000000E+00 0. -1.
</event>
<event>
 7    1  0.3807360E-011  0.4778731E+02  0.7816164E-02  0.1312668E+00
        -11   -1    0    0    0    0  0.00000000000E+00  0.00000000000E+00  0.45593999997E+02  0.45594000000E+02  0.51100000000E-03 0. -1.
         11   -1    0    0    0    0 -0.00000000000E+00 -0.00000000000E+00 -0.45593999997E+02  0.45594000000E+02  0.51100000000E-03 0.  1.
    9900012    2    1    2    0    0  0.75763006666E+01 -0.15844267689E+02  0.39688519284E+02  0.47787312063E+02  0.20000187021E+02 0.  0.
        -12    1    1    2    0    0 -0.75763006666E+01  0.15844267689E+02 -0.39688519284E+02  0.43400687937E+02  0.00000000000E+00 0.  1.
         11    1    3    3    0    0  0.58663325224E+01 -0.28647310342E+01  0.24043953885E+02  0.24914498988E+02  0.51100000000E-03 0. -1.
        -11    1    3    3    0    0  0.28618145820E+01 -0.29973121176E+01 -0.15672659637E+00  0.41470985181E+01  0.51100000000E-03 0.  1.
        -12    1    3    3    0    0 -0.11518464378E+01 -0.99822245372E+01  0.15801291996E+02  0.18725714557E+02  0.00000000000E+00 0.  1.
</event>
<event>
 7    1  0.3807360E-011  0.4778727E+02  0.7816164E-02  0.1312668E+00
        -11   -1    0    0    0    0  0.00000000000E+00  0.00000000000E+00  0.45593999997E+02  0.45594000000E+02  0.51100000000E-03 0. -1.
         11   -1    0    0    0    0 -0.00000000000E+00 -0.00000000000E+00 -0.45593999997E+02  0.45594000000E+02  0.51100000000E-03 0.  1.
    9900012    2    1    2    0    0  0.14306339377E+02 -0.59490882861E+01 -0.40540847003E+02  0.47787271048E+02  0.20000000017E+02 0.  0.
         12    1    1    2    0    0 -0.14306339377E+02  0.59490882861E+01  0.40540847003E+02  0.43400728952E+02  0.00000000000E+00 0. -1.
         11    1    3    3    0    0  0.74662234412E+01  0.45510381729E+01 -0.14357027577E+02  0.16810136289E+02  0.51100000000E-03 0. -1.
        -11    1    3    3    0    0  0.93245653504E+01 -0.87204063486E+01 -0.16750744502E+02  0.21061349612E+02  0.51100000000E-03 0.  1.
        -12    1    3    3    0    0 -0.24844494148E+01 -0.17797201104E+01 -0.94330749238E+01  0.99157851472E+01  0.00000000000E+00 0.  1.
</event>
<event>
 7    1  0.3807360E-011  0.4778727E+02  0.7816164E-02  0.1312668E+00
        -11   -1    0    0    0    0  0.00000000000E+00  0.00000000000E+00  0.45593999997E+02  0.45594000000E+02  0.51100000000E-03 0. -1.
         11   -1    0    0    0    0 -0.00000000000E+00 -0.00000000000E+00 -0.45593999997E+02  0.45594000000E+02  0.51100000000E-03 0.  1.
    9900012    2    1    2    0    0  0.10161828518E+02 -0.30228152052E+01 -0.42085900089E+02  0.47787272392E+02  0.20000006143E+02 0.  0.
         12    1    1    2    0    0 -0.10161828518E+02  0.30228152052E+01  0.42085900089E+02  0.43400727608E+02  0.00000000000E+00 0. -1.
         11    1    3    3    0    0 -0.51542451579E+00 -0.23309367550E+01  0.34377428876E+00  0.24118684894E+01  0.51100000000E-03 0. -1.
        -11    1    3    3    0    0  0.34318095915E+00 -0.48246072506E+01 -0.10470355772E+02  0.11533557931E+02  0.51100000000E-03 0.  1.
        -12    1    3    3    0    0  0.10334072075E+02  0.41327288005E+01 -0.31959318606E+02  0.33841845972E+02  0.00000000000E+00 0.  1.
</event>
<event>
 7    1  0.3807360E-011  0.4778728E+02  0.7816164E-02  0.1312668E+00
        -11   -1    0    0    0    0  0.00000000000E+00  0.00000000000E+00  0.45593999997E+02  0.45594000000E+02  0.51100000000E-03 0. -1.
         11   -1    0    0    0    0 -0.00000000000E+00 -0.00000000000E+00 -0.45593999997E+02  0.45594000000E+02  0.51100000000E-03 0.  1.
    9900012    2    1    2    0    0 -0.18711356179E+02  0.12520955580E+02  0.37104362199E+02  0.47787275664E+02  0.20000021062E+02 0.  0.
        -12    1    1    2    0    0  0.18711356179E+02 -0.12520955580E+02 -0.37104362199E+02  0.43400724336E+02  0.00000000000E+00 0.  1.
         11    1    3    3    0    0  0.51267017699E+00 -0.12568016675E+01  0.34134170929E+01  0.36733904847E+01  0.51100000000E-03 0. -1.
        -11    1    3    3    0    0 -0.50640047653E+01  0.10548966329E+02  0.67531693639E+01  0.13510371260E+02  0.51100000000E-03 0.  1.
         12    1    3    3    0    0 -0.14160021590E+02  0.32287909189E+01  0.26937775743E+02  0.30603513919E+02  0.00000000000E+00 0. -1.
</event>
<event>
 7    1  0.3807360E-011  0.4778727E+02  0.7816164E-02  0.1312668E+00
        -11   -1    0    0    0    0  0.00000000000E+00  0.00000000000E+00  0.45593999997E+02  0.45594000000E+02  0.51100000000E-03 0. -1.
         11   -1    0    0    0    0 -0.00000000000E+00 -0.00000000000E+00 -0.45593999997E+02  0.45594000000E+02  0.51100000000E-03 0.  1.
    9900012    2    1    2    0    0  0.81860347211E+01 -0.34075238281E+02  0.25602538454E+02  0.47787274158E+02  0.20000014194E+02 0.  0.
        -12    1    1    2    0    0 -0.81860347211E+01  0.34075238281E+02 -0.25602538454E+02  0.43400725842E+02  0.00000000000E+00 0.  1.
         11    1    3    3    0    0  0.82787641503E+00 -0.25256038389E+00  0.55476298335E+01  0.56147451534E+01  0.51100000000E-03 0. -1.
        -11    1    3    3    0    0 -0.12135539847E+01 -0.89047808262E+01  0.11229365043E+02  0.14382853485E+02  0.51100000000E-03 0.  1.
        -12    1    3    3    0    0  0.85717122908E+01 -0.24917897071E+02  0.88255435774E+01  0.27789675520E+02  0.00000000000E+00 0.  1.
</event>
<event>
 7    1  0.3807360E-011  0.4778726E+02  0.7816164E-02  0.1312668E+00
        -11   -1    0    0    0    0  0.00000000000E+00  0.00000000000E+00  0.45593999997E+02  0.45594000000E+02  0.51100000000E-03 0. -1.
         11   -1    0    0    0    0 -0.00000000000E+00 -0.00000000000E+00 -0.45593999997E+02  0.45594000000E+02  0.51100000000E-03 0.  1.
    9900012    2    1    2    0    0  0.30863925063E+02  0.16467763424E+02  0.25687642967E+02  0.47787261485E+02  0.19999956414E+02 0.  0.
        -12    1    1    2    0    0 -0.30863925063E+02 -0.16467763424E+02 -0.25687642967E+02  0.43400738515E+02  0.00000000000E+00 0.  1.
         11    1    3    3    0    0  0.37414929745E+01  0.66335548417E+01  0.35541207066E+01  0.84044389327E+01  0.51100000000E-03 0. -1.
        -11    1    3    3    0    0  0.94869600698E+01  0.11071943163E+02  0.12745545033E+02  0.19365930270E+02  0.51100000000E-03 0.  1.
        -12    1    3    3    0    0  0.17635472019E+02 -0.12377345813E+01  0.93879772273E+01  0.20016892282E+02  0.00000000000E+00 0.  1.
</event>
<event>
 7    1  0.3807360E-011  0.4778728E+02  0.7816164E-02  0.1312668E+00
        -11   -1    0    0    0    0  0.00000000000E+00  0.00000000000E+00  0.45593999997E+02  0.45594000000E+02  0.51100000000E-03 0. -1.
         11   -1    0    0    0    0 -0.00000000000E+00 -0.00000000000E+00 -0.45593999997E+02  0.45594000000E+02  0.51100000000E-03 0.  1.
    9900012    2    1    2    0    0  0.37077696115E+01  0.29723994483E+02  0.31406357599E+02  0.47787277642E+02  0.20000030080E+02 0.  0.
        -12    1    1    2    0    0 -0.37077696115E+01 -0.29723994483E+02 -0.31406357599E+02  0.43400722358E+02  0.00000000000E+00 0.  1.
         11    1    3    3    0    0  0.22070192598E+01  0.88263797932E+01  0.86096893229E+01  0.12526079385E+02  0.51100000000E-03 0. -1.
        -11    1    3    3    0    0 -0.39661996829E+01  0.23067267474E+01 -0.87346079907E+00  0.46706169014E+01  0.51100000000E-03 0.  1.
         12    1    3    3    0    0  0.54669500345E+01  0.18590887943E+02  0.23670129076E+02  0.30590581355E+02  0.00000000000E+00 0. -1.
</event>
<event>
 7    1  0.5451650E-011  0.4778727E+02  0.7816164E-02  0.1312668E+00
        -11   -1    0    0    0    0  0.00000000000E+00  0.00000000000E+00  0.45593999997E+02  0.45594000000E+02  0.51100000000E-03 0. -1.
         11   -1    0    0    0    0 -0.00000000000E+00 -0.00000000000E+00 -0.45593999997E+02  0.45594000000E+02  0.51100000000E-03 0.  1.
    9900012    2    1    2    0    0 -0.92369730413E+01  0.29733042789E+01 -0.42302020889E+02  0.47787272119E+02  0.20000004898E+02 0.  0.
         12    1    1    2    0    0  0.92369730413E+01 -0.29733042789E+01  0.42302020889E+02  0.43400727881E+02  0.00000000000E+00 0. -1.
         11    1    3    3    0    0 -0.12297504513E+01  0.38219765276E+01 -0.15377733672E+01  0.42993648299E+01  0.51100000000E-03 0. -1.
        -11    1    3    3    0    0 -0.99485600058E+01  0.30547374406E+01 -0.32762141692E+02  0.34375328297E+02  0.51100000000E-03 0.  1.
         12    1    3    3    0    0  0.19413374158E+01 -0.39034096893E+01 -0.80021058306E+01  0.91125789921E+01  0.00000000000E+00 0. -1.
</event>
<event>
 7    1  0.3807360E-011  0.4778727E+02  0.7816164E-02  0.1312668E+00
        -11   -1    0    0    0    0  0.00000000000E+00  0.00000000000E+00  0.45593999997E+02  0.45594000000E+02  0.51100000000E-03 0. -1.
         11   -1    0    0    0    0 -0.00000000000E+00 -0.00000000000E+00 -0.45593999997E+02  0.45594000000E+02  0.51100000000E-03 0.  1.
    9900012    2    1    2    0    0 -0.20659749783E+01  0.38755163136E+02 -0.19426592669E+02  0.47787269303E+02  0.19999992061E+02 0.  0.
         12    1    1    2    0    0  0.20659749783E+01 -0.38755163136E+02  0.19426592669E+02  0.43400730697E+02  0.00000000000E+00 0. -1.
         11    1    3    3    0    0 -0.52091036531E+01  0.27687814410E+01 -0.53422720036E+01  0.79586922266E+01  0.51100000000E-03 0. -1.
        -11    1    3    3    0    0  0.53957806776E+01  0.13894321573E+02 -0.73784826656E+01  0.16631555183E+02  0.51100000000E-03 0.  1.
        -12    1    3    3    0    0 -0.22526520028E+01  0.22092060121E+02 -0.67058380002E+01  0.23197021893E+02  0.00000000000E+00 0.  1.
</event>
<event>
 7    1  0.3807360E-011  0.4778727E+02  0.7816164E-02  0.1312668E+00
        -11   -1    0    0    0    0  0.00000000000E+00  0.00000000000E+00  0.45593999997E+02  0.45594000000E+02  0.51100000000E-03 0. -1.
         11   -1    0    0    0    0 -0.00000000000E+00 -0.00000000000E+00 -0.45593999997E+02  0.45594000000E+02  0.51100000000E-03 0.  1.
    9900012    2    1    2    0    0 -0.34000797375E+02  0.14880477906E+02  0.22497565235E+02  0.47787270901E+02  0.19999999346E+02 0.  0.
        -12    1    1    2    0    0  0.34000797375E+02 -0.14880477906E+02 -0.22497565235E+02  0.43400729099E+02  0.00000000000E+00 0.  1.
         11    1    3    3    0    0 -0.77089223145E+01  0.73970905224E+01  0.51377837276E+01  0.11855009631E+02  0.51100000000E-03 0. -1.
        -11    1    3    3    0    0 -0.57416221695E+01 -0.24623868841E+01  0.10279593540E+02  0.12029115425E+02  0.51100000000E-03 0.  1.
        -12    1    3    3    0    0 -0.20550252891E+02  0.99457742676E+01  0.70801879673E+01  0.23903145845E+02  0.00000000000E+00 0.  1.
</event>
<event>
 7    1  0.3807360E-011  0.4778727E+02  0.7816164E-02  0.1312668E+00
        -11   -1    0    0    0    0  0.00000000000E+00  0.00000000000E+00  0.45593999997E+02  0.45594000000E+02  0.51100000000E-03 0.  1.
         11   -1    0    0    0    0 -0.00000000000E+00 -0.00000000000E+00 -0.45593999997E+02  0.45594000000E+02  0.51100000000E-03 0. -1.
    9900012    2    1    2    0    0 -0.15709968388E+01 -0.40745492490E+02 -0.14864723312E+02  0.47787272029E+02  0.20000004489E+02 0.  0.
         12    1    1    2    0    0  0.15709968388E+01  0.40745492490E+02  0.14864723312E+02  0.43400727971E+02  0.00000000000E+00 0. -1.
         11    1    3    3    0    0 -0.50942225903E+00  0.85734410538E+00  0.16719778617E-01  0.99741153248E+00  0.51100000000E-03 0. -1.
        -11    1    3    3    0    0 -0.51924363168E+01 -0.38353374800E+02 -0.10937987863E+02  0.40219178661E+02  0.51100000000E-03 0.  1.
        -12    1    3    3    0    0  0.41308617369E+01 -0.32494617950E+01 -0.39434552273E+01  0.65706818350E+01  0.00000000000E+00 0.  1.
</event>
<event>
 7    1  0.3807360E-011  0.4778727E+02  0.7816164E-02  0.1312668E+00
        -11   -1    0    0    0    0  0.00000000000E+00  0.00000000000E+00  0.45593999997E+02  0.45594000000E+02  0.51100000000E-03 0. -1.
         11   -1    0    0    0    0 -0.00000000000E+00 -0.00000000000E+00 -0.45593999997E+02  0.45594000000E+02  0.51100000000E-03 0.  1.
    9900012    2    1    2    0    0  0.25516122900E+01 -0.16674809018E+02  0.39988288576E+02  0.47787271846E+02  0.20000003655E+02 0.  0.
        -12    1    1    2    0    0 -0.25516122900E+01  0.16674809018E+02 -0.39988288576E+02  0.43400728154E+02  0.00000000000E+00 0.  1.
         11    1    3    3    0    0  0.18854674297E+01  0.94990256935E+00  0.51351827982E+01  0.55522432360E+01  0.51100000000E-03 0. -1.
        -11    1    3    3    0    0 -0.16838908476E+01 -0.17997595727E+02  0.35440518259E+02  0.39784158594E+02  0.51100000000E-03 0.  1.
        -12    1    3    3    0    0  0.23500357079E+01  0.37288413984E+00 -0.58741248117E+00  0.24508700156E+01  0.00000000000E+00 0.  1.
</event>
<event>
 7    1  0.3807360E-011  0.4778727E+02  0.7816164E-02  0.1312668E+00
        -11   -1    0    0    0    0  0.00000000000E+00  0.00000000000E+00  0.45593999997E+02  0.45594000000E+02  0.51100000000E-03 0. -1.
         11   -1    0    0    0    0 -0.00000000000E+00 -0.00000000000E+00 -0.45593999997E+02  0.45594000000E+02  0.51100000000E-03 0.  1.
    9900012    2    1    2    0    0  0.50932509666E+01 -0.13292313361E+02  0.40999956061E+02  0.47787271932E+02  0.20000004045E+02 0.  0.
        -12    1    1    2    0    0 -0.50932509666E+01  0.13292313361E+02 -0.40999956061E+02  0.43400728068E+02  0.00000000000E+00 0.  1.
         11    1    3    3    0    0  0.48309962255E+00 -0.16583226420E+02  0.34086048570E+02  0.37909042340E+02  0.51100000000E-03 0. -1.
        -11    1    3    3    0    0  0.18521523622E+00 -0.91393457036E+00  0.68567296501E+00  0.11574665260E+01  0.51100000000E-03 0.  1.
         12    1    3    3    0    0  0.44249361079E+01  0.42048476295E+01  0.62282345260E+01  0.87207630662E+01  0.00000000000E+00 0. -1.
</event>
<event>
 7    1  0.3807360E-011  0.4778724E+02  0.7816164E-02  0.1312668E+00
        -11   -1    0    0    0    0  0.00000000000E+00  0.00000000000E+00  0.45593999997E+02  0.45594000000E+02  0.51100000000E-03 0.  1.
         11   -1    0    0    0    0 -0.00000000000E+00 -0.00000000000E+00 -0.45593999997E+02  0.45594000000E+02  0.51100000000E-03 0. -1.
    9900012    2    1    2    0    0 -0.34327794899E+02 -0.25868144037E+02  0.60056292167E+01  0.47787240090E+02  0.19999858864E+02 0.  0.
        -12    1    1    2    0    0  0.34327794899E+02  0.25868144037E+02 -0.60056292167E+01  0.43400759910E+02  0.00000000000E+00 0.  1.
         11    1    3    3    0    0 -0.16478936881E+02 -0.24936313134E+01  0.80177416384E+00  0.16685814332E+02  0.51100000000E-03 0.  1.
        -11    1    3    3    0    0 -0.10406971814E+02 -0.13036342609E+02 -0.14251786528E+01  0.16741637477E+02  0.51100000000E-03 0. -1.
        -12    1    3    3    0    0 -0.74418862033E+01 -0.10338170114E+02  0.66290337057E+01  0.14359788280E+02  0.00000000000E+00 0.  1.
</event>
<event>
 7    1  0.3807360E-011  0.4778727E+02  0.7816164E-02  0.1312668E+00
        -11   -1    0    0    0    0  0.00000000000E+00  0.00000000000E+00  0.45593999997E+02  0.45594000000E+02  0.51100000000E-03 0. -1.
         11   -1    0    0    0    0 -0.00000000000E+00 -0.00000000000E+00 -0.45593999997E+02  0.45594000000E+02  0.51100000000E-03 0.  1.
    9900012    2    1    2    0    0 -0.22155690196E+02  0.52988186216E+00  0.37315787143E+02  0.47787270134E+02  0.19999995847E+02 0.  0.
        -12    1    1    2    0    0  0.22155690196E+02 -0.52988186216E+00 -0.37315787143E+02  0.43400729866E+02  0.00000000000E+00 0.  1.
         11    1    3    3    0    0 -0.12775642430E+02 -0.48610957484E+01  0.23481489860E+02  0.27170345189E+02  0.51100000000E-03 0. -1.
        -11    1    3    3    0    0 -0.43401970442E+01 -0.10430399661E+00 -0.58804578172E+00  0.43810943620E+01  0.51100000000E-03 0.  1.
         12    1    3    3    0    0 -0.50398507215E+01  0.54952816072E+01  0.14422343064E+02  0.16235830583E+02  0.00000000000E+00 0. -1.
</event>
<event>
 7    1  0.3807360E-011  0.4778727E+02  0.7816164E-02  0.1312668E+00
        -11   -1    0    0    0    0  0.00000000000E+00  0.00000000000E+00  0.45593999997E+02  0.45594000000E+02  0.51100000000E-03 0. -1.
         11   -1    0    0    0    0 -0.00000000000E+00 -0.00000000000E+00 -0.45593999997E+02  0.45594000000E+02  0.51100000000E-03 0.  1.
    9900012    2    1    2    0    0  0.12367411397E+02 -0.16559157559E+02  0.38163662963E+02  0.47787265738E+02  0.19999975807E+02 0.  0.
        -12    1    1    2    0    0 -0.12367411397E+02  0.16559157559E+02 -0.38163662963E+02  0.43400734262E+02  0.00000000000E+00 0.  1.
         11    1    3    3    0    0  0.33829661726E+01 -0.28394828903E+01  0.19694197441E+02  0.20183372769E+02  0.51100000000E-03 0. -1.
        -11    1    3    3    0    0  0.47801083640E+00 -0.85620703358E+01  0.27581652492E+01  0.90080529859E+01  0.51100000000E-03 0.  1.
         12    1    3    3    0    0  0.85064343876E+01 -0.51576043333E+01  0.15711300272E+02  0.18595839983E+02  0.00000000000E+00 0. -1.
</event>
<event>
 7    1  0.3807360E-011  0.4778729E+02  0.7816164E-02  0.1312668E+00
        -11   -1    0    0    0    0  0.00000000000E+00  0.00000000000E+00  0.45593999997E+02  0.45594000000E+02  0.51100000000E-03 0. -1.
         11   -1    0    0    0    0 -0.00000000000E+00 -0.00000000000E+00 -0.45593999997E+02  0.45594000000E+02  0.51100000000E-03 0.  1.
    9900012    2    1    2    0    0  0.95588461277E+01  0.23250624369E+01  0.42271081300E+02  0.47787288382E+02  0.20000079051E+02 0.  0.
        -12    1    1    2    0    0 -0.95588461277E+01 -0.23250624369E+01 -0.42271081300E+02  0.43400711618E+02  0.00000000000E+00 0.  1.
         11    1    3    3    0    0  0.88987832359E+01  0.10374358202E+01  0.35542871516E+02  0.36654608605E+02  0.51100000000E-03 0. -1.
        -11    1    3    3    0    0  0.44149594861E+01  0.13992393251E+01  0.18775665751E+01  0.49974988202E+01  0.51100000000E-03 0.  1.
        -12    1    3    3    0    0 -0.37548965943E+01 -0.11161270841E+00  0.48506432094E+01  0.61351809570E+01  0.00000000000E+00 0.  1.
</event>
<event>
 7    1  0.3807360E-011  0.4778727E+02  0.7816164E-02  0.1312668E+00
        -11   -1    0    0    0    0  0.00000000000E+00  0.00000000000E+00  0.45593999997E+02  0.45594000000E+02  0.51100000000E-03 0. -1.
         11   -1    0    0    0    0 -0.00000000000E+00 -0.00000000000E+00 -0.45593999997E+02  0.45594000000E+02  0.51100000000E-03 0.  1.
    9900012    2    1    2    0    0  0.11531109348E+02 -0.28081354717E+02  0.31017644202E+02  0.47787271696E+02  0.20000002969E+02 0.  0.
        -12    1    1    2    0    0 -0.11531109348E+02  0.28081354717E+02 -0.31017644202E+02  0.43400728304E+02  0.00000000000E+00 0.  1.
         11    1    3    3    0    0  0.29863690016E+01 -0.37668411311E+01  0.16466034215E+02  0.17153360457E+02  0.51100000000E-03 0. -1.
        -11    1    3    3    0    0  0.12118970214E+01 -0.33480168846E+01 -0.77944010193E+00  0.36449195579E+01  0.51100000000E-03 0.  1.
         12    1    3    3    0    0  0.73328433250E+01 -0.20966496701E+02  0.15331050089E+02  0.26988991681E+02  0.00000000000E+00 0. -1.
</event>
<event>
 7    1  0.3807360E-011  0.4778727E+02  0.7816164E-02  0.1312668E+00
        -11   -1    0    0    0    0  0.00000000000E+00  0.00000000000E+00  0.45593999997E+02  0.45594000000E+02  0.51100000000E-03 0. -1.
         11   -1    0    0    0    0 -0.00000000000E+00 -0.00000000000E+00 -0.45593999997E+02  0.45594000000E+02  0.51100000000E-03 0.  1.
    9900012    2    1    2    0    0 -0.21297691744E+02  0.28242669616E+02  0.25147226232E+02  0.47787273648E+02  0.20000011872E+02 0.  0.
        -12    1    1    2    0    0  0.21297691744E+02 -0.28242669616E+02 -0.25147226232E+02  0.43400726352E+02  0.00000000000E+00 0.  1.
         11    1    3    3    0    0  0.10655295417E+01 -0.11529703544E+00  0.51399384711E+01  0.52504870591E+01  0.51100000000E-03 0. -1.
        -11    1    3    3    0    0 -0.11860087238E+02  0.10629304046E+02  0.13640750951E+02  0.20969355273E+02  0.51100000000E-03 0.  1.
         12    1    3    3    0    0 -0.10503134048E+02  0.17728662606E+02  0.63665368099E+01  0.21567431316E+02  0.00000000000E+00 0. -1.
</event>
<event>
 7    1  0.3807360E-011  0.4778727E+02  0.7816164E-02  0.1312668E+00
        -11   -1    0    0    0    0  0.00000000000E+00  0.00000000000E+00  0.45593999997E+02  0.45594000000E+02  0.51100000000E-03 0. -1.
         11   -1    0    0    0    0 -0.00000000000E+00 -0.00000000000E+00 -0.45593999997E+02  0.45594000000E+02  0.51100000000E-03 0.  1.
    9900012    2    1    2    0    0 -0.12445824101E+02 -0.92242621753E+01 -0.40541804818E+02  0.47787268576E+02  0.19999988746E+02 0.  0.
         12    1    1    2    0    0  0.12445824101E+02  0.92242621753E+01  0.40541804818E+02  0.43400731424E+02  0.00000000000E+00 0. -1.
         11    1    3    3    0    0 -0.65156187093E+01 -0.11487867754E+02 -0.28604633319E+02  0.31506339684E+02  0.51100000000E-03 0. -1.
        -11    1    3    3    0    0 -0.53916747094E+00 -0.29776221465E+00  0.14762135017E+01  0.15995532069E+01  0.51100000000E-03 0.  1.
        -12    1    3    3    0    0 -0.53910379207E+01  0.25613677932E+01 -0.13413385001E+02  0.14681375685E+02  0.00000000000E+00 0.  1.
</event>
<event>
 7    1  0.3807360E-011  0.4778727E+02  0.7816164E-02  0.1312668E+00
        -11   -1    0    0    0    0  0.00000000000E+00  0.00000000000E+00  0.45593999997E+02  0.45594000000E+02  0.51100000000E-03 0. -1.
         11   -1    0    0    0    0 -0.00000000000E+00 -0.00000000000E+00 -0.45593999997E+02  0.45594000000E+02  0.51100000000E-03 0.  1.
    9900012    2    1    2    0    0  0.19582740889E+02 -0.19430289345E+02  0.33505270687E+02  0.47787273641E+02  0.20000011837E+02 0.  0.
        -12    1    1    2    0    0 -0.19582740889E+02  0.19430289345E+02 -0.33505270687E+02  0.43400726359E+02  0.00000000000E+00 0.  1.
         11    1    3    3    0    0  0.84749319354E+01 -0.19878597992E+01  0.30970257738E+01  0.92394603087E+01  0.51100000000E-03 0. -1.
        -11    1    3    3    0    0 -0.86304991856E+00 -0.84545594204E+01  0.85509072450E+01  0.12055805453E+02  0.51100000000E-03 0.  1.
         12    1    3    3    0    0  0.11970858872E+02 -0.89878701249E+01  0.21857337668E+02  0.26492007879E+02  0.00000000000E+00 0. -1.
</event>
<event>
 7    1  0.3807360E-011  0.4778727E+02  0.7816164E-02  0.1312668E+00
        -11   -1    0    0    0    0  0.00000000000E+00  0.00000000000E+00  0.45593999997E+02  0.45594000000E+02  0.51100000000E-03 0.  1.
         11   -1    0    0    0    0 -0.00000000000E+00 -0.00000000000E+00 -0.45593999997E+02  0.45594000000E+02  0.51100000000E-03 0. -1.
    9900012    2    1    2    0    0 -0.13450356206E+01  0.41108864227E+02 -0.13851902100E+02  0.47787273846E+02  0.20000012775E+02 0.  0.
         12    1    1    2    0    0  0.13450356206E+01 -0.41108864227E+02  0.13851902100E+02  0.43400726154E+02  0.00000000000E+00 0. -1.
         11    1    3    3    0    0 -0.25790799429E+01  0.33693361912E+02 -0.12864391700E+02  0.36157805027E+02  0.51100000000E-03 0. -1.
        -11    1    3    3    0    0 -0.35631894268E+01  0.48669677964E+01 -0.13642695644E+01  0.61842482266E+01  0.51100000000E-03 0.  1.
        -12    1    3    3    0    0  0.47972337492E+01  0.25485345187E+01  0.37675916427E+00  0.54452205929E+01  0.00000000000E+00 0.  1.
</event>
<event>
 7    1  0.3807360E-011  0.4778727E+02  0.7816164E-02  0.1312668E+00
        -11   -1    0    0    0    0  0.00000000000E+00  0.00000000000E+00  0.45593999997E+02  0.45594000000E+02  0.51100000000E-03 0.  1.
         11   -1    0    0    0    0 -0.00000000000E+00 -0.00000000000E+00 -0.45593999997E+02  0.45594000000E+02  0.51100000000E-03 0. -1.
    9900012    2    1    2    0    0  0.16890765550E+02  0.38859854268E+02  0.93934628784E+01  0.47787269828E+02  0.19999994454E+02 0.  0.
        -12    1    1    2    0    0 -0.16890765550E+02 -0.38859854268E+02 -0.93934628784E+01  0.43400730172E+02  0.00000000000E+00 0.  1.
         11    1    3    3    0    0  0.25500835089E+01  0.17094667094E+02  0.19007797295E+01  0.17388028433E+02  0.51100000000E-03 0.  1.
        -11    1    3    3    0    0  0.37532987497E+01  0.18133703929E+01  0.65858369152E+01  0.77941524119E+01  0.51100000000E-03 0. -1.
         12    1    3    3    0    0  0.10587383291E+02  0.19951816782E+02  0.90684623381E+00  0.22605088983E+02  0.00000000000E+00 0. -1.
</event>
<event>
 7    1  0.3807360E-011  0.4778726E+02  0.7816164E-02  0.1312668E+00
        -11   -1    0    0    0    0  0.00000000000E+00  0.00000000000E+00  0.45593999997E+02  0.45594000000E+02  0.51100000000E-03 0. -1.
         11   -1    0    0    0    0 -0.00000000000E+00 -0.00000000000E+00 -0.45593999997E+02  0.45594000000E+02  0.51100000000E-03 0.  1.
    9900012    2    1    2    0    0  0.16625080114E+02 -0.22821848732E+02  0.32960487781E+02  0.47787264717E+02  0.19999971151E+02 0.  0.
        -12    1    1    2    0    0 -0.16625080114E+02  0.22821848732E+02 -0.32960487781E+02  0.43400735283E+02  0.00000000000E+00 0.  1.
         11    1    3    3    0    0  0.13599524550E+02 -0.20755539631E+02  0.22595983192E+02  0.33560660751E+02  0.51100000000E-03 0. -1.
        -11    1    3    3    0    0  0.51926028666E+01  0.10026439502E+01  0.33239045314E+01  0.62463398095E+01  0.51100000000E-03 0.  1.
        -12    1    3    3    0    0 -0.21670473027E+01 -0.30689530518E+01  0.70406000574E+01  0.79802641569E+01  0.00000000000E+00 0.  1.
</event>
<event>
 7    1  0.3807360E-011  0.4778727E+02  0.7816164E-02  0.1312668E+00
        -11   -1    0    0    0    0  0.00000000000E+00  0.00000000000E+00  0.45593999997E+02  0.45594000000E+02  0.51100000000E-03 0. -1.
         11   -1    0    0    0    0 -0.00000000000E+00 -0.00000000000E+00 -0.45593999997E+02  0.45594000000E+02  0.51100000000E-03 0.  1.
    9900012    2    1    2    0    0 -0.42553054752E+02  0.66099322732E+01  0.54008898139E+01  0.47787270926E+02  0.19999999459E+02 0.  0.
        -12    1    1    2    0    0  0.42553054752E+02 -0.66099322732E+01 -0.54008898139E+01  0.43400729074E+02  0.00000000000E+00 0.  1.
         11    1    3    3    0    0 -0.18536597870E+02  0.70864060065E+01 -0.58221429840E+01  0.20681391633E+02  0.51100000000E-03 0. -1.
        -11    1    3    3    0    0 -0.84713358308E+01 -0.10186729391E+01  0.68680719775E+01  0.10953156543E+02  0.51100000000E-03 0.  1.
         12    1    3    3    0    0 -0.15545121051E+02  0.54219920579E+00  0.43549608205E+01  0.16152722749E+02  0.00000000000E+00 0. -1.
</event>
<event>
 7    1  0.3807360E-011  0.4778728E+02  0.7816164E-02  0.1312668E+00
        -11   -1    0    0    0    0  0.00000000000E+00  0.00000000000E+00  0.45593999997E+02  0.45594000000E+02  0.51100000000E-03 0. -1.
         11   -1    0    0    0    0 -0.00000000000E+00 -0.00000000000E+00 -0.45593999997E+02  0.45594000000E+02  0.51100000000E-03 0.  1.
    9900012    2    1    2    0    0 -0.14989689865E+02  0.32340527398E+02  0.24759288497E+02  0.47787275565E+02  0.20000020610E+02 0.  0.
        -12    1    1    2    0    0  0.14989689865E+02 -0.32340527398E+02 -0.24759288497E+02  0.43400724435E+02  0.00000000000E+00 0.  1.
         11    1    3    3    0    0 -0.23498846193E+01  0.69371968755E+00  0.44300772502E+01  0.50624884625E+01  0.51100000000E-03 0. -1.
        -11    1    3    3    0    0 -0.96121523055E+01  0.54844486646E+01  0.41737826107E+01  0.11827641804E+02  0.51100000000E-03 0.  1.
        -12    1    3    3    0    0 -0.30276529405E+01  0.26162359046E+02  0.16155428636E+02  0.30897145298E+02  0.00000000000E+00 0.  1.
</event>
<event>
 7    1  0.3807360E-011  0.4778727E+02  0.7816164E-02  0.1312668E+00
        -11   -1    0    0    0    0  0.00000000000E+00  0.00000000000E+00  0.45593999997E+02  0.45594000000E+02  0.51100000000E-03 0. -1.
         11   -1    0    0    0    0 -0.00000000000E+00 -0.00000000000E+00 -0.45593999997E+02  0.45594000000E+02  0.51100000000E-03 0.  1.
    9900012    2    1    2    0    0  0.12422032016E+02 -0.86739153004E+01  0.40670382945E+02  0.47787265733E+02  0.19999975782E+02 0.  0.
        -12    1    1    2    0    0 -0.12422032016E+02  0.86739153004E+01 -0.40670382945E+02  0.43400734267E+02  0.00000000000E+00 0.  1.
         11    1    3    3    0    0  0.43685935223E+01 -0.50103864001E+01  0.29830758292E+02  0.30562439722E+02  0.51100000000E-03 0. -1.
        -11    1    3    3    0    0  0.23600835421E+01 -0.89336542948E+00 -0.17921060490E+01  0.30951155823E+01  0.51100000000E-03 0.  1.
         12    1    3    3    0    0  0.56933549513E+01 -0.27701634709E+01  0.12631730702E+02  0.14129710428E+02  0.00000000000E+00 0. -1.
</event>
<event>
 7    1  0.3807360E-011  0.4778727E+02  0.7816164E-02  0.1312668E+00
        -11   -1    0    0    0    0  0.00000000000E+00  0.00000000000E+00  0.45593999997E+02  0.45594000000E+02  0.51100000000E-03 0. -1.
         11   -1    0    0    0    0 -0.00000000000E+00 -0.00000000000E+00 -0.45593999997E+02  0.45594000000E+02  0.51100000000E-03 0.  1.
    9900012    2    1    2    0    0 -0.26336370961E+02  0.21860905375E+01 -0.34427313399E+02  0.47787270339E+02  0.19999996785E+02 0.  0.
         12    1    1    2    0    0  0.26336370961E+02 -0.21860905375E+01  0.34427313399E+02  0.43400729661E+02  0.00000000000E+00 0. -1.
         11    1    3    3    0    0 -0.23177439441E+02  0.55764226899E+01 -0.27646322489E+02  0.36504922086E+02  0.51100000000E-03 0.  1.
        -11    1    3    3    0    0  0.12955879114E+01 -0.97456404507E+00 -0.59254380574E+01  0.61432189890E+01  0.51100000000E-03 0. -1.
        -12    1    3    3    0    0 -0.44545194315E+01 -0.24157681073E+01 -0.85555285215E+00  0.51391292644E+01  0.00000000000E+00 0.  1.
</event>
<event>
 7    1  0.3807360E-011  0.4778727E+02  0.7816164E-02  0.1312668E+00
        -11   -1    0    0    0    0  0.00000000000E+00  0.00000000000E+00  0.45593999997E+02  0.45594000000E+02  0.51100000000E-03 0. -1.
         11   -1    0    0    0    0 -0.00000000000E+00 -0.00000000000E+00 -0.45593999997E+02  0.45594000000E+02  0.51100000000E-03 0.  1.
    9900012    2    1    2    0    0  0.42655155999E+02  0.63882519978E+01 -0.48323063116E+01  0.47787270961E+02  0.19999999618E+02 0.  0.
         12    1    1    2    0    0 -0.42655155999E+02 -0.63882519978E+01  0.48323063116E+01  0.43400729039E+02  0.00000000000E+00 0. -1.
         11    1    3    3    0    0  0.14096164385E+02  0.49011819888E+01  0.11404375271E+01  0.14967432421E+02  0.51100000000E-03 0. -1.
        -11    1    3    3    0    0  0.25438898162E+02 -0.39723094978E+01 -0.63560149643E+01  0.26520100093E+02  0.51100000000E-03 0.  1.
         12    1    3    3    0    0  0.31200934516E+01  0.54593795069E+01  0.38327112561E+00  0.62997384472E+01  0.00000000000E+00 0. -1.
</event>
<event>
 7    1  0.3807360E-011  0.4778727E+02  0.7816164E-02  0.1312668E+00
        -11   -1    0    0    0    0  0.00000000000E+00  0.00000000000E+00  0.45593999997E+02  0.45594000000E+02  0.51100000000E-03 0. -1.
         11   -1    0    0    0    0 -0.00000000000E+00 -0.00000000000E+00 -0.45593999997E+02  0.45594000000E+02  0.51100000000E-03 0.  1.
    9900012    2    1    2    0    0 -0.36493703020E+02  0.20764575039E+02 -0.10984767032E+02  0.47787273700E+02  0.20000012107E+02 0.  0.
         12    1    1    2    0    0  0.36493703020E+02 -0.20764575039E+02  0.10984767032E+02  0.43400726300E+02  0.00000000000E+00 0. -1.
         11    1    3    3    0    0 -0.21491112493E+02  0.13958244628E+02  0.18959938508E+01  0.25696211826E+02  0.51100000000E-03 0. -1.
        -11    1    3    3    0    0 -0.11577166465E+02  0.27322495278E+01 -0.58030390184E+01  0.13235226970E+02  0.51100000000E-03 0.  1.
         12    1    3    3    0    0 -0.34254240622E+01  0.40740808829E+01 -0.70777218646E+01  0.88558349035E+01  0.00000000000E+00 0. -1.
</event>
<event>
 7    1  0.3807360E-011  0.4778731E+02  0.7816164E-02  0.1312668E+00
        -11   -1    0    0    0    0  0.00000000000E+00  0.00000000000E+00  0.45593999997E+02  0.45594000000E+02  0.51100000000E-03 0.  1.
         11   -1    0    0    0    0 -0.00000000000E+00 -0.00000000000E+00 -0.45593999997E+02  0.45594000000E+02  0.51100000000E-03 0. -1.
    9900012    2    1    2    0    0 -0.41643950451E+02 -0.11882570195E+01 -0.12165075550E+02  0.47787313058E+02  0.20000191558E+02 0.  0.
         12    1    1    2    0    0  0.41643950451E+02  0.11882570195E+01  0.12165075550E+02  0.43400686942E+02  0.00000000000E+00 0. -1.
         11    1    3    3    0    0 -0.35377677759E+02 -0.22716942444E+01 -0.16796229926E+02  0.39228229865E+02  0.51100000000E-03 0. -1.
        -11    1    3    3    0    0 -0.43200659956E+01 -0.56336836383E+00  0.17057700208E+01  0.46786756401E+01  0.51100000000E-03 0.  1.
         12    1    3    3    0    0 -0.19462066963E+01  0.16468055887E+01  0.29253843559E+01  0.38804075535E+01  0.00000000000E+00 0. -1.
</event>
<event>
 7    1  0.3807360E-011  0.4778727E+02  0.7816164E-02  0.1312668E+00
        -11   -1    0    0    0    0  0.00000000000E+00  0.00000000000E+00  0.45593999997E+02  0.45594000000E+02  0.51100000000E-03 0. -1.
         11   -1    0    0    0    0 -0.00000000000E+00 -0.00000000000E+00 -0.45593999997E+02  0.45594000000E+02  0.51100000000E-03 0.  1.
    9900012    2    1    2    0    0 -0.81482932416E+01 -0.66813838288E+01  0.42102106670E+02  0.47787274676E+02  0.20000016556E+02 0.  0.
        -12    1    1    2    0    0  0.81482932416E+01  0.66813838288E+01 -0.42102106670E+02  0.43400725324E+02  0.00000000000E+00 0.  1.
         11    1    3    3    0    0 -0.75996660631E+01 -0.11800533024E+01  0.96878354736E+01  0.12369381815E+02  0.51100000000E-03 0. -1.
        -11    1    3    3    0    0 -0.36575035351E+01 -0.86110288775E+01  0.26077385110E+02  0.27704822051E+02  0.51100000000E-03 0.  1.
        -12    1    3    3    0    0  0.31088763566E+01  0.31096983511E+01  0.63368860869E+01  0.77130708096E+01  0.00000000000E+00 0.  1.
</event>
<event>
 7    1  0.3807360E-011  0.4778727E+02  0.7816164E-02  0.1312668E+00
        -11   -1    0    0    0    0  0.00000000000E+00  0.00000000000E+00  0.45593999997E+02  0.45594000000E+02  0.51100000000E-03 0.  1.
         11   -1    0    0    0    0 -0.00000000000E+00 -0.00000000000E+00 -0.45593999997E+02  0.45594000000E+02  0.51100000000E-03 0. -1.
    9900012    2    1    2    0    0 -0.37558377971E+01  0.38488909333E+02  0.19700786745E+02  0.47787268928E+02  0.19999990351E+02 0.  0.
         12    1    1    2    0    0  0.37558377971E+01 -0.38488909333E+02 -0.19700786745E+02  0.43400731072E+02  0.00000000000E+00 0. -1.
         11    1    3    3    0    0 -0.46481206957E+01  0.33872842225E+01  0.36242422854E+01  0.67980771406E+01  0.51100000000E-03 0. -1.
        -11    1    3    3    0    0 -0.46007837605E+01  0.29495133467E+02  0.12483014182E+02  0.32356695641E+02  0.51100000000E-03 0.  1.
         12    1    3    3    0    0  0.54930666591E+01  0.56064916438E+01  0.35935302773E+01  0.86324961469E+01  0.00000000000E+00 0. -1.
</event>
<event>
 7    1  0.3807360E-011  0.4778727E+02  0.7816164E-02  0.1312668E+00
        -11   -1    0    0    0    0  0.00000000000E+00  0.00000000000E+00  0.45593999997E+02  0.45594000000E+02  0.51100000000E-03 0. -1.
         11   -1    0    0    0    0 -0.00000000000E+00 -0.00000000000E+00 -0.45593999997E+02  0.45594000000E+02  0.51100000000E-03 0.  1.
    9900012    2    1    2    0    0  0.35547545394E+02 -0.33315334577E+00 -0.24897481939E+02  0.47787267500E+02  0.19999983837E+02 0.  0.
         12    1    1    2    0    0 -0.35547545394E+02  0.33315334577E+00  0.24897481939E+02  0.43400732500E+02  0.00000000000E+00 0. -1.
         11    1    3    3    0    0 -0.31924352866E+00  0.11789481752E+01 -0.35759677766E+01  0.37788068263E+01  0.51100000000E-03 0. -1.
        -11    1    3    3    0    0  0.46477898408E+01 -0.45069742046E+01 -0.69874165123E+01  0.95256893012E+01  0.51100000000E-03 0.  1.
         12    1    3    3    0    0  0.31218999082E+02  0.29948726837E+01 -0.14334097650E+02  0.34482771372E+02  0.00000000000E+00 0. -1.
</event>
<event>
 7    1  0.3807360E-011  0.4778727E+02  0.7816164E-02  0.1312668E+00
        -11   -1    0    0    0    0  0.00000000000E+00  0.00000000000E+00  0.45593999997E+02  0.45594000000E+02  0.51100000000E-03 0. -1.
         11   -1    0    0    0    0 -0.00000000000E+00 -0.00000000000E+00 -0.45593999997E+02  0.45594000000E+02  0.51100000000E-03 0.  1.
    9900012    2    1    2    0    0 -0.18562434305E+02 -0.21679012324E+02 -0.32696787460E+02  0.47787268982E+02  0.19999990596E+02 0.  0.
         12    1    1    2    0    0  0.18562434305E+02  0.21679012324E+02  0.32696787460E+02  0.43400731018E+02  0.00000000000E+00 0. -1.
         11    1    3    3    0    0 -0.10534709687E+02 -0.16008121274E+02 -0.12885563550E+02  0.23092808473E+02  0.51100000000E-03 0. -1.
        -11    1    3    3    0    0 -0.82328055866E+01 -0.75921940418E+01 -0.19816631312E+02  0.22762235721E+02  0.51100000000E-03 0.  1.
        -12    1    3    3    0    0  0.20508096782E+00  0.19213029921E+01  0.54074017366E-02  0.19322247879E+01  0.00000000000E+00 0.  1.
</event>
<event>
 7    1  0.3807360E-011  0.4778727E+02  0.7816164E-02  0.1312668E+00
        -11   -1    0    0    0    0  0.00000000000E+00  0.00000000000E+00  0.45593999997E+02  0.45594000000E+02  0.51100000000E-03 0. -1.
         11   -1    0    0    0    0 -0.00000000000E+00 -0.00000000000E+00 -0.45593999997E+02  0.45594000000E+02  0.51100000000E-03 0.  1.
    9900012    2    1    2    0    0 -0.22731971324E+02 -0.29116740868E+02 -0.22783678970E+02  0.47787272512E+02  0.20000006691E+02 0.  0.
         12    1    1    2    0    0  0.22731971324E+02  0.29116740868E+02  0.22783678970E+02  0.43400727488E+02  0.00000000000E+00 0. -1.
         11    1    3    3    0    0 -0.55195076441E+01 -0.17647237604E+01 -0.43182796686E+00  0.58108252631E+01  0.51100000000E-03 0. -1.
        -11    1    3    3    0    0 -0.18455436235E+02 -0.22237041465E+02 -0.22631438782E+02  0.36705192567E+02  0.51100000000E-03 0.  1.
        -12    1    3    3    0    0  0.12429725549E+01 -0.51149756428E+01  0.27958777900E+00  0.52712546822E+01  0.00000000000E+00 0.  1.
</event>
<event>
 7    1  0.3807360E-011  0.4778727E+02  0.7816164E-02  0.1312668E+00
        -11   -1    0    0    0    0  0.00000000000E+00  0.00000000000E+00  0.45593999997E+02  0.45594000000E+02  0.51100000000E-03 0.  1.
         11   -1    0    0    0    0 -0.00000000000E+00 -0.00000000000E+00 -0.45593999997E+02  0.45594000000E+02  0.51100000000E-03 0. -1.
    9900012    2    1    2    0    0 -0.76919235120E+01 -0.41678407974E+02 -0.93470642846E+01  0.47787274323E+02  0.20000014947E+02 0.  0.
         12    1    1    2    0    0  0.76919235120E+01  0.41678407974E+02  0.93470642846E+01  0.43400725677E+02  0.00000000000E+00 0. -1.
         11    1    3    3    0    0 -0.57786252723E+01 -0.15053538147E+02 -0.41119745792E+01  0.16640608642E+02  0.51100000000E-03 0. -1.
        -11    1    3    3    0    0 -0.81442904361E+01 -0.17813944677E+02 -0.55233781684E+01  0.20351260362E+02  0.51100000000E-03 0.  1.
         12    1    3    3    0    0  0.62309921964E+01 -0.88109251498E+01  0.28828846306E+00  0.10795405318E+02  0.00000000000E+00 0. -1.
</event>
<event>
 7    1  0.3807360E-011  0.4778727E+02  0.7816164E-02  0.1312668E+00
        -11   -1    0    0    0    0  0.00000000000E+00  0.00000000000E+00  0.45593999997E+02  0.45594000000E+02  0.51100000000E-03 0. -1.
         11   -1    0    0    0    0 -0.00000000000E+00 -0.00000000000E+00 -0.45593999997E+02  0.45594000000E+02  0.51100000000E-03 0.  1.
    9900012    2    1    2    0    0  0.19246504363E+02  0.38740376297E+02  0.35183279696E+01  0.47787270542E+02  0.19999997707E+02 0.  0.
         12    1    1    2    0    0 -0.19246504363E+02 -0.38740376297E+02 -0.35183279696E+01  0.43400729458E+02  0.00000000000E+00 0. -1.
         11    1    3    3    0    0  0.33925559999E+01 -0.15014761942E+01  0.13879754165E+01  0.39611037593E+01  0.51100000000E-03 0. -1.
        -11    1    3    3    0    0  0.44876295109E+01  0.15224140710E+02 -0.21477533491E+01  0.16016432926E+02  0.51100000000E-03 0.  1.
        -12    1    3    3    0    0  0.11366318852E+02  0.25017711782E+02  0.42781059022E+01  0.27809733856E+02  0.00000000000E+00 0.  1.
</event>
<event>
 7    1  0.3807360E-011  0.4778727E+02  0.7816164E-02  0.1312668E+00
        -11   -1    0    0    0    0  0.00000000000E+00  0.00000000000E+00  0.45593999997E+02  0.45594000000E+02  0.51100000000E-03 0. -1.
         11   -1    0    0    0    0 -0.00000000000E+00 -0.00000000000E+00 -0.45593999997E+02  0.45594000000E+02  0.51100000000E-03 0.  1.
    9900012    2    1    2    0    0  0.93941037893E+00  0.32580117512E+02 -0.28657932410E+02  0.47787266838E+02  0.19999980823E+02 0.  0.
         12    1    1    2    0    0 -0.93941037893E+00 -0.32580117512E+02  0.28657932410E+02  0.43400733162E+02  0.00000000000E+00 0. -1.
         11    1    3    3    0    0  0.11133966891E+00  0.13798283969E+02 -0.10022019044E+02  0.17054204848E+02  0.51100000000E-03 0. -1.
        -11    1    3    3    0    0 -0.95959067299E+00  0.31342868773E+01 -0.13908479727E+02  0.14289519833E+02  0.51100000000E-03 0.  1.
        -12    1    3    3    0    0  0.17876613830E+01  0.15647546666E+02 -0.47274336392E+01  0.16443542158E+02  0.00000000000E+00 0.  1.
</event>
<event>
 7    1  0.3807360E-011  0.4778727E+02  0.7816164E-02  0.1312668E+00
        -11   -1    0    0    0    0  0.00000000000E+00  0.00000000000E+00  0.45593999997E+02  0.45594000000E+02  0.51100000000E-03 0. -1.
         11   -1    0    0    0    0 -0.00000000000E+00 -0.00000000000E+00 -0.45593999997E+02  0.45594000000E+02  0.51100000000E-03 0.  1.
    9900012    2    1    2    0    0 -0.23573235158E+02  0.46271225597E+01 -0.36145756577E+02  0.47787269620E+02  0.19999993505E+02 0.  0.
         12    1    1    2    0    0  0.23573235158E+02 -0.46271225597E+01  0.36145756577E+02  0.43400730380E+02  0.00000000000E+00 0. -1.
         11    1    3    3    0    0 -0.58481375721E+00 -0.29020208459E+01  0.24970858708E+00  0.29708730636E+01  0.51100000000E-03 0. -1.
        -11    1    3    3    0    0 -0.15954227183E+02  0.35989678822E+01 -0.15969567966E+02  0.22858631545E+02  0.51100000000E-03 0.  1.
        -12    1    3    3    0    0 -0.70341942174E+01  0.39301755234E+01 -0.20425897198E+02  0.21957765011E+02  0.00000000000E+00 0.  1.
</event>
<event>
 7    1  0.3807360E-011  0.4778729E+02  0.7816164E-02  0.1312668E+00
        -11   -1    0    0    0    0  0.00000000000E+00  0.00000000000E+00  0.45593999997E+02  0.45594000000E+02  0.51100000000E-03 0. -1.
         11   -1    0    0    0    0 -0.00000000000E+00 -0.00000000000E+00 -0.45593999997E+02  0.45594000000E+02  0.51100000000E-03 0.  1.
    9900012    2    1    2    0    0  0.18823989514E+02 -0.26276686300E+02  0.28962301819E+02  0.47787288591E+02  0.20000080001E+02 0.  0.
        -12    1    1    2    0    0 -0.18823989514E+02  0.26276686300E+02 -0.28962301819E+02  0.43400711409E+02  0.00000000000E+00 0.  1.
         11    1    3    3    0    0  0.12727812223E+02 -0.15153753446E+02  0.25607288380E+02  0.32363044757E+02  0.51100000000E-03 0. -1.
        -11    1    3    3    0    0  0.48189486871E+01 -0.10939168225E+01  0.94848702071E+00  0.50317540036E+01  0.51100000000E-03 0.  1.
        -12    1    3    3    0    0  0.12772286041E+01 -0.10029016031E+02  0.24065264182E+01  0.10392489830E+02  0.00000000000E+00 0.  1.
</event>
<event>
 7    1  0.3807360E-011  0.4778727E+02  0.7816164E-02  0.1312668E+00
        -11   -1    0    0    0    0  0.00000000000E+00  0.00000000000E+00  0.45593999997E+02  0.45594000000E+02  0.51100000000E-03 0. -1.
         11   -1    0    0    0    0 -0.00000000000E+00 -0.00000000000E+00 -0.45593999997E+02  0.45594000000E+02  0.51100000000E-03 0.  1.
    9900012    2    1    2    0    0 -0.13695727525E+02 -0.24706909078E+02  0.32948732102E+02  0.47787271253E+02  0.20000000951E+02 0.  0.
        -12    1    1    2    0    0  0.13695727525E+02  0.24706909078E+02 -0.32948732102E+02  0.43400728747E+02  0.00000000000E+00 0.  1.
         11    1    3    3    0    0 -0.15800070050E+02 -0.19100668498E+02  0.23489655049E+02  0.34150280310E+02  0.51100000000E-03 0. -1.
        -11    1    3    3    0    0  0.30844944324E-01 -0.28659303257E+01  0.97746235186E+01  0.10186155960E+02  0.51100000000E-03 0.  1.
        -12    1    3    3    0    0  0.20734975811E+01 -0.27403102548E+01 -0.31554646563E+00  0.34508349835E+01  0.00000000000E+00 0.  1.
</event>
<event>
 7    1  0.3807360E-011  0.4778726E+02  0.7816164E-02  0.1312668E+00
        -11   -1    0    0    0    0  0.00000000000E+00  0.00000000000E+00  0.45593999997E+02  0.45594000000E+02  0.51100000000E-03 0. -1.
         11   -1    0    0    0    0 -0.00000000000E+00 -0.00000000000E+00 -0.45593999997E+02  0.45594000000E+02  0.51100000000E-03 0.  1.
    9900012    2    1    2    0    0 -0.29976826197E+02  0.26819357067E+02  0.16301421264E+02  0.47787258560E+02  0.19999943077E+02 0.  0.
        -12    1    1    2    0    0  0.29976826197E+02 -0.26819357067E+02 -0.16301421264E+02  0.43400741440E+02  0.00000000000E+00 0.  1.
         11    1    3    3    0    0 -0.13162163255E+02  0.17207583181E+02  0.22195074527E+01  0.21777733447E+02  0.51100000000E-03 0. -1.
        -11    1    3    3    0    0 -0.45355359290E+01  0.71766227527E+01  0.93436488894E+01  0.12624530689E+02  0.51100000000E-03 0.  1.
        -12    1    3    3    0    0 -0.12279127013E+02  0.24351511331E+01  0.47382649219E+01  0.13384994423E+02  0.00000000000E+00 0.  1.
</event>
<event>
 7    1  0.3807360E-011  0.4778727E+02  0.7816164E-02  0.1312668E+00
        -11   -1    0    0    0    0  0.00000000000E+00  0.00000000000E+00  0.45593999997E+02  0.45594000000E+02  0.51100000000E-03 0.  1.
         11   -1    0    0    0    0 -0.00000000000E+00 -0.00000000000E+00 -0.45593999997E+02  0.45594000000E+02  0.51100000000E-03 0. -1.
    9900012    2    1    2    0    0 -0.81367831082E+01  0.42046978459E+02 -0.70333170391E+01  0.47787272063E+02  0.20000004645E+02 0.  0.
         12    1    1    2    0    0  0.81367831082E+01 -0.42046978459E+02  0.70333170391E+01  0.43400727937E+02  0.00000000000E+00 0. -1.
         11    1    3    3    0    0  0.38735282783E+01  0.23902987402E+02 -0.88780719656E+01  0.25791029257E+02  0.51100000000E-03 0. -1.
        -11    1    3    3    0    0 -0.59788811518E+01  0.11139928222E+02  0.47234944789E+00  0.12651803621E+02  0.51100000000E-03 0.  1.
         12    1    3    3    0    0 -0.60314302347E+01  0.70040628353E+01  0.13724054786E+01  0.93444391846E+01  0.00000000000E+00 0. -1.
</event>
<event>
 7    1  0.3807360E-011  0.4778727E+02  0.7816164E-02  0.1312668E+00
        -11   -1    0    0    0    0  0.00000000000E+00  0.00000000000E+00  0.45593999997E+02  0.45594000000E+02  0.51100000000E-03 0. -1.
         11   -1    0    0    0    0 -0.00000000000E+00 -0.00000000000E+00 -0.45593999997E+02  0.45594000000E+02  0.51100000000E-03 0.  1.
    9900012    2    1    2    0    0 -0.10322302630E+02  0.18691252582E+02  0.37785057893E+02  0.47787268962E+02  0.19999990507E+02 0.  0.
        -12    1    1    2    0    0  0.10322302630E+02 -0.18691252582E+02 -0.37785057893E+02  0.43400731038E+02  0.00000000000E+00 0.  1.
         11    1    3    3    0    0  0.23703109578E+01  0.77818335603E+01  0.30471448913E+01  0.86867945669E+01  0.51100000000E-03 0.  1.
        -11    1    3    3    0    0 -0.79450633917E+01  0.95600246527E+01  0.19901155824E+02  0.23464315610E+02  0.51100000000E-03 0. -1.
        -12    1    3    3    0    0 -0.47475501962E+01  0.13493943686E+01  0.14836757177E+02  0.15636158785E+02  0.00000000000E+00 0.  1.
</event>
<event>
 7    1  0.3807360E-011  0.4778727E+02  0.7816164E-02  0.1312668E+00
        -11   -1    0    0    0    0  0.00000000000E+00  0.00000000000E+00  0.45593999997E+02  0.45594000000E+02  0.51100000000E-03 0. -1.
         11   -1    0    0    0    0 -0.00000000000E+00 -0.00000000000E+00 -0.45593999997E+02  0.45594000000E+02  0.51100000000E-03 0.  1.
    9900012    2    1    2    0    0  0.33715503865E+01 -0.23274434055E+01 -0.43206931535E+02  0.47787271003E+02  0.19999999811E+02 0.  0.
         12    1    1    2    0    0 -0.33715503865E+01  0.23274434055E+01  0.43206931535E+02  0.43400728997E+02  0.00000000000E+00 0. -1.
         11    1    3    3    0    0  0.56141695549E+01 -0.10146631197E+01 -0.38511743323E+01  0.68833120689E+01  0.51100000000E-03 0. -1.
        -11    1    3    3    0    0  0.10118287619E+01  0.44069542621E+01 -0.17855833797E+02  0.18419442015E+02  0.51100000000E-03 0.  1.
        -12    1    3    3    0    0 -0.32544479303E+01 -0.57197345478E+01 -0.21499923406E+02  0.22484516919E+02  0.00000000000E+00 0.  1.
</event>
<event>
 7    1  0.3807360E-011  0.4778729E+02  0.7816164E-02  0.1312668E+00
        -11   -1    0    0    0    0  0.00000000000E+00  0.00000000000E+00  0.45593999997E+02  0.45594000000E+02  0.51100000000E-03 0. -1.
         11   -1    0    0    0    0 -0.00000000000E+00 -0.00000000000E+00 -0.45593999997E+02  0.45594000000E+02  0.51100000000E-03 0.  1.
    9900012    2    1    2    0    0 -0.30966460711E+02 -0.63402814586E+01 -0.29740554807E+02  0.47787291962E+02  0.20000095372E+02 0.  0.
         12    1    1    2    0    0  0.30966460711E+02  0.63402814586E+01  0.29740554807E+02  0.43400708038E+02  0.00000000000E+00 0. -1.
         11    1    3    3    0    0 -0.12112809581E+02 -0.67948890736E+01 -0.12604117293E+02  0.18755117874E+02  0.51100000000E-03 0. -1.
        -11    1    3    3    0    0 -0.15556174540E+02  0.22451017580E+01 -0.52553809630E+01  0.16572690716E+02  0.51100000000E-03 0.  1.
         12    1    3    3    0    0 -0.32974765898E+01 -0.17904941431E+01 -0.11881056552E+02  0.12459483373E+02  0.00000000000E+00 0. -1.
</event>
<event>
 7    1  0.3807360E-011  0.4778723E+02  0.7816164E-02  0.1312668E+00
        -11   -1    0    0    0    0  0.00000000000E+00  0.00000000000E+00  0.45593999997E+02  0.45594000000E+02  0.51100000000E-03 0. -1.
         11   -1    0    0    0    0 -0.00000000000E+00 -0.00000000000E+00 -0.45593999997E+02  0.45594000000E+02  0.51100000000E-03 0.  1.
    9900012    2    1    2    0    0 -0.16693272163E+01  0.40272190059E+02 -0.16093187156E+02  0.47787232514E+02  0.19999824325E+02 0.  0.
         12    1    1    2    0    0  0.16693272163E+01 -0.40272190059E+02  0.16093187156E+02  0.43400767486E+02  0.00000000000E+00 0. -1.
         11    1    3    3    0    0 -0.22419334712E+00  0.86625757237E+00 -0.33812908335E+01  0.34976839194E+01  0.51100000000E-03 0. -1.
        -11    1    3    3    0    0 -0.99386812674E+00  0.21935705809E+02 -0.15102864864E+02  0.26650693998E+02  0.51100000000E-03 0.  1.
        -12    1    3    3    0    0 -0.45126574246E+00  0.17470226677E+02  0.23909685412E+01  0.17638854597E+02  0.00000000000E+00 0.  1.
</event>
<event>
 7    1  0.3807360E-011  0.4778727E+02  0.7816164E-02  0.1312668E+00
        -11   -1    0    0    0    0  0.00000000000E+00  0.00000000000E+00  0.45593999997E+02  0.45594000000E+02  0.51100000000E-03 0.  1.
         11   -1    0    0    0    0 -0.00000000000E+00 -0.00000000000E+00 -0.45593999997E+02  0.45594000000E+02  0.51100000000E-03 0. -1.
    9900012    2    1    2    0    0  0.28654156067E+02  0.12571796197E+02 -0.30075114962E+02  0.47787271210E+02  0.20000000755E+02 0.  0.
         12    1    1    2    0    0 -0.28654156067E+02 -0.12571796197E+02  0.30075114962E+02  0.43400728790E+02  0.00000000000E+00 0. -1.
         11    1    3    3    0    0  0.12318138323E+02  0.35178369084E+01 -0.87227000783E+01  0.15498296848E+02  0.51100000000E-03 0.  1.
        -11    1    3    3    0    0 -0.21899637835E+01 -0.87055618012E-01 -0.64616072539E+01  0.68231875702E+01  0.51100000000E-03 0. -1.
         12    1    3    3    0    0  0.18525981527E+02  0.91410149064E+01 -0.14890807630E+02  0.25465786792E+02  0.00000000000E+00 0. -1.
</event>
<event>
 7    1  0.3807360E-011  0.4778729E+02  0.7816164E-02  0.1312668E+00
        -11   -1    0    0    0    0  0.00000000000E+00  0.00000000000E+00  0.45593999997E+02  0.45594000000E+02  0.51100000000E-03 0. -1.
         11   -1    0    0    0    0 -0.00000000000E+00 -0.00000000000E+00 -0.45593999997E+02  0.45594000000E+02  0.51100000000E-03 0.  1.
    9900012    2    1    2    0    0  0.30839317047E+02  0.10674063019E+02 -0.28611581725E+02  0.47787289106E+02  0.20000082351E+02 0.  0.
         12    1    1    2    0    0 -0.30839317047E+02 -0.10674063019E+02  0.28611581725E+02  0.43400710894E+02  0.00000000000E+00 0. -1.
         11    1    3    3    0    0  0.12040264064E+02  0.43483383487E+00 -0.86300694690E+01  0.14820092391E+02  0.51100000000E-03 0. -1.
        -11    1    3    3    0    0  0.22779918883E+01  0.87731466098E+01 -0.39081713259E+01  0.98707219520E+01  0.51100000000E-03 0.  1.
        -12    1    3    3    0    0  0.16521061096E+02  0.14660825747E+01 -0.16073340930E+02  0.23096474763E+02  0.00000000000E+00 0.  1.
</event>
<event>
 7    1  0.3807360E-011  0.4778727E+02  0.7816164E-02  0.1312668E+00
        -11   -1    0    0    0    0  0.00000000000E+00  0.00000000000E+00  0.45593999997E+02  0.45594000000E+02  0.51100000000E-03 0. -1.
         11   -1    0    0    0    0 -0.00000000000E+00 -0.00000000000E+00 -0.45593999997E+02  0.45594000000E+02  0.51100000000E-03 0.  1.
    9900012    2    1    2    0    0  0.17960099621E+02 -0.22666460838E+02  0.32361854395E+02  0.47787271374E+02  0.20000001505E+02 0.  0.
        -12    1    1    2    0    0 -0.17960099621E+02  0.22666460838E+02 -0.32361854395E+02  0.43400728626E+02  0.00000000000E+00 0.  1.
         11    1    3    3    0    0  0.64118514401E+01 -0.42090410079E+01  0.14886415413E+02  0.16746140726E+02  0.51100000000E-03 0. -1.
        -11    1    3    3    0    0  0.27548302498E+01  0.19826230441E+01  0.26003026615E+01  0.42756821716E+01  0.51100000000E-03 0.  1.
         12    1    3    3    0    0  0.87934179312E+01 -0.20440042874E+02  0.14875136320E+02  0.26765448477E+02  0.00000000000E+00 0. -1.
</event>
<event>
 7    1  0.4002095E-011  0.4778727E+02  0.7816164E-02  0.1312668E+00
        -11   -1    0    0    0    0  0.00000000000E+00  0.00000000000E+00  0.45593999997E+02  0.45594000000E+02  0.51100000000E-03 0. -1.
         11   -1    0    0    0    0 -0.00000000000E+00 -0.00000000000E+00 -0.45593999997E+02  0.45594000000E+02  0.51100000000E-03 0.  1.
    9900012    2    1    2    0    0 -0.15390313739E+02  0.41546322518E+00 -0.40578182770E+02  0.47787270933E+02  0.19999999491E+02 0.  0.
         12    1    1    2    0    0  0.15390313739E+02 -0.41546322518E+00  0.40578182770E+02  0.43400729067E+02  0.00000000000E+00 0. -1.
         11    1    3    3    0    0 -0.62275502583E+01  0.41106109772E+00 -0.28900629905E+02  0.29566835519E+02  0.51100000000E-03 0. -1.
        -11    1    3    3    0    0 -0.10837280235E+02  0.18047276006E+00 -0.12328195758E+02  0.16415347216E+02  0.51100000000E-03 0.  1.
         12    1    3    3    0    0  0.16745167543E+01 -0.17607063260E+00  0.65064289332E+00  0.18050881981E+01  0.00000000000E+00 0. -1.
</event>
<event>
 7    1  0.3807360E-011  0.4778726E+02  0.7816164E-02  0.1312668E+00
        -11   -1    0    0    0    0  0.00000000000E+00  0.00000000000E+00  0.45593999997E+02  0.45594000000E+02  0.51100000000E-03 0. -1.
         11   -1    0    0    0    0 -0.00000000000E+00 -0.00000000000E+00 -0.45593999997E+02  0.45594000000E+02  0.51100000000E-03 0.  1.
    9900012    2    1    2    0    0  0.63525630364E+01 -0.11674447446E+02  0.41315567993E+02  0.47787263383E+02  0.19999965069E+02 0.  0.
        -12    1    1    2    0    0 -0.63525630364E+01  0.11674447446E+02 -0.41315567993E+02  0.43400736617E+02  0.00000000000E+00 0.  1.
         11    1    3    3    0    0  0.31337352721E+01 -0.77433775997E+01  0.72331509852E+01  0.11049826553E+02  0.51100000000E-03 0. -1.
        -11    1    3    3    0    0  0.58305030617E+01 -0.56949480964E+01  0.31847593772E+02  0.32873947574E+02  0.51100000000E-03 0.  1.
        -12    1    3    3    0    0 -0.26116752974E+01  0.17638782497E+01  0.22348232359E+01  0.38634892565E+01  0.00000000000E+00 0.  1.
</event>
<event>
 7    1  0.3807360E-011  0.4778727E+02  0.7816164E-02  0.1312668E+00
        -11   -1    0    0    0    0  0.00000000000E+00  0.00000000000E+00  0.45593999997E+02  0.45594000000E+02  0.51100000000E-03 0. -1.
         11   -1    0    0    0    0 -0.00000000000E+00 -0.00000000000E+00 -0.45593999997E+02  0.45594000000E+02  0.51100000000E-03 0.  1.
    9900012    2    1    2    0    0 -0.80360515319E+01  0.16660155912E+02  0.39261744358E+02  0.47787268563E+02  0.19999988684E+02 0.  0.
        -12    1    1    2    0    0  0.80360515319E+01 -0.16660155912E+02 -0.39261744358E+02  0.43400731437E+02  0.00000000000E+00 0.  1.
         11    1    3    3    0    0 -0.44665855522E+01 -0.12620677987E+01  0.12245778564E+02  0.13095888458E+02  0.51100000000E-03 0.  1.
        -11    1    3    3    0    0  0.36692381496E+01  0.40597185139E+01  0.36604205208E+01  0.65835629913E+01  0.51100000000E-03 0. -1.
         12    1    3    3    0    0 -0.72387041293E+01  0.13862505197E+02  0.23355545274E+02  0.28107817113E+02  0.00000000000E+00 0. -1.
</event>
<event>
 7    1  0.3807360E-011  0.4778727E+02  0.7816164E-02  0.1312668E+00
        -11   -1    0    0    0    0  0.00000000000E+00  0.00000000000E+00  0.45593999997E+02  0.45594000000E+02  0.51100000000E-03 0. -1.
         11   -1    0    0    0    0 -0.00000000000E+00 -0.00000000000E+00 -0.45593999997E+02  0.45594000000E+02  0.51100000000E-03 0.  1.
    9900012    2    1    2    0    0 -0.10918617191E+02 -0.11810439065E+02 -0.40310303262E+02  0.47787271649E+02  0.20000002757E+02 0.  0.
         12    1    1    2    0    0  0.10918617191E+02  0.11810439065E+02  0.40310303262E+02  0.43400728351E+02  0.00000000000E+00 0. -1.
         11    1    3    3    0    0 -0.26092632007E+01  0.25923796826E+01 -0.57470907502E+01  0.68233231803E+01  0.51100000000E-03 0. -1.
        -11    1    3    3    0    0 -0.28956164392E+01 -0.41150642677E+01 -0.26109564123E+02  0.26589992242E+02  0.51100000000E-03 0.  1.
         12    1    3    3    0    0 -0.54137375515E+01 -0.10287754480E+02 -0.84536483891E+01  0.14373956226E+02  0.00000000000E+00 0. -1.
</event>
<event>
 7    1  0.3807360E-011  0.4778727E+02  0.7816164E-02  0.1312668E+00
        -11   -1    0    0    0    0  0.00000000000E+00  0.00000000000E+00  0.45593999997E+02  0.45594000000E+02  0.51100000000E-03 0. -1.
         11   -1    0    0    0    0 -0.00000000000E+00 -0.00000000000E+00 -0.45593999997E+02  0.45594000000E+02  0.51100000000E-03 0.  1.
    9900012    2    1    2    0    0 -0.14952816194E+02  0.10397151225E+02  0.39394619351E+02  0.47787268445E+02  0.19999988147E+02 0.  0.
        -12    1    1    2    0    0  0.14952816194E+02 -0.10397151225E+02 -0.39394619351E+02  0.43400731555E+02  0.00000000000E+00 0.  1.
         11    1    3    3    0    0 -0.77248624799E+01  0.85419883818E+01  0.32833158461E+02  0.34794473133E+02  0.51100000000E-03 0. -1.
        -11    1    3    3    0    0  0.13219665193E+00  0.18101579935E+01 -0.12931665792E+01  0.22285484017E+01  0.51100000000E-03 0.  1.
        -12    1    3    3    0    0 -0.73601503663E+01  0.45004849877E-01  0.78546274692E+01  0.10764246910E+02  0.00000000000E+00 0.  1.
</event>
<event>
 7    1  0.3807360E-011  0.4778725E+02  0.7816164E-02  0.1312668E+00
        -11   -1    0    0    0    0  0.00000000000E+00  0.00000000000E+00  0.45593999997E+02  0.45594000000E+02  0.51100000000E-03 0. -1.
         11   -1    0    0    0    0 -0.00000000000E+00 -0.00000000000E+00 -0.45593999997E+02  0.45594000000E+02  0.51100000000E-03 0.  1.
    9900012    2    1    2    0    0 -0.37405809920E+02  0.21988568473E+02 -0.96590609077E+00  0.47787254225E+02  0.19999923313E+02 0.  0.
        -12    1    1    2    0    0  0.37405809920E+02 -0.21988568473E+02  0.96590609077E+00  0.43400745775E+02  0.00000000000E+00 0.  1.
         11    1    3    3    0    0 -0.16382978939E+02  0.92336573886E+01 -0.58279938572E+00  0.18814943079E+02  0.51100000000E-03 0. -1.
        -11    1    3    3    0    0 -0.40113260778E+01 -0.23569574270E+01  0.35863425720E+01  0.58743372834E+01  0.51100000000E-03 0.  1.
        -12    1    3    3    0    0 -0.17011504903E+02  0.15111868512E+02 -0.39694492770E+01  0.23097973862E+02  0.00000000000E+00 0.  1.
</event>
<event>
 7    1  0.3807360E-011  0.4778727E+02  0.7816164E-02  0.1312668E+00
        -11   -1    0    0    0    0  0.00000000000E+00  0.00000000000E+00  0.45593999997E+02  0.45594000000E+02  0.51100000000E-03 0. -1.
         11   -1    0    0    0    0 -0.00000000000E+00 -0.00000000000E+00 -0.45593999997E+02  0.45594000000E+02  0.51100000000E-03 0.  1.
    9900012    2    1    2    0    0 -0.19845382180E+02 -0.11068618580E+02  0.36976613243E+02  0.47787269152E+02  0.19999991374E+02 0.  0.
        -12    1    1    2    0    0  0.19845382180E+02  0.11068618580E+02 -0.36976613243E+02  0.43400730848E+02  0.00000000000E+00 0.  1.
         11    1    3    3    0    0 -0.12300766608E+02 -0.50115010657E+01  0.15304921937E+02  0.20264862147E+02  0.51100000000E-03 0. -1.
        -11    1    3    3    0    0 -0.82195999374E+00 -0.64916904573E+01  0.21763755902E+01  0.68959607159E+01  0.51100000000E-03 0.  1.
        -12    1    3    3    0    0 -0.67226555785E+01  0.43457294255E+00  0.19495315716E+02  0.20626446290E+02  0.00000000000E+00 0.  1.
</event>
<event>
 7    1  0.3807360E-011  0.4778727E+02  0.7816164E-02  0.1312668E+00
        -11   -1    0    0    0    0  0.00000000000E+00  0.00000000000E+00  0.45593999997E+02  0.45594000000E+02  0.51100000000E-03 0. -1.
         11   -1    0    0    0    0 -0.00000000000E+00 -0.00000000000E+00 -0.45593999997E+02  0.45594000000E+02  0.51100000000E-03 0.  1.
    9900012    2    1    2    0    0  0.18518265946E+02  0.34182783393E+02  0.19293378284E+02  0.47787270746E+02  0.19999998639E+02 0.  0.
        -12    1    1    2    0    0 -0.18518265946E+02 -0.34182783393E+02 -0.19293378284E+02  0.43400729254E+02  0.00000000000E+00 0.  1.
         11    1    3    3    0    0 -0.23096915070E+01  0.71045190587E+01  0.55174518835E+01  0.92871492644E+01  0.51100000000E-03 0. -1.
        -11    1    3    3    0    0  0.13321749835E+02  0.23348199554E+02  0.71511624150E+01  0.27816300351E+02  0.51100000000E-03 0.  1.
         12    1    3    3    0    0  0.75062076182E+01  0.37300647803E+01  0.66247639859E+01  0.10683821130E+02  0.00000000000E+00 0. -1.
</event>
<event>
 7    1  0.3807360E-011  0.4778727E+02  0.7816164E-02  0.1312668E+00
        -11   -1    0    0    0    0  0.00000000000E+00  0.00000000000E+00  0.45593999997E+02  0.45594000000E+02  0.51100000000E-03 0. -1.
         11   -1    0    0    0    0 -0.00000000000E+00 -0.00000000000E+00 -0.45593999997E+02  0.45594000000E+02  0.51100000000E-03 0.  1.
    9900012    2    1    2    0    0 -0.53213412960E+01  0.26519896283E+02 -0.33941146623E+02  0.47787274129E+02  0.20000014066E+02 0.  0.
         12    1    1    2    0    0  0.53213412960E+01 -0.26519896283E+02  0.33941146623E+02  0.43400725871E+02  0.00000000000E+00 0. -1.
         11    1    3    3    0    0 -0.30618534842E+01  0.98159402583E+01 -0.16805668671E+02  0.19701729103E+02  0.51100000000E-03 0. -1.
        -11    1    3    3    0    0  0.61403006180E+01  0.85563120419E+01 -0.75415842736E+01  0.12953349414E+02  0.51100000000E-03 0.  1.
         12    1    3    3    0    0 -0.83997884298E+01  0.81476439824E+01 -0.95938936783E+01  0.15132195612E+02  0.00000000000E+00 0. -1.
</event>
<event>
 7    1  0.3807360E-011  0.4778727E+02  0.7816164E-02  0.1312668E+00
        -11   -1    0    0    0    0  0.00000000000E+00  0.00000000000E+00  0.45593999997E+02  0.45594000000E+02  0.51100000000E-03 0. -1.
         11   -1    0    0    0    0 -0.00000000000E+00 -0.00000000000E+00 -0.45593999997E+02  0.45594000000E+02  0.51100000000E-03 0.  1.
    9900012    2    1    2    0    0 -0.40329795123E+01  0.54150259363E+01  0.42872319742E+02  0.47787271553E+02  0.20000002319E+02 0.  0.
        -12    1    1    2    0    0  0.40329795123E+01 -0.54150259363E+01 -0.42872319742E+02  0.43400728447E+02  0.00000000000E+00 0.  1.
         11    1    3    3    0    0  0.35906187531E+01  0.40461120026E+01  0.11347862077E+02  0.12571298237E+02  0.51100000000E-03 0. -1.
        -11    1    3    3    0    0 -0.60056130085E+01  0.30549376572E+01  0.45268260626E+01  0.81174002094E+01  0.51100000000E-03 0.  1.
        -12    1    3    3    0    0 -0.16179852568E+01 -0.16860237236E+01  0.26997631602E+02  0.27098573107E+02  0.00000000000E+00 0.  1.
</event>
<event>
 7    1  0.3807360E-011  0.4778727E+02  0.7816164E-02  0.1312668E+00
        -11   -1    0    0    0    0  0.00000000000E+00  0.00000000000E+00  0.45593999997E+02  0.45594000000E+02  0.51100000000E-03 0. -1.
         11   -1    0    0    0    0 -0.00000000000E+00 -0.00000000000E+00 -0.45593999997E+02  0.45594000000E+02  0.51100000000E-03 0.  1.
    9900012    2    1    2    0    0 -0.30495259746E+01  0.10088617767E+02 -0.42101585419E+02  0.47787270606E+02  0.19999998003E+02 0.  0.
         12    1    1    2    0    0  0.30495259746E+01 -0.10088617767E+02  0.42101585419E+02  0.43400729394E+02  0.00000000000E+00 0. -1.
         11    1    3    3    0    0 -0.95211368981E+01  0.34089868292E+01 -0.17756166419E+02  0.20434154869E+02  0.51100000000E-03 0. -1.
        -11    1    3    3    0    0  0.22480266976E+01 -0.11680978218E+01 -0.11121579398E+02  0.11406472072E+02  0.51100000000E-03 0.  1.
        -12    1    3    3    0    0  0.42235842259E+01  0.78477287596E+01 -0.13223839602E+02  0.15946643666E+02  0.00000000000E+00 0.  1.
</event>
<event>
 7    1  0.3807360E-011  0.4778726E+02  0.7816164E-02  0.1312668E+00
        -11   -1    0    0    0    0  0.00000000000E+00  0.00000000000E+00  0.45593999997E+02  0.45594000000E+02  0.51100000000E-03 0. -1.
         11   -1    0    0    0    0 -0.00000000000E+00 -0.00000000000E+00 -0.45593999997E+02  0.45594000000E+02  0.51100000000E-03 0.  1.
    9900012    2    1    2    0    0  0.12821089372E+02  0.61869225754E+01  0.40999582349E+02  0.47787261568E+02  0.19999956793E+02 0.  0.
        -12    1    1    2    0    0 -0.12821089372E+02 -0.61869225754E+01 -0.40999582349E+02  0.43400738432E+02  0.00000000000E+00 0.  1.
         11    1    3    3    0    0  0.16068859777E+00  0.56796118107E+01  0.16819811568E+02  0.17753587598E+02  0.51100000000E-03 0. -1.
        -11    1    3    3    0    0  0.19679206652E+01 -0.50158577478E+01  0.10584271984E+02  0.11876798996E+02  0.51100000000E-03 0.  1.
        -12    1    3    3    0    0  0.10692480109E+02  0.55231685124E+01  0.13595498797E+02  0.18156874974E+02  0.00000000000E+00 0.  1.
</event>
<event>
 7    1  0.3807360E-011  0.4778727E+02  0.7816164E-02  0.1312668E+00
        -11   -1    0    0    0    0  0.00000000000E+00  0.00000000000E+00  0.45593999997E+02  0.45594000000E+02  0.51100000000E-03 0. -1.
         11   -1    0    0    0    0 -0.00000000000E+00 -0.00000000000E+00 -0.45593999997E+02  0.45594000000E+02  0.51100000000E-03 0.  1.
    9900012    2    1    2    0    0  0.25231871147E+02  0.38512708608E+00 -0.35310449379E+02  0.47787268672E+02  0.19999989183E+02 0.  0.
         12    1    1    2    0    0 -0.25231871147E+02 -0.38512708608E+00  0.35310449379E+02  0.43400731328E+02  0.00000000000E+00 0. -1.
         11    1    3    3    0    0  0.14031527316E+02  0.12457950725E+01 -0.11790115511E+02  0.18369610453E+02  0.51100000000E-03 0. -1.
        -11    1    3    3    0    0  0.14209061955E+02  0.57211917261E+00 -0.20284440771E+02  0.24772632069E+02  0.51100000000E-03 0.  1.
         12    1    3    3    0    0 -0.30087181240E+01 -0.14327871590E+01 -0.32358930970E+01  0.46450261493E+01  0.00000000000E+00 0. -1.
</event>
<event>
 7    1  0.3807360E-011  0.4778727E+02  0.7816164E-02  0.1312668E+00
        -11   -1    0    0    0    0  0.00000000000E+00  0.00000000000E+00  0.45593999997E+02  0.45594000000E+02  0.51100000000E-03 0. -1.
         11   -1    0    0    0    0 -0.00000000000E+00 -0.00000000000E+00 -0.45593999997E+02  0.45594000000E+02  0.51100000000E-03 0.  1.
    9900012    2    1    2    0    0 -0.61339103574E+01 -0.20665349273E+02  0.37668841924E+02  0.47787272255E+02  0.20000005521E+02 0.  0.
        -12    1    1    2    0    0  0.61339103574E+01  0.20665349273E+02 -0.37668841924E+02  0.43400727745E+02  0.00000000000E+00 0.  1.
         11    1    3    3    0    0 -0.51771308448E+01 -0.98796335113E+01  0.10536452450E+02  0.15343619931E+02  0.51100000000E-03 0. -1.
        -11    1    3    3    0    0  0.61077001626E+00 -0.64699077794E+01  0.18629432068E+01  0.67604219055E+01  0.51100000000E-03 0.  1.
         12    1    3    3    0    0 -0.15675495289E+01 -0.43158079825E+01  0.25269446268E+02  0.25683230419E+02  0.00000000000E+00 0. -1.
</event>
<event>
 7    1  0.3807360E-011  0.4778727E+02  0.7816164E-02  0.1312668E+00
        -11   -1    0    0    0    0  0.00000000000E+00  0.00000000000E+00  0.45593999997E+02  0.45594000000E+02  0.51100000000E-03 0. -1.
         11   -1    0    0    0    0 -0.00000000000E+00 -0.00000000000E+00 -0.45593999997E+02  0.45594000000E+02  0.51100000000E-03 0.  1.
    9900012    2    1    2    0    0 -0.75848884331E+01  0.34200556229E+02 -0.25620589073E+02  0.47787272318E+02  0.20000005806E+02 0.  0.
         12    1    1    2    0    0  0.75848884331E+01 -0.34200556229E+02  0.25620589073E+02  0.43400727682E+02  0.00000000000E+00 0. -1.
         11    1    3    3    0    0  0.53419894026E+00  0.13668129126E+02 -0.14101727261E+02  0.19645911390E+02  0.51100000000E-03 0. -1.
        -11    1    3    3    0    0 -0.60398394901E+00  0.13785829318E+02 -0.14410950727E+01  0.13874099677E+02  0.51100000000E-03 0.  1.
        -12    1    3    3    0    0 -0.75151034244E+01  0.67465977845E+01 -0.10077766739E+02  0.14267261251E+02  0.00000000000E+00 0.  1.
</event>
<event>
 7    1  0.4028543E-011  0.4778727E+02  0.7816164E-02  0.1312668E+00
        -11   -1    0    0    0    0  0.00000000000E+00  0.00000000000E+00  0.45593999997E+02  0.45594000000E+02  0.51100000000E-03 0.  1.
         11   -1    0    0    0    0 -0.00000000000E+00 -0.00000000000E+00 -0.45593999997E+02  0.45594000000E+02  0.51100000000E-03 0. -1.
    9900012    2    1    2    0    0 -0.20751047649E+02 -0.34468790772E+02 -0.16276366230E+02  0.47787267132E+02  0.19999982160E+02 0.  0.
         12    1    1    2    0    0  0.20751047649E+02  0.34468790772E+02  0.16276366230E+02  0.43400732868E+02  0.00000000000E+00 0. -1.
         11    1    3    3    0    0  0.57395522806E+00  0.21822184620E+01 -0.60609229262E+00  0.23364182305E+01  0.51100000000E-03 0. -1.
        -11    1    3    3    0    0 -0.75903889724E+01 -0.13849674528E+02 -0.34715327055E+01  0.16170313197E+02  0.51100000000E-03 0.  1.
         12    1    3    3    0    0 -0.13734613905E+02 -0.22801334706E+02 -0.12198741232E+02  0.29280535704E+02  0.00000000000E+00 0. -1.
</event>
<event>
 7    1  0.3807360E-011  0.4778727E+02  0.7816164E-02  0.1312668E+00
        -11   -1    0    0    0    0  0.00000000000E+00  0.00000000000E+00  0.45593999997E+02  0.45594000000E+02  0.51100000000E-03 0. -1.
         11   -1    0    0    0    0 -0.00000000000E+00 -0.00000000000E+00 -0.45593999997E+02  0.45594000000E+02  0.51100000000E-03 0.  1.
    9900012    2    1    2    0    0  0.12022989681E+02 -0.15547403318E+02 -0.38695597166E+02  0.47787271079E+02  0.20000000159E+02 0.  0.
         12    1    1    2    0    0 -0.12022989681E+02  0.15547403318E+02  0.38695597166E+02  0.43400728921E+02  0.00000000000E+00 0. -1.
         11    1    3    3    0    0 -0.19594569664E+01  0.14136872617E+01 -0.62857027518E+01  0.67340955311E+01  0.51100000000E-03 0. -1.
        -11    1    3    3    0    0  0.14591586820E+02 -0.95773413529E+01 -0.25641343646E+02  0.31018033103E+02  0.51100000000E-03 0.  1.
         12    1    3    3    0    0 -0.60914017281E+00 -0.73837492272E+01 -0.67685507678E+01  0.10035142445E+02  0.00000000000E+00 0. -1.
</event>
<event>
 7    1  0.3807360E-011  0.4778727E+02  0.7816164E-02  0.1312668E+00
        -11   -1    0    0    0    0  0.00000000000E+00  0.00000000000E+00  0.45593999997E+02  0.45594000000E+02  0.51100000000E-03 0. -1.
         11   -1    0    0    0    0 -0.00000000000E+00 -0.00000000000E+00 -0.45593999997E+02  0.45594000000E+02  0.51100000000E-03 0.  1.
    9900012    2    1    2    0    0  0.23493548710E+02  0.28961121065E+02 -0.22202021817E+02  0.47787272620E+02  0.20000007184E+02 0.  0.
         12    1    1    2    0    0 -0.23493548710E+02 -0.28961121065E+02  0.22202021817E+02  0.43400727380E+02  0.00000000000E+00 0. -1.
         11    1    3    3    0    0 -0.27656139051E+01  0.31730307576E+01 -0.21557757773E+00  0.42146433318E+01  0.51100000000E-03 0. -1.
        -11    1    3    3    0    0  0.13600176160E+02  0.11964561037E+02 -0.15171375452E+02  0.23628079603E+02  0.51100000000E-03 0.  1.
        -12    1    3    3    0    0  0.12658986455E+02  0.13823529270E+02 -0.68150687881E+01  0.19944549685E+02  0.00000000000E+00 0.  1.
</event>
<event>
 7    1  0.3807360E-011  0.4778727E+02  0.7816164E-02  0.1312668E+00
        -11   -1    0    0    0    0  0.00000000000E+00  0.00000000000E+00  0.45593999997E+02  0.45594000000E+02  0.51100000000E-03 0. -1.
         11   -1    0    0    0    0 -0.00000000000E+00 -0.00000000000E+00 -0.45593999997E+02  0.45594000000E+02  0.51100000000E-03 0.  1.
    9900012    2    1    2    0    0  0.11333954663E+02 -0.46812486096E+01  0.41632325281E+02  0.47787272758E+02  0.20000007812E+02 0.  0.
        -12    1    1    2    0    0 -0.11333954663E+02  0.46812486096E+01 -0.41632325281E+02  0.43400727242E+02  0.00000000000E+00 0.  1.
         11    1    3    3    0    0  0.35571332529E+01  0.31638302428E+01  0.23817896933E+02  0.24288994079E+02  0.51100000000E-03 0. -1.
        -11    1    3    3    0    0 -0.17048718323E+01 -0.49720544388E+01  0.78456051198E+01  0.94435921801E+01  0.51100000000E-03 0.  1.
        -12    1    3    3    0    0  0.94816932428E+01 -0.28730244136E+01  0.99688232275E+01  0.14054686499E+02  0.00000000000E+00 0.  1.
</event>
<event>
 7    1  0.3807360E-011  0.4778726E+02  0.7816164E-02  0.1312668E+00
        -11   -1    0    0    0    0  0.00000000000E+00  0.00000000000E+00  0.45593999997E+02  0.45594000000E+02  0.51100000000E-03 0. -1.
         11   -1    0    0    0    0 -0.00000000000E+00 -0.00000000000E+00 -0.45593999997E+02  0.45594000000E+02  0.51100000000E-03 0.  1.
    9900012    2    1    2    0    0  0.23909729540E+02  0.82285248705E+00  0.36211483718E+02  0.47787264915E+02  0.19999972052E+02 0.  0.
        -12    1    1    2    0    0 -0.23909729540E+02 -0.82285248705E+00 -0.36211483718E+02  0.43400735085E+02  0.00000000000E+00 0.  1.
         11    1    3    3    0    0  0.11513971448E+01 -0.72815809614E+00  0.13911502051E+02  0.13978047760E+02  0.51100000000E-03 0. -1.
        -11    1    3    3    0    0  0.12455261911E+02  0.59783073712E+01  0.15180432590E+02  0.20526062511E+02  0.51100000000E-03 0.  1.
        -12    1    3    3    0    0  0.10303070484E+02 -0.44272967880E+01  0.71195490765E+01  0.13283154645E+02  0.00000000000E+00 0.  1.
</event>
<event>
 7    1  0.3807360E-011  0.4778727E+02  0.7816164E-02  0.1312668E+00
        -11   -1    0    0    0    0  0.00000000000E+00  0.00000000000E+00  0.45593999997E+02  0.45594000000E+02  0.51100000000E-03 0. -1.
         11   -1    0    0    0    0 -0.00000000000E+00 -0.00000000000E+00 -0.45593999997E+02  0.45594000000E+02  0.51100000000E-03 0.  1.
    9900012    2    1    2    0    0 -0.30674462380E+02 -0.12359208080E+02 -0.28106059608E+02  0.47787271281E+02  0.20000001080E+02 0.  0.
         12    1    1    2    0    0  0.30674462380E+02  0.12359208080E+02  0.28106059608E+02  0.43400728719E+02  0.00000000000E+00 0. -1.
         11    1    3    3    0    0 -0.24080819360E+02 -0.10603457964E+02 -0.16183217775E+02  0.30890382317E+02  0.51100000000E-03 0. -1.
        -11    1    3    3    0    0 -0.92106711998E+01 -0.15461909687E+01 -0.95572819476E+01  0.13362964078E+02  0.51100000000E-03 0.  1.
         12    1    3    3    0    0  0.26170281804E+01 -0.20955914666E+00 -0.23655598854E+01  0.35339248867E+01  0.00000000000E+00 0. -1.
</event>
<event>
 7    1  0.3807360E-011  0.4778727E+02  0.7816164E-02  0.1312668E+00
        -11   -1    0    0    0    0  0.00000000000E+00  0.00000000000E+00  0.45593999997E+02  0.45594000000E+02  0.51100000000E-03 0. -1.
         11   -1    0    0    0    0 -0.00000000000E+00 -0.00000000000E+00 -0.45593999997E+02  0.45594000000E+02  0.51100000000E-03 0.  1.
    9900012    2    1    2    0    0  0.19938670462E+02 -0.10396143114E+02  0.37121328191E+02  0.47787269843E+02  0.19999994524E+02 0.  0.
        -12    1    1    2    0    0 -0.19938670462E+02  0.10396143114E+02 -0.37121328191E+02  0.43400730157E+02  0.00000000000E+00 0.  1.
         11    1    3    3    0    0  0.51499773429E+01  0.72822751200E+00  0.23658386013E+02  0.24223373237E+02  0.51100000000E-03 0. -1.
        -11    1    3    3    0    0  0.33068799390E+01 -0.57123593079E+01  0.53811916185E+01  0.85160863834E+01  0.51100000000E-03 0.  1.
         12    1    3    3    0    0  0.11481813180E+02 -0.54120113186E+01  0.80817505593E+01  0.15047810223E+02  0.00000000000E+00 0. -1.
</event>
<event>
 7    1  0.3807360E-011  0.4778728E+02  0.7816164E-02  0.1312668E+00
        -11   -1    0    0    0    0  0.00000000000E+00  0.00000000000E+00  0.45593999997E+02  0.45594000000E+02  0.51100000000E-03 0. -1.
         11   -1    0    0    0    0 -0.00000000000E+00 -0.00000000000E+00 -0.45593999997E+02  0.45594000000E+02  0.51100000000E-03 0.  1.
    9900012    2    1    2    0    0 -0.50811357525E+01 -0.30254915415E+02 -0.30699268379E+02  0.47787275048E+02  0.20000018255E+02 0.  0.
         12    1    1    2    0    0  0.50811357525E+01  0.30254915415E+02  0.30699268379E+02  0.43400724952E+02  0.00000000000E+00 0. -1.
         11    1    3    3    0    0  0.68885581768E+01 -0.17581183980E+02 -0.17009331603E+02  0.25413925823E+02  0.51100000000E-03 0.  1.
        -11    1    3    3    0    0 -0.56829796154E+01 -0.65531142086E+01 -0.49407861401E+01  0.99825312964E+01  0.51100000000E-03 0. -1.
        -12    1    3    3    0    0 -0.62867143138E+01 -0.61206172267E+01 -0.87491506364E+01  0.12390817929E+02  0.00000000000E+00 0.  1.
</event>
<event>
 7    1  0.3807360E-011  0.4778727E+02  0.7816164E-02  0.1312668E+00
        -11   -1    0    0    0    0  0.00000000000E+00  0.00000000000E+00  0.45593999997E+02  0.45594000000E+02  0.51100000000E-03 0. -1.
         11   -1    0    0    0    0 -0.00000000000E+00 -0.00000000000E+00 -0.45593999997E+02  0.45594000000E+02  0.51100000000E-03 0.  1.
    9900012    2    1    2    0    0  0.12520406677E+00 -0.30997564427E+02 -0.30376941333E+02  0.47787271421E+02  0.20000001717E+02 0.  0.
         12    1    1    2    0    0 -0.12520406677E+00  0.30997564427E+02  0.30376941333E+02  0.43400728579E+02  0.00000000000E+00 0. -1.
         11    1    3    3    0    0 -0.34256261276E+01 -0.36221425726E+01 -0.11326725244E+02  0.12375360043E+02  0.51100000000E-03 0. -1.
        -11    1    3    3    0    0  0.68915545080E+01 -0.24343096466E+02 -0.15494560363E+02  0.29667512032E+02  0.51100000000E-03 0.  1.
         12    1    3    3    0    0 -0.33407243136E+01 -0.30323253888E+01 -0.35556557256E+01  0.57443993456E+01  0.00000000000E+00 0. -1.
</event>
<event>
 7    1  0.3807360E-011  0.4778727E+02  0.7816164E-02  0.1312668E+00
        -11   -1    0    0    0    0  0.00000000000E+00  0.00000000000E+00  0.45593999997E+02  0.45594000000E+02  0.51100000000E-03 0. -1.
         11   -1    0    0    0    0 -0.00000000000E+00 -0.00000000000E+00 -0.45593999997E+02  0.45594000000E+02  0.51100000000E-03 0.  1.
    9900012    2    1    2    0    0 -0.26336242145E+02 -0.22406328836E+02 -0.26229410725E+02  0.47787271790E+02  0.20000003397E+02 0.  0.
         12    1    1    2    0    0  0.26336242145E+02  0.22406328836E+02  0.26229410725E+02  0.43400728210E+02  0.00000000000E+00 0. -1.
         11    1    3    3    0    0 -0.94964825222E+01 -0.80129683681E+01 -0.14838551156E+02  0.19353899944E+02  0.51100000000E-03 0. -1.
        -11    1    3    3    0    0 -0.14134724570E+02 -0.34194178853E+01 -0.46229889826E+01  0.15259583374E+02  0.51100000000E-03 0.  1.
         12    1    3    3    0    0 -0.27050350531E+01 -0.10973942582E+02 -0.67678705862E+01  0.13173788472E+02  0.00000000000E+00 0. -1.
</event>
<event>
 7    1  0.3807360E-011  0.4778727E+02  0.7816164E-02  0.1312668E+00
        -11   -1    0    0    0    0  0.00000000000E+00  0.00000000000E+00  0.45593999997E+02  0.45594000000E+02  0.51100000000E-03 0. -1.
         11   -1    0    0    0    0 -0.00000000000E+00 -0.00000000000E+00 -0.45593999997E+02  0.45594000000E+02  0.51100000000E-03 0.  1.
    9900012    2    1    2    0    0 -0.16240357574E+02  0.16160295324E+02 -0.36860810067E+02  0.47787266390E+02  0.19999978779E+02 0.  0.
         12    1    1    2    0    0  0.16240357574E+02 -0.16160295324E+02  0.36860810067E+02  0.43400733610E+02  0.00000000000E+00 0. -1.
         11    1    3    3    0    0 -0.80505263743E+01  0.59193167323E+01 -0.39329242366E+01  0.10738583649E+02  0.51100000000E-03 0. -1.
        -11    1    3    3    0    0  0.13599270523E+01 -0.11242591493E+01 -0.16009860121E+01  0.23825441642E+01  0.51100000000E-03 0.  1.
        -12    1    3    3    0    0 -0.95497582519E+01  0.11365237741E+02 -0.31326899818E+02  0.34666138577E+02  0.00000000000E+00 0.  1.
</event>
<event>
 7    1  0.3807360E-011  0.4778728E+02  0.7816164E-02  0.1312668E+00
        -11   -1    0    0    0    0  0.00000000000E+00  0.00000000000E+00  0.45593999997E+02  0.45594000000E+02  0.51100000000E-03 0. -1.
         11   -1    0    0    0    0 -0.00000000000E+00 -0.00000000000E+00 -0.45593999997E+02  0.45594000000E+02  0.51100000000E-03 0.  1.
    9900012    2    1    2    0    0  0.10006867932E+02 -0.23779187258E+02  0.34900366799E+02  0.47787277020E+02  0.20000027246E+02 0.  0.
        -12    1    1    2    0    0 -0.10006867932E+02  0.23779187258E+02 -0.34900366799E+02  0.43400722980E+02  0.00000000000E+00 0.  1.
         11    1    3    3    0    0  0.63734164960E+01 -0.13513671279E+02  0.25127032148E+02  0.29233670554E+02  0.51100000000E-03 0. -1.
        -11    1    3    3    0    0  0.18232535488E+01  0.22009686838E+01  0.33815353650E+01  0.44275612176E+01  0.51100000000E-03 0.  1.
        -12    1    3    3    0    0  0.18101978876E+01 -0.12466484663E+02  0.63917992863E+01  0.14126045249E+02  0.00000000000E+00 0.  1.
</event>
<event>
 7    1  0.3807360E-011  0.4778727E+02  0.7816164E-02  0.1312668E+00
        -11   -1    0    0    0    0  0.00000000000E+00  0.00000000000E+00  0.45593999997E+02  0.45594000000E+02  0.51100000000E-03 0. -1.
         11   -1    0    0    0    0 -0.00000000000E+00 -0.00000000000E+00 -0.45593999997E+02  0.45594000000E+02  0.51100000000E-03 0.  1.
    9900012    2    1    2    0    0  0.95403345013E+01  0.11055878052E+02 -0.40870198118E+02  0.47787268254E+02  0.19999987279E+02 0.  0.
         12    1    1    2    0    0 -0.95403345013E+01 -0.11055878052E+02  0.40870198118E+02  0.43400731746E+02  0.00000000000E+00 0. -1.
         11    1    3    3    0    0  0.68238377051E+01  0.23508517968E+01 -0.81543050323E+01  0.10889626073E+02  0.51100000000E-03 0. -1.
        -11    1    3    3    0    0  0.25943166786E+01  0.10023576536E+02 -0.33695566625E+02  0.35250443629E+02  0.51100000000E-03 0.  1.
         12    1    3    3    0    0  0.12218011753E+00 -0.13185502809E+01  0.97967353988E+00  0.16471985518E+01  0.00000000000E+00 0. -1.
</event>
<event>
 7    1  0.3807360E-011  0.4778727E+02  0.7816164E-02  0.1312668E+00
        -11   -1    0    0    0    0  0.00000000000E+00  0.00000000000E+00  0.45593999997E+02  0.45594000000E+02  0.51100000000E-03 0. -1.
         11   -1    0    0    0    0 -0.00000000000E+00 -0.00000000000E+00 -0.45593999997E+02  0.45594000000E+02  0.51100000000E-03 0.  1.
    9900012    2    1    2    0    0 -0.10271978662E+02 -0.40050320403E+01 -0.41977008654E+02  0.47787273246E+02  0.20000010037E+02 0.  0.
         12    1    1    2    0    0  0.10271978662E+02  0.40050320403E+01  0.41977008654E+02  0.43400726754E+02  0.00000000000E+00 0. -1.
         11    1    3    3    0    0 -0.10462647356E+02  0.87202685199E+00 -0.22799893307E+02  0.25101046903E+02  0.51100000000E-03 0. -1.
        -11    1    3    3    0    0 -0.50784057597E+01 -0.28890138886E+01 -0.13399953704E+02  0.14618322949E+02  0.51100000000E-03 0.  1.
         12    1    3    3    0    0  0.52690744538E+01 -0.19880450037E+01 -0.57771616428E+01  0.80679033945E+01  0.00000000000E+00 0. -1.
</event>
<event>
 7    1  0.3807360E-011  0.4778729E+02  0.7816164E-02  0.1312668E+00
        -11   -1    0    0    0    0  0.00000000000E+00  0.00000000000E+00  0.45593999997E+02  0.45594000000E+02  0.51100000000E-03 0. -1.
         11   -1    0    0    0    0 -0.00000000000E+00 -0.00000000000E+00 -0.45593999997E+02  0.45594000000E+02  0.51100000000E-03 0.  1.
    9900012    2    1    2    0    0 -0.76089603412E+01 -0.22307116851E+02 -0.36443352143E+02  0.47787289694E+02  0.20000085030E+02 0.  0.
         12    1    1    2    0    0  0.76089603412E+01  0.22307116851E+02  0.36443352143E+02  0.43400710306E+02  0.00000000000E+00 0. -1.
         11    1    3    3    0    0  0.30869988692E+01 -0.22888533053E+01 -0.64526373166E+01  0.75103222349E+01  0.51100000000E-03 0. -1.
        -11    1    3    3    0    0 -0.11563226420E+00 -0.12855943976E+02 -0.89645855795E+01  0.15673304093E+02  0.51100000000E-03 0.  1.
        -12    1    3    3    0    0 -0.10580326946E+02 -0.71623195697E+01 -0.21026129247E+02  0.24603663366E+02  0.00000000000E+00 0.  1.
</event>
<event>
 7    1  0.3807360E-011  0.4778727E+02  0.7816164E-02  0.1312668E+00
        -11   -1    0    0    0    0  0.00000000000E+00  0.00000000000E+00  0.45593999997E+02  0.45594000000E+02  0.51100000000E-03 0.  1.
         11   -1    0    0    0    0 -0.00000000000E+00 -0.00000000000E+00 -0.45593999997E+02  0.45594000000E+02  0.51100000000E-03 0. -1.
    9900012    2    1    2    0    0  0.38919027056E+02  0.11447307108E+02  0.15423744393E+02  0.47787269614E+02  0.19999993476E+02 0.  0.
        -12    1    1    2    0    0 -0.38919027056E+02 -0.11447307108E+02 -0.15423744393E+02  0.43400730386E+02  0.00000000000E+00 0.  1.
         11    1    3    3    0    0  0.11318352265E+02  0.60708575367E+01  0.56731567469E+00  0.12856214706E+02  0.51100000000E-03 0. -1.
        -11    1    3    3    0    0  0.90535696212E+01 -0.48351561266E+01  0.66169666825E+01  0.12211883802E+02  0.51100000000E-03 0.  1.
         12    1    3    3    0    0  0.18547105169E+02  0.10211605698E+02  0.82394620357E+01  0.22719171106E+02  0.00000000000E+00 0. -1.
</event>
<event>
 7    1  0.3807360E-011  0.4778727E+02  0.7816164E-02  0.1312668E+00
        -11   -1    0    0    0    0  0.00000000000E+00  0.00000000000E+00  0.45593999997E+02  0.45594000000E+02  0.51100000000E-03 0. -1.
         11   -1    0    0    0    0 -0.00000000000E+00 -0.00000000000E+00 -0.45593999997E+02  0.45594000000E+02  0.51100000000E-03 0.  1.
    9900012    2    1    2    0    0 -0.92392797825E-01  0.12267410500E+02  0.41630821512E+02  0.47787271934E+02  0.20000004058E+02 0.  0.
        -12    1    1    2    0    0  0.92392797825E-01 -0.12267410500E+02 -0.41630821512E+02  0.43400728066E+02  0.00000000000E+00 0.  1.
         11    1    3    3    0    0 -0.84785413999E+01  0.44466116868E+00  0.18588857692E+02  0.20435973635E+02  0.51100000000E-03 0. -1.
        -11    1    3    3    0    0  0.43841202862E+01  0.39931538516E+01  0.87167141467E+01  0.10542622735E+02  0.51100000000E-03 0.  1.
         12    1    3    3    0    0  0.40020283158E+01  0.78295954802E+01  0.14325249673E+02  0.16808675564E+02  0.00000000000E+00 0. -1.
</event>
<event>
 7    1  0.3807360E-011  0.4778727E+02  0.7816164E-02  0.1312668E+00
        -11   -1    0    0    0    0  0.00000000000E+00  0.00000000000E+00  0.45593999997E+02  0.45594000000E+02  0.51100000000E-03 0. -1.
         11   -1    0    0    0    0 -0.00000000000E+00 -0.00000000000E+00 -0.45593999997E+02  0.45594000000E+02  0.51100000000E-03 0.  1.
    9900012    2    1    2    0    0  0.10172846928E+02  0.49851431148E+01  0.41896122606E+02  0.47787267795E+02  0.19999985187E+02 0.  0.
        -12    1    1    2    0    0 -0.10172846928E+02 -0.49851431148E+01 -0.41896122606E+02  0.43400732205E+02  0.00000000000E+00 0.  1.
         11    1    3    3    0    0 -0.20134693939E+01  0.65367056457E+01  0.12029469544E+02  0.13838017108E+02  0.51100000000E-03 0. -1.
        -11    1    3    3    0    0  0.45043652888E+01 -0.50880404117E+00  0.18777310390E+01  0.49065326171E+01  0.51100000000E-03 0.  1.
         12    1    3    3    0    0  0.76819510327E+01 -0.10427584897E+01  0.27988922023E+02  0.29042718070E+02  0.00000000000E+00 0. -1.
</event>
<event>
 7    1  0.3807360E-011  0.4778728E+02  0.7816164E-02  0.1312668E+00
        -11   -1    0    0    0    0  0.00000000000E+00  0.00000000000E+00  0.45593999997E+02  0.45594000000E+02  0.51100000000E-03 0. -1.
         11   -1    0    0    0    0 -0.00000000000E+00 -0.00000000000E+00 -0.45593999997E+02  0.45594000000E+02  0.51100000000E-03 0.  1.
    9900012    2    1    2    0    0 -0.27028106682E+02  0.22894013238E+02  0.25079228039E+02  0.47787284891E+02  0.20000063132E+02 0.  0.
        -12    1    1    2    0    0  0.27028106682E+02 -0.22894013238E+02 -0.25079228039E+02  0.43400715109E+02  0.00000000000E+00 0.  1.
         11    1    3    3    0    0 -0.14793161054E+02  0.15390373986E+02  0.24876449039E+02  0.32780160806E+02  0.51100000000E-03 0. -1.
        -11    1    3    3    0    0 -0.39648958401E+01  0.41990836520E+00 -0.81849441544E+00  0.40702156487E+01  0.51100000000E-03 0.  1.
        -12    1    3    3    0    0 -0.82700497878E+01  0.70837308862E+01  0.10212734158E+01  0.10936908437E+02  0.00000000000E+00 0.  1.
</event>
<event>
 7    1  0.3807360E-011  0.4778727E+02  0.7816164E-02  0.1312668E+00
        -11   -1    0    0    0    0  0.00000000000E+00  0.00000000000E+00  0.45593999997E+02  0.45594000000E+02  0.51100000000E-03 0. -1.
         11   -1    0    0    0    0 -0.00000000000E+00 -0.00000000000E+00 -0.45593999997E+02  0.45594000000E+02  0.51100000000E-03 0.  1.
    9900012    2    1    2    0    0  0.51628103643E+01  0.11521867729E+02  0.41523666822E+02  0.47787274739E+02  0.20000016847E+02 0.  0.
        -12    1    1    2    0    0 -0.51628103643E+01 -0.11521867729E+02 -0.41523666822E+02  0.43400725261E+02  0.00000000000E+00 0.  1.
         11    1    3    3    0    0  0.48982861807E+01  0.54996274954E+01  0.15418740194E+02  0.17087324528E+02  0.51100000000E-03 0.  1.
        -11    1    3    3    0    0  0.21026330691E+01  0.44272127364E+01  0.27473917274E+02  0.27907658610E+02  0.51100000000E-03 0. -1.
        -12    1    3    3    0    0 -0.18381088855E+01  0.15950274976E+01 -0.13689906470E+01  0.27922916009E+01  0.00000000000E+00 0.  1.
</event>
<event>
 7    1  0.3807360E-011  0.4778727E+02  0.7816164E-02  0.1312668E+00
        -11   -1    0    0    0    0  0.00000000000E+00  0.00000000000E+00  0.45593999997E+02  0.45594000000E+02  0.51100000000E-03 0. -1.
         11   -1    0    0    0    0 -0.00000000000E+00 -0.00000000000E+00 -0.45593999997E+02  0.45594000000E+02  0.51100000000E-03 0.  1.
    9900012    2    1    2    0    0  0.32142691538E+02  0.45839023495E+00 -0.29159224045E+02  0.47787273188E+02  0.20000009773E+02 0.  0.
         12    1    1    2    0    0 -0.32142691538E+02 -0.45839023495E+00  0.29159224045E+02  0.43400726812E+02  0.00000000000E+00 0. -1.
         11    1    3    3    0    0  0.12185256627E+02 -0.22899990732E+01 -0.75909285814E+01  0.14537770524E+02  0.51100000000E-03 0. -1.
        -11    1    3    3    0    0  0.27631356865E+01  0.51571467314E+01 -0.38961259242E+00  0.58636916242E+01  0.51100000000E-03 0.  1.
        -12    1    3    3    0    0  0.17194299224E+02 -0.24087574233E+01 -0.21178682871E+02  0.27385811039E+02  0.00000000000E+00 0.  1.
</event>
<event>
 7    1  0.3807360E-011  0.4778727E+02  0.7816164E-02  0.1312668E+00
        -11   -1    0    0    0    0  0.00000000000E+00  0.00000000000E+00  0.45593999997E+02  0.45594000000E+02  0.51100000000E-03 0. -1.
         11   -1    0    0    0    0 -0.00000000000E+00 -0.00000000000E+00 -0.45593999997E+02  0.45594000000E+02  0.51100000000E-03 0.  1.
    9900012    2    1    2    0    0  0.36313421868E+00  0.10433865934E+02  0.42126312764E+02  0.47787266689E+02  0.19999980144E+02 0.  0.
        -12    1    1    2    0    0 -0.36313421868E+00 -0.10433865934E+02 -0.42126312764E+02  0.43400733311E+02  0.00000000000E+00 0.  1.
         11    1    3    3    0    0  0.11061754613E+01  0.74141709371E+00 -0.16446950298E+01  0.21162101645E+01  0.51100000000E-03 0.  1.
        -11    1    3    3    0    0  0.34090660603E+01  0.18291700070E+01  0.17937696513E+02  0.18350164870E+02  0.51100000000E-03 0. -1.
        -12    1    3    3    0    0 -0.41521073030E+01  0.78632788329E+01  0.25833311281E+02  0.27320891655E+02  0.00000000000E+00 0.  1.
</event>
<event>
 7    1  0.3807360E-011  0.4778727E+02  0.7816164E-02  0.1312668E+00
        -11   -1    0    0    0    0  0.00000000000E+00  0.00000000000E+00  0.45593999997E+02  0.45594000000E+02  0.51100000000E-03 0. -1.
         11   -1    0    0    0    0 -0.00000000000E+00 -0.00000000000E+00 -0.45593999997E+02  0.45594000000E+02  0.51100000000E-03 0.  1.
    9900012    2    1    2    0    0 -0.24258119174E+02 -0.23372835900E+02  0.27365631312E+02  0.47787267506E+02  0.19999983867E+02 0.  0.
        -12    1    1    2    0    0  0.24258119174E+02  0.23372835900E+02 -0.27365631312E+02  0.43400732494E+02  0.00000000000E+00 0.  1.
         11    1    3    3    0    0 -0.67908011410E+01 -0.71098209226E+01  0.73105284578E+00  0.98589539106E+01  0.51100000000E-03 0. -1.
        -11    1    3    3    0    0 -0.19333724250E+01 -0.23269084013E+01  0.12160376242E+02  0.12531048729E+02  0.51100000000E-03 0.  1.
         12    1    3    3    0    0 -0.15533945608E+02 -0.13936106576E+02  0.14474202225E+02  0.25397264867E+02  0.00000000000E+00 0. -1.
</event>
<event>
 7    1  0.4360069E-011  0.4778728E+02  0.7816164E-02  0.1312668E+00
        -11   -1    0    0    0    0  0.00000000000E+00  0.00000000000E+00  0.45593999997E+02  0.45594000000E+02  0.51100000000E-03 0.  1.
         11   -1    0    0    0    0 -0.00000000000E+00 -0.00000000000E+00 -0.45593999997E+02  0.45594000000E+02  0.51100000000E-03 0. -1.
    9900012    2    1    2    0    0 -0.16211861075E+02  0.30959221498E+02 -0.25735667161E+02  0.47787281118E+02  0.20000045928E+02 0.  0.
         12    1    1    2    0    0  0.16211861075E+02 -0.30959221498E+02  0.25735667161E+02  0.43400718882E+02  0.00000000000E+00 0. -1.
         11    1    3    3    0    0 -0.24651550188E+01  0.13837706288E+02 -0.15809749132E+02  0.21154367692E+02  0.51100000000E-03 0. -1.
        -11    1    3    3    0    0 -0.12701271852E+02  0.17643686357E+02 -0.11561341231E+02  0.24622887447E+02  0.51100000000E-03 0.  1.
         12    1    3    3    0    0 -0.10454342048E+01 -0.52217114769E+00  0.16354232018E+01  0.20100259782E+01  0.00000000000E+00 0. -1.
</event>
<event>
 7    1  0.3807360E-011  0.4778728E+02  0.7816164E-02  0.1312668E+00
        -11   -1    0    0    0    0  0.00000000000E+00  0.00000000000E+00  0.45593999997E+02  0.45594000000E+02  0.51100000000E-03 0. -1.
         11   -1    0    0    0    0 -0.00000000000E+00 -0.00000000000E+00 -0.45593999997E+02  0.45594000000E+02  0.51100000000E-03 0.  1.
    9900012    2    1    2    0    0  0.31292992317E+02 -0.18393725919E+02 -0.23791636962E+02  0.47787279837E+02  0.20000040090E+02 0.  0.
         12    1    1    2    0    0 -0.31292992317E+02  0.18393725919E+02  0.23791636962E+02  0.43400720163E+02  0.00000000000E+00 0. -1.
         11    1    3    3    0    0  0.10919177640E+02  0.56954405859E-01 -0.11043182712E+02  0.15530085924E+02  0.51100000000E-03 0. -1.
        -11    1    3    3    0    0  0.11095585839E+02 -0.58408946441E+01 -0.80270359312E+00  0.12564728754E+02  0.51100000000E-03 0.  1.
        -12    1    3    3    0    0  0.92782288385E+01 -0.12609785680E+02 -0.11945750657E+02  0.19692465159E+02  0.00000000000E+00 0.  1.
</event>
<event>
 7    1  0.3807360E-011  0.4778727E+02  0.7816164E-02  0.1312668E+00
        -11   -1    0    0    0    0  0.00000000000E+00  0.00000000000E+00  0.45593999997E+02  0.45594000000E+02  0.51100000000E-03 0. -1.
         11   -1    0    0    0    0 -0.00000000000E+00 -0.00000000000E+00 -0.45593999997E+02  0.45594000000E+02  0.51100000000E-03 0.  1.
    9900012    2    1    2    0    0 -0.46596240226E+01 -0.15905343736E+02  0.40111486559E+02  0.47787269484E+02  0.19999992884E+02 0.  0.
        -12    1    1    2    0    0  0.46596240226E+01  0.15905343736E+02 -0.40111486559E+02  0.43400730516E+02  0.00000000000E+00 0.  1.
         11    1    3    3    0    0 -0.26738056460E+01 -0.69772742762E+01  0.37029159096E+02  0.37775524041E+02  0.51100000000E-03 0. -1.
        -11    1    3    3    0    0 -0.12241334291E+01 -0.15027418023E+01  0.56633671992E-02  0.19382383526E+01  0.51100000000E-03 0.  1.
        -12    1    3    3    0    0 -0.76168494751E+00 -0.74253276573E+01  0.30766640959E+01  0.80735070903E+01  0.00000000000E+00 0.  1.
</event>
<event>
 7    1  0.3807360E-011  0.4778727E+02  0.7816164E-02  0.1312668E+00
        -11   -1    0    0    0    0  0.00000000000E+00  0.00000000000E+00  0.45593999997E+02  0.45594000000E+02  0.51100000000E-03 0. -1.
         11   -1    0    0    0    0 -0.00000000000E+00 -0.00000000000E+00 -0.45593999997E+02  0.45594000000E+02  0.51100000000E-03 0.  1.
    9900012    2    1    2    0    0 -0.10725211534E+02 -0.30820261205E+02  0.28613014639E+02  0.47787271090E+02  0.20000000208E+02 0.  0.
        -12    1    1    2    0    0  0.10725211534E+02  0.30820261205E+02 -0.28613014639E+02  0.43400728910E+02  0.00000000000E+00 0.  1.
         11    1    3    3    0    0  0.16395646022E+00 -0.15994647431E+02  0.23350559695E+02  0.28303785374E+02  0.51100000000E-03 0. -1.
        -11    1    3    3    0    0 -0.16272793061E+01 -0.26220662636E+01 -0.47865002190E+00  0.31228793662E+01  0.51100000000E-03 0.  1.
         12    1    3    3    0    0 -0.92618886876E+01 -0.12203547510E+02  0.57411049653E+01  0.16360606350E+02  0.00000000000E+00 0. -1.
</event>
<event>
 7    1  0.3807360E-011  0.4778727E+02  0.7816164E-02  0.1312668E+00
        -11   -1    0    0    0    0  0.00000000000E+00  0.00000000000E+00  0.45593999997E+02  0.45594000000E+02  0.51100000000E-03 0. -1.
         11   -1    0    0    0    0 -0.00000000000E+00 -0.00000000000E+00 -0.45593999997E+02  0.45594000000E+02  0.51100000000E-03 0.  1.
    9900012    2    1    2    0    0  0.28349772692E+01 -0.27766326349E+02  0.33235782097E+02  0.47787272049E+02  0.20000004580E+02 0.  0.
        -12    1    1    2    0    0 -0.28349772692E+01  0.27766326349E+02 -0.33235782097E+02  0.43400727951E+02  0.00000000000E+00 0.  1.
         11    1    3    3    0    0 -0.30353095414E+01 -0.60328209776E+01  0.15693153255E+02  0.17084586395E+02  0.51100000000E-03 0. -1.
        -11    1    3    3    0    0  0.20997328236E+01 -0.21392700155E+01 -0.12916520552E+01  0.32640035880E+01  0.51100000000E-03 0.  1.
         12    1    3    3    0    0  0.37705539871E+01 -0.19594235356E+02  0.18834280898E+02  0.27438682066E+02  0.00000000000E+00 0. -1.
</event>
<event>
 7    1  0.3807360E-011  0.4778728E+02  0.7816164E-02  0.1312668E+00
        -11   -1    0    0    0    0  0.00000000000E+00  0.00000000000E+00  0.45593999997E+02  0.45594000000E+02  0.51100000000E-03 0.  1.
         11   -1    0    0    0    0 -0.00000000000E+00 -0.00000000000E+00 -0.45593999997E+02  0.45594000000E+02  0.51100000000E-03 0. -1.
    9900012    2    1    2    0    0  0.22506787706E+02 -0.35325546998E+02 -0.11365416839E+02  0.47787280381E+02  0.20000042569E+02 0.  0.
        -12    1    1    2    0    0 -0.22506787706E+02  0.35325546998E+02  0.11365416839E+02  0.43400719619E+02  0.00000000000E+00 0.  1.
         11    1    3    3    0    0  0.16016333635E+02 -0.20771131384E+02 -0.98587934393E+01  0.28020682548E+02  0.51100000000E-03 0. -1.
        -11    1    3    3    0    0  0.40585406507E+01 -0.70009825463E+01 -0.65098320091E+01  0.10385731649E+02  0.51100000000E-03 0.  1.
        -12    1    3    3    0    0  0.24319134205E+01 -0.75534330670E+01  0.50032086099E+01  0.93808661847E+01  0.00000000000E+00 0.  1.
</event>
<event>
 7    1  0.3807360E-011  0.4778727E+02  0.7816164E-02  0.1312668E+00
        -11   -1    0    0    0    0  0.00000000000E+00  0.00000000000E+00  0.45593999997E+02  0.45594000000E+02  0.51100000000E-03 0. -1.
         11   -1    0    0    0    0 -0.00000000000E+00 -0.00000000000E+00 -0.45593999997E+02  0.45594000000E+02  0.51100000000E-03 0.  1.
    9900012    2    1    2    0    0 -0.20380733619E+02 -0.37953188279E+01  0.38129311752E+02  0.47787272327E+02  0.20000005849E+02 0.  0.
        -12    1    1    2    0    0  0.20380733619E+02  0.37953188279E+01 -0.38129311752E+02  0.43400727673E+02  0.00000000000E+00 0.  1.
         11    1    3    3    0    0 -0.15509304348E+02 -0.27945919409E+01  0.16144814024E+02  0.22561101161E+02  0.51100000000E-03 0. -1.
        -11    1    3    3    0    0 -0.57171049327E+01  0.36760553286E+01  0.17145412632E+02  0.18443531282E+02  0.51100000000E-03 0.  1.
        -12    1    3    3    0    0  0.84567566243E+00 -0.46767822156E+01  0.48390850962E+01  0.67826398833E+01  0.00000000000E+00 0.  1.
</event>
<event>
 7    1  0.3807360E-011  0.4778727E+02  0.7816164E-02  0.1312668E+00
        -11   -1    0    0    0    0  0.00000000000E+00  0.00000000000E+00  0.45593999997E+02  0.45594000000E+02  0.51100000000E-03 0. -1.
         11   -1    0    0    0    0 -0.00000000000E+00 -0.00000000000E+00 -0.45593999997E+02  0.45594000000E+02  0.51100000000E-03 0.  1.
    9900012    2    1    2    0    0 -0.37195801693E+02  0.11264284297E+02  0.19318683087E+02  0.47787270968E+02  0.19999999652E+02 0.  0.
        -12    1    1    2    0    0  0.37195801693E+02 -0.11264284297E+02 -0.19318683087E+02  0.43400729032E+02  0.00000000000E+00 0.  1.
         11    1    3    3    0    0  0.20896991034E+00  0.29424676034E+01  0.44752657558E+01  0.53600175248E+01  0.51100000000E-03 0. -1.
        -11    1    3    3    0    0 -0.13059905101E+02 -0.74728623949E+00  0.13442574059E+01  0.13150155368E+02  0.51100000000E-03 0.  1.
         12    1    3    3    0    0 -0.24344866502E+02  0.90691029332E+01  0.13499159926E+02  0.29277098075E+02  0.00000000000E+00 0. -1.
</event>
<event>
 7    1  0.3807360E-011  0.4778727E+02  0.7816164E-02  0.1312668E+00
        -11   -1    0    0    0    0  0.00000000000E+00  0.00000000000E+00  0.45593999997E+02  0.45594000000E+02  0.51100000000E-03 0. -1.
         11   -1    0    0    0    0 -0.00000000000E+00 -0.00000000000E+00 -0.45593999997E+02  0.45594000000E+02  0.51100000000E-03 0.  1.
    9900012    2    1    2    0    0 -0.91439603158E+01 -0.40115220136E+02  0.13812332230E+02  0.47787269379E+02  0.19999992406E+02 0.  0.
        -12    1    1    2    0    0  0.91439603158E+01  0.40115220136E+02 -0.13812332230E+02  0.43400730621E+02  0.00000000000E+00 0.  1.
         11    1    3    3    0    0  0.40004883223E+01 -0.45849674220E+01  0.10969135309E+01  0.61829647123E+01  0.51100000000E-03 0. -1.
        -11    1    3    3    0    0 -0.87934139061E+01 -0.93813151049E+01  0.63576189993E+01  0.14344076158E+02  0.51100000000E-03 0.  1.
         12    1    3    3    0    0 -0.43510347320E+01 -0.26148937609E+02  0.63577996996E+01  0.27260228509E+02  0.00000000000E+00 0. -1.
</event>
<event>
 7    1  0.3807360E-011  0.4778727E+02  0.7816164E-02  0.1312668E+00
        -11   -1    0    0    0    0  0.00000000000E+00  0.00000000000E+00  0.45593999997E+02  0.45594000000E+02  0.51100000000E-03 0. -1.
         11   -1    0    0    0    0 -0.00000000000E+00 -0.00000000000E+00 -0.45593999997E+02  0.45594000000E+02  0.51100000000E-03 0.  1.
    9900012    2    1    2    0    0  0.34782435412E+02 -0.25956722205E+02  0.23239698187E+00  0.47787271329E+02  0.20000001296E+02 0.  0.
        -12    1    1    2    0    0 -0.34782435412E+02  0.25956722205E+02 -0.23239698187E+00  0.43400728671E+02  0.00000000000E+00 0.  1.
         11    1    3    3    0    0  0.57740296547E+01 -0.60950226404E+01  0.14019958799E+01  0.85120098772E+01  0.51100000000E-03 0. -1.
        -11    1    3    3    0    0  0.14522157143E+02 -0.16963167576E+02 -0.69868366422E+01  0.23397820172E+02  0.51100000000E-03 0.  1.
        -12    1    3    3    0    0  0.14486248614E+02 -0.28985319891E+01  0.58172377441E+01  0.15877441279E+02  0.00000000000E+00 0.  1.
</event>
<event>
 7    1  0.3807360E-011  0.4778727E+02  0.7816164E-02  0.1312668E+00
        -11   -1    0    0    0    0  0.00000000000E+00  0.00000000000E+00  0.45593999997E+02  0.45594000000E+02  0.51100000000E-03 0. -1.
         11   -1    0    0    0    0 -0.00000000000E+00 -0.00000000000E+00 -0.45593999997E+02  0.45594000000E+02  0.51100000000E-03 0.  1.
    9900012    2    1    2    0    0  0.10963058230E+02  0.25708102213E+02 -0.33204340155E+02  0.47787269934E+02  0.19999994937E+02 0.  0.
         12    1    1    2    0    0 -0.10963058230E+02 -0.25708102213E+02  0.33204340155E+02  0.43400730066E+02  0.00000000000E+00 0. -1.
         11    1    3    3    0    0  0.14306226316E+01  0.76083955597E+01 -0.67811387681E+00  0.77713707155E+01  0.51100000000E-03 0. -1.
        -11    1    3    3    0    0  0.98111436479E+01  0.67942244317E+01 -0.15191059397E+02  0.19318082492E+02  0.51100000000E-03 0.  1.
        -12    1    3    3    0    0 -0.27870804952E+00  0.11305482222E+02 -0.17335166881E+02  0.20697816726E+02  0.00000000000E+00 0.  1.
</event>
<event>
 7    1  0.3807360E-011  0.4778727E+02  0.7816164E-02  0.1312668E+00
        -11   -1    0    0    0    0  0.00000000000E+00  0.00000000000E+00  0.45593999997E+02  0.45594000000E+02  0.51100000000E-03 0. -1.
         11   -1    0    0    0    0 -0.00000000000E+00 -0.00000000000E+00 -0.45593999997E+02  0.45594000000E+02  0.51100000000E-03 0.  1.
    9900012    2    1    2    0    0  0.69667943620E-01 -0.11079273828E+02 -0.41962700986E+02  0.47787269174E+02  0.19999991473E+02 0.  0.
         12    1    1    2    0    0 -0.69667943620E-01  0.11079273828E+02  0.41962700986E+02  0.43400730826E+02  0.00000000000E+00 0. -1.
         11    1    3    3    0    0 -0.86819855481E+00 -0.75816805961E+01 -0.95445989213E+01  0.12220270792E+02  0.51100000000E-03 0. -1.
        -11    1    3    3    0    0 -0.10051964402E+01 -0.88462645829E+01 -0.18516816561E+02  0.20546029124E+02  0.51100000000E-03 0.  1.
         12    1    3    3    0    0  0.19430629386E+01  0.53486713515E+01 -0.13901285504E+02  0.15020969259E+02  0.00000000000E+00 0. -1.
</event>
<event>
 7    1  0.3807360E-011  0.4778727E+02  0.7816164E-02  0.1312668E+00
        -11   -1    0    0    0    0  0.00000000000E+00  0.00000000000E+00  0.45593999997E+02  0.45594000000E+02  0.51100000000E-03 0. -1.
         11   -1    0    0    0    0 -0.00000000000E+00 -0.00000000000E+00 -0.45593999997E+02  0.45594000000E+02  0.51100000000E-03 0.  1.
    9900012    2    1    2    0    0 -0.79723711527E+01 -0.17111057028E+02 -0.39080383151E+02  0.47787270494E+02  0.19999997491E+02 0.  0.
         12    1    1    2    0    0  0.79723711527E+01  0.17111057028E+02  0.39080383151E+02  0.43400729506E+02  0.00000000000E+00 0. -1.
         11    1    3    3    0    0 -0.85319808905E+01 -0.13022041345E+02 -0.28208565535E+02  0.32219426260E+02  0.51100000000E-03 0. -1.
        -11    1    3    3    0    0  0.34170867233E+01 -0.45656744556E+01 -0.11282555342E+02  0.12641911257E+02  0.51100000000E-03 0.  1.
         12    1    3    3    0    0 -0.28574769855E+01  0.47665877229E+00  0.41073772686E+00  0.29259329774E+01  0.00000000000E+00 0. -1.
</event>
<event>
 7    1  0.3807360E-011  0.4778728E+02  0.7816164E-02  0.1312668E+00
        -11   -1    0    0    0    0  0.00000000000E+00  0.00000000000E+00  0.45593999997E+02  0.45594000000E+02  0.51100000000E-03 0. -1.
         11   -1    0    0    0    0 -0.00000000000E+00 -0.00000000000E+00 -0.45593999997E+02  0.45594000000E+02  0.51100000000E-03 0.  1.
    9900012    2    1    2    0    0  0.11020426332E+02  0.21465052866E+02  0.36075263258E+02  0.47787275234E+02  0.20000019102E+02 0.  0.
        -12    1    1    2    0    0 -0.11020426332E+02 -0.21465052866E+02 -0.36075263258E+02  0.43400724766E+02  0.00000000000E+00 0.  1.
         11    1    3    3    0    0 -0.35811332064E+01  0.27847076288E+01  0.50321470318E+01  0.67750731089E+01  0.51100000000E-03 0. -1.
        -11    1    3    3    0    0 -0.86577837030E+00  0.68272722930E+00 -0.75411204466E+00  0.13358045864E+01  0.51100000000E-03 0.  1.
        -12    1    3    3    0    0  0.15467337909E+02  0.17997618008E+02  0.31797228271E+02  0.39676397539E+02  0.00000000000E+00 0.  1.
</event>
<event>
 7    1  0.3822934E-011  0.4778727E+02  0.7816164E-02  0.1312668E+00
        -11   -1    0    0    0    0  0.00000000000E+00  0.00000000000E+00  0.45593999997E+02  0.45594000000E+02  0.51100000000E-03 0. -1.
         11   -1    0    0    0    0 -0.00000000000E+00 -0.00000000000E+00 -0.45593999997E+02  0.45594000000E+02  0.51100000000E-03 0.  1.
    9900012    2    1    2    0    0  0.18623756676E+01  0.12939816029E+02 -0.41384974512E+02  0.47787269622E+02  0.19999993514E+02 0.  0.
         12    1    1    2    0    0 -0.18623756676E+01 -0.12939816029E+02  0.41384974512E+02  0.43400730378E+02  0.00000000000E+00 0. -1.
         11    1    3    3    0    0  0.22189512345E+01 -0.93764818876E+00 -0.15015440520E+02  0.15207444986E+02  0.51100000000E-03 0. -1.
        -11    1    3    3    0    0  0.35352058791E+01  0.14395709127E+02 -0.23212335661E+02  0.27541725599E+02  0.51100000000E-03 0.  1.
         12    1    3    3    0    0 -0.38917814460E+01 -0.51824490955E+00 -0.31571983310E+01  0.50380990374E+01  0.00000000000E+00 0. -1.
</event>
<event>
 7    1  0.3807360E-011  0.4778727E+02  0.7816164E-02  0.1312668E+00
        -11   -1    0    0    0    0  0.00000000000E+00  0.00000000000E+00  0.45593999997E+02  0.45594000000E+02  0.51100000000E-03 0. -1.
         11   -1    0    0    0    0 -0.00000000000E+00 -0.00000000000E+00 -0.45593999997E+02  0.45594000000E+02  0.51100000000E-03 0.  1.
    9900012    2    1    2    0    0 -0.11174641898E+02  0.21521425226E+02 -0.35994150309E+02  0.47787271645E+02  0.20000002737E+02 0.  0.
         12    1    1    2    0    0  0.11174641898E+02 -0.21521425226E+02  0.35994150309E+02  0.43400728355E+02  0.00000000000E+00 0. -1.
         11    1    3    3    0    0 -0.20440591813E+01  0.50023785759E+01 -0.14525300020E+01  0.55956959372E+01  0.51100000000E-03 0. -1.
        -11    1    3    3    0    0 -0.13212721738E+02  0.13237617469E+02 -0.29449275609E+02  0.34886535600E+02  0.51100000000E-03 0.  1.
        -12    1    3    3    0    0  0.40821390212E+01  0.32814291812E+01 -0.50923446976E+01  0.73050401079E+01  0.00000000000E+00 0.  1.
</event>
<event>
 7    1  0.3807360E-011  0.4778727E+02  0.7816164E-02  0.1312668E+00
        -11   -1    0    0    0    0  0.00000000000E+00  0.00000000000E+00  0.45593999997E+02  0.45594000000E+02  0.51100000000E-03 0. -1.
         11   -1    0    0    0    0 -0.00000000000E+00 -0.00000000000E+00 -0.45593999997E+02  0.45594000000E+02  0.51100000000E-03 0.  1.
    9900012    2    1    2    0    0  0.40336716443E+02 -0.15910077216E+02  0.18552507789E+01  0.47787271828E+02  0.20000003573E+02 0.  0.
         12    1    1    2    0    0 -0.40336716443E+02  0.15910077216E+02 -0.18552507789E+01  0.43400728172E+02  0.00000000000E+00 0. -1.
         11    1    3    3    0    0  0.51808383515E+01 -0.41172312842E+01 -0.62642565061E+01  0.91122768454E+01  0.51100000000E-03 0. -1.
        -11    1    3    3    0    0  0.10904774637E+02 -0.14156471099E+00  0.21373907950E+01  0.11113171920E+02  0.51100000000E-03 0.  1.
         12    1    3    3    0    0  0.24251103455E+02 -0.11651281221E+02  0.59821164899E+01  0.27561823063E+02  0.00000000000E+00 0. -1.
</event>
<event>
 7    1  0.3807360E-011  0.4778727E+02  0.7816164E-02  0.1312668E+00
        -11   -1    0    0    0    0  0.00000000000E+00  0.00000000000E+00  0.45593999997E+02  0.45594000000E+02  0.51100000000E-03 0. -1.
         11   -1    0    0    0    0 -0.00000000000E+00 -0.00000000000E+00 -0.45593999997E+02  0.45594000000E+02  0.51100000000E-03 0.  1.
    9900012    2    1    2    0    0  0.25660256741E+02  0.51309557736E+01 -0.34624382839E+02  0.47787269936E+02  0.19999994945E+02 0.  0.
         12    1    1    2    0    0 -0.25660256741E+02 -0.51309557736E+01  0.34624382839E+02  0.43400730064E+02  0.00000000000E+00 0. -1.
         11    1    3    3    0    0  0.21503557388E+01  0.24205947499E+01 -0.98690449387E+01  0.10386595063E+02  0.51100000000E-03 0.  1.
        -11    1    3    3    0    0 -0.17102421033E+01  0.10666841945E+01  0.10416067817E-01  0.20156517502E+01  0.51100000000E-03 0. -1.
         12    1    3    3    0    0  0.25220143105E+02  0.16436768292E+01 -0.24765753968E+02  0.35385023122E+02  0.00000000000E+00 0. -1.
</event>
<event>
 7    1  0.3807360E-011  0.4778727E+02  0.7816164E-02  0.1312668E+00
        -11   -1    0    0    0    0  0.00000000000E+00  0.00000000000E+00  0.45593999997E+02  0.45594000000E+02  0.51100000000E-03 0. -1.
         11   -1    0    0    0    0 -0.00000000000E+00 -0.00000000000E+00 -0.45593999997E+02  0.45594000000E+02  0.51100000000E-03 0.  1.
    9900012    2    1    2    0    0 -0.12835359777E+02 -0.10286660422E+02 -0.40162935382E+02  0.47787271645E+02  0.20000002736E+02 0.  0.
         12    1    1    2    0    0  0.12835359777E+02  0.10286660422E+02  0.40162935382E+02  0.43400728355E+02  0.00000000000E+00 0. -1.
         11    1    3    3    0    0 -0.52913497921E+01  0.26738514678E+01 -0.20167221286E+02  0.21020577512E+02  0.51100000000E-03 0. -1.
        -11    1    3    3    0    0  0.73155417600E+00 -0.59661032358E+01 -0.11579628821E+02  0.13046737647E+02  0.51100000000E-03 0.  1.
         12    1    3    3    0    0 -0.82755641611E+01 -0.69944086536E+01 -0.84160852757E+01  0.13719956486E+02  0.00000000000E+00 0. -1.
</event>
<event>
 7    1  0.3807360E-011  0.4778727E+02  0.7816164E-02  0.1312668E+00
        -11   -1    0    0    0    0  0.00000000000E+00  0.00000000000E+00  0.45593999997E+02  0.45594000000E+02  0.51100000000E-03 0. -1.
         11   -1    0    0    0    0 -0.00000000000E+00 -0.00000000000E+00 -0.45593999997E+02  0.45594000000E+02  0.51100000000E-03 0.  1.
    9900012    2    1    2    0    0  0.29006603036E+01 -0.43241817289E+02 -0.23139859089E+01  0.47787272778E+02  0.20000007902E+02 0.  0.
         12    1    1    2    0    0 -0.29006603036E+01  0.43241817289E+02  0.23139859089E+01  0.43400727222E+02  0.00000000000E+00 0. -1.
         11    1    3    3    0    0  0.61766666549E+01 -0.68631618925E+01  0.42690609660E+01  0.10172466954E+02  0.51100000000E-03 0. -1.
        -11    1    3    3    0    0 -0.10297277115E+01 -0.17855998050E+02 -0.17439206686E+00  0.17886514986E+02  0.51100000000E-03 0.  1.
        -12    1    3    3    0    0 -0.22462786398E+01 -0.18522657347E+02 -0.64086548080E+01  0.19728290838E+02  0.00000000000E+00 0.  1.
</event>
<event>
 7    1  0.3807360E-011  0.4778728E+02  0.7816164E-02  0.1312668E+00
        -11   -1    0    0    0    0  0.00000000000E+00  0.00000000000E+00  0.45593999997E+02  0.45594000000E+02  0.51100000000E-03 0. -1.
         11   -1    0    0    0    0 -0.00000000000E+00 -0.00000000000E+00 -0.45593999997E+02  0.45594000000E+02  0.51100000000E-03 0.  1.
    9900012    2    1    2    0    0  0.29282779836E+02 -0.13699305783E+01  0.32004139912E+02  0.47787275626E+02  0.20000020887E+02 0.  0.
        -12    1    1    2    0    0 -0.29282779836E+02  0.13699305783E+01 -0.32004139912E+02  0.43400724374E+02  0.00000000000E+00 0.  1.
         11    1    3    3    0    0  0.84958185020E+01 -0.14522007360E+01  0.28036882008E+01  0.90635802410E+01  0.51100000000E-03 0. -1.
        -11    1    3    3    0    0  0.68242810333E+00 -0.25602198396E+01  0.11519618575E+02  0.11820408035E+02  0.51100000000E-03 0.  1.
        -12    1    3    3    0    0  0.20104533231E+02  0.26424899972E+01  0.17680833136E+02  0.26903287349E+02  0.00000000000E+00 0.  1.
</event>
<event>
 7    1  0.3807360E-011  0.4778727E+02  0.7816164E-02  0.1312668E+00
        -11   -1    0    0    0    0  0.00000000000E+00  0.00000000000E+00  0.45593999997E+02  0.45594000000E+02  0.51100000000E-03 0. -1.
         11   -1    0    0    0    0 -0.00000000000E+00 -0.00000000000E+00 -0.45593999997E+02  0.45594000000E+02  0.51100000000E-03 0.  1.
    9900012    2    1    2    0    0 -0.16356482106E+02 -0.21755708432E+02  0.33804994228E+02  0.47787274304E+02  0.20000014859E+02 0.  0.
        -12    1    1    2    0    0  0.16356482106E+02  0.21755708432E+02 -0.33804994228E+02  0.43400725696E+02  0.00000000000E+00 0.  1.
         11    1    3    3    0    0 -0.77611190782E+01 -0.17817618283E+02  0.23032148586E+02  0.30136064099E+02  0.51100000000E-03 0. -1.
        -11    1    3    3    0    0 -0.51235323104E+01 -0.19508409064E+00  0.11407369596E+02  0.12506667122E+02  0.51100000000E-03 0.  1.
         12    1    3    3    0    0 -0.34718307174E+01 -0.37430060582E+01 -0.63452395433E+00  0.51445430827E+01  0.00000000000E+00 0. -1.
</event>
<event>
 7    1  0.3807360E-011  0.4778727E+02  0.7816164E-02  0.1312668E+00
        -11   -1    0    0    0    0  0.00000000000E+00  0.00000000000E+00  0.45593999997E+02  0.45594000000E+02  0.51100000000E-03 0. -1.
         11   -1    0    0    0    0 -0.00000000000E+00 -0.00000000000E+00 -0.45593999997E+02  0.45594000000E+02  0.51100000000E-03 0.  1.
    9900012    2    1    2    0    0  0.41258341842E+02  0.11679109061E+02  0.67060521835E+01  0.47787268487E+02  0.19999988338E+02 0.  0.
        -12    1    1    2    0    0 -0.41258341842E+02 -0.11679109061E+02 -0.67060521835E+01  0.43400731513E+02  0.00000000000E+00 0.  1.
         11    1    3    3    0    0  0.15920891705E+02  0.97512456113E+01  0.56099999607E+01  0.19494452634E+02  0.51100000000E-03 0. -1.
        -11    1    3    3    0    0  0.24974263697E+02  0.65116604606E+00  0.38100549552E+01  0.25271612205E+02  0.51100000000E-03 0.  1.
        -12    1    3    3    0    0  0.36318643984E+00  0.12766974040E+01 -0.27140027324E+01  0.30212036480E+01  0.00000000000E+00 0.  1.
</event>
<event>
 7    1  0.3807360E-011  0.4778727E+02  0.7816164E-02  0.1312668E+00
        -11   -1    0    0    0    0  0.00000000000E+00  0.00000000000E+00  0.45593999997E+02  0.45594000000E+02  0.51100000000E-03 0. -1.
         11   -1    0    0    0    0 -0.00000000000E+00 -0.00000000000E+00 -0.45593999997E+02  0.45594000000E+02  0.51100000000E-03 0.  1.
    9900012    2    1    2    0    0 -0.36284059820E+02  0.15943193183E+02 -0.17689116004E+02  0.47787271540E+02  0.20000002259E+02 0.  0.
         12    1    1    2    0    0  0.36284059820E+02 -0.15943193183E+02  0.17689116004E+02  0.43400728460E+02  0.00000000000E+00 0. -1.
         11    1    3    3    0    0  0.37736817816E+00 -0.90179922685E+00 -0.11941173928E+01  0.15432320617E+01  0.51100000000E-03 0. -1.
        -11    1    3    3    0    0 -0.33895086912E+02  0.94268695520E+01 -0.12199512499E+02  0.37236687444E+02  0.51100000000E-03 0.  1.
        -12    1    3    3    0    0 -0.27663410866E+01  0.74181228575E+01 -0.42954861114E+01  0.90073520343E+01  0.00000000000E+00 0.  1.
</event>
<event>
 7    1  0.3807360E-011  0.4778727E+02  0.7816164E-02  0.1312668E+00
        -11   -1    0    0    0    0  0.00000000000E+00  0.00000000000E+00  0.45593999997E+02  0.45594000000E+02  0.51100000000E-03 0. -1.
         11   -1    0    0    0    0 -0.00000000000E+00 -0.00000000000E+00 -0.45593999997E+02  0.45594000000E+02  0.51100000000E-03 0.  1.
    9900012    2    1    2    0    0  0.31411805675E+02  0.39189949999E+01  0.29691132608E+02  0.47787269441E+02  0.19999992687E+02 0.  0.
        -12    1    1    2    0    0 -0.31411805675E+02 -0.39189949999E+01 -0.29691132608E+02  0.43400730559E+02  0.00000000000E+00 0.  1.
         11    1    3    3    0    0  0.10547804169E+02  0.42173100512E+01  0.97238080696E+00  0.11401201759E+02  0.51100000000E-03 0.  1.
        -11    1    3    3    0    0  0.66898241889E+01 -0.38326060261E+01  0.91246916358E+01  0.11945819953E+02  0.51100000000E-03 0. -1.
        -12    1    3    3    0    0  0.14174177317E+02  0.35342909747E+01  0.19594060165E+02  0.24440247729E+02  0.00000000000E+00 0.  1.
</event>
<event>
 7    1  0.3807360E-011  0.4778727E+02  0.7816164E-02  0.1312668E+00
        -11   -1    0    0    0    0  0.00000000000E+00  0.00000000000E+00  0.45593999997E+02  0.45594000000E+02  0.51100000000E-03 0. -1.
         11   -1    0    0    0    0 -0.00000000000E+00 -0.00000000000E+00 -0.45593999997E+02  0.45594000000E+02  0.51100000000E-03 0.  1.
    9900012    2    1    2    0    0  0.43376591494E+02 -0.13532580191E+01 -0.51309848404E+00  0.47787271124E+02  0.20000000362E+02 0.  0.
        -12    1    1    2    0    0 -0.43376591494E+02  0.13532580191E+01  0.51309848404E+00  0.43400728876E+02  0.00000000000E+00 0.  1.
         11    1    3    3    0    0  0.13148613770E+02 -0.67109062630E+01 -0.11600683499E+01  0.14807702920E+02  0.51100000000E-03 0. -1.
        -11    1    3    3    0    0  0.11566856423E+02  0.35892921132E+01  0.59577556917E+01  0.13497038139E+02  0.51100000000E-03 0.  1.
        -12    1    3    3    0    0  0.18661121301E+02  0.17683561306E+01 -0.53107858259E+01  0.19482530064E+02  0.00000000000E+00 0.  1.
</event>
<event>
 7    1  0.3807360E-011  0.4778726E+02  0.7816164E-02  0.1312668E+00
        -11   -1    0    0    0    0  0.00000000000E+00  0.00000000000E+00  0.45593999997E+02  0.45594000000E+02  0.51100000000E-03 0. -1.
         11   -1    0    0    0    0 -0.00000000000E+00 -0.00000000000E+00 -0.45593999997E+02  0.45594000000E+02  0.51100000000E-03 0.  1.
    9900012    2    1    2    0    0  0.14465242757E+02 -0.83532532386E+01 -0.40057510382E+02  0.47787260079E+02  0.19999950005E+02 0.  0.
         12    1    1    2    0    0 -0.14465242757E+02  0.83532532386E+01  0.40057510382E+02  0.43400739921E+02  0.00000000000E+00 0. -1.
         11    1    3    3    0    0  0.23257898684E-01 -0.10904367930E+01 -0.21351207108E+02  0.21379046718E+02  0.51100000000E-03 0. -1.
        -11    1    3    3    0    0  0.21520962919E+01 -0.30504030184E+01 -0.10245180627E+02  0.10904136984E+02  0.51100000000E-03 0.  1.
        -12    1    3    3    0    0  0.12289888567E+02 -0.42124134272E+01 -0.84611226463E+01  0.15504076377E+02  0.00000000000E+00 0.  1.
</event>
<event>
 7    1  0.3807360E-011  0.4778727E+02  0.7816164E-02  0.1312668E+00
        -11   -1    0    0    0    0  0.00000000000E+00  0.00000000000E+00  0.45593999997E+02  0.45594000000E+02  0.51100000000E-03 0. -1.
         11   -1    0    0    0    0 -0.00000000000E+00 -0.00000000000E+00 -0.45593999997E+02  0.45594000000E+02  0.51100000000E-03 0.  1.
    9900012    2    1    2    0    0  0.37710700975E+02 -0.10310372906E+02 -0.18847346730E+02  0.47787271478E+02  0.20000001976E+02 0.  0.
         12    1    1    2    0    0 -0.37710700975E+02  0.10310372906E+02  0.18847346730E+02  0.43400728522E+02  0.00000000000E+00 0. -1.
         11    1    3    3    0    0  0.11288516890E+02 -0.66233631104E+00  0.11912391761E+01  0.11370503683E+02  0.51100000000E-03 0.  1.
        -11    1    3    3    0    0  0.29866937290E+01  0.87079918840E+00 -0.68888812125E+01  0.75587905963E+01  0.51100000000E-03 0. -1.
        -12    1    3    3    0    0  0.23435490356E+02 -0.10518835783E+02 -0.13149704694E+02  0.28857977199E+02  0.00000000000E+00 0.  1.
</event>
<event>
 7    1  0.3807360E-011  0.4778727E+02  0.7816164E-02  0.1312668E+00
        -11   -1    0    0    0    0  0.00000000000E+00  0.00000000000E+00  0.45593999997E+02  0.45594000000E+02  0.51100000000E-03 0. -1.
         11   -1    0    0    0    0 -0.00000000000E+00 -0.00000000000E+00 -0.45593999997E+02  0.45594000000E+02  0.51100000000E-03 0.  1.
    9900012    2    1    2    0    0 -0.34010722546E+02 -0.67248321054E+01  0.26108820286E+02  0.47787272913E+02  0.20000008519E+02 0.  0.
        -12    1    1    2    0    0  0.34010722546E+02  0.67248321054E+01 -0.26108820286E+02  0.43400727087E+02  0.00000000000E+00 0.  1.
         11    1    3    3    0    0 -0.14037649946E+02 -0.15963952983E+01  0.84403136006E+01  0.16457308039E+02  0.51100000000E-03 0. -1.
        -11    1    3    3    0    0  0.12987508293E+01  0.23590711748E+01  0.18525999557E-01  0.26930120679E+01  0.51100000000E-03 0.  1.
        -12    1    3    3    0    0 -0.21271823429E+02 -0.74875079818E+01  0.17649980686E+02  0.28636952806E+02  0.00000000000E+00 0.  1.
</event>
<event>
 7    1  0.3807360E-011  0.4778726E+02  0.7816164E-02  0.1312668E+00
        -11   -1    0    0    0    0  0.00000000000E+00  0.00000000000E+00  0.45593999997E+02  0.45594000000E+02  0.51100000000E-03 0. -1.
         11   -1    0    0    0    0 -0.00000000000E+00 -0.00000000000E+00 -0.45593999997E+02  0.45594000000E+02  0.51100000000E-03 0.  1.
    9900012    2    1    2    0    0  0.11117673321E+02 -0.16101415287E+02 -0.38739717377E+02  0.47787263407E+02  0.19999965179E+02 0.  0.
         12    1    1    2    0    0 -0.11117673321E+02  0.16101415287E+02  0.38739717377E+02  0.43400736593E+02  0.00000000000E+00 0. -1.
         11    1    3    3    0    0  0.79806877890E+01 -0.12206408262E+02 -0.25236560950E+02  0.29147414793E+02  0.51100000000E-03 0. -1.
        -11    1    3    3    0    0  0.55138564295E+01 -0.69431044997E+01 -0.10515873899E+02  0.13754741617E+02  0.51100000000E-03 0.  1.
         12    1    3    3    0    0 -0.23768708980E+01  0.30480974743E+01 -0.29872825275E+01  0.48851069975E+01  0.00000000000E+00 0. -1.
</event>
<event>
 7    1  0.3807360E-011  0.4778727E+02  0.7816164E-02  0.1312668E+00
        -11   -1    0    0    0    0  0.00000000000E+00  0.00000000000E+00  0.45593999997E+02  0.45594000000E+02  0.51100000000E-03 0. -1.
         11   -1    0    0    0    0 -0.00000000000E+00 -0.00000000000E+00 -0.45593999997E+02  0.45594000000E+02  0.51100000000E-03 0.  1.
    9900012    2    1    2    0    0  0.32064736577E+02  0.15685785186E+02  0.24686674968E+02  0.47787272936E+02  0.20000008625E+02 0.  0.
        -12    1    1    2    0    0 -0.32064736577E+02 -0.15685785186E+02 -0.24686674968E+02  0.43400727064E+02  0.00000000000E+00 0.  1.
         11    1    3    3    0    0  0.15527015692E+02  0.62417379128E+01  0.49580061657E+01  0.17453633830E+02  0.51100000000E-03 0. -1.
        -11    1    3    3    0    0 -0.10603970193E+01  0.44828162590E+01  0.26527113364E+01  0.53157277156E+01  0.51100000000E-03 0.  1.
        -12    1    3    3    0    0  0.17598117904E+02  0.49612310144E+01  0.17075957466E+02  0.25017911390E+02  0.00000000000E+00 0.  1.
</event>
<event>
 7    1  0.3807360E-011  0.4778727E+02  0.7816164E-02  0.1312668E+00
        -11   -1    0    0    0    0  0.00000000000E+00  0.00000000000E+00  0.45593999997E+02  0.45594000000E+02  0.51100000000E-03 0. -1.
         11   -1    0    0    0    0 -0.00000000000E+00 -0.00000000000E+00 -0.45593999997E+02  0.45594000000E+02  0.51100000000E-03 0.  1.
    9900012    2    1    2    0    0  0.28246282026E+02 -0.35189690776E+00  0.32949157691E+02  0.47787271063E+02  0.20000000084E+02 0.  0.
        -12    1    1    2    0    0 -0.28246282026E+02  0.35189690776E+00 -0.32949157691E+02  0.43400728937E+02  0.00000000000E+00 0.  1.
         11    1    3    3    0    0  0.13180455163E+02 -0.71958030878E+01  0.61990517168E+01  0.16245990977E+02  0.51100000000E-03 0. -1.
        -11    1    3    3    0    0  0.71353321162E+00  0.74175173029E+00  0.99032128970E+00  0.14283073169E+01  0.51100000000E-03 0.  1.
         12    1    3    3    0    0  0.14352293651E+02  0.61021544497E+01  0.25759784685E+02  0.30112972769E+02  0.00000000000E+00 0. -1.
</event>
<event>
 7    1  0.3807360E-011  0.4778726E+02  0.7816164E-02  0.1312668E+00
        -11   -1    0    0    0    0  0.00000000000E+00  0.00000000000E+00  0.45593999997E+02  0.45594000000E+02  0.51100000000E-03 0. -1.
         11   -1    0    0    0    0 -0.00000000000E+00 -0.00000000000E+00 -0.45593999997E+02  0.45594000000E+02  0.51100000000E-03 0.  1.
    9900012    2    1    2    0    0  0.45559893926E+01  0.60096906206E+01  0.42740502323E+02  0.47787263146E+02  0.19999963987E+02 0.  0.
        -12    1    1    2    0    0 -0.45559893926E+01 -0.60096906206E+01 -0.42740502323E+02  0.43400736854E+02  0.00000000000E+00 0.  1.
         11    1    3    3    0    0  0.10897586176E+01 -0.93345599685E+00  0.18824127486E+01  0.23669372531E+01  0.51100000000E-03 0. -1.
        -11    1    3    3    0    0  0.80110123256E+01  0.11082888441E+02  0.29051102467E+02  0.32108772781E+02  0.51100000000E-03 0.  1.
        -12    1    3    3    0    0 -0.45447815506E+01 -0.41397418235E+01  0.11806987107E+02  0.13311553112E+02  0.00000000000E+00 0.  1.
</event>
<event>
 7    1  0.3807360E-011  0.4778727E+02  0.7816164E-02  0.1312668E+00
        -11   -1    0    0    0    0  0.00000000000E+00  0.00000000000E+00  0.45593999997E+02  0.45594000000E+02  0.51100000000E-03 0. -1.
         11   -1    0    0    0    0 -0.00000000000E+00 -0.00000000000E+00 -0.45593999997E+02  0.45594000000E+02  0.51100000000E-03 0.  1.
    9900012    2    1    2    0    0  0.14324325453E+02 -0.18073416812E+02  0.36766678673E+02  0.47787270103E+02  0.19999995706E+02 0.  0.
        -12    1    1    2    0    0 -0.14324325453E+02  0.18073416812E+02 -0.36766678673E+02  0.43400729897E+02  0.00000000000E+00 0.  1.
         11    1    3    3    0    0 -0.16640591805E+01 -0.11985048188E+02  0.20063288957E+02  0.23429597459E+02  0.51100000000E-03 0. -1.
        -11    1    3    3    0    0  0.63286956243E+01 -0.46308106745E+01  0.60595834138E+01  0.99103656450E+01  0.51100000000E-03 0.  1.
         12    1    3    3    0    0  0.96596890089E+01 -0.14575579499E+01  0.10643806302E+02  0.14447306999E+02  0.00000000000E+00 0. -1.
</event>
<event>
 7    1  0.3807360E-011  0.4778727E+02  0.7816164E-02  0.1312668E+00
        -11   -1    0    0    0    0  0.00000000000E+00  0.00000000000E+00  0.45593999997E+02  0.45594000000E+02  0.51100000000E-03 0. -1.
         11   -1    0    0    0    0 -0.00000000000E+00 -0.00000000000E+00 -0.45593999997E+02  0.45594000000E+02  0.51100000000E-03 0.  1.
    9900012    2    1    2    0    0 -0.13503541210E+02 -0.32426490621E+02  0.25491185141E+02  0.47787269140E+02  0.19999991319E+02 0.  0.
        -12    1    1    2    0    0  0.13503541210E+02  0.32426490621E+02 -0.25491185141E+02  0.43400730860E+02  0.00000000000E+00 0.  1.
         11    1    3    3    0    0  0.11316242811E+01 -0.13798701129E+01 -0.22391619994E+01  0.28632956121E+01  0.51100000000E-03 0.  1.
        -11    1    3    3    0    0 -0.22925318333E+01 -0.33894271102E+01  0.36909376732E+00  0.41085458270E+01  0.51100000000E-03 0. -1.
        -12    1    3    3    0    0 -0.12342633658E+02 -0.27657193398E+02  0.27361253373E+02  0.40815427701E+02  0.00000000000E+00 0.  1.
</event>
<event>
 7    1  0.3807360E-011  0.4778727E+02  0.7816164E-02  0.1312668E+00
        -11   -1    0    0    0    0  0.00000000000E+00  0.00000000000E+00  0.45593999997E+02  0.45594000000E+02  0.51100000000E-03 0.  1.
         11   -1    0    0    0    0 -0.00000000000E+00 -0.00000000000E+00 -0.45593999997E+02  0.45594000000E+02  0.51100000000E-03 0. -1.
    9900012    2    1    2    0    0  0.31032864777E+02  0.26637747527E+02 -0.14526354257E+02  0.47787271232E+02  0.20000000855E+02 0.  0.
         12    1    1    2    0    0 -0.31032864777E+02 -0.26637747527E+02  0.14526354257E+02  0.43400728768E+02  0.00000000000E+00 0. -1.
         11    1    3    3    0    0  0.47410428630E+01 -0.20270285621E+00  0.12490884843E+01  0.49070152007E+01  0.51100000000E-03 0. -1.
        -11    1    3    3    0    0  0.86977066588E+01  0.30848565898E+01 -0.82437316547E+01  0.12374391022E+02  0.51100000000E-03 0.  1.
        -12    1    3    3    0    0  0.17594115256E+02  0.23755593793E+02 -0.75317110871E+01  0.30505865010E+02  0.00000000000E+00 0.  1.
</event>
<event>
 7    1  0.3807360E-011  0.4778727E+02  0.7816164E-02  0.1312668E+00
        -11   -1    0    0    0    0  0.00000000000E+00  0.00000000000E+00  0.45593999997E+02  0.45594000000E+02  0.51100000000E-03 0.  1.
         11   -1    0    0    0    0 -0.00000000000E+00 -0.00000000000E+00 -0.45593999997E+02  0.45594000000E+02  0.51100000000E-03 0. -1.
    9900012    2    1    2    0    0  0.42194984657E+02 -0.10117472334E+02  0.91813167613E+00  0.47787274863E+02  0.20000017412E+02 0.  0.
        -12    1    1    2    0    0 -0.42194984657E+02  0.10117472334E+02 -0.91813167613E+00  0.43400725137E+02  0.00000000000E+00 0.  1.
         11    1    3    3    0    0  0.15899137672E+02 -0.39218778159E+01  0.97277305956E+01  0.19047111254E+02  0.51100000000E-03 0. -1.
        -11    1    3    3    0    0  0.43892438994E+01 -0.15780616016E+01 -0.32112523731E+01  0.56628510922E+01  0.51100000000E-03 0.  1.
         12    1    3    3    0    0  0.21906603086E+02 -0.46175329165E+01 -0.55983465464E+01  0.23077312518E+02  0.00000000000E+00 0. -1.
</event>
<event>
 7    1  0.3807360E-011  0.4778727E+02  0.7816164E-02  0.1312668E+00
        -11   -1    0    0    0    0  0.00000000000E+00  0.00000000000E+00  0.45593999997E+02  0.45594000000E+02  0.51100000000E-03 0. -1.
         11   -1    0    0    0    0 -0.00000000000E+00 -0.00000000000E+00 -0.45593999997E+02  0.45594000000E+02  0.51100000000E-03 0.  1.
    9900012    2    1    2    0    0 -0.10566340414E+02  0.20760059583E+01  0.42043621094E+02  0.47787269302E+02  0.19999992055E+02 0.  0.
        -12    1    1    2    0    0  0.10566340414E+02 -0.20760059583E+01 -0.42043621094E+02  0.43400730698E+02  0.00000000000E+00 0.  1.
         11    1    3    3    0    0 -0.29131483728E+01 -0.18069355040E+01  0.33876508497E+02  0.34049512149E+02  0.51100000000E-03 0. -1.
        -11    1    3    3    0    0 -0.54203662179E+00 -0.14609637822E+01 -0.14281544444E+00  0.15648052226E+01  0.51100000000E-03 0.  1.
         12    1    3    3    0    0 -0.71111554189E+01  0.53439052445E+01  0.83099280405E+01  0.12172951930E+02  0.00000000000E+00 0. -1.
</event>
<event>
 7    1  0.3807360E-011  0.4778729E+02  0.7816164E-02  0.1312668E+00
        -11   -1    0    0    0    0  0.00000000000E+00  0.00000000000E+00  0.45593999997E+02  0.45594000000E+02  0.51100000000E-03 0. -1.
         11   -1    0    0    0    0 -0.00000000000E+00 -0.00000000000E+00 -0.45593999997E+02  0.45594000000E+02  0.51100000000E-03 0.  1.
    9900012    2    1    2    0    0 -0.74091286200E+01  0.26606559222E+02  0.33478614073E+02  0.47787288246E+02  0.20000078428E+02 0.  0.
        -12    1    1    2    0    0  0.74091286200E+01 -0.26606559222E+02 -0.33478614073E+02  0.43400711754E+02  0.00000000000E+00 0.  1.
         11    1    3    3    0    0  0.12310931245E+00 -0.22530577699E+01  0.76735323303E+01  0.79984075854E+01  0.51100000000E-03 0.  1.
        -11    1    3    3    0    0 -0.63688963878E+01  0.15936710266E+02  0.16628319678E+02  0.23896497461E+02  0.51100000000E-03 0. -1.
        -12    1    3    3    0    0 -0.11633415446E+01  0.12922906726E+02  0.91767620641E+01  0.15892383200E+02  0.00000000000E+00 0.  1.
</event>
<event>
 7    1  0.3807360E-011  0.4778727E+02  0.7816164E-02  0.1312668E+00
        -11   -1    0    0    0    0  0.00000000000E+00  0.00000000000E+00  0.45593999997E+02  0.45594000000E+02  0.51100000000E-03 0. -1.
         11   -1    0    0    0    0 -0.00000000000E+00 -0.00000000000E+00 -0.45593999997E+02  0.45594000000E+02  0.51100000000E-03 0.  1.
    9900012    2    1    2    0    0 -0.12679082996E+01 -0.81178381327E+01  0.42615917815E+02  0.47787270298E+02  0.19999996597E+02 0.  0.
        -12    1    1    2    0    0  0.12679082996E+01  0.81178381327E+01 -0.42615917815E+02  0.43400729702E+02  0.00000000000E+00 0.  1.
         11    1    3    3    0    0 -0.24393736083E+01  0.44349038720E+01  0.27909217890E+01  0.57799792948E+01  0.51100000000E-03 0. -1.
        -11    1    3    3    0    0 -0.16458826165E+01 -0.37769523185E+01  0.13555821595E+02  0.14168083772E+02  0.51100000000E-03 0.  1.
         12    1    3    3    0    0  0.28173479252E+01 -0.87757896861E+01  0.26269174432E+02  0.27839207231E+02  0.00000000000E+00 0. -1.
</event>
<event>
 7    1  0.3807360E-011  0.4778726E+02  0.7816164E-02  0.1312668E+00
        -11   -1    0    0    0    0  0.00000000000E+00  0.00000000000E+00  0.45593999997E+02  0.45594000000E+02  0.51100000000E-03 0. -1.
         11   -1    0    0    0    0 -0.00000000000E+00 -0.00000000000E+00 -0.45593999997E+02  0.45594000000E+02  0.51100000000E-03 0.  1.
    9900012    2    1    2    0    0 -0.18817519745E+02  0.15301589495E+02 -0.35991474743E+02  0.47787263318E+02  0.19999964770E+02 0.  0.
         12    1    1    2    0    0  0.18817519745E+02 -0.15301589495E+02  0.35991474743E+02  0.43400736682E+02  0.00000000000E+00 0. -1.
         11    1    3    3    0    0 -0.32964818252E+01 -0.17103588128E+00 -0.85569925906E+01  0.91715957256E+01  0.51100000000E-03 0. -1.
        -11    1    3    3    0    0  0.12173956701E+00  0.94788491183E+01 -0.53125585974E+01  0.10866769540E+02  0.51100000000E-03 0.  1.
        -12    1    3    3    0    0 -0.15642777486E+02  0.59937762583E+01 -0.22121923555E+02  0.27748898052E+02  0.00000000000E+00 0.  1.
</event>
<event>
 7    1  0.3807360E-011  0.4778726E+02  0.7816164E-02  0.1312668E+00
        -11   -1    0    0    0    0  0.00000000000E+00  0.00000000000E+00  0.45593999997E+02  0.45594000000E+02  0.51100000000E-03 0. -1.
         11   -1    0    0    0    0 -0.00000000000E+00 -0.00000000000E+00 -0.45593999997E+02  0.45594000000E+02  0.51100000000E-03 0.  1.
    9900012    2    1    2    0    0 -0.20317106214E+02 -0.23206030339E+02  0.30533901855E+02  0.47787264850E+02  0.19999971759E+02 0.  0.
        -12    1    1    2    0    0  0.20317106214E+02  0.23206030339E+02 -0.30533901855E+02  0.43400735150E+02  0.00000000000E+00 0.  1.
         11    1    3    3    0    0 -0.83709377841E+01 -0.17204263925E+02  0.85728315732E+01  0.20965513064E+02  0.51100000000E-03 0. -1.
        -11    1    3    3    0    0 -0.95740637257E+01 -0.14337248576E+01  0.10637035138E+02  0.14382794581E+02  0.51100000000E-03 0.  1.
         12    1    3    3    0    0 -0.23721047044E+01 -0.45680415558E+01  0.11324035145E+02  0.12438957205E+02  0.00000000000E+00 0. -1.
</event>
<event>
 7    1  0.3807360E-011  0.4778727E+02  0.7816164E-02  0.1312668E+00
        -11   -1    0    0    0    0  0.00000000000E+00  0.00000000000E+00  0.45593999997E+02  0.45594000000E+02  0.51100000000E-03 0. -1.
         11   -1    0    0    0    0 -0.00000000000E+00 -0.00000000000E+00 -0.45593999997E+02  0.45594000000E+02  0.51100000000E-03 0.  1.
    9900012    2    1    2    0    0  0.15049685398E+02  0.13576909875E+02  0.38377045138E+02  0.47787272980E+02  0.20000008825E+02 0.  0.
        -12    1    1    2    0    0 -0.15049685398E+02 -0.13576909875E+02 -0.38377045138E+02  0.43400727020E+02  0.00000000000E+00 0.  1.
         11    1    3    3    0    0  0.36918869049E+01  0.31258205481E+01  0.19383873739E+02  0.19978371916E+02  0.51100000000E-03 0. -1.
        -11    1    3    3    0    0 -0.29057311678E+01  0.57480172115E+00  0.28833790133E+01  0.41337084360E+01  0.51100000000E-03 0.  1.
         12    1    3    3    0    0  0.14263529661E+02  0.98762876059E+01  0.16109792386E+02  0.23675192628E+02  0.00000000000E+00 0. -1.
</event>
<event>
 7    1  0.3807360E-011  0.4778728E+02  0.7816164E-02  0.1312668E+00
        -11   -1    0    0    0    0  0.00000000000E+00  0.00000000000E+00  0.45593999997E+02  0.45594000000E+02  0.51100000000E-03 0. -1.
         11   -1    0    0    0    0 -0.00000000000E+00 -0.00000000000E+00 -0.45593999997E+02  0.45594000000E+02  0.51100000000E-03 0.  1.
    9900012    2    1    2    0    0 -0.15580766121E+02  0.36752277648E+02  0.17033277571E+02  0.47787277310E+02  0.20000028568E+02 0.  0.
        -12    1    1    2    0    0  0.15580766121E+02 -0.36752277648E+02 -0.17033277571E+02  0.43400722690E+02  0.00000000000E+00 0.  1.
         11    1    3    3    0    0  0.22769400495E+01  0.79982436748E+01  0.73662472922E+01  0.11109363497E+02  0.51100000000E-03 0. -1.
        -11    1    3    3    0    0 -0.13721989179E+02  0.18195958029E+02  0.10917301060E+02  0.25270008673E+02  0.51100000000E-03 0.  1.
         12    1    3    3    0    0 -0.41357169913E+01  0.10558075944E+02 -0.12502707817E+01  0.11407905141E+02  0.00000000000E+00 0. -1.
</event>
<event>
 7    1  0.3807360E-011  0.4778725E+02  0.7816164E-02  0.1312668E+00
        -11   -1    0    0    0    0  0.00000000000E+00  0.00000000000E+00  0.45593999997E+02  0.45594000000E+02  0.51100000000E-03 0. -1.
         11   -1    0    0    0    0 -0.00000000000E+00 -0.00000000000E+00 -0.45593999997E+02  0.45594000000E+02  0.51100000000E-03 0.  1.
    9900012    2    1    2    0    0 -0.61979839051E+01 -0.33194619753E+02  0.27264037072E+02  0.47787245370E+02  0.19999882939E+02 0.  0.
        -12    1    1    2    0    0  0.61979839051E+01  0.33194619753E+02 -0.27264037072E+02  0.43400754630E+02  0.00000000000E+00 0.  1.
         11    1    3    3    0    0 -0.70629548840E+01 -0.12281062277E+02  0.12088633965E+02  0.18623772275E+02  0.51100000000E-03 0. -1.
        -11    1    3    3    0    0  0.84088999219E+00  0.11899768924E+01 -0.10054094984E+01  0.17703077427E+01  0.51100000000E-03 0.  1.
         12    1    3    3    0    0  0.24080986643E-01 -0.22103534368E+02  0.16180812605E+02  0.27393165352E+02  0.00000000000E+00 0. -1.
</event>
<event>
 7    1  0.3807360E-011  0.4778727E+02  0.7816164E-02  0.1312668E+00
        -11   -1    0    0    0    0  0.00000000000E+00  0.00000000000E+00  0.45593999997E+02  0.45594000000E+02  0.51100000000E-03 0.  1.
         11   -1    0    0    0    0 -0.00000000000E+00 -0.00000000000E+00 -0.45593999997E+02  0.45594000000E+02  0.51100000000E-03 0. -1.
    9900012    2    1    2    0    0  0.25143046960E+02 -0.31170715227E+02 -0.16728323029E+02  0.47787273168E+02  0.20000009682E+02 0.  0.
         12    1    1    2    0    0 -0.25143046960E+02  0.31170715227E+02  0.16728323029E+02  0.43400726832E+02  0.00000000000E+00 0. -1.
         11    1    3    3    0    0  0.10458331594E+02 -0.77228681059E+01 -0.87192162423E+01  0.15653885258E+02  0.51100000000E-03 0. -1.
        -11    1    3    3    0    0  0.68004225483E+01 -0.20889665068E+02 -0.23438245124E+01  0.22093378354E+02  0.51100000000E-03 0.  1.
        -12    1    3    3    0    0  0.78842928170E+01 -0.25581820534E+01 -0.56652822740E+01  0.10040009556E+02  0.00000000000E+00 0.  1.
</event>
<event>
 7    1  0.3807360E-011  0.4778727E+02  0.7816164E-02  0.1312668E+00
        -11   -1    0    0    0    0  0.00000000000E+00  0.00000000000E+00  0.45593999997E+02  0.45594000000E+02  0.51100000000E-03 0. -1.
         11   -1    0    0    0    0 -0.00000000000E+00 -0.00000000000E+00 -0.45593999997E+02  0.45594000000E+02  0.51100000000E-03 0.  1.
    9900012    2    1    2    0    0  0.12212059406E+02 -0.31613082051E+02 -0.27112760340E+02  0.47787272760E+02  0.20000007822E+02 0.  0.
         12    1    1    2    0    0 -0.12212059406E+02  0.31613082051E+02  0.27112760340E+02  0.43400727240E+02  0.00000000000E+00 0. -1.
         11    1    3    3    0    0  0.56296833152E+01 -0.27074765351E+01 -0.10068855958E+01  0.63275257630E+01  0.51100000000E-03 0. -1.
        -11    1    3    3    0    0  0.34956327540E+00 -0.52893147612E+01 -0.12322055681E+02  0.13413877202E+02  0.51100000000E-03 0.  1.
        -12    1    3    3    0    0  0.62328128156E+01 -0.23616290755E+02 -0.13783819064E+02  0.28045869795E+02  0.00000000000E+00 0.  1.
</event>
<event>
 7    1  0.3807360E-011  0.4778728E+02  0.7816164E-02  0.1312668E+00
        -11   -1    0    0    0    0  0.00000000000E+00  0.00000000000E+00  0.45593999997E+02  0.45594000000E+02  0.51100000000E-03 0. -1.
         11   -1    0    0    0    0 -0.00000000000E+00 -0.00000000000E+00 -0.45593999997E+02  0.45594000000E+02  0.51100000000E-03 0.  1.
    9900012    2    1    2    0    0 -0.14877554986E+02 -0.24330268399E+02  0.32715730623E+02  0.47787278428E+02  0.20000033666E+02 0.  0.
        -12    1    1    2    0    0  0.14877554986E+02  0.24330268399E+02 -0.32715730623E+02  0.43400721572E+02  0.00000000000E+00 0.  1.
         11    1    3    3    0    0  0.55471784231E+00 -0.31708436997E+00 -0.11569129745E+01  0.13216286445E+01  0.51100000000E-03 0.  1.
        -11    1    3    3    0    0 -0.16001265366E+02 -0.20522931362E+02  0.21997773098E+02  0.34075405009E+02  0.51100000000E-03 0. -1.
        -12    1    3    3    0    0  0.56899253779E+00 -0.34902526667E+01  0.11874870500E+02  0.12390244775E+02  0.00000000000E+00 0.  1.
</event>
<event>
 7    1  0.3807360E-011  0.4778727E+02  0.7816164E-02  0.1312668E+00
        -11   -1    0    0    0    0  0.00000000000E+00  0.00000000000E+00  0.45593999997E+02  0.45594000000E+02  0.51100000000E-03 0.  1.
         11   -1    0    0    0    0 -0.00000000000E+00 -0.00000000000E+00 -0.45593999997E+02  0.45594000000E+02  0.51100000000E-03 0. -1.
    9900012    2    1    2    0    0  0.25174902641E+02  0.34533778586E+02  0.75674097385E+01  0.47787271014E+02  0.19999999861E+02 0.  0.
        -12    1    1    2    0    0 -0.25174902641E+02 -0.34533778586E+02 -0.75674097385E+01  0.43400728986E+02  0.00000000000E+00 0.  1.
         11    1    3    3    0    0  0.14840686400E+02  0.15701397660E+02  0.27186575050E+01  0.21775466934E+02  0.51100000000E-03 0. -1.
        -11    1    3    3    0    0  0.18911234125E+01 -0.12891659982E+01  0.34574406932E+01  0.41463469633E+01  0.51100000000E-03 0.  1.
         12    1    3    3    0    0  0.84430928284E+01  0.20121546924E+02  0.13913115404E+01  0.21865457116E+02  0.00000000000E+00 0. -1.
</event>
<event>
 7    1  0.3807360E-011  0.4778727E+02  0.7816164E-02  0.1312668E+00
        -11   -1    0    0    0    0  0.00000000000E+00  0.00000000000E+00  0.45593999997E+02  0.45594000000E+02  0.51100000000E-03 0. -1.
         11   -1    0    0    0    0 -0.00000000000E+00 -0.00000000000E+00 -0.45593999997E+02  0.45594000000E+02  0.51100000000E-03 0.  1.
    9900012    2    1    2    0    0  0.51212166599E+01  0.27178816658E+02 -0.33447096649E+02  0.47787271789E+02  0.20000003393E+02 0.  0.
         12    1    1    2    0    0 -0.51212166599E+01 -0.27178816658E+02  0.33447096649E+02  0.43400728211E+02  0.00000000000E+00 0. -1.
         11    1    3    3    0    0 -0.53643474886E+00  0.10425658227E+02 -0.55431362882E+01  0.11819833835E+02  0.51100000000E-03 0. -1.
        -11    1    3    3    0    0 -0.10158379488E+00  0.14193764598E+02 -0.11095205692E+02  0.18016016828E+02  0.51100000000E-03 0.  1.
        -12    1    3    3    0    0  0.57592352037E+01  0.25593938327E+01 -0.16808754669E+02  0.17951421126E+02  0.00000000000E+00 0.  1.
</event>
<event>
 7    1  0.3807360E-011  0.4778727E+02  0.7816164E-02  0.1312668E+00
        -11   -1    0    0    0    0  0.00000000000E+00  0.00000000000E+00  0.45593999997E+02  0.45594000000E+02  0.51100000000E-03 0.  1.
         11   -1    0    0    0    0 -0.00000000000E+00 -0.00000000000E+00 -0.45593999997E+02  0.45594000000E+02  0.51100000000E-03 0. -1.
    9900012    2    1    2    0    0  0.30357772444E+02 -0.29259523753E+02 -0.10291214026E+02  0.47787272309E+02  0.20000005765E+02 0.  0.
         12    1    1    2    0    0 -0.30357772444E+02  0.29259523753E+02  0.10291214026E+02  0.43400727691E+02  0.00000000000E+00 0. -1.
         11    1    3    3    0    0 -0.18088692409E+00 -0.19851145370E+01 -0.40724908302E+01  0.45341572125E+01  0.51100000000E-03 0. -1.
        -11    1    3    3    0    0  0.98835544606E+01 -0.11236056957E+02 -0.81342214770E+01  0.17032298260E+02  0.51100000000E-03 0.  1.
         12    1    3    3    0    0  0.20655104907E+02 -0.16038352259E+02  0.19154982816E+01  0.26220816836E+02  0.00000000000E+00 0. -1.
</event>
<event>
 7    1  0.3807360E-011  0.4778727E+02  0.7816164E-02  0.1312668E+00
        -11   -1    0    0    0    0  0.00000000000E+00  0.00000000000E+00  0.45593999997E+02  0.45594000000E+02  0.51100000000E-03 0. -1.
         11   -1    0    0    0    0 -0.00000000000E+00 -0.00000000000E+00 -0.45593999997E+02  0.45594000000E+02  0.51100000000E-03 0.  1.
    9900012    2    1    2    0    0 -0.98924647795E+01  0.41442488253E+02 -0.82633302735E+01  0.47787270522E+02  0.19999997619E+02 0.  0.
         12    1    1    2    0    0  0.98924647795E+01 -0.41442488253E+02  0.82633302735E+01  0.43400729478E+02  0.00000000000E+00 0. -1.
         11    1    3    3    0    0 -0.21151975236E+01  0.32450171500E+02  0.31783219714E+00  0.32520588994E+02  0.51100000000E-03 0. -1.
        -11    1    3    3    0    0 -0.47151619272E+01  0.54754772104E+01 -0.25930563455E+01  0.76770791421E+01  0.51100000000E-03 0.  1.
         12    1    3    3    0    0 -0.30621053287E+01  0.35168395420E+01 -0.59881061251E+01  0.75896023858E+01  0.00000000000E+00 0. -1.
</event>
<event>
 7    1  0.3807360E-011  0.4778727E+02  0.7816164E-02  0.1312668E+00
        -11   -1    0    0    0    0  0.00000000000E+00  0.00000000000E+00  0.45593999997E+02  0.45594000000E+02  0.51100000000E-03 0. -1.
         11   -1    0    0    0    0 -0.00000000000E+00 -0.00000000000E+00 -0.45593999997E+02  0.45594000000E+02  0.51100000000E-03 0.  1.
    9900012    2    1    2    0    0  0.14131381476E+02  0.15832613102E+02  0.37858370249E+02  0.47787265237E+02  0.19999973522E+02 0.  0.
        -12    1    1    2    0    0 -0.14131381476E+02 -0.15832613102E+02 -0.37858370249E+02  0.43400734763E+02  0.00000000000E+00 0.  1.
         11    1    3    3    0    0  0.12444442922E+02  0.13209227090E+02  0.32872075840E+02  0.37548917564E+02  0.51100000000E-03 0. -1.
        -11    1    3    3    0    0  0.27986119676E+01 -0.18742321977E+01  0.44403843977E+01  0.55733283715E+01  0.51100000000E-03 0.  1.
         12    1    3    3    0    0 -0.11116734135E+01  0.44976182101E+01  0.54591001100E+00  0.46650193013E+01  0.00000000000E+00 0. -1.
</event>
<event>
 7    1  0.3807360E-011  0.4778726E+02  0.7816164E-02  0.1312668E+00
        -11   -1    0    0    0    0  0.00000000000E+00  0.00000000000E+00  0.45593999997E+02  0.45594000000E+02  0.51100000000E-03 0.  1.
         11   -1    0    0    0    0 -0.00000000000E+00 -0.00000000000E+00 -0.45593999997E+02  0.45594000000E+02  0.51100000000E-03 0. -1.
    9900012    2    1    2    0    0  0.16030704644E+02 -0.34933048328E+02  0.20157447985E+02  0.47787261918E+02  0.19999958387E+02 0.  0.
        -12    1    1    2    0    0 -0.16030704644E+02  0.34933048328E+02 -0.20157447985E+02  0.43400738082E+02  0.00000000000E+00 0.  1.
         11    1    3    3    0    0 -0.26660314401E+01 -0.20135576682E+01  0.40135071934E+01  0.52221047840E+01  0.51100000000E-03 0. -1.
        -11    1    3    3    0    0  0.61675379568E+01 -0.11299503723E+02  0.10692581343E+00  0.12873567580E+02  0.51100000000E-03 0.  1.
         12    1    3    3    0    0  0.12529198127E+02 -0.21619986937E+02  0.16037014978E+02  0.29691589554E+02  0.00000000000E+00 0. -1.
</event>
<event>
 7    1  0.3807360E-011  0.4778730E+02  0.7816164E-02  0.1312668E+00
        -11   -1    0    0    0    0  0.00000000000E+00  0.00000000000E+00  0.45593999997E+02  0.45594000000E+02  0.51100000000E-03 0. -1.
         11   -1    0    0    0    0 -0.00000000000E+00 -0.00000000000E+00 -0.45593999997E+02  0.45594000000E+02  0.51100000000E-03 0.  1.
    9900012    2    1    2    0    0 -0.34952679503E+02 -0.12551137728E+02  0.22458844452E+02  0.47787302346E+02  0.20000142716E+02 0.  0.
        -12    1    1    2    0    0  0.34952679503E+02  0.12551137728E+02 -0.22458844452E+02  0.43400697654E+02  0.00000000000E+00 0.  1.
         11    1    3    3    0    0 -0.23253174956E+02 -0.13422446380E+02  0.14264630279E+02  0.30403155916E+02  0.51100000000E-03 0. -1.
        -11    1    3    3    0    0 -0.14484923414E+01 -0.33039948967E+01 -0.80772155419E-02  0.36075722922E+01  0.51100000000E-03 0.  1.
         12    1    3    3    0    0 -0.10251012206E+02  0.41753035486E+01  0.82022913885E+01  0.13776574138E+02  0.00000000000E+00 0. -1.
</event>
<event>
 7    1  0.3807360E-011  0.4778728E+02  0.7816164E-02  0.1312668E+00
        -11   -1    0    0    0    0  0.00000000000E+00  0.00000000000E+00  0.45593999997E+02  0.45594000000E+02  0.51100000000E-03 0. -1.
         11   -1    0    0    0    0 -0.00000000000E+00 -0.00000000000E+00 -0.45593999997E+02  0.45594000000E+02  0.51100000000E-03 0.  1.
    9900012    2    1    2    0    0 -0.31463228415E+02 -0.21905660648E+02  0.20342810486E+02  0.47787278242E+02  0.20000032815E+02 0.  0.
        -12    1    1    2    0    0  0.31463228415E+02  0.21905660648E+02 -0.20342810486E+02  0.43400721758E+02  0.00000000000E+00 0.  1.
         11    1    3    3    0    0 -0.20071321046E+02 -0.15364406509E+02  0.58753521677E+01  0.25950774156E+02  0.51100000000E-03 0. -1.
        -11    1    3    3    0    0 -0.12874839190E+01 -0.61051189459E+01  0.57229609458E+01  0.84665444211E+01  0.51100000000E-03 0.  1.
         12    1    3    3    0    0 -0.10104423449E+02 -0.43613519233E+00  0.87444973721E+01  0.13369959665E+02  0.00000000000E+00 0. -1.
</event>
<event>
 7    1  0.3807360E-011  0.4778724E+02  0.7816164E-02  0.1312668E+00
        -11   -1    0    0    0    0  0.00000000000E+00  0.00000000000E+00  0.45593999997E+02  0.45594000000E+02  0.51100000000E-03 0. -1.
         11   -1    0    0    0    0 -0.00000000000E+00 -0.00000000000E+00 -0.45593999997E+02  0.45594000000E+02  0.51100000000E-03 0.  1.
    9900012    2    1    2    0    0 -0.12014179899E+02 -0.36254713050E+02  0.20612656621E+02  0.47787235606E+02  0.19999838423E+02 0.  0.
        -12    1    1    2    0    0  0.12014179899E+02  0.36254713050E+02 -0.20612656621E+02  0.43400764394E+02  0.00000000000E+00 0.  1.
         11    1    3    3    0    0 -0.19224642319E+01 -0.23909119532E+02  0.18070151284E+02  0.30031187676E+02  0.51100000000E-03 0. -1.
        -11    1    3    3    0    0 -0.83744750695E+01 -0.84828552479E+01  0.49319838916E+01  0.12900198883E+02  0.51100000000E-03 0.  1.
         12    1    3    3    0    0 -0.17172405978E+01 -0.38627382698E+01 -0.23894785547E+01  0.48558490478E+01  0.00000000000E+00 0. -1.
</event>
<event>
 7    1  0.3807360E-011  0.4778727E+02  0.7816164E-02  0.1312668E+00
        -11   -1    0    0    0    0  0.00000000000E+00  0.00000000000E+00  0.45593999997E+02  0.45594000000E+02  0.51100000000E-03 0. -1.
         11   -1    0    0    0    0 -0.00000000000E+00 -0.00000000000E+00 -0.45593999997E+02  0.45594000000E+02  0.51100000000E-03 0.  1.
    9900012    2    1    2    0    0 -0.16872002661E+01 -0.36859473885E+01  0.43210997935E+02  0.47787271949E+02  0.20000004122E+02 0.  0.
        -12    1    1    2    0    0  0.16872002661E+01  0.36859473885E+01 -0.43210997935E+02  0.43400728051E+02  0.00000000000E+00 0.  1.
         11    1    3    3    0    0 -0.41667876518E+01 -0.12187855823E+01  0.17792083460E+01  0.46918163039E+01  0.51100000000E-03 0. -1.
        -11    1    3    3    0    0 -0.28518870610E+01  0.82683552799E+00  0.29210299926E+02  0.29360833415E+02  0.51100000000E-03 0.  1.
        -12    1    3    3    0    0  0.53314744467E+01 -0.32939973342E+01  0.12221489663E+02  0.13734622230E+02  0.00000000000E+00 0.  1.
</event>
<event>
 7    1  0.3807360E-011  0.4778727E+02  0.7816164E-02  0.1312668E+00
        -11   -1    0    0    0    0  0.00000000000E+00  0.00000000000E+00  0.45593999997E+02  0.45594000000E+02  0.51100000000E-03 0. -1.
         11   -1    0    0    0    0 -0.00000000000E+00 -0.00000000000E+00 -0.45593999997E+02  0.45594000000E+02  0.51100000000E-03 0.  1.
    9900012    2    1    2    0    0  0.20769469700E+02  0.52098919206E+01  0.37750618498E+02  0.47787273710E+02  0.20000012154E+02 0.  0.
        -12    1    1    2    0    0 -0.20769469700E+02 -0.52098919206E+01 -0.37750618498E+02  0.43400726290E+02  0.00000000000E+00 0.  1.
         11    1    3    3    0    0  0.19523541970E+02  0.29135297870E+01  0.18065579278E+02  0.26758596783E+02  0.51100000000E-03 0. -1.
        -11    1    3    3    0    0  0.80100715338E+00  0.47430306647E+01  0.11262978449E+02  0.12247148083E+02  0.51100000000E-03 0.  1.
        -12    1    3    3    0    0  0.44492057698E+00 -0.24466685311E+01  0.84220607708E+01  0.87815288445E+01  0.00000000000E+00 0.  1.
</event>
<event>
 7    1  0.3807360E-011  0.4778728E+02  0.7816164E-02  0.1312668E+00
        -11   -1    0    0    0    0  0.00000000000E+00  0.00000000000E+00  0.45593999997E+02  0.45594000000E+02  0.51100000000E-03 0. -1.
         11   -1    0    0    0    0 -0.00000000000E+00 -0.00000000000E+00 -0.45593999997E+02  0.45594000000E+02  0.51100000000E-03 0.  1.
    9900012    2    1    2    0    0 -0.14909117814E+01  0.14773476159E+02  0.40781664412E+02  0.47787279177E+02  0.20000037078E+02 0.  0.
        -12    1    1    2    0    0  0.14909117814E+01 -0.14773476159E+02 -0.40781664412E+02  0.43400720823E+02  0.00000000000E+00 0.  1.
         11    1    3    3    0    0 -0.78180417948E+01  0.69312368306E+01  0.17943920411E+02  0.20764106084E+02  0.51100000000E-03 0. -1.
        -11    1    3    3    0    0  0.17069373883E+01  0.46365384298E+01  0.18186591909E+01  0.52648499857E+01  0.51100000000E-03 0.  1.
         12    1    3    3    0    0  0.46201926250E+01  0.32057008984E+01  0.21019084811E+02  0.21758323107E+02  0.00000000000E+00 0. -1.
</event>
<event>
 7    1  0.3807360E-011  0.4778727E+02  0.7816164E-02  0.1312668E+00
        -11   -1    0    0    0    0  0.00000000000E+00  0.00000000000E+00  0.45593999997E+02  0.45594000000E+02  0.51100000000E-03 0. -1.
         11   -1    0    0    0    0 -0.00000000000E+00 -0.00000000000E+00 -0.45593999997E+02  0.45594000000E+02  0.51100000000E-03 0.  1.
    9900012    2    1    2    0    0  0.18575912905E+01 -0.63907367746E+01 -0.42887424577E+02  0.47787270182E+02  0.19999996067E+02 0.  0.
         12    1    1    2    0    0 -0.18575912905E+01  0.63907367746E+01  0.42887424577E+02  0.43400729818E+02  0.00000000000E+00 0. -1.
         11    1    3    3    0    0 -0.32867861420E+01 -0.15808608845E+01 -0.29525326716E+01  0.46924975991E+01  0.51100000000E-03 0. -1.
        -11    1    3    3    0    0 -0.47221674555E+01  0.78972348216E+00 -0.10151947769E+02  0.11224284940E+02  0.51100000000E-03 0.  1.
        -12    1    3    3    0    0  0.98665448880E+01 -0.55995993723E+01 -0.29782944136E+02  0.31870487643E+02  0.00000000000E+00 0.  1.
</event>
<event>
 7    1  0.3807360E-011  0.4778727E+02  0.7816164E-02  0.1312668E+00
        -11   -1    0    0    0    0  0.00000000000E+00  0.00000000000E+00  0.45593999997E+02  0.45594000000E+02  0.51100000000E-03 0. -1.
         11   -1    0    0    0    0 -0.00000000000E+00 -0.00000000000E+00 -0.45593999997E+02  0.45594000000E+02  0.51100000000E-03 0.  1.
    9900012    2    1    2    0    0  0.34596436264E+02 -0.96554990223E+00  0.26187365300E+02  0.47787265096E+02  0.19999972880E+02 0.  0.
        -12    1    1    2    0    0 -0.34596436264E+02  0.96554990223E+00 -0.26187365300E+02  0.43400734904E+02  0.00000000000E+00 0.  1.
         11    1    3    3    0    0  0.11494345766E+02 -0.53200186336E+01  0.11518006669E+02  0.17119785651E+02  0.51100000000E-03 0. -1.
        -11    1    3    3    0    0  0.32724475630E+01 -0.82917479490E+00  0.86814631188E+01  0.93147327410E+01  0.51100000000E-03 0.  1.
        -12    1    3    3    0    0  0.19829642935E+02  0.51836435263E+01  0.59878955127E+01  0.21352746704E+02  0.00000000000E+00 0.  1.
</event>
<event>
 7    1  0.3807360E-011  0.4778728E+02  0.7816164E-02  0.1312668E+00
        -11   -1    0    0    0    0  0.00000000000E+00  0.00000000000E+00  0.45593999997E+02  0.45594000000E+02  0.51100000000E-03 0. -1.
         11   -1    0    0    0    0 -0.00000000000E+00 -0.00000000000E+00 -0.45593999997E+02  0.45594000000E+02  0.51100000000E-03 0.  1.
    9900012    2    1    2    0    0  0.19037940189E+02 -0.21901840302E+02 -0.32272108419E+02  0.47787276998E+02  0.20000027147E+02 0.  0.
         12    1    1    2    0    0 -0.19037940189E+02  0.21901840302E+02  0.32272108419E+02  0.43400723002E+02  0.00000000000E+00 0. -1.
         11    1    3    3    0    0  0.76365524096E+01 -0.15959594798E+02 -0.17452835583E+02  0.24852103914E+02  0.51100000000E-03 0. -1.
        -11    1    3    3    0    0  0.72718675104E+01 -0.46297333761E+01 -0.12746292012E+01  0.87143082390E+01  0.51100000000E-03 0.  1.
        -12    1    3    3    0    0  0.41295202685E+01 -0.13125121273E+01 -0.13544643635E+02  0.14220864845E+02  0.00000000000E+00 0.  1.
</event>
<event>
 7    1  0.3807360E-011  0.4778728E+02  0.7816164E-02  0.1312668E+00
        -11   -1    0    0    0    0  0.00000000000E+00  0.00000000000E+00  0.45593999997E+02  0.45594000000E+02  0.51100000000E-03 0. -1.
         11   -1    0    0    0    0 -0.00000000000E+00 -0.00000000000E+00 -0.45593999997E+02  0.45594000000E+02  0.51100000000E-03 0.  1.
    9900012    2    1    2    0    0 -0.22111374693E+02  0.27200843090E+02  0.25589532413E+02  0.47787275066E+02  0.20000018336E+02 0.  0.
        -12    1    1    2    0    0  0.22111374693E+02 -0.27200843090E+02 -0.25589532413E+02  0.43400724934E+02  0.00000000000E+00 0.  1.
         11    1    3    3    0    0 -0.31826434018E+01  0.58344810771E+01  0.77037965803E-01  0.66465271813E+01  0.51100000000E-03 0. -1.
        -11    1    3    3    0    0 -0.15093488652E+02  0.21336872646E+02  0.26458521816E+02  0.37190441124E+02  0.51100000000E-03 0.  1.
        -12    1    3    3    0    0 -0.38352426395E+01  0.29489366959E-01 -0.94602736849E+00  0.39503067613E+01  0.00000000000E+00 0.  1.
</event>
<event>
 7    1  0.3807360E-011  0.4778727E+02  0.7816164E-02  0.1312668E+00
        -11   -1    0    0    0    0  0.00000000000E+00  0.00000000000E+00  0.45593999997E+02  0.45594000000E+02  0.51100000000E-03 0. -1.
         11   -1    0    0    0    0 -0.00000000000E+00 -0.00000000000E+00 -0.45593999997E+02  0.45594000000E+02  0.51100000000E-03 0.  1.
    9900012    2    1    2    0    0  0.86527493692E+01  0.14047920059E+02 -0.40142359252E+02  0.47787272634E+02  0.20000007246E+02 0.  0.
         12    1    1    2    0    0 -0.86527493692E+01 -0.14047920059E+02  0.40142359252E+02  0.43400727366E+02  0.00000000000E+00 0. -1.
         11    1    3    3    0    0  0.81740065182E+00 -0.28308661605E+01 -0.94981333113E+01  0.99446711210E+01  0.51100000000E-03 0. -1.
        -11    1    3    3    0    0  0.68834666326E+01  0.54289399243E+01 -0.21298585843E+02  0.23032265645E+02  0.51100000000E-03 0.  1.
         12    1    3    3    0    0  0.95188208483E+00  0.11449846295E+02 -0.93456400979E+01  0.14810335868E+02  0.00000000000E+00 0. -1.
</event>
<event>
 7    1  0.3807360E-011  0.4778727E+02  0.7816164E-02  0.1312668E+00
        -11   -1    0    0    0    0  0.00000000000E+00  0.00000000000E+00  0.45593999997E+02  0.45594000000E+02  0.51100000000E-03 0. -1.
         11   -1    0    0    0    0 -0.00000000000E+00 -0.00000000000E+00 -0.45593999997E+02  0.45594000000E+02  0.51100000000E-03 0.  1.
    9900012    2    1    2    0    0 -0.36940277830E+02 -0.51555824768E+01  0.22191423125E+02  0.47787269394E+02  0.19999992477E+02 0.  0.
        -12    1    1    2    0    0  0.36940277830E+02  0.51555824768E+01 -0.22191423125E+02  0.43400730606E+02  0.00000000000E+00 0.  1.
         11    1    3    3    0    0 -0.62737497670E+01  0.11116202627E+01  0.11183795061E+02  0.12871398836E+02  0.51100000000E-03 0.  1.
        -11    1    3    3    0    0 -0.16090023138E+02  0.22457720238E+01  0.58056194267E+01  0.17252175334E+02  0.51100000000E-03 0. -1.
        -12    1    3    3    0    0 -0.14576504924E+02 -0.85129747633E+01  0.52020086364E+01  0.17663695225E+02  0.00000000000E+00 0.  1.
</event>
<event>
 7    1  0.3807360E-011  0.4778727E+02  0.7816164E-02  0.1312668E+00
        -11   -1    0    0    0    0  0.00000000000E+00  0.00000000000E+00  0.45593999997E+02  0.45594000000E+02  0.51100000000E-03 0.  1.
         11   -1    0    0    0    0 -0.00000000000E+00 -0.00000000000E+00 -0.45593999997E+02  0.45594000000E+02  0.51100000000E-03 0. -1.
    9900012    2    1    2    0    0 -0.37330028226E+02  0.10243532772E+01  0.22114321273E+02  0.47787268297E+02  0.19999987474E+02 0.  0.
         12    1    1    2    0    0  0.37330028226E+02 -0.10243532772E+01 -0.22114321273E+02  0.43400731703E+02  0.00000000000E+00 0. -1.
         11    1    3    3    0    0 -0.66605046001E+01  0.29880388494E+01  0.10011840441E+02  0.12390627384E+02  0.51100000000E-03 0.  1.
        -11    1    3    3    0    0 -0.65201792134E+01  0.48714470510E+01  0.35743648296E+01  0.88893091712E+01  0.51100000000E-03 0. -1.
        -12    1    3    3    0    0 -0.24149344413E+02 -0.68351326232E+01  0.85281160026E+01  0.26507331742E+02  0.00000000000E+00 0.  1.
</event>
<event>
 7    1  0.3807360E-011  0.4778727E+02  0.7816164E-02  0.1312668E+00
        -11   -1    0    0    0    0  0.00000000000E+00  0.00000000000E+00  0.45593999997E+02  0.45594000000E+02  0.51100000000E-03 0. -1.
         11   -1    0    0    0    0 -0.00000000000E+00 -0.00000000000E+00 -0.45593999997E+02  0.45594000000E+02  0.51100000000E-03 0.  1.
    9900012    2    1    2    0    0  0.89023425073E+00 -0.31778115674E+02 -0.29546273664E+02  0.47787269128E+02  0.19999991262E+02 0.  0.
         12    1    1    2    0    0 -0.89023425073E+00  0.31778115674E+02  0.29546273664E+02  0.43400730872E+02  0.00000000000E+00 0. -1.
         11    1    3    3    0    0  0.15581980024E+01  0.14299757748E+00  0.60591052865E+00  0.16779622021E+01  0.51100000000E-03 0. -1.
        -11    1    3    3    0    0  0.11541414918E+01 -0.32257378718E+02 -0.25609775566E+02  0.41203532969E+02  0.51100000000E-03 0.  1.
        -12    1    3    3    0    0 -0.18221052434E+01  0.33626546677E+00 -0.45424086268E+01  0.49057739568E+01  0.00000000000E+00 0.  1.
</event>
<event>
 7    1  0.3807360E-011  0.4778727E+02  0.7816164E-02  0.1312668E+00
        -11   -1    0    0    0    0  0.00000000000E+00  0.00000000000E+00  0.45593999997E+02  0.45594000000E+02  0.51100000000E-03 0. -1.
         11   -1    0    0    0    0 -0.00000000000E+00 -0.00000000000E+00 -0.45593999997E+02  0.45594000000E+02  0.51100000000E-03 0.  1.
    9900012    2    1    2    0    0  0.86577798270E+01 -0.40873297776E+02  0.11749031909E+02  0.47787269897E+02  0.19999994770E+02 0.  0.
        -12    1    1    2    0    0 -0.86577798270E+01  0.40873297776E+02 -0.11749031909E+02  0.43400730103E+02  0.00000000000E+00 0.  1.
         11    1    3    3    0    0  0.12453710122E+02 -0.21610255505E+02  0.73842968380E+01  0.26012033347E+02  0.51100000000E-03 0. -1.
        -11    1    3    3    0    0 -0.21456288065E+01 -0.38179957836E+01  0.44477397274E+01  0.62420512432E+01  0.51100000000E-03 0.  1.
        -12    1    3    3    0    0 -0.16503014890E+01 -0.15445046488E+02 -0.83004656301E-01  0.15533185307E+02  0.00000000000E+00 0.  1.
</event>
<event>
 7    1  0.3807360E-011  0.4778727E+02  0.7816164E-02  0.1312668E+00
        -11   -1    0    0    0    0  0.00000000000E+00  0.00000000000E+00  0.45593999997E+02  0.45594000000E+02  0.51100000000E-03 0. -1.
         11   -1    0    0    0    0 -0.00000000000E+00 -0.00000000000E+00 -0.45593999997E+02  0.45594000000E+02  0.51100000000E-03 0.  1.
    9900012    2    1    2    0    0 -0.29126035330E+02 -0.19123636244E+02  0.25876320128E+02  0.47787270276E+02  0.19999996494E+02 0.  0.
        -12    1    1    2    0    0  0.29126035330E+02  0.19123636244E+02 -0.25876320128E+02  0.43400729724E+02  0.00000000000E+00 0.  1.
         11    1    3    3    0    0 -0.16178763497E+02 -0.16496005275E+02  0.20787591940E+02  0.31080452976E+02  0.51100000000E-03 0. -1.
        -11    1    3    3    0    0 -0.12583329765E+02 -0.49207626980E+01  0.49188611754E+01  0.14378779121E+02  0.51100000000E-03 0.  1.
        -12    1    3    3    0    0 -0.36394206873E+00  0.22931317288E+01  0.16986701328E+00  0.23280381778E+01  0.00000000000E+00 0.  1.
</event>
<event>
 7    1  0.3807360E-011  0.4778727E+02  0.7816164E-02  0.1312668E+00
        -11   -1    0    0    0    0  0.00000000000E+00  0.00000000000E+00  0.45593999997E+02  0.45594000000E+02  0.51100000000E-03 0. -1.
         11   -1    0    0    0    0 -0.00000000000E+00 -0.00000000000E+00 -0.45593999997E+02  0.45594000000E+02  0.51100000000E-03 0.  1.
    9900012    2    1    2    0    0 -0.24327371369E+02  0.20572805708E+01  0.35882723067E+02  0.47787271714E+02  0.20000003051E+02 0.  0.
        -12    1    1    2    0    0  0.24327371369E+02 -0.20572805708E+01 -0.35882723067E+02  0.43400728286E+02  0.00000000000E+00 0.  1.
         11    1    3    3    0    0 -0.48830147266E+01 -0.11876926961E+01  0.19664064367E+02  0.20296055638E+02  0.51100000000E-03 0. -1.
        -11    1    3    3    0    0 -0.35133483482E+01  0.46807337824E+01  0.23019815927E+01  0.62890384696E+01  0.51100000000E-03 0.  1.
        -12    1    3    3    0    0 -0.15931008295E+02 -0.14357605155E+01  0.13916677107E+02  0.21202177606E+02  0.00000000000E+00 0.  1.
</event>
<event>
 7    1  0.3807360E-011  0.4778728E+02  0.7816164E-02  0.1312668E+00
        -11   -1    0    0    0    0  0.00000000000E+00  0.00000000000E+00  0.45593999997E+02  0.45594000000E+02  0.51100000000E-03 0.  1.
         11   -1    0    0    0    0 -0.00000000000E+00 -0.00000000000E+00 -0.45593999997E+02  0.45594000000E+02  0.51100000000E-03 0. -1.
    9900012    2    1    2    0    0  0.35647522615E+02  0.47696603516E+01  0.24292533993E+02  0.47787277238E+02  0.20000028237E+02 0.  0.
        -12    1    1    2    0    0 -0.35647522615E+02 -0.47696603516E+01 -0.24292533993E+02  0.43400722762E+02  0.00000000000E+00 0.  1.
         11    1    3    3    0    0  0.22227758602E+02  0.56970725942E+01  0.43701392204E+01  0.23358681591E+02  0.51100000000E-03 0. -1.
        -11    1    3    3    0    0  0.11982476183E+02  0.79622964454E-01  0.14974472581E+02  0.19178657529E+02  0.51100000000E-03 0.  1.
        -12    1    3    3    0    0  0.14372878305E+01 -0.10070352071E+01  0.49479221921E+01  0.52499381173E+01  0.00000000000E+00 0.  1.
</event>
<event>
 7    1  0.3807360E-011  0.4778727E+02  0.7816164E-02  0.1312668E+00
        -11   -1    0    0    0    0  0.00000000000E+00  0.00000000000E+00  0.45593999997E+02  0.45594000000E+02  0.51100000000E-03 0. -1.
         11   -1    0    0    0    0 -0.00000000000E+00 -0.00000000000E+00 -0.45593999997E+02  0.45594000000E+02  0.51100000000E-03 0.  1.
    9900012    2    1    2    0    0  0.16759157848E+02 -0.11878424887E+02  0.38231621060E+02  0.47787271913E+02  0.20000003962E+02 0.  0.
        -12    1    1    2    0    0 -0.16759157848E+02  0.11878424887E+02 -0.38231621060E+02  0.43400728087E+02  0.00000000000E+00 0.  1.
         11    1    3    3    0    0  0.12197965025E+02  0.28122695056E-01  0.87127701386E+01  0.14990113588E+02  0.51100000000E-03 0. -1.
        -11    1    3    3    0    0  0.80957077804E+00 -0.38067992879E+01  0.16886705154E+02  0.17329395168E+02  0.51100000000E-03 0.  1.
        -12    1    3    3    0    0  0.37516220451E+01 -0.80997482945E+01  0.12632145767E+02  0.15467763157E+02  0.00000000000E+00 0.  1.
</event>
<event>
 7    1  0.3807360E-011  0.4778727E+02  0.7816164E-02  0.1312668E+00
        -11   -1    0    0    0    0  0.00000000000E+00  0.00000000000E+00  0.45593999997E+02  0.45594000000E+02  0.51100000000E-03 0. -1.
         11   -1    0    0    0    0 -0.00000000000E+00 -0.00000000000E+00 -0.45593999997E+02  0.45594000000E+02  0.51100000000E-03 0.  1.
    9900012    2    1    2    0    0 -0.17558578509E+02  0.94194438073E+00 -0.39679119917E+02  0.47787268487E+02  0.19999988339E+02 0.  0.
         12    1    1    2    0    0  0.17558578509E+02 -0.94194438073E+00  0.39679119917E+02  0.43400731513E+02  0.00000000000E+00 0. -1.
         11    1    3    3    0    0 -0.20474175051E+01 -0.75451914630E+00 -0.71560926138E+01  0.74813688147E+01  0.51100000000E-03 0.  1.
        -11    1    3    3    0    0  0.36189059011E+01 -0.12658844504E+01 -0.93854675140E+01  0.10138340302E+02  0.51100000000E-03 0. -1.
         12    1    3    3    0    0 -0.19130066905E+02  0.29623479775E+01 -0.23137559789E+02  0.30167559370E+02  0.00000000000E+00 0. -1.
</event>
<event>
 7    1  0.3807360E-011  0.4778728E+02  0.7816164E-02  0.1312668E+00
        -11   -1    0    0    0    0  0.00000000000E+00  0.00000000000E+00  0.45593999997E+02  0.45594000000E+02  0.51100000000E-03 0. -1.
         11   -1    0    0    0    0 -0.00000000000E+00 -0.00000000000E+00 -0.45593999997E+02  0.45594000000E+02  0.51100000000E-03 0.  1.
    9900012    2    1    2    0    0  0.43122252889E+02  0.43023662811E+01 -0.23629699325E+01  0.47787277924E+02  0.20000031366E+02 0.  0.
         12    1    1    2    0    0 -0.43122252889E+02 -0.43023662811E+01  0.23629699325E+01  0.43400722076E+02  0.00000000000E+00 0. -1.
         11    1    3    3    0    0  0.32354696871E+02  0.18686634522E+01  0.16742788533E+01  0.32451833887E+02  0.51100000000E-03 0. -1.
        -11    1    3    3    0    0  0.11208940013E+02  0.31379020059E+01 -0.60785286633E+01  0.13131461312E+02  0.51100000000E-03 0.  1.
         12    1    3    3    0    0 -0.44138399536E+00 -0.70419917704E+00  0.20412798774E+01  0.22039827246E+01  0.00000000000E+00 0. -1.
</event>
<event>
 7    1  0.3807360E-011  0.4778725E+02  0.7816164E-02  0.1312668E+00
        -11   -1    0    0    0    0  0.00000000000E+00  0.00000000000E+00  0.45593999997E+02  0.45594000000E+02  0.51100000000E-03 0. -1.
         11   -1    0    0    0    0 -0.00000000000E+00 -0.00000000000E+00 -0.45593999997E+02  0.45594000000E+02  0.51100000000E-03 0.  1.
    9900012    2    1    2    0    0  0.33342282177E+02 -0.11203859797E+02 -0.25424211962E+02  0.47787253359E+02  0.19999919364E+02 0.  0.
         12    1    1    2    0    0 -0.33342282177E+02  0.11203859797E+02  0.25424211962E+02  0.43400746641E+02  0.00000000000E+00 0. -1.
         11    1    3    3    0    0  0.18652680652E+02  0.10722161547E+01 -0.13830592641E+02  0.23245589604E+02  0.51100000000E-03 0. -1.
        -11    1    3    3    0    0  0.30097365436E+01 -0.32290026670E+01  0.16384493135E+01  0.47084486510E+01  0.51100000000E-03 0.  1.
        -12    1    3    3    0    0  0.11679864981E+02 -0.90470732844E+01 -0.13232068635E+02  0.19833215104E+02  0.00000000000E+00 0.  1.
</event>
<event>
 7    1  0.3807360E-011  0.4778729E+02  0.7816164E-02  0.1312668E+00
        -11   -1    0    0    0    0  0.00000000000E+00  0.00000000000E+00  0.45593999997E+02  0.45594000000E+02  0.51100000000E-03 0. -1.
         11   -1    0    0    0    0 -0.00000000000E+00 -0.00000000000E+00 -0.45593999997E+02  0.45594000000E+02  0.51100000000E-03 0.  1.
    9900012    2    1    2    0    0  0.14967828590E+02  0.84240281778E+01 -0.39857513641E+02  0.47787291053E+02  0.20000091227E+02 0.  0.
         12    1    1    2    0    0 -0.14967828590E+02 -0.84240281778E+01  0.39857513641E+02  0.43400708947E+02  0.00000000000E+00 0. -1.
         11    1    3    3    0    0  0.30525833182E+00  0.44543818111E+00  0.78005336775E+00  0.94872616702E+00  0.51100000000E-03 0. -1.
        -11    1    3    3    0    0  0.14568038264E+02  0.93465898190E+01 -0.41670202326E+02  0.45121970726E+02  0.51100000000E-03 0.  1.
        -12    1    3    3    0    0  0.94531994273E-01 -0.13679998223E+01  0.10326353167E+01  0.17165941597E+01  0.00000000000E+00 0.  1.
</event>
<event>
 7    1  0.3807360E-011  0.4778727E+02  0.7816164E-02  0.1312668E+00
        -11   -1    0    0    0    0  0.00000000000E+00  0.00000000000E+00  0.45593999997E+02  0.45594000000E+02  0.51100000000E-03 0. -1.
         11   -1    0    0    0    0 -0.00000000000E+00 -0.00000000000E+00 -0.45593999997E+02  0.45594000000E+02  0.51100000000E-03 0.  1.
    9900012    2    1    2    0    0 -0.29209880017E+02  0.71535358423E+01  0.31292703345E+02  0.47787269035E+02  0.19999990838E+02 0.  0.
        -12    1    1    2    0    0  0.29209880017E+02 -0.71535358423E+01 -0.31292703345E+02  0.43400730965E+02  0.00000000000E+00 0.  1.
         11    1    3    3    0    0 -0.27962764602E+02  0.74424803653E+01  0.30922130583E+02  0.42349555821E+02  0.51100000000E-03 0. -1.
        -11    1    3    3    0    0 -0.27853513182E+01  0.99376337517E+00 -0.86891202984E+00  0.30823296366E+01  0.51100000000E-03 0.  1.
         12    1    3    3    0    0  0.15382359037E+01 -0.12827078982E+01  0.12394847923E+01  0.23553835776E+01  0.00000000000E+00 0. -1.
</event>
<event>
 7    1  0.3807360E-011  0.4778727E+02  0.7816164E-02  0.1312668E+00
        -11   -1    0    0    0    0  0.00000000000E+00  0.00000000000E+00  0.45593999997E+02  0.45594000000E+02  0.51100000000E-03 0. -1.
         11   -1    0    0    0    0 -0.00000000000E+00 -0.00000000000E+00 -0.45593999997E+02  0.45594000000E+02  0.51100000000E-03 0.  1.
    9900012    2    1    2    0    0 -0.64391806013E+01  0.25350723128E+02  0.34633811781E+02  0.47787272720E+02  0.20000007640E+02 0.  0.
        -12    1    1    2    0    0  0.64391806013E+01 -0.25350723128E+02 -0.34633811781E+02  0.43400727280E+02  0.00000000000E+00 0.  1.
         11    1    3    3    0    0 -0.86650671459E+01  0.33481865463E+01  0.16117622779E+02  0.18602997234E+02  0.51100000000E-03 0. -1.
        -11    1    3    3    0    0  0.22639378966E+01  0.47708441638E+01  0.51507717713E+01  0.73767756463E+01  0.51100000000E-03 0.  1.
         12    1    3    3    0    0 -0.38051352038E-01  0.17231692418E+02  0.13365417231E+02  0.21807499839E+02  0.00000000000E+00 0. -1.
</event>
<event>
 7    1  0.3807360E-011  0.4778728E+02  0.7816164E-02  0.1312668E+00
        -11   -1    0    0    0    0  0.00000000000E+00  0.00000000000E+00  0.45593999997E+02  0.45594000000E+02  0.51100000000E-03 0.  1.
         11   -1    0    0    0    0 -0.00000000000E+00 -0.00000000000E+00 -0.45593999997E+02  0.45594000000E+02  0.51100000000E-03 0. -1.
    9900012    2    1    2    0    0 -0.35906560273E+02 -0.24010463055E+02 -0.42236210367E+01  0.47787281326E+02  0.20000046878E+02 0.  0.
         12    1    1    2    0    0  0.35906560273E+02  0.24010463055E+02  0.42236210367E+01  0.43400718674E+02  0.00000000000E+00 0. -1.
         11    1    3    3    0    0 -0.15018254142E+02 -0.15434446499E+02 -0.19506532198E+01  0.21623485946E+02  0.51100000000E-03 0. -1.
        -11    1    3    3    0    0 -0.13001994139E+02 -0.33088254075E+01  0.48893037985E+01  0.14279547229E+02  0.51100000000E-03 0.  1.
         12    1    3    3    0    0 -0.78863119916E+01 -0.52671911491E+01 -0.71622716155E+01  0.11884248151E+02  0.00000000000E+00 0. -1.
</event>
<event>
 7    1  0.3807360E-011  0.4778727E+02  0.7816164E-02  0.1312668E+00
        -11   -1    0    0    0    0  0.00000000000E+00  0.00000000000E+00  0.45593999997E+02  0.45594000000E+02  0.51100000000E-03 0. -1.
         11   -1    0    0    0    0 -0.00000000000E+00 -0.00000000000E+00 -0.45593999997E+02  0.45594000000E+02  0.51100000000E-03 0.  1.
    9900012    2    1    2    0    0  0.11342038532E+02 -0.32625082934E+02 -0.26278989986E+02  0.47787272021E+02  0.20000004450E+02 0.  0.
         12    1    1    2    0    0 -0.11342038532E+02  0.32625082934E+02  0.26278989986E+02  0.43400727979E+02  0.00000000000E+00 0. -1.
         11    1    3    3    0    0  0.26459009366E+01 -0.15273951880E+02 -0.19129027812E+02  0.24621415538E+02  0.51100000000E-03 0. -1.
        -11    1    3    3    0    0  0.90482332195E+01 -0.13532323714E+02 -0.93216337549E+01  0.18758655752E+02  0.51100000000E-03 0.  1.
         12    1    3    3    0    0 -0.35209562439E+00 -0.38188073400E+01  0.21716715810E+01  0.44072007311E+01  0.00000000000E+00 0. -1.
</event>
<event>
 7    1  0.3807360E-011  0.4778727E+02  0.7816164E-02  0.1312668E+00
        -11   -1    0    0    0    0  0.00000000000E+00  0.00000000000E+00  0.45593999997E+02  0.45594000000E+02  0.51100000000E-03 0. -1.
         11   -1    0    0    0    0 -0.00000000000E+00 -0.00000000000E+00 -0.45593999997E+02  0.45594000000E+02  0.51100000000E-03 0.  1.
    9900012    2    1    2    0    0  0.23482503405E+02 -0.70743824789E+01  0.35807099291E+02  0.47787271743E+02  0.20000003184E+02 0.  0.
        -12    1    1    2    0    0 -0.23482503405E+02  0.70743824789E+01 -0.35807099291E+02  0.43400728257E+02  0.00000000000E+00 0.  1.
         11    1    3    3    0    0  0.39338056899E+01  0.34934151795E+01  0.75870138240E+01  0.92326353685E+01  0.51100000000E-03 0.  1.
        -11    1    3    3    0    0  0.19153732609E+02 -0.65289943359E+01  0.16367767888E+02  0.26026852784E+02  0.51100000000E-03 0. -1.
        -12    1    3    3    0    0  0.39496510618E+00 -0.40388033224E+01  0.11852317578E+02  0.12527783591E+02  0.00000000000E+00 0.  1.
</event>
<event>
 7    1  0.3807360E-011  0.4778727E+02  0.7816164E-02  0.1312668E+00
        -11   -1    0    0    0    0  0.00000000000E+00  0.00000000000E+00  0.45593999997E+02  0.45594000000E+02  0.51100000000E-03 0. -1.
         11   -1    0    0    0    0 -0.00000000000E+00 -0.00000000000E+00 -0.45593999997E+02  0.45594000000E+02  0.51100000000E-03 0.  1.
    9900012    2    1    2    0    0 -0.15192241823E+02 -0.28847166631E+02 -0.28647162314E+02  0.47787272554E+02  0.20000006882E+02 0.  0.
         12    1    1    2    0    0  0.15192241823E+02  0.28847166631E+02  0.28647162314E+02  0.43400727446E+02  0.00000000000E+00 0. -1.
         11    1    3    3    0    0 -0.12050823407E+02 -0.11862407178E+02 -0.11258777947E+02  0.20314997661E+02  0.51100000000E-03 0. -1.
        -11    1    3    3    0    0 -0.28853757787E+01 -0.17664642970E+02 -0.10927809330E+02  0.20970980465E+02  0.51100000000E-03 0.  1.
         12    1    3    3    0    0 -0.25604263682E+00  0.67988351763E+00 -0.64605750365E+01  0.65012944274E+01  0.00000000000E+00 0. -1.
</event>
<event>
 7    1  0.3807360E-011  0.4778727E+02  0.7816164E-02  0.1312668E+00
        -11   -1    0    0    0    0  0.00000000000E+00  0.00000000000E+00  0.45593999997E+02  0.45594000000E+02  0.51100000000E-03 0. -1.
         11   -1    0    0    0    0 -0.00000000000E+00 -0.00000000000E+00 -0.45593999997E+02  0.45594000000E+02  0.51100000000E-03 0.  1.
    9900012    2    1    2    0    0 -0.12060629610E+02 -0.34848353165E+02 -0.22885740527E+02  0.47787267006E+02  0.19999981589E+02 0.  0.
         12    1    1    2    0    0  0.12060629610E+02  0.34848353165E+02  0.22885740527E+02  0.43400732994E+02  0.00000000000E+00 0. -1.
         11    1    3    3    0    0 -0.40762820275E+00  0.67653798330E+00 -0.45643021272E+01  0.46321397393E+01  0.51100000000E-03 0. -1.
        -11    1    3    3    0    0 -0.84609000547E+00  0.79998612488E+00 -0.71783329747E+00  0.13678929057E+01  0.51100000000E-03 0.  1.
        -12    1    3    3    0    0 -0.10806911402E+02 -0.36324877274E+02 -0.17603605102E+02  0.41787234361E+02  0.00000000000E+00 0.  1.
</event>
<event>
 7    1  0.3807360E-011  0.4778728E+02  0.7816164E-02  0.1312668E+00
        -11   -1    0    0    0    0  0.00000000000E+00  0.00000000000E+00  0.45593999997E+02  0.45594000000E+02  0.51100000000E-03 0. -1.
         11   -1    0    0    0    0 -0.00000000000E+00 -0.00000000000E+00 -0.45593999997E+02  0.45594000000E+02  0.51100000000E-03 0.  1.
    9900012    2    1    2    0    0  0.14851640668E+02 -0.90807707665E+01 -0.39756650615E+02  0.47787275393E+02  0.20000019829E+02 0.  0.
         12    1    1    2    0    0 -0.14851640668E+02  0.90807707665E+01  0.39756650615E+02  0.43400724607E+02  0.00000000000E+00 0. -1.
         11    1    3    3    0    0 -0.13664203921E+01  0.14633170722E+01 -0.31201563910E+00  0.20262664094E+01  0.51100000000E-03 0. -1.
        -11    1    3    3    0    0  0.56439594524E+01 -0.49625351570E+01 -0.28760372994E+02  0.29726084312E+02  0.51100000000E-03 0.  1.
         12    1    3    3    0    0  0.10574101608E+02 -0.55815526816E+01 -0.10684261981E+02  0.16034924672E+02  0.00000000000E+00 0. -1.
</event>
<event>
 7    1  0.3807360E-011  0.4778727E+02  0.7816164E-02  0.1312668E+00
        -11   -1    0    0    0    0  0.00000000000E+00  0.00000000000E+00  0.45593999997E+02  0.45594000000E+02  0.51100000000E-03 0. -1.
         11   -1    0    0    0    0 -0.00000000000E+00 -0.00000000000E+00 -0.45593999997E+02  0.45594000000E+02  0.51100000000E-03 0.  1.
    9900012    2    1    2    0    0 -0.21310119068E+01  0.11304811610E+01 -0.43333639721E+02  0.47787268084E+02  0.19999986501E+02 0.  0.
         12    1    1    2    0    0  0.21310119068E+01 -0.11304811610E+01  0.43333639721E+02  0.43400731916E+02  0.00000000000E+00 0. -1.
         11    1    3    3    0    0  0.41349414909E+01  0.20090434290E+01 -0.44282013995E+01  0.63830215829E+01  0.51100000000E-03 0. -1.
        -11    1    3    3    0    0 -0.42839475827E+01 -0.58659779753E+01 -0.12485361311E+02  0.14444589016E+02  0.51100000000E-03 0.  1.
        -12    1    3    3    0    0 -0.19820058150E+01  0.49874157074E+01 -0.26420077010E+02  0.26959657485E+02  0.00000000000E+00 0.  1.
</event>
<event>
 7    1  0.3807360E-011  0.4778728E+02  0.7816164E-02  0.1312668E+00
        -11   -1    0    0    0    0  0.00000000000E+00  0.00000000000E+00  0.45593999997E+02  0.45594000000E+02  0.51100000000E-03 0. -1.
         11   -1    0    0    0    0 -0.00000000000E+00 -0.00000000000E+00 -0.45593999997E+02  0.45594000000E+02  0.51100000000E-03 0.  1.
    9900012    2    1    2    0    0 -0.11298559618E+02 -0.12168614185E+02  0.40098505876E+02  0.47787276571E+02  0.20000025199E+02 0.  0.
        -12    1    1    2    0    0  0.11298559618E+02  0.12168614185E+02 -0.40098505876E+02  0.43400723429E+02  0.00000000000E+00 0.  1.
         11    1    3    3    0    0 -0.58341784249E+01 -0.70089961856E+01  0.31633267889E+02  0.32921532514E+02  0.51100000000E-03 0. -1.
        -11    1    3    3    0    0 -0.37124154690E-02  0.26060600782E+01  0.10101306531E+01  0.27949824884E+01  0.51100000000E-03 0.  1.
        -12    1    3    3    0    0 -0.54606687779E+01 -0.77656780777E+01  0.74551073337E+01  0.12070761569E+02  0.00000000000E+00 0.  1.
</event>
<event>
 7    1  0.3807360E-011  0.4778728E+02  0.7816164E-02  0.1312668E+00
        -11   -1    0    0    0    0  0.00000000000E+00  0.00000000000E+00  0.45593999997E+02  0.45594000000E+02  0.51100000000E-03 0. -1.
         11   -1    0    0    0    0 -0.00000000000E+00 -0.00000000000E+00 -0.45593999997E+02  0.45594000000E+02  0.51100000000E-03 0.  1.
    9900012    2    1    2    0    0 -0.18794765090E+02  0.64804385266E+01 -0.38579574651E+02  0.47787275829E+02  0.20000021815E+02 0.  0.
         12    1    1    2    0    0  0.18794765090E+02 -0.64804385266E+01  0.38579574651E+02  0.43400724171E+02  0.00000000000E+00 0. -1.
         11    1    3    3    0    0  0.18333857393E+01  0.16991698997E+01 -0.11832800840E+02  0.12093951282E+02  0.51100000000E-03 0. -1.
        -11    1    3    3    0    0 -0.11467752664E+02  0.15312274117E+01 -0.22043861880E+02  0.24895498697E+02  0.51100000000E-03 0.  1.
         12    1    3    3    0    0 -0.91603981658E+01  0.32500412152E+01 -0.47029119307E+01  0.10797825850E+02  0.00000000000E+00 0. -1.
</event>
<event>
 7    1  0.3807360E-011  0.4778728E+02  0.7816164E-02  0.1312668E+00
        -11   -1    0    0    0    0  0.00000000000E+00  0.00000000000E+00  0.45593999997E+02  0.45594000000E+02  0.51100000000E-03 0. -1.
         11   -1    0    0    0    0 -0.00000000000E+00 -0.00000000000E+00 -0.45593999997E+02  0.45594000000E+02  0.51100000000E-03 0.  1.
    9900012    2    1    2    0    0  0.64340227096E+01  0.60374819084E+01  0.42494408188E+02  0.47787279231E+02  0.20000037325E+02 0.  0.
        -12    1    1    2    0    0 -0.64340227096E+01 -0.60374819084E+01 -0.42494408188E+02  0.43400720769E+02  0.00000000000E+00 0.  1.
         11    1    3    3    0    0  0.58128086518E+01  0.44176769601E+01  0.43254889048E+02  0.43866730457E+02  0.51100000000E-03 0. -1.
        -11    1    3    3    0    0 -0.10082468456E+01 -0.52532669975E+00 -0.66903232820E-01  0.11388617769E+01  0.51100000000E-03 0.  1.
         12    1    3    3    0    0  0.16294609034E+01  0.21451316480E+01 -0.69357762758E+00  0.27816869968E+01  0.00000000000E+00 0. -1.
</event>
<event>
 7    1  0.3807360E-011  0.4778727E+02  0.7816164E-02  0.1312668E+00
        -11   -1    0    0    0    0  0.00000000000E+00  0.00000000000E+00  0.45593999997E+02  0.45594000000E+02  0.51100000000E-03 0.  1.
         11   -1    0    0    0    0 -0.00000000000E+00 -0.00000000000E+00 -0.45593999997E+02  0.45594000000E+02  0.51100000000E-03 0. -1.
    9900012    2    1    2    0    0  0.10028037300E+02  0.42214284041E+02 -0.10081597970E+01  0.47787266188E+02  0.19999977858E+02 0.  0.
         12    1    1    2    0    0 -0.10028037300E+02 -0.42214284041E+02  0.10081597970E+01  0.43400733812E+02  0.00000000000E+00 0. -1.
         11    1    3    3    0    0 -0.10395749235E+01  0.72606534301E+00  0.15284515065E+01  0.19859635376E+01  0.51100000000E-03 0. -1.
        -11    1    3    3    0    0  0.78715037951E+01  0.29477286233E+02 -0.89762547704E+01  0.31803209360E+02  0.51100000000E-03 0.  1.
        -12    1    3    3    0    0  0.31961084287E+01  0.12010932466E+02  0.64396434669E+01  0.13998093290E+02  0.00000000000E+00 0.  1.
</event>
<event>
 7    1  0.3807360E-011  0.4778724E+02  0.7816164E-02  0.1312668E+00
        -11   -1    0    0    0    0  0.00000000000E+00  0.00000000000E+00  0.45593999997E+02  0.45594000000E+02  0.51100000000E-03 0. -1.
         11   -1    0    0    0    0 -0.00000000000E+00 -0.00000000000E+00 -0.45593999997E+02  0.45594000000E+02  0.51100000000E-03 0.  1.
    9900012    2    1    2    0    0 -0.24945368189E+02 -0.10691746475E+01 -0.35499457701E+02  0.47787239343E+02  0.19999855461E+02 0.  0.
         12    1    1    2    0    0  0.24945368189E+02  0.10691746475E+01  0.35499457701E+02  0.43400760657E+02  0.00000000000E+00 0. -1.
         11    1    3    3    0    0 -0.34844734438E+01 -0.84738910465E+00  0.93921546145E+00  0.37069865686E+01  0.51100000000E-03 0. -1.
        -11    1    3    3    0    0 -0.20004176856E+02  0.39461576814E+01 -0.29882322596E+02  0.36175854601E+02  0.51100000000E-03 0.  1.
         12    1    3    3    0    0 -0.14567178886E+01 -0.41679432243E+01 -0.65563505668E+01  0.79043981733E+01  0.00000000000E+00 0. -1.
</event>
<event>
 7    1  0.3807360E-011  0.4778726E+02  0.7816164E-02  0.1312668E+00
        -11   -1    0    0    0    0  0.00000000000E+00  0.00000000000E+00  0.45593999997E+02  0.45594000000E+02  0.51100000000E-03 0. -1.
         11   -1    0    0    0    0 -0.00000000000E+00 -0.00000000000E+00 -0.45593999997E+02  0.45594000000E+02  0.51100000000E-03 0.  1.
    9900012    2    1    2    0    0 -0.12013742104E+02  0.30650260672E+02 -0.28281728827E+02  0.47787255029E+02  0.19999926978E+02 0.  0.
         12    1    1    2    0    0  0.12013742104E+02 -0.30650260672E+02  0.28281728827E+02  0.43400744971E+02  0.00000000000E+00 0. -1.
         11    1    3    3    0    0  0.10138360739E+01 -0.10246106125E+01  0.52646825361E+00  0.15345551718E+01  0.51100000000E-03 0. -1.
        -11    1    3    3    0    0 -0.11892845448E+01  0.17529999403E+02 -0.16297320016E+02  0.23964930978E+02  0.51100000000E-03 0.  1.
        -12    1    3    3    0    0 -0.11838293634E+02  0.14144871882E+02 -0.12510877065E+02  0.22287768880E+02  0.00000000000E+00 0.  1.
</event>
<event>
 7    1  0.3807360E-011  0.4778727E+02  0.7816164E-02  0.1312668E+00
        -11   -1    0    0    0    0  0.00000000000E+00  0.00000000000E+00  0.45593999997E+02  0.45594000000E+02  0.51100000000E-03 0. -1.
         11   -1    0    0    0    0 -0.00000000000E+00 -0.00000000000E+00 -0.45593999997E+02  0.45594000000E+02  0.51100000000E-03 0.  1.
    9900012    2    1    2    0    0 -0.58648629677E+01 -0.41797786284E+02  0.10108007659E+02  0.47787269882E+02  0.19999994702E+02 0.  0.
        -12    1    1    2    0    0  0.58648629677E+01  0.41797786284E+02 -0.10108007659E+02  0.43400730118E+02  0.00000000000E+00 0.  1.
         11    1    3    3    0    0 -0.38458490600E+01 -0.16169862572E+02  0.51303059125E+01  0.17394684522E+02  0.51100000000E-03 0. -1.
        -11    1    3    3    0    0  0.15457374901E+01 -0.25847347855E+02  0.61860613479E+01  0.26622209728E+02  0.51100000000E-03 0.  1.
        -12    1    3    3    0    0 -0.35647513979E+01  0.21942414329E+00 -0.12083596013E+01  0.37703756324E+01  0.00000000000E+00 0.  1.
</event>
<event>
 7    1  0.3807360E-011  0.4778728E+02  0.7816164E-02  0.1312668E+00
        -11   -1    0    0    0    0  0.00000000000E+00  0.00000000000E+00  0.45593999997E+02  0.45594000000E+02  0.51100000000E-03 0. -1.
         11   -1    0    0    0    0 -0.00000000000E+00 -0.00000000000E+00 -0.45593999997E+02  0.45594000000E+02  0.51100000000E-03 0.  1.
    9900012    2    1    2    0    0 -0.83306417831E+01  0.21639221658E+02 -0.36687419612E+02  0.47787282676E+02  0.20000053033E+02 0.  0.
         12    1    1    2    0    0  0.83306417831E+01 -0.21639221658E+02  0.36687419612E+02  0.43400717324E+02  0.00000000000E+00 0. -1.
         11    1    3    3    0    0  0.74858457016E+00  0.10177321062E+01  0.68846782346E+00  0.14388000916E+01  0.51100000000E-03 0. -1.
        -11    1    3    3    0    0 -0.13574908621E+01 -0.23726725820E+01 -0.17385294659E+01  0.32395742911E+01  0.51100000000E-03 0.  1.
        -12    1    3    3    0    0 -0.77217354911E+01  0.22994162134E+02 -0.35637357969E+02  0.43108908293E+02  0.00000000000E+00 0.  1.
</event>
<event>
 7    1  0.3807360E-011  0.4778727E+02  0.7816164E-02  0.1312668E+00
        -11   -1    0    0    0    0  0.00000000000E+00  0.00000000000E+00  0.45593999997E+02  0.45594000000E+02  0.51100000000E-03 0. -1.
         11   -1    0    0    0    0 -0.00000000000E+00 -0.00000000000E+00 -0.45593999997E+02  0.45594000000E+02  0.51100000000E-03 0.  1.
    9900012    2    1    2    0    0 -0.34329589962E+01  0.25014387766E+02  0.35300398875E+02  0.47787274620E+02  0.20000016304E+02 0.  0.
        -12    1    1    2    0    0  0.34329589962E+01 -0.25014387766E+02 -0.35300398875E+02  0.43400725380E+02  0.00000000000E+00 0.  1.
         11    1    3    3    0    0  0.26881307029E+01 -0.85906060135E+00  0.62107354151E+01  0.68218228099E+01  0.51100000000E-03 0. -1.
        -11    1    3    3    0    0 -0.50159961925E+00  0.20393084648E+02  0.24469485170E+02  0.31857263040E+02  0.51100000000E-03 0.  1.
        -12    1    3    3    0    0 -0.56194900798E+01  0.54803637194E+01  0.46201782893E+01  0.91081887705E+01  0.00000000000E+00 0.  1.
</event>
<event>
 7    1  0.3807360E-011  0.4778727E+02  0.7816164E-02  0.1312668E+00
        -11   -1    0    0    0    0  0.00000000000E+00  0.00000000000E+00  0.45593999997E+02  0.45594000000E+02  0.51100000000E-03 0. -1.
         11   -1    0    0    0    0 -0.00000000000E+00 -0.00000000000E+00 -0.45593999997E+02  0.45594000000E+02  0.51100000000E-03 0.  1.
    9900012    2    1    2    0    0  0.16183880823E+02 -0.34831796759E+02 -0.20210177902E+02  0.47787270112E+02  0.19999995749E+02 0.  0.
         12    1    1    2    0    0 -0.16183880823E+02  0.34831796759E+02  0.20210177902E+02  0.43400729888E+02  0.00000000000E+00 0. -1.
         11    1    3    3    0    0  0.59303092802E+01 -0.19566419104E+02 -0.84225156313E+01  0.22112261181E+02  0.51100000000E-03 0. -1.
        -11    1    3    3    0    0  0.48064486155E+01 -0.15478926249E+02 -0.49843114292E+01  0.16957077189E+02  0.51100000000E-03 0.  1.
         12    1    3    3    0    0  0.54471229276E+01  0.21354859352E+00 -0.68033508413E+01  0.87179317421E+01  0.00000000000E+00 0. -1.
</event>
<event>
 7    1  0.3807360E-011  0.4778727E+02  0.7816164E-02  0.1312668E+00
        -11   -1    0    0    0    0  0.00000000000E+00  0.00000000000E+00  0.45593999997E+02  0.45594000000E+02  0.51100000000E-03 0. -1.
         11   -1    0    0    0    0 -0.00000000000E+00 -0.00000000000E+00 -0.45593999997E+02  0.45594000000E+02  0.51100000000E-03 0.  1.
    9900012    2    1    2    0    0 -0.41751338638E+02 -0.18657551793E+01 -0.11703330403E+02  0.47787271170E+02  0.20000000574E+02 0.  0.
         12    1    1    2    0    0  0.41751338638E+02  0.18657551793E+01  0.11703330403E+02  0.43400728830E+02  0.00000000000E+00 0. -1.
         11    1    3    3    0    0 -0.23204090582E+02  0.41055574910E+01 -0.84414413261E+01  0.25030848048E+02  0.51100000000E-03 0. -1.
        -11    1    3    3    0    0 -0.19746065114E+02 -0.67817876045E+01 -0.22682903635E+01  0.21001068355E+02  0.51100000000E-03 0.  1.
         12    1    3    3    0    0  0.11988170586E+01  0.81047493419E+00 -0.99359871334E+00  0.17553547681E+01  0.00000000000E+00 0. -1.
</event>
<event>
 7    1  0.3807360E-011  0.4778727E+02  0.7816164E-02  0.1312668E+00
        -11   -1    0    0    0    0  0.00000000000E+00  0.00000000000E+00  0.45593999997E+02  0.45594000000E+02  0.51100000000E-03 0. -1.
         11   -1    0    0    0    0 -0.00000000000E+00 -0.00000000000E+00 -0.45593999997E+02  0.45594000000E+02  0.51100000000E-03 0.  1.
    9900012    2    1    2    0    0  0.63966128429E+01 -0.23185080466E+01  0.42864099119E+02  0.47787272717E+02  0.20000007625E+02 0.  0.
        -12    1    1    2    0    0 -0.63966128429E+01  0.23185080466E+01 -0.42864099119E+02  0.43400727283E+02  0.00000000000E+00 0.  1.
         11    1    3    3    0    0  0.87994343308E+01 -0.39754964167E+00  0.13642241529E+02  0.16238806744E+02  0.51100000000E-03 0. -1.
        -11    1    3    3    0    0 -0.12597567175E+01  0.45407756569E+01  0.17407497466E+02  0.18034040003E+02  0.51100000000E-03 0.  1.
         12    1    3    3    0    0 -0.11430647704E+01 -0.64617340618E+01  0.11814360124E+02  0.13514425970E+02  0.00000000000E+00 0. -1.
</event>
<event>
 7    1  0.3807360E-011  0.4778729E+02  0.7816164E-02  0.1312668E+00
        -11   -1    0    0    0    0  0.00000000000E+00  0.00000000000E+00  0.45593999997E+02  0.45594000000E+02  0.51100000000E-03 0. -1.
         11   -1    0    0    0    0 -0.00000000000E+00 -0.00000000000E+00 -0.45593999997E+02  0.45594000000E+02  0.51100000000E-03 0.  1.
    9900012    2    1    2    0    0 -0.18775698006E+02 -0.35744850916E+02  0.15918547578E+02  0.47787293098E+02  0.20000100553E+02 0.  0.
        -12    1    1    2    0    0  0.18775698006E+02  0.35744850916E+02 -0.15918547578E+02  0.43400706902E+02  0.00000000000E+00 0.  1.
         11    1    3    3    0    0 -0.88756325383E+00 -0.16482519941E+02  0.82774802496E+01  0.18465587228E+02  0.51100000000E-03 0. -1.
        -11    1    3    3    0    0 -0.55739357800E+01 -0.97077030877E+01  0.79541687990E+01  0.13732336322E+02  0.51100000000E-03 0.  1.
        -12    1    3    3    0    0 -0.12314198972E+02 -0.95546278867E+01 -0.31310147103E+00  0.15589369548E+02  0.00000000000E+00 0.  1.
</event>
<event>
 7    1  0.3807360E-011  0.4778727E+02  0.7816164E-02  0.1312668E+00
        -11   -1    0    0    0    0  0.00000000000E+00  0.00000000000E+00  0.45593999997E+02  0.45594000000E+02  0.51100000000E-03 0. -1.
         11   -1    0    0    0    0 -0.00000000000E+00 -0.00000000000E+00 -0.45593999997E+02  0.45594000000E+02  0.51100000000E-03 0.  1.
    9900012    2    1    2    0    0  0.65825275096E+01 -0.18190035744E+02 -0.38851211042E+02  0.47787266501E+02  0.19999979286E+02 0.  0.
         12    1    1    2    0    0 -0.65825275096E+01  0.18190035744E+02  0.38851211042E+02  0.43400733499E+02  0.00000000000E+00 0. -1.
         11    1    3    3    0    0 -0.19360287440E+01 -0.50740091190E+01 -0.17053287597E+02  0.17897161617E+02  0.51100000000E-03 0. -1.
        -11    1    3    3    0    0  0.16253859006E+01 -0.17017656044E+01 -0.14499406274E+02  0.14689134354E+02  0.51100000000E-03 0.  1.
        -12    1    3    3    0    0  0.68931703531E+01 -0.11414261020E+02 -0.72985171715E+01  0.15200970530E+02  0.00000000000E+00 0.  1.
</event>
<event>
 7    1  0.3807360E-011  0.4778727E+02  0.7816164E-02  0.1312668E+00
        -11   -1    0    0    0    0  0.00000000000E+00  0.00000000000E+00  0.45593999997E+02  0.45594000000E+02  0.51100000000E-03 0. -1.
         11   -1    0    0    0    0 -0.00000000000E+00 -0.00000000000E+00 -0.45593999997E+02  0.45594000000E+02  0.51100000000E-03 0.  1.
    9900012    2    1    2    0    0  0.62565074273E+01 -0.27314988053E+02  0.33141676354E+02  0.47787272252E+02  0.20000005505E+02 0.  0.
        -12    1    1    2    0    0 -0.62565074273E+01  0.27314988053E+02 -0.33141676354E+02  0.43400727748E+02  0.00000000000E+00 0.  1.
         11    1    3    3    0    0  0.37383593106E+01 -0.10112613718E+02  0.20042059953E+02  0.22757953642E+02  0.51100000000E-03 0. -1.
        -11    1    3    3    0    0  0.19517227876E+01 -0.19173057308E+02  0.11997232904E+02  0.22701298333E+02  0.51100000000E-03 0.  1.
         12    1    3    3    0    0  0.56642532907E+00  0.19706829734E+01  0.11023834969E+01  0.23280202768E+01  0.00000000000E+00 0. -1.
</event>
<event>
 7    1  0.3807360E-011  0.4778727E+02  0.7816164E-02  0.1312668E+00
        -11   -1    0    0    0    0  0.00000000000E+00  0.00000000000E+00  0.45593999997E+02  0.45594000000E+02  0.51100000000E-03 0. -1.
         11   -1    0    0    0    0 -0.00000000000E+00 -0.00000000000E+00 -0.45593999997E+02  0.45594000000E+02  0.51100000000E-03 0.  1.
    9900012    2    1    2    0    0  0.26420590693E+02 -0.16757455993E+02  0.30079285616E+02  0.47787269970E+02  0.19999995102E+02 0.  0.
        -12    1    1    2    0    0 -0.26420590693E+02  0.16757455993E+02 -0.30079285616E+02  0.43400730030E+02  0.00000000000E+00 0.  1.
         11    1    3    3    0    0  0.24667001722E+01 -0.75006538784E+01  0.48593212558E+01  0.92713225417E+01  0.51100000000E-03 0. -1.
        -11    1    3    3    0    0  0.13762363551E+01 -0.57655990016E+01  0.29881089826E+01  0.66381438600E+01  0.51100000000E-03 0.  1.
         12    1    3    3    0    0  0.22577654166E+02 -0.34912031133E+01  0.22231855378E+02  0.31877803568E+02  0.00000000000E+00 0. -1.
</event>
<event>
 7    1  0.3807360E-011  0.4778724E+02  0.7816164E-02  0.1312668E+00
        -11   -1    0    0    0    0  0.00000000000E+00  0.00000000000E+00  0.45593999997E+02  0.45594000000E+02  0.51100000000E-03 0. -1.
         11   -1    0    0    0    0 -0.00000000000E+00 -0.00000000000E+00 -0.45593999997E+02  0.45594000000E+02  0.51100000000E-03 0.  1.
    9900012    2    1    2    0    0 -0.19263224507E+02 -0.29762718113E+02  0.25034663763E+02  0.47787244274E+02  0.19999877941E+02 0.  0.
        -12    1    1    2    0    0  0.19263224507E+02  0.29762718113E+02 -0.25034663763E+02  0.43400755726E+02  0.00000000000E+00 0.  1.
         11    1    3    3    0    0 -0.29333078718E+01 -0.33627817306E+00  0.63662135478E+00  0.30203749918E+01  0.51100000000E-03 0. -1.
        -11    1    3    3    0    0 -0.10108121031E+02 -0.24977611018E+02  0.25427984382E+02  0.37049123511E+02  0.51100000000E-03 0.  1.
        -12    1    3    3    0    0 -0.62217956040E+01 -0.44488289223E+01 -0.10299419736E+01  0.77177457711E+01  0.00000000000E+00 0.  1.
</event>
<event>
 7    1  0.3807360E-011  0.4778727E+02  0.7816164E-02  0.1312668E+00
        -11   -1    0    0    0    0  0.00000000000E+00  0.00000000000E+00  0.45593999997E+02  0.45594000000E+02  0.51100000000E-03 0.  1.
         11   -1    0    0    0    0 -0.00000000000E+00 -0.00000000000E+00 -0.45593999997E+02  0.45594000000E+02  0.51100000000E-03 0. -1.
    9900012    2    1    2    0    0  0.42572986262E+02 -0.55543519175E+01 -0.63492792520E+01  0.47787270380E+02  0.19999996971E+02 0.  0.
         12    1    1    2    0    0 -0.42572986262E+02  0.55543519175E+01  0.63492792520E+01  0.43400729620E+02  0.00000000000E+00 0. -1.
         11    1    3    3    0    0  0.12325901496E+01  0.10312783854E+01 -0.25887917891E+01  0.30470734769E+01  0.51100000000E-03 0. -1.
        -11    1    3    3    0    0  0.28169251112E+02 -0.11430060366E+02 -0.42634052966E+01  0.30697387725E+02  0.51100000000E-03 0.  1.
         12    1    3    3    0    0  0.13171145001E+02  0.48444300627E+01  0.50291783373E+00  0.14042809178E+02  0.00000000000E+00 0. -1.
</event>
<event>
 7    1  0.3807360E-011  0.4778727E+02  0.7816164E-02  0.1312668E+00
        -11   -1    0    0    0    0  0.00000000000E+00  0.00000000000E+00  0.45593999997E+02  0.45594000000E+02  0.51100000000E-03 0. -1.
         11   -1    0    0    0    0 -0.00000000000E+00 -0.00000000000E+00 -0.45593999997E+02  0.45594000000E+02  0.51100000000E-03 0.  1.
    9900012    2    1    2    0    0 -0.24249297947E+02 -0.17918533714E+02 -0.31217320733E+02  0.47787269417E+02  0.19999992580E+02 0.  0.
         12    1    1    2    0    0  0.24249297947E+02  0.17918533714E+02  0.31217320733E+02  0.43400730583E+02  0.00000000000E+00 0. -1.
         11    1    3    3    0    0 -0.74179702994E+01 -0.12081859531E+02 -0.98877594858E+01  0.17284831529E+02  0.51100000000E-03 0. -1.
        -11    1    3    3    0    0 -0.18086243441E+02 -0.73569385881E+01 -0.20644865994E+02  0.28415616118E+02  0.51100000000E-03 0.  1.
        -12    1    3    3    0    0  0.12549157927E+01  0.15202644053E+01 -0.68469525256E+00  0.20868217694E+01  0.00000000000E+00 0.  1.
</event>
<event>
 7    1  0.3807360E-011  0.4778728E+02  0.7816164E-02  0.1312668E+00
        -11   -1    0    0    0    0  0.00000000000E+00  0.00000000000E+00  0.45593999997E+02  0.45594000000E+02  0.51100000000E-03 0. -1.
         11   -1    0    0    0    0 -0.00000000000E+00 -0.00000000000E+00 -0.45593999997E+02  0.45594000000E+02  0.51100000000E-03 0.  1.
    9900012    2    1    2    0    0  0.14613718209E+02 -0.22535200955E+02 -0.34091436876E+02  0.47787284450E+02  0.20000061123E+02 0.  0.
         12    1    1    2    0    0 -0.14613718209E+02  0.22535200955E+02  0.34091436876E+02  0.43400715550E+02  0.00000000000E+00 0. -1.
         11    1    3    3    0    0  0.49058709133E+01 -0.56660814511E+01 -0.44243815740E+01  0.87032867931E+01  0.51100000000E-03 0. -1.
        -11    1    3    3    0    0 -0.19292018076E+01 -0.23085336478E+01 -0.15183825217E+02  0.15479008228E+02  0.51100000000E-03 0.  1.
        -12    1    3    3    0    0  0.11637049103E+02 -0.14560585856E+02 -0.14483230084E+02  0.23604989430E+02  0.00000000000E+00 0.  1.
</event>
<event>
 7    1  0.3807360E-011  0.4778726E+02  0.7816164E-02  0.1312668E+00
        -11   -1    0    0    0    0  0.00000000000E+00  0.00000000000E+00  0.45593999997E+02  0.45594000000E+02  0.51100000000E-03 0.  1.
         11   -1    0    0    0    0 -0.00000000000E+00 -0.00000000000E+00 -0.45593999997E+02  0.45594000000E+02  0.51100000000E-03 0. -1.
    9900012    2    1    2    0    0 -0.96155890785E+01 -0.41487220530E+02  0.83651423653E+01  0.47787255450E+02  0.19999928901E+02 0.  0.
        -12    1    1    2    0    0  0.96155890785E+01  0.41487220530E+02 -0.83651423653E+01  0.43400744550E+02  0.00000000000E+00 0.  1.
         11    1    3    3    0    0 -0.52968359677E+01 -0.18618797584E+02 -0.55975030457E+00  0.19365676219E+02  0.51100000000E-03 0. -1.
        -11    1    3    3    0    0  0.47849112151E+01 -0.87790554498E+01  0.50673275429E+01  0.11209147988E+02  0.51100000000E-03 0.  1.
        -12    1    3    3    0    0 -0.91036643259E+01 -0.14089367496E+02  0.38575651269E+01  0.17212431243E+02  0.00000000000E+00 0.  1.
</event>
<event>
 7    1  0.3807360E-011  0.4778726E+02  0.7816164E-02  0.1312668E+00
        -11   -1    0    0    0    0  0.00000000000E+00  0.00000000000E+00  0.45593999997E+02  0.45594000000E+02  0.51100000000E-03 0.  1.
         11   -1    0    0    0    0 -0.00000000000E+00 -0.00000000000E+00 -0.45593999997E+02  0.45594000000E+02  0.51100000000E-03 0. -1.
    9900012    2    1    2    0    0  0.38752526199E+02 -0.18340705249E+02 -0.67442033248E+01  0.47787262284E+02  0.19999960057E+02 0.  0.
         12    1    1    2    0    0 -0.38752526199E+02  0.18340705249E+02  0.67442033248E+01  0.43400737716E+02  0.00000000000E+00 0. -1.
         11    1    3    3    0    0  0.25659947065E+01 -0.45683922504E+01  0.35803805148E+01  0.63461532821E+01  0.51100000000E-03 0. -1.
        -11    1    3    3    0    0  0.26247983734E+02 -0.11309244176E+02 -0.27659934228E+01  0.28714219018E+02  0.51100000000E-03 0.  1.
         12    1    3    3    0    0  0.99385477583E+01 -0.24630688220E+01 -0.75585904168E+01  0.12726889984E+02  0.00000000000E+00 0. -1.
</event>
<event>
 7    1  0.3807360E-011  0.4778727E+02  0.7816164E-02  0.1312668E+00
        -11   -1    0    0    0    0  0.00000000000E+00  0.00000000000E+00  0.45593999997E+02  0.45594000000E+02  0.51100000000E-03 0. -1.
         11   -1    0    0    0    0 -0.00000000000E+00 -0.00000000000E+00 -0.45593999997E+02  0.45594000000E+02  0.51100000000E-03 0.  1.
    9900012    2    1    2    0    0  0.56475087411E+01  0.40654280395E+02 -0.14105270466E+02  0.47787268159E+02  0.19999986842E+02 0.  0.
         12    1    1    2    0    0 -0.56475087411E+01 -0.40654280395E+02  0.14105270466E+02  0.43400731841E+02  0.00000000000E+00 0. -1.
         11    1    3    3    0    0 -0.24528515140E+01 -0.48482248668E-01 -0.22604672995E+00  0.24637224810E+01  0.51100000000E-03 0. -1.
        -11    1    3    3    0    0  0.48191077905E+01  0.16942126580E+02 -0.11897224132E+02  0.21255667368E+02  0.51100000000E-03 0.  1.
         12    1    3    3    0    0  0.32812524647E+01  0.23760636064E+02 -0.19819996046E+01  0.24067878310E+02  0.00000000000E+00 0. -1.
</event>
<event>
 7    1  0.3807360E-011  0.4778727E+02  0.7816164E-02  0.1312668E+00
        -11   -1    0    0    0    0  0.00000000000E+00  0.00000000000E+00  0.45593999997E+02  0.45594000000E+02  0.51100000000E-03 0. -1.
         11   -1    0    0    0    0 -0.00000000000E+00 -0.00000000000E+00 -0.45593999997E+02  0.45594000000E+02  0.51100000000E-03 0.  1.
    9900012    2    1    2    0    0  0.10433746505E+02  0.37168989612E+01  0.41963614025E+02  0.47787270674E+02  0.19999998310E+02 0.  0.
        -12    1    1    2    0    0 -0.10433746505E+02 -0.37168989612E+01 -0.41963614025E+02  0.43400729326E+02  0.00000000000E+00 0.  1.
         11    1    3    3    0    0  0.44969268373E+01  0.58802549428E+01  0.47646076676E+01  0.88034786113E+01  0.51100000000E-03 0. -1.
        -11    1    3    3    0    0  0.73558000076E+00  0.30714094555E+01  0.20294719045E+02  0.20538993533E+02  0.51100000000E-03 0.  1.
        -12    1    3    3    0    0  0.52012396673E+01 -0.52347654372E+01  0.16904287312E+02  0.18444798530E+02  0.00000000000E+00 0.  1.
</event>
<event>
 7    1  0.3807360E-011  0.4778727E+02  0.7816164E-02  0.1312668E+00
        -11   -1    0    0    0    0  0.00000000000E+00  0.00000000000E+00  0.45593999997E+02  0.45594000000E+02  0.51100000000E-03 0. -1.
         11   -1    0    0    0    0 -0.00000000000E+00 -0.00000000000E+00 -0.45593999997E+02  0.45594000000E+02  0.51100000000E-03 0.  1.
    9900012    2    1    2    0    0 -0.13128150098E+02 -0.37395539083E+02  0.17687529023E+02  0.47787270153E+02  0.19999995937E+02 0.  0.
        -12    1    1    2    0    0  0.13128150098E+02  0.37395539083E+02 -0.17687529023E+02  0.43400729847E+02  0.00000000000E+00 0.  1.
         11    1    3    3    0    0  0.17491175839E+01 -0.12286977713E+02  0.79728302013E+01  0.14751110308E+02  0.51100000000E-03 0. -1.
        -11    1    3    3    0    0 -0.96671638669E+01 -0.24167917160E+02  0.64524742519E+01  0.26817470077E+02  0.51100000000E-03 0.  1.
        -12    1    3    3    0    0 -0.52101038154E+01 -0.94064420968E+00  0.32622245696E+01  0.62186897687E+01  0.00000000000E+00 0.  1.
</event>
<event>
 7    1  0.3807360E-011  0.4778727E+02  0.7816164E-02  0.1312668E+00
        -11   -1    0    0    0    0  0.00000000000E+00  0.00000000000E+00  0.45593999997E+02  0.45594000000E+02  0.51100000000E-03 0. -1.
         11   -1    0    0    0    0 -0.00000000000E+00 -0.00000000000E+00 -0.45593999997E+02  0.45594000000E+02  0.51100000000E-03 0.  1.
    9900012    2    1    2    0    0 -0.27788421958E+02 -0.28592536262E+02 -0.17143330671E+02  0.47787270614E+02  0.19999998035E+02 0.  0.
         12    1    1    2    0    0  0.27788421958E+02  0.28592536262E+02  0.17143330671E+02  0.43400729386E+02  0.00000000000E+00 0. -1.
         11    1    3    3    0    0 -0.17918397643E+02 -0.18632351871E+02 -0.78238137579E+01  0.27008250079E+02  0.51100000000E-03 0.  1.
        -11    1    3    3    0    0 -0.13578070096E+01 -0.59256634128E+01 -0.95907752243E+01  0.11355179277E+02  0.51100000000E-03 0. -1.
         12    1    3    3    0    0 -0.85122173049E+01 -0.40345209778E+01  0.27125831149E+00  0.94238412570E+01  0.00000000000E+00 0. -1.
</event>
<event>
 7    1  0.3807360E-011  0.4778726E+02  0.7816164E-02  0.1312668E+00
        -11   -1    0    0    0    0  0.00000000000E+00  0.00000000000E+00  0.45593999997E+02  0.45594000000E+02  0.51100000000E-03 0. -1.
         11   -1    0    0    0    0 -0.00000000000E+00 -0.00000000000E+00 -0.45593999997E+02  0.45594000000E+02  0.51100000000E-03 0.  1.
    9900012    2    1    2    0    0 -0.19890827650E+02  0.25626798399E+02  0.28831346943E+02  0.47787258216E+02  0.19999941511E+02 0.  0.
        -12    1    1    2    0    0  0.19890827650E+02 -0.25626798399E+02 -0.28831346943E+02  0.43400741784E+02  0.00000000000E+00 0.  1.
         11    1    3    3    0    0 -0.18964759857E+01  0.79141719653E+01  0.15861392996E+02  0.17827353340E+02  0.51100000000E-03 0.  1.
        -11    1    3    3    0    0 -0.22267902939E+01 -0.47392465468E+00 -0.56453750885E+00  0.23456134488E+01  0.51100000000E-03 0. -1.
        -12    1    3    3    0    0 -0.15767561371E+02  0.18186551089E+02  0.13534491456E+02  0.27614291428E+02  0.00000000000E+00 0.  1.
</event>
<event>
 7    1  0.3807360E-011  0.4778727E+02  0.7816164E-02  0.1312668E+00
        -11   -1    0    0    0    0  0.00000000000E+00  0.00000000000E+00  0.45593999997E+02  0.45594000000E+02  0.51100000000E-03 0. -1.
         11   -1    0    0    0    0 -0.00000000000E+00 -0.00000000000E+00 -0.45593999997E+02  0.45594000000E+02  0.51100000000E-03 0.  1.
    9900012    2    1    2    0    0 -0.22669594950E+01  0.15505965148E+02 -0.40472821743E+02  0.47787270049E+02  0.19999995459E+02 0.  0.
         12    1    1    2    0    0  0.22669594950E+01 -0.15505965148E+02  0.40472821743E+02  0.43400729951E+02  0.00000000000E+00 0. -1.
         11    1    3    3    0    0 -0.91282432574E+01  0.21688327458E+01 -0.11248506805E+02  0.14647783657E+02  0.51100000000E-03 0. -1.
        -11    1    3    3    0    0  0.44841188739E+01  0.54920649151E+01 -0.17019946337E+02  0.18437697054E+02  0.51100000000E-03 0.  1.
         12    1    3    3    0    0  0.23771648885E+01  0.78450674867E+01 -0.12204368601E+02  0.14701789337E+02  0.00000000000E+00 0. -1.
</event>
<event>
 7    1  0.3807360E-011  0.4778728E+02  0.7816164E-02  0.1312668E+00
        -11   -1    0    0    0    0  0.00000000000E+00  0.00000000000E+00  0.45593999997E+02  0.45594000000E+02  0.51100000000E-03 0. -1.
         11   -1    0    0    0    0 -0.00000000000E+00 -0.00000000000E+00 -0.45593999997E+02  0.45594000000E+02  0.51100000000E-03 0.  1.
    9900012    2    1    2    0    0  0.24848735089E+02 -0.34656182929E+02  0.80692137491E+01  0.47787275798E+02  0.20000021673E+02 0.  0.
        -12    1    1    2    0    0 -0.24848735089E+02  0.34656182929E+02 -0.80692137491E+01  0.43400724202E+02  0.00000000000E+00 0.  1.
         11    1    3    3    0    0  0.52768362062E+01 -0.16540090026E+02  0.50684181131E+01  0.18086139468E+02  0.51100000000E-03 0. -1.
        -11    1    3    3    0    0  0.33180621627E+01 -0.29242165996E+00  0.44233394136E+01  0.55372356616E+01  0.51100000000E-03 0.  1.
         12    1    3    3    0    0  0.16253836720E+02 -0.17823671243E+02 -0.14225437776E+01  0.24163900668E+02  0.00000000000E+00 0. -1.
</event>
<event>
 7    1  0.3807360E-011  0.4778727E+02  0.7816164E-02  0.1312668E+00
        -11   -1    0    0    0    0  0.00000000000E+00  0.00000000000E+00  0.45593999997E+02  0.45594000000E+02  0.51100000000E-03 0. -1.
         11   -1    0    0    0    0 -0.00000000000E+00 -0.00000000000E+00 -0.45593999997E+02  0.45594000000E+02  0.51100000000E-03 0.  1.
    9900012    2    1    2    0    0  0.23718506920E+02 -0.35317001394E+02 -0.85886543093E+01  0.47787272577E+02  0.20000006989E+02 0.  0.
         12    1    1    2    0    0 -0.23718506920E+02  0.35317001394E+02  0.85886543093E+01  0.43400727423E+02  0.00000000000E+00 0. -1.
         11    1    3    3    0    0  0.13882548792E+02 -0.17959824383E+02 -0.20904091288E+01  0.22795838730E+02  0.51100000000E-03 0.  1.
        -11    1    3    3    0    0  0.60799842200E+01 -0.12013543237E+02 -0.10722982795E+02  0.17212605541E+02  0.51100000000E-03 0. -1.
         12    1    3    3    0    0  0.37559739079E+01 -0.53436337739E+01  0.42247376144E+01  0.77788283062E+01  0.00000000000E+00 0. -1.
</event>
<event>
 7    1  0.3807360E-011  0.4778726E+02  0.7816164E-02  0.1312668E+00
        -11   -1    0    0    0    0  0.00000000000E+00  0.00000000000E+00  0.45593999997E+02  0.45594000000E+02  0.51100000000E-03 0. -1.
         11   -1    0    0    0    0 -0.00000000000E+00 -0.00000000000E+00 -0.45593999997E+02  0.45594000000E+02  0.51100000000E-03 0.  1.
    9900012    2    1    2    0    0  0.25416639822E+02 -0.99256843494E+01  0.33750553420E+02  0.47787255239E+02  0.19999927936E+02 0.  0.
        -12    1    1    2    0    0 -0.25416639822E+02  0.99256843494E+01 -0.33750553420E+02  0.43400744761E+02  0.00000000000E+00 0.  1.
         11    1    3    3    0    0  0.55282189436E+01  0.13857713786E+01  0.25109037342E+01  0.62278571616E+01  0.51100000000E-03 0. -1.
        -11    1    3    3    0    0  0.33472796872E+01 -0.37585307462E+01 -0.41873845099E+00  0.50503640290E+01  0.51100000000E-03 0.  1.
         12    1    3    3    0    0  0.16541141191E+02 -0.75529249819E+01  0.31658388137E+02  0.36509034048E+02  0.00000000000E+00 0. -1.
</event>
<event>
 7    1  0.3807360E-011  0.4778727E+02  0.7816164E-02  0.1312668E+00
        -11   -1    0    0    0    0  0.00000000000E+00  0.00000000000E+00  0.45593999997E+02  0.45594000000E+02  0.51100000000E-03 0.  1.
         11   -1    0    0    0    0 -0.00000000000E+00 -0.00000000000E+00 -0.45593999997E+02  0.45594000000E+02  0.51100000000E-03 0. -1.
    9900012    2    1    2    0    0 -0.80298258465E+01 -0.40392773830E+02  0.13695590919E+02  0.47787268538E+02  0.19999988572E+02 0.  0.
        -12    1    1    2    0    0  0.80298258465E+01  0.40392773830E+02 -0.13695590919E+02  0.43400731462E+02  0.00000000000E+00 0.  1.
         11    1    3    3    0    0  0.14410465756E+01 -0.12565054008E+02  0.42331614469E+01  0.13337048157E+02  0.51100000000E-03 0. -1.
        -11    1    3    3    0    0 -0.44495489162E+01 -0.81030454941E+01 -0.39730253767E+01  0.10061946270E+02  0.51100000000E-03 0.  1.
         12    1    3    3    0    0 -0.50213235059E+01 -0.19724674328E+02  0.13435454849E+02  0.24388274111E+02  0.00000000000E+00 0. -1.
</event>
<event>
 7    1  0.3807360E-011  0.4778727E+02  0.7816164E-02  0.1312668E+00
        -11   -1    0    0    0    0  0.00000000000E+00  0.00000000000E+00  0.45593999997E+02  0.45594000000E+02  0.51100000000E-03 0.  1.
         11   -1    0    0    0    0 -0.00000000000E+00 -0.00000000000E+00 -0.45593999997E+02  0.45594000000E+02  0.51100000000E-03 0. -1.
    9900012    2    1    2    0    0 -0.35017759025E+02 -0.25391674462E+02  0.35557095626E+01  0.47787266716E+02  0.19999980265E+02 0.  0.
         12    1    1    2    0    0  0.35017759025E+02  0.25391674462E+02 -0.35557095626E+01  0.43400733284E+02  0.00000000000E+00 0. -1.
         11    1    3    3    0    0 -0.10218443471E+00 -0.39750161514E+01 -0.33809767540E+00  0.39906773061E+01  0.51100000000E-03 0. -1.
        -11    1    3    3    0    0 -0.27264967180E+02 -0.11817737622E+02 -0.27432900520E+01  0.29842302163E+02  0.51100000000E-03 0.  1.
         12    1    3    3    0    0 -0.76506074103E+01 -0.95989206887E+01  0.66370972900E+01  0.13954287247E+02  0.00000000000E+00 0. -1.
</event>
<event>
 7    1  0.3807360E-011  0.4778728E+02  0.7816164E-02  0.1312668E+00
        -11   -1    0    0    0    0  0.00000000000E+00  0.00000000000E+00  0.45593999997E+02  0.45594000000E+02  0.51100000000E-03 0. -1.
         11   -1    0    0    0    0 -0.00000000000E+00 -0.00000000000E+00 -0.45593999997E+02  0.45594000000E+02  0.51100000000E-03 0.  1.
    9900012    2    1    2    0    0  0.34743912050E+02  0.25477722961E+02 -0.52315358017E+01  0.47787276980E+02  0.20000027062E+02 0.  0.
         12    1    1    2    0    0 -0.34743912050E+02 -0.25477722961E+02  0.52315358017E+01  0.43400723020E+02  0.00000000000E+00 0. -1.
         11    1    3    3    0    0 -0.11046078356E+01  0.15118246153E+00 -0.22120986373E+01  0.24771748524E+01  0.51100000000E-03 0. -1.
        -11    1    3    3    0    0  0.22848910375E+02  0.15550713390E+02 -0.71097114186E+01  0.28538489605E+02  0.51100000000E-03 0.  1.
        -12    1    3    3    0    0  0.12999609511E+02  0.97758271100E+01  0.40902742541E+01  0.16771612522E+02  0.00000000000E+00 0.  1.
</event>
<event>
 7    1  0.3807360E-011  0.4778727E+02  0.7816164E-02  0.1312668E+00
        -11   -1    0    0    0    0  0.00000000000E+00  0.00000000000E+00  0.45593999997E+02  0.45594000000E+02  0.51100000000E-03 0. -1.
         11   -1    0    0    0    0 -0.00000000000E+00 -0.00000000000E+00 -0.45593999997E+02  0.45594000000E+02  0.51100000000E-03 0.  1.
    9900012    2    1    2    0    0  0.11471924320E+02  0.20627149879E+02 -0.36421686091E+02  0.47787267547E+02  0.19999984056E+02 0.  0.
         12    1    1    2    0    0 -0.11471924320E+02 -0.20627149879E+02  0.36421686091E+02  0.43400732453E+02  0.00000000000E+00 0. -1.
         11    1    3    3    0    0 -0.25749038510E+01  0.11770077091E+00 -0.67084099773E+01  0.71865671915E+01  0.51100000000E-03 0. -1.
        -11    1    3    3    0    0  0.23734182506E+01  0.26868448761E+01  0.51184612666E+00  0.36213583499E+01  0.51100000000E-03 0.  1.
        -12    1    3    3    0    0  0.11673409920E+02  0.17822604232E+02 -0.30225122240E+02  0.36979342006E+02  0.00000000000E+00 0.  1.
</event>
<event>
 7    1  0.3807360E-011  0.4778727E+02  0.7816164E-02  0.1312668E+00
        -11   -1    0    0    0    0  0.00000000000E+00  0.00000000000E+00  0.45593999997E+02  0.45594000000E+02  0.51100000000E-03 0. -1.
         11   -1    0    0    0    0 -0.00000000000E+00 -0.00000000000E+00 -0.45593999997E+02  0.45594000000E+02  0.51100000000E-03 0.  1.
    9900012    2    1    2    0    0  0.31278487628E+02 -0.94374062500E+01 -0.28569469530E+02  0.47787274036E+02  0.20000013638E+02 0.  0.
         12    1    1    2    0    0 -0.31278487628E+02  0.94374062500E+01  0.28569469530E+02  0.43400725964E+02  0.00000000000E+00 0. -1.
         11    1    3    3    0    0  0.10437873730E+02 -0.64990334522E+01 -0.12122728048E+02  0.17266938913E+02  0.51100000000E-03 0. -1.
        -11    1    3    3    0    0  0.16039733769E+02 -0.82581492552E+01 -0.89111269503E+01  0.20121587220E+02  0.51100000000E-03 0.  1.
         12    1    3    3    0    0  0.48008801292E+01  0.53197764574E+01 -0.75356145312E+01  0.10398747902E+02  0.00000000000E+00 0. -1.
</event>
<event>
 7    1  0.3807360E-011  0.4778728E+02  0.7816164E-02  0.1312668E+00
        -11   -1    0    0    0    0  0.00000000000E+00  0.00000000000E+00  0.45593999997E+02  0.45594000000E+02  0.51100000000E-03 0. -1.
         11   -1    0    0    0    0 -0.00000000000E+00 -0.00000000000E+00 -0.45593999997E+02  0.45594000000E+02  0.51100000000E-03 0.  1.
    9900012    2    1    2    0    0  0.72425518793E+01  0.58408449787E+01  0.42391655285E+02  0.47787280356E+02  0.20000042455E+02 0.  0.
        -12    1    1    2    0    0 -0.72425518793E+01 -0.58408449787E+01 -0.42391655285E+02  0.43400719644E+02  0.00000000000E+00 0.  1.
         11    1    3    3    0    0 -0.10399244249E+01  0.49189313179E+01  0.41699088872E+01  0.65318809319E+01  0.51100000000E-03 0. -1.
        -11    1    3    3    0    0  0.31464267623E+01 -0.60493466098E+01  0.18494683938E+02  0.19711619163E+02  0.51100000000E-03 0.  1.
         12    1    3    3    0    0  0.51360495420E+01  0.69712602707E+01  0.19727062460E+02  0.21543780261E+02  0.00000000000E+00 0. -1.
</event>
<event>
 7    1  0.3807360E-011  0.4778727E+02  0.7816164E-02  0.1312668E+00
        -11   -1    0    0    0    0  0.00000000000E+00  0.00000000000E+00  0.45593999997E+02  0.45594000000E+02  0.51100000000E-03 0. -1.
         11   -1    0    0    0    0 -0.00000000000E+00 -0.00000000000E+00 -0.45593999997E+02  0.45594000000E+02  0.51100000000E-03 0.  1.
    9900012    2    1    2    0    0 -0.71701101327E+01 -0.30760913647E+02 -0.29765397356E+02  0.47787272270E+02  0.20000005587E+02 0.  0.
         12    1    1    2    0    0  0.71701101327E+01  0.30760913647E+02  0.29765397356E+02  0.43400727730E+02  0.00000000000E+00 0. -1.
         11    1    3    3    0    0 -0.61403870817E+01 -0.26564875334E+02 -0.17764830364E+02  0.32542067438E+02  0.51100000000E-03 0.  1.
        -11    1    3    3    0    0  0.21445701488E+01 -0.31597222677E+01 -0.12972327527E+01  0.40330929828E+01  0.51100000000E-03 0. -1.
        -12    1    3    3    0    0 -0.31742931998E+01 -0.10363160455E+01 -0.10703334240E+02  0.11212111849E+02  0.00000000000E+00 0.  1.
</event>
<event>
 7    1  0.3807360E-011  0.4778727E+02  0.7816164E-02  0.1312668E+00
        -11   -1    0    0    0    0  0.00000000000E+00  0.00000000000E+00  0.45593999997E+02  0.45594000000E+02  0.51100000000E-03 0. -1.
         11   -1    0    0    0    0 -0.00000000000E+00 -0.00000000000E+00 -0.45593999997E+02  0.45594000000E+02  0.51100000000E-03 0.  1.
    9900012    2    1    2    0    0  0.31981239495E+02  0.43498250294E+01 -0.29015555786E+02  0.47787272645E+02  0.20000007297E+02 0.  0.
         12    1    1    2    0    0 -0.31981239495E+02 -0.43498250294E+01  0.29015555786E+02  0.43400727355E+02  0.00000000000E+00 0. -1.
         11    1    3    3    0    0  0.66475959229E+01 -0.35175142267E+01 -0.89063377796E+01  0.11657027528E+02  0.51100000000E-03 0. -1.
        -11    1    3    3    0    0  0.22903976211E+02  0.10111454266E+02 -0.21029987339E+02  0.32697002942E+02  0.51100000000E-03 0.  1.
        -12    1    3    3    0    0  0.24296673609E+01 -0.22441150101E+01  0.92076933305E+00  0.34332421744E+01  0.00000000000E+00 0.  1.
</event>
<event>
 7    1  0.3807360E-011  0.4778727E+02  0.7816164E-02  0.1312668E+00
        -11   -1    0    0    0    0  0.00000000000E+00  0.00000000000E+00  0.45593999997E+02  0.45594000000E+02  0.51100000000E-03 0. -1.
         11   -1    0    0    0    0 -0.00000000000E+00 -0.00000000000E+00 -0.45593999997E+02  0.45594000000E+02  0.51100000000E-03 0.  1.
    9900012    2    1    2    0    0 -0.10124250148E+02  0.86827307360E+01  0.41300523683E+02  0.47787268318E+02  0.19999987568E+02 0.  0.
        -12    1    1    2    0    0  0.10124250148E+02 -0.86827307360E+01 -0.41300523683E+02  0.43400731682E+02  0.00000000000E+00 0.  1.
         11    1    3    3    0    0 -0.16403995353E+01 -0.39213581827E+01  0.24889070708E+02  0.25249431709E+02  0.51100000000E-03 0. -1.
        -11    1    3    3    0    0 -0.22107324549E+01  0.48794167577E+01  0.43451677981E+01  0.68975741633E+01  0.51100000000E-03 0.  1.
         12    1    3    3    0    0 -0.62731181576E+01  0.77246721610E+01  0.12066285176E+02  0.15640262446E+02  0.00000000000E+00 0. -1.
</event>
<event>
 7    1  0.3807360E-011  0.4778727E+02  0.7816164E-02  0.1312668E+00
        -11   -1    0    0    0    0  0.00000000000E+00  0.00000000000E+00  0.45593999997E+02  0.45594000000E+02  0.51100000000E-03 0. -1.
         11   -1    0    0    0    0 -0.00000000000E+00 -0.00000000000E+00 -0.45593999997E+02  0.45594000000E+02  0.51100000000E-03 0.  1.
    9900012    2    1    2    0    0 -0.23275500386E+02  0.16959554285E+02 -0.32469182155E+02  0.47787272016E+02  0.20000004429E+02 0.  0.
         12    1    1    2    0    0  0.23275500386E+02 -0.16959554285E+02  0.32469182155E+02  0.43400727984E+02  0.00000000000E+00 0. -1.
         11    1    3    3    0    0 -0.11010393027E+01  0.17240292898E+01 -0.15346694860E+02  0.15482429006E+02  0.51100000000E-03 0. -1.
        -11    1    3    3    0    0 -0.93301220801E+01  0.35906460015E+01 -0.72966047758E+01  0.12376766874E+02  0.51100000000E-03 0.  1.
        -12    1    3    3    0    0 -0.12844339003E+02  0.11644878993E+02 -0.98258825195E+01  0.19928076136E+02  0.00000000000E+00 0.  1.
</event>
<event>
 7    1  0.3807360E-011  0.4778727E+02  0.7816164E-02  0.1312668E+00
        -11   -1    0    0    0    0  0.00000000000E+00  0.00000000000E+00  0.45593999997E+02  0.45594000000E+02  0.51100000000E-03 0.  1.
         11   -1    0    0    0    0 -0.00000000000E+00 -0.00000000000E+00 -0.45593999997E+02  0.45594000000E+02  0.51100000000E-03 0. -1.
    9900012    2    1    2    0    0 -0.23805346346E+02  0.21470683063E+02  0.29256424683E+02  0.47787272689E+02  0.20000007499E+02 0.  0.
        -12    1    1    2    0    0  0.23805346346E+02 -0.21470683063E+02 -0.29256424683E+02  0.43400727311E+02  0.00000000000E+00 0.  1.
         11    1    3    3    0    0 -0.16911449900E+02  0.41921298111E+01  0.11676712988E+02  0.20974191678E+02  0.51100000000E-03 0. -1.
        -11    1    3    3    0    0  0.17507816853E+01  0.19369970721E+01  0.18353215591E+01  0.31914886265E+01  0.51100000000E-03 0.  1.
        -12    1    3    3    0    0 -0.86446781312E+01  0.15341556180E+02  0.15744390137E+02  0.23621592385E+02  0.00000000000E+00 0.  1.
</event>
<event>
 7    1  0.3807360E-011  0.4778727E+02  0.7816164E-02  0.1312668E+00
        -11   -1    0    0    0    0  0.00000000000E+00  0.00000000000E+00  0.45593999997E+02  0.45594000000E+02  0.51100000000E-03 0. -1.
         11   -1    0    0    0    0 -0.00000000000E+00 -0.00000000000E+00 -0.45593999997E+02  0.45594000000E+02  0.51100000000E-03 0.  1.
    9900012    2    1    2    0    0 -0.38917219375E+02 -0.57713600648E+01  0.18323878772E+02  0.47787273116E+02  0.20000009443E+02 0.  0.
        -12    1    1    2    0    0  0.38917219375E+02  0.57713600648E+01 -0.18323878772E+02  0.43400726884E+02  0.00000000000E+00 0.  1.
         11    1    3    3    0    0 -0.21957438216E+01 -0.36277250010E+01  0.80644834105E+00  0.43164845420E+01  0.51100000000E-03 0. -1.
        -11    1    3    3    0    0 -0.30002259687E+02  0.36091353502E+01  0.99043969834E+01  0.31800291260E+02  0.51100000000E-03 0.  1.
        -12    1    3    3    0    0 -0.67192158656E+01 -0.57527704140E+01  0.76130334475E+01  0.11670497314E+02  0.00000000000E+00 0.  1.
</event>
<event>
 7    1  0.3807360E-011  0.4778727E+02  0.7816164E-02  0.1312668E+00
        -11   -1    0    0    0    0  0.00000000000E+00  0.00000000000E+00  0.45593999997E+02  0.45594000000E+02  0.51100000000E-03 0. -1.
         11   -1    0    0    0    0 -0.00000000000E+00 -0.00000000000E+00 -0.45593999997E+02  0.45594000000E+02  0.51100000000E-03 0.  1.
    9900012    2    1    2    0    0  0.23233838473E+02 -0.10836474499E+02  0.35019750503E+02  0.47787270109E+02  0.19999995737E+02 0.  0.
        -12    1    1    2    0    0 -0.23233838473E+02  0.10836474499E+02 -0.35019750503E+02  0.43400729891E+02  0.00000000000E+00 0.  1.
         11    1    3    3    0    0  0.14130517591E+02 -0.51342777550E+01  0.12128871783E+02  0.19316880350E+02  0.51100000000E-03 0. -1.
        -11    1    3    3    0    0 -0.32018048491E+00 -0.61096467840E+01  0.38701480701E+01  0.72393608636E+01  0.51100000000E-03 0.  1.
         12    1    3    3    0    0  0.94235013671E+01  0.40745004028E+00  0.19020730649E+02  0.21231028896E+02  0.00000000000E+00 0. -1.
</event>
<event>
 7    1  0.3807360E-011  0.4778727E+02  0.7816164E-02  0.1312668E+00
        -11   -1    0    0    0    0  0.00000000000E+00  0.00000000000E+00  0.45593999997E+02  0.45594000000E+02  0.51100000000E-03 0. -1.
         11   -1    0    0    0    0 -0.00000000000E+00 -0.00000000000E+00 -0.45593999997E+02  0.45594000000E+02  0.51100000000E-03 0.  1.
    9900012    2    1    2    0    0 -0.49304155018E+01 -0.13893490949E+02 -0.40820155643E+02  0.47787271959E+02  0.20000004168E+02 0.  0.
         12    1    1    2    0    0  0.49304155018E+01  0.13893490949E+02  0.40820155643E+02  0.43400728041E+02  0.00000000000E+00 0. -1.
         11    1    3    3    0    0 -0.49369218652E+01 -0.14260464244E+01 -0.43056692822E+01  0.67041475324E+01  0.51100000000E-03 0. -1.
        -11    1    3    3    0    0  0.58889402853E+01 -0.11387540752E+02 -0.23841344446E+02  0.27069639955E+02  0.51100000000E-03 0.  1.
         12    1    3    3    0    0 -0.58824339218E+01 -0.10799037724E+01 -0.12673141916E+02  0.14013484471E+02  0.00000000000E+00 0. -1.
</event>
<event>
 7    1  0.3807360E-011  0.4778727E+02  0.7816164E-02  0.1312668E+00
        -11   -1    0    0    0    0  0.00000000000E+00  0.00000000000E+00  0.45593999997E+02  0.45594000000E+02  0.51100000000E-03 0. -1.
         11   -1    0    0    0    0 -0.00000000000E+00 -0.00000000000E+00 -0.45593999997E+02  0.45594000000E+02  0.51100000000E-03 0.  1.
    9900012    2    1    2    0    0 -0.11329754070E+02  0.15569358025E+02  0.38895435597E+02  0.47787272507E+02  0.20000006670E+02 0.  0.
        -12    1    1    2    0    0  0.11329754070E+02 -0.15569358025E+02 -0.38895435597E+02  0.43400727493E+02  0.00000000000E+00 0.  1.
         11    1    3    3    0    0  0.26399683850E+01  0.40281940500E+01  0.42626700181E+01  0.64316511350E+01  0.51100000000E-03 0.  1.
        -11    1    3    3    0    0 -0.13718538650E+02  0.14239289017E+02  0.28925177492E+02  0.35037430665E+02  0.51100000000E-03 0. -1.
         12    1    3    3    0    0 -0.25118380437E+00 -0.26981250417E+01  0.57075880871E+01  0.63181907075E+01  0.00000000000E+00 0. -1.
</event>
<event>
 7    1  0.3807360E-011  0.4778727E+02  0.7816164E-02  0.1312668E+00
        -11   -1    0    0    0    0  0.00000000000E+00  0.00000000000E+00  0.45593999997E+02  0.45594000000E+02  0.51100000000E-03 0. -1.
         11   -1    0    0    0    0 -0.00000000000E+00 -0.00000000000E+00 -0.45593999997E+02  0.45594000000E+02  0.51100000000E-03 0.  1.
    9900012    2    1    2    0    0  0.25605379128E+02  0.34182231859E+02 -0.77176990423E+01  0.47787270816E+02  0.19999998959E+02 0.  0.
         12    1    1    2    0    0 -0.25605379128E+02 -0.34182231859E+02  0.77176990423E+01  0.43400729184E+02  0.00000000000E+00 0. -1.
         11    1    3    3    0    0  0.97707922515E+01  0.17094830977E+02 -0.63486327397E+01  0.20688324371E+02  0.51100000000E-03 0.  1.
        -11    1    3    3    0    0  0.62588039326E+01  0.47452678268E+00  0.36724610197E+01  0.72721917285E+01  0.51100000000E-03 0. -1.
         12    1    3    3    0    0  0.95757829443E+01  0.16612874100E+02 -0.50415273223E+01  0.19826754717E+02  0.00000000000E+00 0. -1.
</event>
<event>
 7    1  0.3807360E-011  0.4778727E+02  0.7816164E-02  0.1312668E+00
        -11   -1    0    0    0    0  0.00000000000E+00  0.00000000000E+00  0.45593999997E+02  0.45594000000E+02  0.51100000000E-03 0.  1.
         11   -1    0    0    0    0 -0.00000000000E+00 -0.00000000000E+00 -0.45593999997E+02  0.45594000000E+02  0.51100000000E-03 0. -1.
    9900012    2    1    2    0    0  0.38781829312E+02 -0.74417220862E+01  0.18005937581E+02  0.47787270737E+02  0.19999998597E+02 0.  0.
        -12    1    1    2    0    0 -0.38781829312E+02  0.74417220862E+01 -0.18005937581E+02  0.43400729263E+02  0.00000000000E+00 0.  1.
         11    1    3    3    0    0  0.93250432915E+01 -0.74339595545E+01  0.11294557705E+02  0.16425200792E+02  0.51100000000E-03 0. -1.
        -11    1    3    3    0    0  0.91009304252E+01  0.33582879046E+01  0.42235687254E+01  0.10580338619E+02  0.51100000000E-03 0.  1.
         12    1    3    3    0    0  0.20355855595E+02 -0.33660504363E+01  0.24878111509E+01  0.20781731325E+02  0.00000000000E+00 0. -1.
</event>
<event>
 7    1  0.3807360E-011  0.4778728E+02  0.7816164E-02  0.1312668E+00
        -11   -1    0    0    0    0  0.00000000000E+00  0.00000000000E+00  0.45593999997E+02  0.45594000000E+02  0.51100000000E-03 0. -1.
         11   -1    0    0    0    0 -0.00000000000E+00 -0.00000000000E+00 -0.45593999997E+02  0.45594000000E+02  0.51100000000E-03 0.  1.
    9900012    2    1    2    0    0  0.16328437222E+02  0.63157111973E+01  0.39712930614E+02  0.47787275029E+02  0.20000018167E+02 0.  0.
        -12    1    1    2    0    0 -0.16328437222E+02 -0.63157111973E+01 -0.39712930614E+02  0.43400724971E+02  0.00000000000E+00 0.  1.
         11    1    3    3    0    0  0.88586934256E+01  0.49102574105E+01  0.22246543336E+02  0.24443726551E+02  0.51100000000E-03 0. -1.
        -11    1    3    3    0    0  0.25166870660E+00  0.62818915451E+01  0.45351398534E+01  0.77519669939E+01  0.51100000000E-03 0.  1.
         12    1    3    3    0    0  0.72180750899E+01 -0.48764377583E+01  0.12931247425E+02  0.15591581484E+02  0.00000000000E+00 0. -1.
</event>
<event>
 7    1  0.3807360E-011  0.4778727E+02  0.7816164E-02  0.1312668E+00
        -11   -1    0    0    0    0  0.00000000000E+00  0.00000000000E+00  0.45593999997E+02  0.45594000000E+02  0.51100000000E-03 0.  1.
         11   -1    0    0    0    0 -0.00000000000E+00 -0.00000000000E+00 -0.45593999997E+02  0.45594000000E+02  0.51100000000E-03 0. -1.
    9900012    2    1    2    0    0  0.62730637067E+01  0.42919875222E+02  0.14685143998E+01  0.47787267841E+02  0.19999985396E+02 0.  0.
        -12    1    1    2    0    0 -0.62730637067E+01 -0.42919875222E+02 -0.14685143998E+01  0.43400732159E+02  0.00000000000E+00 0.  1.
         11    1    3    3    0    0  0.42697027616E+01  0.12317105835E+02 -0.57434514613E+01  0.14245304236E+02  0.51100000000E-03 0. -1.
        -11    1    3    3    0    0 -0.34317207193E+00  0.26941281318E+02  0.23910448494E+01  0.27049353077E+02  0.51100000000E-03 0.  1.
        -12    1    3    3    0    0  0.23465330170E+01  0.36614880695E+01  0.48209210118E+01  0.64926105293E+01  0.00000000000E+00 0.  1.
</event>
<event>
 7    1  0.3807360E-011  0.4778727E+02  0.7816164E-02  0.1312668E+00
        -11   -1    0    0    0    0  0.00000000000E+00  0.00000000000E+00  0.45593999997E+02  0.45594000000E+02  0.51100000000E-03 0. -1.
         11   -1    0    0    0    0 -0.00000000000E+00 -0.00000000000E+00 -0.45593999997E+02  0.45594000000E+02  0.51100000000E-03 0.  1.
    9900012    2    1    2    0    0  0.10395115365E+02  0.14229100574E+01  0.42113421903E+02  0.47787269582E+02  0.19999993331E+02 0.  0.
        -12    1    1    2    0    0 -0.10395115365E+02 -0.14229100574E+01 -0.42113421903E+02  0.43400730418E+02  0.00000000000E+00 0.  1.
         11    1    3    3    0    0  0.23791890788E+01  0.11367108687E+01  0.43760712417E+00  0.26728547525E+01  0.51100000000E-03 0.  1.
        -11    1    3    3    0    0  0.14507621094E+01 -0.70457803328E+01  0.21390919813E+02  0.22568100981E+02  0.51100000000E-03 0. -1.
         12    1    3    3    0    0  0.65651641770E+01  0.73319795214E+01  0.20284894965E+02  0.22546313848E+02  0.00000000000E+00 0. -1.
</event>
<event>
 7    1  0.3807360E-011  0.4778727E+02  0.7816164E-02  0.1312668E+00
        -11   -1    0    0    0    0  0.00000000000E+00  0.00000000000E+00  0.45593999997E+02  0.45594000000E+02  0.51100000000E-03 0. -1.
         11   -1    0    0    0    0 -0.00000000000E+00 -0.00000000000E+00 -0.45593999997E+02  0.45594000000E+02  0.51100000000E-03 0.  1.
    9900012    2    1    2    0    0 -0.25422086304E+01 -0.30989483448E+01 -0.43215238514E+02  0.47787272525E+02  0.20000006750E+02 0.  0.
         12    1    1    2    0    0  0.25422086304E+01  0.30989483448E+01  0.43215238514E+02  0.43400727475E+02  0.00000000000E+00 0. -1.
         11    1    3    3    0    0  0.19814947340E+01  0.56593319647E-01 -0.72842603927E+00  0.21119017355E+01  0.51100000000E-03 0. -1.
        -11    1    3    3    0    0 -0.10148903722E+02 -0.40660566025E+01 -0.25076804866E+02  0.27356520349E+02  0.51100000000E-03 0.  1.
        -12    1    3    3    0    0  0.56252003580E+01  0.91051493802E+00 -0.17410007609E+02  0.18318850440E+02  0.00000000000E+00 0.  1.
</event>
<event>
 7    1  0.3807360E-011  0.4778727E+02  0.7816164E-02  0.1312668E+00
        -11   -1    0    0    0    0  0.00000000000E+00  0.00000000000E+00  0.45593999997E+02  0.45594000000E+02  0.51100000000E-03 0. -1.
         11   -1    0    0    0    0 -0.00000000000E+00 -0.00000000000E+00 -0.45593999997E+02  0.45594000000E+02  0.51100000000E-03 0.  1.
    9900012    2    1    2    0    0  0.16407567455E+01  0.95676240048E+01 -0.42301202176E+02  0.47787271696E+02  0.20000002970E+02 0.  0.
         12    1    1    2    0    0 -0.16407567455E+01 -0.95676240048E+01  0.42301202176E+02  0.43400728304E+02  0.00000000000E+00 0. -1.
         11    1    3    3    0    0 -0.25466520127E+01  0.52115279556E+00 -0.17579061192E+00  0.26053674041E+01  0.51100000000E-03 0. -1.
        -11    1    3    3    0    0  0.38676061973E+01  0.11446801505E+02 -0.23741452900E+02  0.26639148419E+02  0.51100000000E-03 0.  1.
         12    1    3    3    0    0  0.31980256086E+00 -0.24003302962E+01 -0.18383958664E+02  0.18542755873E+02  0.00000000000E+00 0. -1.
</event>
<event>
 7    1  0.3807360E-011  0.4778726E+02  0.7816164E-02  0.1312668E+00
        -11   -1    0    0    0    0  0.00000000000E+00  0.00000000000E+00  0.45593999997E+02  0.45594000000E+02  0.51100000000E-03 0. -1.
         11   -1    0    0    0    0 -0.00000000000E+00 -0.00000000000E+00 -0.45593999997E+02  0.45594000000E+02  0.51100000000E-03 0.  1.
    9900012    2    1    2    0    0 -0.28813661765E+02 -0.19371784187E+02  0.26040951519E+02  0.47787259420E+02  0.19999946999E+02 0.  0.
        -12    1    1    2    0    0  0.28813661765E+02  0.19371784187E+02 -0.26040951519E+02  0.43400740580E+02  0.00000000000E+00 0.  1.
         11    1    3    3    0    0 -0.19606707010E+02 -0.14551191495E+02  0.18352383651E+02  0.30544559576E+02  0.51100000000E-03 0. -1.
        -11    1    3    3    0    0 -0.58322597601E+01 -0.76603048202E+01  0.83975977850E+01  0.12775569368E+02  0.51100000000E-03 0.  1.
        -12    1    3    3    0    0 -0.33746949940E+01  0.28397121280E+01 -0.70902991696E+00  0.44671304766E+01  0.00000000000E+00 0.  1.
</event>
<event>
 7    1  0.3807360E-011  0.4778726E+02  0.7816164E-02  0.1312668E+00
        -11   -1    0    0    0    0  0.00000000000E+00  0.00000000000E+00  0.45593999997E+02  0.45594000000E+02  0.51100000000E-03 0. -1.
         11   -1    0    0    0    0 -0.00000000000E+00 -0.00000000000E+00 -0.45593999997E+02  0.45594000000E+02  0.51100000000E-03 0.  1.
    9900012    2    1    2    0    0 -0.23300680084E+02 -0.31008054018E+02 -0.19473139452E+02  0.47787259609E+02  0.19999947862E+02 0.  0.
         12    1    1    2    0    0  0.23300680084E+02  0.31008054018E+02  0.19473139452E+02  0.43400740391E+02  0.00000000000E+00 0. -1.
         11    1    3    3    0    0 -0.91301765991E+01 -0.56545986810E+00 -0.10754848266E+01  0.92106751906E+01  0.51100000000E-03 0. -1.
        -11    1    3    3    0    0 -0.42852495350E+01 -0.10023772271E+02 -0.85098183356E+01  0.13829547443E+02  0.51100000000E-03 0.  1.
         12    1    3    3    0    0 -0.98852539498E+01 -0.20418821879E+02 -0.98878362902E+01  0.24747036976E+02  0.00000000000E+00 0. -1.
</event>
<event>
 7    1  0.5041101E-011  0.4778728E+02  0.7816164E-02  0.1312668E+00
        -11   -1    0    0    0    0  0.00000000000E+00  0.00000000000E+00  0.45593999997E+02  0.45594000000E+02  0.51100000000E-03 0. -1.
         11   -1    0    0    0    0 -0.00000000000E+00 -0.00000000000E+00 -0.45593999997E+02  0.45594000000E+02  0.51100000000E-03 0.  1.
    9900012    2    1    2    0    0  0.12196445664E+02  0.12007376571E+02 -0.39883481438E+02  0.47787280299E+02  0.20000042195E+02 0.  0.
         12    1    1    2    0    0 -0.12196445664E+02 -0.12007376571E+02  0.39883481438E+02  0.43400719701E+02  0.00000000000E+00 0. -1.
         11    1    3    3    0    0  0.10614733241E+01  0.96679735573E+01 -0.11222165882E+02  0.14850368536E+02  0.51100000000E-03 0. -1.
        -11    1    3    3    0    0  0.11466661454E+02  0.57187602007E+01 -0.21980843223E+02  0.25442995346E+02  0.51100000000E-03 0.  1.
         12    1    3    3    0    0 -0.33168911387E+00 -0.33793571868E+01 -0.66804723331E+01  0.74939164165E+01  0.00000000000E+00 0. -1.
</event>
<event>
 7    1  0.3807360E-011  0.4778727E+02  0.7816164E-02  0.1312668E+00
        -11   -1    0    0    0    0  0.00000000000E+00  0.00000000000E+00  0.45593999997E+02  0.45594000000E+02  0.51100000000E-03 0. -1.
         11   -1    0    0    0    0 -0.00000000000E+00 -0.00000000000E+00 -0.45593999997E+02  0.45594000000E+02  0.51100000000E-03 0.  1.
    9900012    2    1    2    0    0  0.23390147110E+02 -0.69133192821E+01  0.35898894905E+02  0.47787267049E+02  0.19999981781E+02 0.  0.
        -12    1    1    2    0    0 -0.23390147110E+02  0.69133192821E+01 -0.35898894905E+02  0.43400732951E+02  0.00000000000E+00 0.  1.
         11    1    3    3    0    0  0.65224409340E+01 -0.74910732606E+01  0.54874186085E+01  0.11347694814E+02  0.51100000000E-03 0.  1.
        -11    1    3    3    0    0  0.23926748437E+01 -0.14389994768E+01  0.14774853383E+02  0.15036352788E+02  0.51100000000E-03 0. -1.
         12    1    3    3    0    0  0.14475031333E+02  0.20167534554E+01  0.15636622913E+02  0.21403219447E+02  0.00000000000E+00 0. -1.
</event>
<event>
 7    1  0.3807360E-011  0.4778727E+02  0.7816164E-02  0.1312668E+00
        -11   -1    0    0    0    0  0.00000000000E+00  0.00000000000E+00  0.45593999997E+02  0.45594000000E+02  0.51100000000E-03 0.  1.
         11   -1    0    0    0    0 -0.00000000000E+00 -0.00000000000E+00 -0.45593999997E+02  0.45594000000E+02  0.51100000000E-03 0. -1.
    9900012    2    1    2    0    0  0.25135752214E+00 -0.41487306678E+02 -0.12742181418E+02  0.47787274392E+02  0.20000015265E+02 0.  0.
        -12    1    1    2    0    0 -0.25135752214E+00  0.41487306678E+02  0.12742181418E+02  0.43400725608E+02  0.00000000000E+00 0.  1.
         11    1    3    3    0    0  0.36833027189E+01 -0.25586641997E+02 -0.53951965573E+01  0.26407406419E+02  0.51100000000E-03 0. -1.
        -11    1    3    3    0    0  0.80959844894E+00 -0.13636344436E+01  0.27532930632E+01  0.31773529073E+01  0.51100000000E-03 0.  1.
        -12    1    3    3    0    0 -0.42415436457E+01 -0.14537030237E+02 -0.10100277924E+02  0.18202515067E+02  0.00000000000E+00 0.  1.
</event>
<event>
 7    1  0.3807360E-011  0.4778727E+02  0.7816164E-02  0.1312668E+00
        -11   -1    0    0    0    0  0.00000000000E+00  0.00000000000E+00  0.45593999997E+02  0.45594000000E+02  0.51100000000E-03 0.  1.
         11   -1    0    0    0    0 -0.00000000000E+00 -0.00000000000E+00 -0.45593999997E+02  0.45594000000E+02  0.51100000000E-03 0. -1.
    9900012    2    1    2    0    0 -0.28870205510E+02  0.31938100132E+02  0.54856327672E+01  0.47787272205E+02  0.20000005293E+02 0.  0.
         12    1    1    2    0    0  0.28870205510E+02 -0.31938100132E+02 -0.54856327672E+01  0.43400727795E+02  0.00000000000E+00 0. -1.
         11    1    3    3    0    0 -0.59219448123E+01  0.70629688467E+01  0.78559061866E+01  0.12110748183E+02  0.51100000000E-03 0. -1.
        -11    1    3    3    0    0  0.10332494819E+01  0.10760421804E+01  0.88380082038E+00  0.17339479280E+01  0.51100000000E-03 0.  1.
        -12    1    3    3    0    0 -0.23981510180E+02  0.23799089105E+02 -0.32540742398E+01  0.33942576094E+02  0.00000000000E+00 0.  1.
</event>
<event>
 7    1  0.3807360E-011  0.4778727E+02  0.7816164E-02  0.1312668E+00
        -11   -1    0    0    0    0  0.00000000000E+00  0.00000000000E+00  0.45593999997E+02  0.45594000000E+02  0.51100000000E-03 0. -1.
         11   -1    0    0    0    0 -0.00000000000E+00 -0.00000000000E+00 -0.45593999997E+02  0.45594000000E+02  0.51100000000E-03 0.  1.
    9900012    2    1    2    0    0  0.16876016485E+02 -0.19763143876E+02  0.34759768505E+02  0.47787270804E+02  0.19999998901E+02 0.  0.
        -12    1    1    2    0    0 -0.16876016485E+02  0.19763143876E+02 -0.34759768505E+02  0.43400729196E+02  0.00000000000E+00 0.  1.
         11    1    3    3    0    0  0.21659559350E+00 -0.95137753819E+01  0.17329874542E+02  0.19770771042E+02  0.51100000000E-03 0. -1.
        -11    1    3    3    0    0  0.50059959703E+01  0.84115709704E+00  0.13098690918E+01  0.52424515463E+01  0.51100000000E-03 0.  1.
        -12    1    3    3    0    0  0.11653424922E+02 -0.11090525591E+02  0.16120024871E+02  0.22774048216E+02  0.00000000000E+00 0.  1.
</event>
<event>
 7    1  0.3807360E-011  0.4778727E+02  0.7816164E-02  0.1312668E+00
        -11   -1    0    0    0    0  0.00000000000E+00  0.00000000000E+00  0.45593999997E+02  0.45594000000E+02  0.51100000000E-03 0. -1.
         11   -1    0    0    0    0 -0.00000000000E+00 -0.00000000000E+00 -0.45593999997E+02  0.45594000000E+02  0.51100000000E-03 0.  1.
    9900012    2    1    2    0    0 -0.26243890485E+02  0.29711479641E+02  0.17666611904E+02  0.47787274357E+02  0.20000015101E+02 0.  0.
        -12    1    1    2    0    0  0.26243890485E+02 -0.29711479641E+02 -0.17666611904E+02  0.43400725643E+02  0.00000000000E+00 0.  1.
         11    1    3    3    0    0 -0.13004857710E+02  0.13680264950E+02  0.16580030416E+01  0.18947953650E+02  0.51100000000E-03 0. -1.
        -11    1    3    3    0    0  0.30235914976E+00 -0.16682631861E+01  0.95397164281E+00  0.19454010563E+01  0.51100000000E-03 0.  1.
         12    1    3    3    0    0 -0.13541391924E+02  0.17699477877E+02  0.15054637219E+02  0.26893919650E+02  0.00000000000E+00 0. -1.
</event>
<event>
 7    1  0.3807360E-011  0.4778725E+02  0.7816164E-02  0.1312668E+00
        -11   -1    0    0    0    0  0.00000000000E+00  0.00000000000E+00  0.45593999997E+02  0.45594000000E+02  0.51100000000E-03 0. -1.
         11   -1    0    0    0    0 -0.00000000000E+00 -0.00000000000E+00 -0.45593999997E+02  0.45594000000E+02  0.51100000000E-03 0.  1.
    9900012    2    1    2    0    0  0.36081115893E+02  0.16434648682E+02  0.17654486131E+02  0.47787245607E+02  0.19999884019E+02 0.  0.
        -12    1    1    2    0    0 -0.36081115893E+02 -0.16434648682E+02 -0.17654486131E+02  0.43400754393E+02  0.00000000000E+00 0.  1.
         11    1    3    3    0    0  0.15052036889E+01  0.14924160870E+01  0.10484597148E+01  0.23647858161E+01  0.51100000000E-03 0. -1.
        -11    1    3    3    0    0  0.13203553666E+02  0.15385581589E+02  0.11984609792E+02  0.23551662836E+02  0.51100000000E-03 0.  1.
         12    1    3    3    0    0  0.21372358538E+02 -0.44334899315E+00  0.46214166239E+01  0.21870796954E+02  0.00000000000E+00 0. -1.
</event>
<event>
 7    1  0.3807360E-011  0.4778727E+02  0.7816164E-02  0.1312668E+00
        -11   -1    0    0    0    0  0.00000000000E+00  0.00000000000E+00  0.45593999997E+02  0.45594000000E+02  0.51100000000E-03 0. -1.
         11   -1    0    0    0    0 -0.00000000000E+00 -0.00000000000E+00 -0.45593999997E+02  0.45594000000E+02  0.51100000000E-03 0.  1.
    9900012    2    1    2    0    0  0.35237394975E+02  0.10200682985E+02  0.23192573371E+02  0.47787269620E+02  0.19999993503E+02 0.  0.
        -12    1    1    2    0    0 -0.35237394975E+02 -0.10200682985E+02 -0.23192573371E+02  0.43400730380E+02  0.00000000000E+00 0.  1.
         11    1    3    3    0    0  0.50752606703E+01  0.10795132552E+01  0.93580148832E+01  0.10700283293E+02  0.51100000000E-03 0.  1.
        -11    1    3    3    0    0  0.25781116094E+02  0.10892402065E+02  0.71250289969E+01  0.28880381027E+02  0.51100000000E-03 0. -1.
         12    1    3    3    0    0  0.43810182108E+01 -0.17712323352E+01  0.67095294912E+01  0.82066052995E+01  0.00000000000E+00 0. -1.
</event>
<event>
 7    1  0.3807360E-011  0.4778727E+02  0.7816164E-02  0.1312668E+00
        -11   -1    0    0    0    0  0.00000000000E+00  0.00000000000E+00  0.45593999997E+02  0.45594000000E+02  0.51100000000E-03 0.  1.
         11   -1    0    0    0    0 -0.00000000000E+00 -0.00000000000E+00 -0.45593999997E+02  0.45594000000E+02  0.51100000000E-03 0. -1.
    9900012    2    1    2    0    0  0.37868215274E+02  0.15661121992E+02 -0.14295135036E+02  0.47787270100E+02  0.19999995696E+02 0.  0.
         12    1    1    2    0    0 -0.37868215274E+02 -0.15661121992E+02  0.14295135036E+02  0.43400729900E+02  0.00000000000E+00 0. -1.
         11    1    3    3    0    0  0.12580164890E+02  0.36655513448E+01 -0.32911096620E+01  0.13510300455E+02  0.51100000000E-03 0.  1.
        -11    1    3    3    0    0  0.19700057772E+01  0.71794953923E+01  0.11679693873E+01  0.75359292460E+01  0.51100000000E-03 0. -1.
         12    1    3    3    0    0  0.23318044607E+02  0.48160752552E+01 -0.12171994762E+02  0.26741040399E+02  0.00000000000E+00 0. -1.
</event>
<event>
 7    1  0.3807360E-011  0.4778727E+02  0.7816164E-02  0.1312668E+00
        -11   -1    0    0    0    0  0.00000000000E+00  0.00000000000E+00  0.45593999997E+02  0.45594000000E+02  0.51100000000E-03 0. -1.
         11   -1    0    0    0    0 -0.00000000000E+00 -0.00000000000E+00 -0.45593999997E+02  0.45594000000E+02  0.51100000000E-03 0.  1.
    9900012    2    1    2    0    0  0.10607510569E+02 -0.35585034399E+02 -0.22467958178E+02  0.47787273067E+02  0.20000009222E+02 0.  0.
         12    1    1    2    0    0 -0.10607510569E+02  0.35585034399E+02  0.22467958178E+02  0.43400726933E+02  0.00000000000E+00 0. -1.
         11    1    3    3    0    0  0.81509363056E+01 -0.40236964452E+01 -0.50437541616E+01  0.10395544817E+02  0.51100000000E-03 0. -1.
        -11    1    3    3    0    0 -0.13621260101E+01 -0.76934998828E+01 -0.87017687419E+01  0.11694704238E+02  0.51100000000E-03 0.  1.
         12    1    3    3    0    0  0.38187002731E+01 -0.23867838071E+02 -0.87224352741E+01  0.25697024012E+02  0.00000000000E+00 0. -1.
</event>
<event>
 7    1  0.3807360E-011  0.4778728E+02  0.7816164E-02  0.1312668E+00
        -11   -1    0    0    0    0  0.00000000000E+00  0.00000000000E+00  0.45593999997E+02  0.45594000000E+02  0.51100000000E-03 0.  1.
         11   -1    0    0    0    0 -0.00000000000E+00 -0.00000000000E+00 -0.45593999997E+02  0.45594000000E+02  0.51100000000E-03 0. -1.
    9900012    2    1    2    0    0 -0.11955324643E+02 -0.41464497485E+02 -0.46247569937E+01  0.47787277468E+02  0.20000029290E+02 0.  0.
         12    1    1    2    0    0  0.11955324643E+02  0.41464497485E+02  0.46247569937E+01  0.43400722532E+02  0.00000000000E+00 0. -1.
         11    1    3    3    0    0 -0.29185456489E+01 -0.13174087416E+02 -0.50419630729E+01  0.14404717277E+02  0.51100000000E-03 0. -1.
        -11    1    3    3    0    0 -0.10735076336E+02 -0.94082838476E+01  0.17299542488E+01  0.14378818132E+02  0.51100000000E-03 0.  1.
        -12    1    3    3    0    0  0.16982973419E+01 -0.18882126222E+02 -0.13127481696E+01  0.19003742060E+02  0.00000000000E+00 0.  1.
</event>
<event>
 7    1  0.3807360E-011  0.4778727E+02  0.7816164E-02  0.1312668E+00
        -11   -1    0    0    0    0  0.00000000000E+00  0.00000000000E+00  0.45593999997E+02  0.45594000000E+02  0.51100000000E-03 0. -1.
         11   -1    0    0    0    0 -0.00000000000E+00 -0.00000000000E+00 -0.45593999997E+02  0.45594000000E+02  0.51100000000E-03 0.  1.
    9900012    2    1    2    0    0  0.31266336288E+02 -0.82875323390E+01  0.28937106471E+02  0.47787272954E+02  0.20000008709E+02 0.  0.
        -12    1    1    2    0    0 -0.31266336288E+02  0.82875323390E+01 -0.28937106471E+02  0.43400727046E+02  0.00000000000E+00 0.  1.
         11    1    3    3    0    0  0.13561659629E+02  0.63128941172E+00  0.14252659782E+02  0.19683888064E+02  0.51100000000E-03 0. -1.
        -11    1    3    3    0    0  0.15721087667E+02 -0.49268954334E+01  0.16475390477E+02  0.23299471833E+02  0.51100000000E-03 0.  1.
        -12    1    3    3    0    0  0.19835889927E+01 -0.39919263174E+01 -0.17909437878E+01  0.48039130578E+01  0.00000000000E+00 0.  1.
</event>
<event>
 7    1  0.3807360E-011  0.4778726E+02  0.7816164E-02  0.1312668E+00
        -11   -1    0    0    0    0  0.00000000000E+00  0.00000000000E+00  0.45593999997E+02  0.45594000000E+02  0.51100000000E-03 0. -1.
         11   -1    0    0    0    0 -0.00000000000E+00 -0.00000000000E+00 -0.45593999997E+02  0.45594000000E+02  0.51100000000E-03 0.  1.
    9900012    2    1    2    0    0 -0.25453177945E+02 -0.31425328142E+02  0.15754634968E+02  0.47787262226E+02  0.19999959794E+02 0.  0.
        -12    1    1    2    0    0  0.25453177945E+02  0.31425328142E+02 -0.15754634968E+02  0.43400737774E+02  0.00000000000E+00 0.  1.
         11    1    3    3    0    0 -0.16819373194E+02 -0.15356818672E+02  0.12250206286E+02  0.25860988935E+02  0.51100000000E-03 0. -1.
        -11    1    3    3    0    0 -0.21360776906E+01  0.16951607248E+01  0.32769446485E+00  0.27465945654E+01  0.51100000000E-03 0.  1.
         12    1    3    3    0    0 -0.64977270599E+01 -0.17763670195E+02  0.31767342170E+01  0.19179678726E+02  0.00000000000E+00 0. -1.
</event>
<event>
 7    1  0.3807360E-011  0.4778723E+02  0.7816164E-02  0.1312668E+00
        -11   -1    0    0    0    0  0.00000000000E+00  0.00000000000E+00  0.45593999997E+02  0.45594000000E+02  0.51100000000E-03 0. -1.
         11   -1    0    0    0    0 -0.00000000000E+00 -0.00000000000E+00 -0.45593999997E+02  0.45594000000E+02  0.51100000000E-03 0.  1.
    9900012    2    1    2    0    0 -0.73451105495E+01 -0.26193531228E+02 -0.33816782929E+02  0.47787233476E+02  0.19999828712E+02 0.  0.
         12    1    1    2    0    0  0.73451105495E+01  0.26193531228E+02  0.33816782929E+02  0.43400766524E+02  0.00000000000E+00 0. -1.
         11    1    3    3    0    0  0.27611210162E+01 -0.11483721524E+02 -0.83868520273E+01  0.14485818462E+02  0.51100000000E-03 0. -1.
        -11    1    3    3    0    0 -0.56208267830E+01 -0.82639433823E+01 -0.45265051754E+01  0.10971586180E+02  0.51100000000E-03 0.  1.
         12    1    3    3    0    0 -0.44854047827E+01 -0.64458663217E+01 -0.20903425726E+02  0.22329828834E+02  0.00000000000E+00 0. -1.
</event>
<event>
 7    1  0.3807360E-011  0.4778727E+02  0.7816164E-02  0.1312668E+00
        -11   -1    0    0    0    0  0.00000000000E+00  0.00000000000E+00  0.45593999997E+02  0.45594000000E+02  0.51100000000E-03 0. -1.
         11   -1    0    0    0    0 -0.00000000000E+00 -0.00000000000E+00 -0.45593999997E+02  0.45594000000E+02  0.51100000000E-03 0.  1.
    9900012    2    1    2    0    0 -0.16436294184E+02  0.11050147234E+02  0.38618201094E+02  0.47787274475E+02  0.20000015641E+02 0.  0.
        -12    1    1    2    0    0  0.16436294184E+02 -0.11050147234E+02 -0.38618201094E+02  0.43400725525E+02  0.00000000000E+00 0.  1.
         11    1    3    3    0    0 -0.11709958947E+02  0.10611360253E+02  0.16528246987E+02  0.22867161032E+02  0.51100000000E-03 0. -1.
        -11    1    3    3    0    0 -0.57679606147E+01 -0.69122117128E+00  0.22573482411E+02  0.23308995362E+02  0.51100000000E-03 0.  1.
         12    1    3    3    0    0  0.10416253777E+01  0.11300081514E+01 -0.48352830374E+00  0.16111180808E+01  0.00000000000E+00 0. -1.
</event>
<event>
 7    1  0.3807360E-011  0.4778727E+02  0.7816164E-02  0.1312668E+00
        -11   -1    0    0    0    0  0.00000000000E+00  0.00000000000E+00  0.45593999997E+02  0.45594000000E+02  0.51100000000E-03 0. -1.
         11   -1    0    0    0    0 -0.00000000000E+00 -0.00000000000E+00 -0.45593999997E+02  0.45594000000E+02  0.51100000000E-03 0.  1.
    9900012    2    1    2    0    0 -0.12893141608E+01  0.43381421345E+02  0.11418499754E+00  0.47787273196E+02  0.20000009808E+02 0.  0.
         12    1    1    2    0    0  0.12893141608E+01 -0.43381421345E+02 -0.11418499754E+00  0.43400726804E+02  0.00000000000E+00 0. -1.
         11    1    3    3    0    0 -0.17226617756E+01  0.26048748695E+02 -0.47396376293E+00  0.26109950480E+02  0.51100000000E-03 0. -1.
        -11    1    3    3    0    0  0.14908302089E+01  0.17791790685E+02 -0.28236215853E+01  0.18076040208E+02  0.51100000000E-03 0.  1.
         12    1    3    3    0    0 -0.10574825941E+01 -0.45911803435E+00  0.34117703458E+01  0.36012825075E+01  0.00000000000E+00 0. -1.
</event>
<event>
 7    1  0.3807360E-011  0.4778727E+02  0.7816164E-02  0.1312668E+00
        -11   -1    0    0    0    0  0.00000000000E+00  0.00000000000E+00  0.45593999997E+02  0.45594000000E+02  0.51100000000E-03 0. -1.
         11   -1    0    0    0    0 -0.00000000000E+00 -0.00000000000E+00 -0.45593999997E+02  0.45594000000E+02  0.51100000000E-03 0.  1.
    9900012    2    1    2    0    0 -0.16014498073E+02 -0.28255071821E+02  0.28789056014E+02  0.47787274449E+02  0.20000015525E+02 0.  0.
        -12    1    1    2    0    0  0.16014498073E+02  0.28255071821E+02 -0.28789056014E+02  0.43400725551E+02  0.00000000000E+00 0.  1.
         11    1    3    3    0    0 -0.13772655510E+02 -0.21109432926E+02  0.18017746750E+02  0.30982791941E+02  0.51100000000E-03 0. -1.
        -11    1    3    3    0    0  0.21437380483E+01 -0.81264689414E+01  0.69989139144E+01  0.10937088576E+02  0.51100000000E-03 0.  1.
        -12    1    3    3    0    0 -0.43855806114E+01  0.98083004715E+00  0.37723953501E+01  0.58673939324E+01  0.00000000000E+00 0.  1.
</event>
<event>
 7    1  0.3807360E-011  0.4778727E+02  0.7816164E-02  0.1312668E+00
        -11   -1    0    0    0    0  0.00000000000E+00  0.00000000000E+00  0.45593999997E+02  0.45594000000E+02  0.51100000000E-03 0. -1.
         11   -1    0    0    0    0 -0.00000000000E+00 -0.00000000000E+00 -0.45593999997E+02  0.45594000000E+02  0.51100000000E-03 0.  1.
    9900012    2    1    2    0    0  0.12608924878E+02 -0.13024315674E+02 -0.39433562849E+02  0.47787266546E+02  0.19999979490E+02 0.  0.
         12    1    1    2    0    0 -0.12608924878E+02  0.13024315674E+02  0.39433562849E+02  0.43400733454E+02  0.00000000000E+00 0. -1.
         11    1    3    3    0    0 -0.12588506485E+01  0.60317359854E+00 -0.67045883774E+00  0.15485601892E+01  0.51100000000E-03 0. -1.
        -11    1    3    3    0    0  0.15947748675E+02 -0.13506717430E+02 -0.26249876844E+02  0.33553213529E+02  0.51100000000E-03 0.  1.
        -12    1    3    3    0    0 -0.20799731486E+01 -0.12077184217E+00 -0.12513227168E+02  0.12685492828E+02  0.00000000000E+00 0.  1.
</event>
<event>
 7    1  0.3807360E-011  0.4778727E+02  0.7816164E-02  0.1312668E+00
        -11   -1    0    0    0    0  0.00000000000E+00  0.00000000000E+00  0.45593999997E+02  0.45594000000E+02  0.51100000000E-03 0. -1.
         11   -1    0    0    0    0 -0.00000000000E+00 -0.00000000000E+00 -0.45593999997E+02  0.45594000000E+02  0.51100000000E-03 0.  1.
    9900012    2    1    2    0    0 -0.12007416310E+02 -0.41293732134E+02  0.58543110022E+01  0.47787270544E+02  0.19999997720E+02 0.  0.
        -12    1    1    2    0    0  0.12007416310E+02  0.41293732134E+02 -0.58543110022E+01  0.43400729456E+02  0.00000000000E+00 0.  1.
         11    1    3    3    0    0 -0.29735387044E+01 -0.21650981787E+02  0.20157485164E+01  0.21946985832E+02  0.51100000000E-03 0. -1.
        -11    1    3    3    0    0  0.23637539771E+01 -0.97156085677E+01  0.38802775986E+01  0.10725527363E+02  0.51100000000E-03 0.  1.
        -12    1    3    3    0    0 -0.11397631582E+02 -0.99271417790E+01 -0.41715112841E-01  0.15114757350E+02  0.00000000000E+00 0.  1.
</event>
<event>
 7    1  0.3807360E-011  0.4778727E+02  0.7816164E-02  0.1312668E+00
        -11   -1    0    0    0    0  0.00000000000E+00  0.00000000000E+00  0.45593999997E+02  0.45594000000E+02  0.51100000000E-03 0.  1.
         11   -1    0    0    0    0 -0.00000000000E+00 -0.00000000000E+00 -0.45593999997E+02  0.45594000000E+02  0.51100000000E-03 0. -1.
    9900012    2    1    2    0    0 -0.18671108317E+02  0.34516355459E+02  0.18537373165E+02  0.47787270930E+02  0.19999999478E+02 0.  0.
        -12    1    1    2    0    0  0.18671108317E+02 -0.34516355459E+02 -0.18537373165E+02  0.43400729070E+02  0.00000000000E+00 0.  1.
         11    1    3    3    0    0 -0.36279594261E+01  0.53858638052E+01  0.62731938089E+01  0.90289855106E+01  0.51100000000E-03 0. -1.
        -11    1    3    3    0    0 -0.78615436013E+01  0.15161125956E+02 -0.24289084887E+01  0.17250020427E+02  0.51100000000E-03 0.  1.
        -12    1    3    3    0    0 -0.71816052901E+01  0.13969365698E+02  0.14693087845E+02  0.21508264992E+02  0.00000000000E+00 0.  1.
</event>
<event>
 7    1  0.3807360E-011  0.4778727E+02  0.7816164E-02  0.1312668E+00
        -11   -1    0    0    0    0  0.00000000000E+00  0.00000000000E+00  0.45593999997E+02  0.45594000000E+02  0.51100000000E-03 0. -1.
         11   -1    0    0    0    0 -0.00000000000E+00 -0.00000000000E+00 -0.45593999997E+02  0.45594000000E+02  0.51100000000E-03 0.  1.
    9900012    2    1    2    0    0 -0.31942419828E+02  0.66021234426E+00  0.29374642878E+02  0.47787266031E+02  0.19999977144E+02 0.  0.
        -12    1    1    2    0    0  0.31942419828E+02 -0.66021234426E+00 -0.29374642878E+02  0.43400733969E+02  0.00000000000E+00 0.  1.
         11    1    3    3    0    0 -0.19008802357E+02  0.23568019936E+01  0.22979988624E+02  0.29916031824E+02  0.51100000000E-03 0. -1.
        -11    1    3    3    0    0 -0.12402268565E+02 -0.47595377630E+01  0.64384771185E+01  0.14762230629E+02  0.51100000000E-03 0.  1.
         12    1    3    3    0    0 -0.53134890588E+00  0.30629481136E+01 -0.43822864688E-01  0.31090035783E+01  0.00000000000E+00 0. -1.
</event>
<event>
 7    1  0.3807360E-011  0.4778727E+02  0.7816164E-02  0.1312668E+00
        -11   -1    0    0    0    0  0.00000000000E+00  0.00000000000E+00  0.45593999997E+02  0.45594000000E+02  0.51100000000E-03 0.  1.
         11   -1    0    0    0    0 -0.00000000000E+00 -0.00000000000E+00 -0.45593999997E+02  0.45594000000E+02  0.51100000000E-03 0. -1.
    9900012    2    1    2    0    0  0.10136301081E+02 -0.35160712404E+02  0.23336732746E+02  0.47787269688E+02  0.19999993813E+02 0.  0.
        -12    1    1    2    0    0 -0.10136301081E+02  0.35160712404E+02 -0.23336732746E+02  0.43400730312E+02  0.00000000000E+00 0.  1.
         11    1    3    3    0    0  0.74167473078E+01 -0.27739734588E+02  0.12929076280E+02  0.31490665750E+02  0.51100000000E-03 0. -1.
        -11    1    3    3    0    0  0.38996020550E+01 -0.29204602293E+00  0.36921469077E+00  0.39279137994E+01  0.51100000000E-03 0.  1.
        -12    1    3    3    0    0 -0.11800482822E+01 -0.71289317935E+01  0.10038441775E+02  0.12368690138E+02  0.00000000000E+00 0.  1.
</event>
<event>
 7    1  0.3807360E-011  0.4778728E+02  0.7816164E-02  0.1312668E+00
        -11   -1    0    0    0    0  0.00000000000E+00  0.00000000000E+00  0.45593999997E+02  0.45594000000E+02  0.51100000000E-03 0. -1.
         11   -1    0    0    0    0 -0.00000000000E+00 -0.00000000000E+00 -0.45593999997E+02  0.45594000000E+02  0.51100000000E-03 0.  1.
    9900012    2    1    2    0    0  0.24513715603E+02 -0.25529772623E+02 -0.25118341299E+02  0.47787278664E+02  0.20000034742E+02 0.  0.
         12    1    1    2    0    0 -0.24513715603E+02  0.25529772623E+02  0.25118341299E+02  0.43400721336E+02  0.00000000000E+00 0. -1.
         11    1    3    3    0    0 -0.45276605206E+00  0.11934345861E+01 -0.23657854845E+01  0.26881637653E+01  0.51100000000E-03 0. -1.
        -11    1    3    3    0    0  0.21518564744E+01  0.14562064027E+01 -0.23061578526E+01  0.34741024274E+01  0.51100000000E-03 0.  1.
        -12    1    3    3    0    0  0.22814625181E+02 -0.28179413612E+02 -0.20446397962E+02  0.41625012472E+02  0.00000000000E+00 0.  1.
</event>
<event>
 7    1  0.3807360E-011  0.4778728E+02  0.7816164E-02  0.1312668E+00
        -11   -1    0    0    0    0  0.00000000000E+00  0.00000000000E+00  0.45593999997E+02  0.45594000000E+02  0.51100000000E-03 0. -1.
         11   -1    0    0    0    0 -0.00000000000E+00 -0.00000000000E+00 -0.45593999997E+02  0.45594000000E+02  0.51100000000E-03 0.  1.
    9900012    2    1    2    0    0 -0.36782085352E+02  0.11381504388E+02  0.20029033607E+02  0.47787278437E+02  0.20000033706E+02 0.  0.
        -12    1    1    2    0    0  0.36782085352E+02 -0.11381504388E+02 -0.20029033607E+02  0.43400721563E+02  0.00000000000E+00 0.  1.
         11    1    3    3    0    0  0.92616963931E+00  0.70171402491E+00  0.30256424124E+01  0.32410962717E+01  0.51100000000E-03 0. -1.
        -11    1    3    3    0    0 -0.43142162908E+01  0.58246311082E+01  0.14625922108E+01  0.73944550838E+01  0.51100000000E-03 0.  1.
         12    1    3    3    0    0 -0.33394038700E+02  0.48551592553E+01  0.15540798984E+02  0.37151727082E+02  0.00000000000E+00 0. -1.
</event>
<event>
 7    1  0.3807360E-011  0.4778727E+02  0.7816164E-02  0.1312668E+00
        -11   -1    0    0    0    0  0.00000000000E+00  0.00000000000E+00  0.45593999997E+02  0.45594000000E+02  0.51100000000E-03 0. -1.
         11   -1    0    0    0    0 -0.00000000000E+00 -0.00000000000E+00 -0.45593999997E+02  0.45594000000E+02  0.51100000000E-03 0.  1.
    9900012    2    1    2    0    0 -0.31391175582E+01 -0.18510908885E+02  0.39129473697E+02  0.47787268225E+02  0.19999987145E+02 0.  0.
        -12    1    1    2    0    0  0.31391175582E+01  0.18510908885E+02 -0.39129473697E+02  0.43400731775E+02  0.00000000000E+00 0.  1.
         11    1    3    3    0    0 -0.32086777637E+01 -0.15792234405E+02  0.21950607566E+02  0.27230854803E+02  0.51100000000E-03 0. -1.
        -11    1    3    3    0    0  0.45438123749E+01 -0.38272514637E+01  0.59038467338E+01  0.83755293076E+01  0.51100000000E-03 0.  1.
        -12    1    3    3    0    0 -0.44742521694E+01  0.11085769844E+01  0.11275019397E+02  0.12180884114E+02  0.00000000000E+00 0.  1.
</event>
<event>
 7    1  0.3807360E-011  0.4778728E+02  0.7816164E-02  0.1312668E+00
        -11   -1    0    0    0    0  0.00000000000E+00  0.00000000000E+00  0.45593999997E+02  0.45594000000E+02  0.51100000000E-03 0. -1.
         11   -1    0    0    0    0 -0.00000000000E+00 -0.00000000000E+00 -0.45593999997E+02  0.45594000000E+02  0.51100000000E-03 0.  1.
    9900012    2    1    2    0    0 -0.23464837371E+02 -0.34359321823E+02  0.12347519001E+02  0.47787276337E+02  0.20000024133E+02 0.  0.
        -12    1    1    2    0    0  0.23464837371E+02  0.34359321823E+02 -0.12347519001E+02  0.43400723663E+02  0.00000000000E+00 0.  1.
         11    1    3    3    0    0 -0.25164203768E+01  0.11908830905E+01  0.88219669244E+00  0.29204186880E+01  0.51100000000E-03 0.  1.
        -11    1    3    3    0    0 -0.18902037380E+02 -0.22670183236E+02  0.11882738694E+02  0.31818606258E+02  0.51100000000E-03 0. -1.
         12    1    3    3    0    0 -0.20463796143E+01 -0.12880021678E+02 -0.41741638605E+00  0.13048251392E+02  0.00000000000E+00 0. -1.
</event>
<event>
 7    1  0.3807360E-011  0.4778729E+02  0.7816164E-02  0.1312668E+00
        -11   -1    0    0    0    0  0.00000000000E+00  0.00000000000E+00  0.45593999997E+02  0.45594000000E+02  0.51100000000E-03 0. -1.
         11   -1    0    0    0    0 -0.00000000000E+00 -0.00000000000E+00 -0.45593999997E+02  0.45594000000E+02  0.51100000000E-03 0.  1.
    9900012    2    1    2    0    0  0.37486374321E+02 -0.21827753282E+02  0.13936270431E+01  0.47787294137E+02  0.20000105289E+02 0.  0.
         12    1    1    2    0    0 -0.37486374321E+02  0.21827753282E+02 -0.13936270431E+01  0.43400705863E+02  0.00000000000E+00 0. -1.
         11    1    3    3    0    0  0.30999988348E+01 -0.10474035906E+02 -0.48859471017E+00  0.10934081854E+02  0.51100000000E-03 0. -1.
        -11    1    3    3    0    0  0.16568900921E+02 -0.81667086910E+01  0.30188762899E+01  0.18717297425E+02  0.51100000000E-03 0.  1.
         12    1    3    3    0    0  0.17817474565E+02 -0.31870086849E+01 -0.11366545367E+01  0.18135914859E+02  0.00000000000E+00 0. -1.
</event>
<event>
 7    1  0.3807360E-011  0.4778726E+02  0.7816164E-02  0.1312668E+00
        -11   -1    0    0    0    0  0.00000000000E+00  0.00000000000E+00  0.45593999997E+02  0.45594000000E+02  0.51100000000E-03 0. -1.
         11   -1    0    0    0    0 -0.00000000000E+00 -0.00000000000E+00 -0.45593999997E+02  0.45594000000E+02  0.51100000000E-03 0.  1.
    9900012    2    1    2    0    0  0.16673787797E+02 -0.37640323081E+02  0.13740988855E+02  0.47787263878E+02  0.19999967326E+02 0.  0.
        -12    1    1    2    0    0 -0.16673787797E+02  0.37640323081E+02 -0.13740988855E+02  0.43400736122E+02  0.00000000000E+00 0.  1.
         11    1    3    3    0    0  0.84864617798E+01 -0.11556777231E+02  0.36481840500E+01  0.14794876837E+02  0.51100000000E-03 0. -1.
        -11    1    3    3    0    0 -0.21862699397E+01 -0.13105746557E+02 -0.48654111697E+00  0.13295754645E+02  0.51100000000E-03 0.  1.
         12    1    3    3    0    0  0.10373595957E+02 -0.12977799293E+02  0.10579345922E+02  0.19696632395E+02  0.00000000000E+00 0. -1.
</event>
<event>
 7    1  0.3807360E-011  0.4778727E+02  0.7816164E-02  0.1312668E+00
        -11   -1    0    0    0    0  0.00000000000E+00  0.00000000000E+00  0.45593999997E+02  0.45594000000E+02  0.51100000000E-03 0.  1.
         11   -1    0    0    0    0 -0.00000000000E+00 -0.00000000000E+00 -0.45593999997E+02  0.45594000000E+02  0.51100000000E-03 0. -1.
    9900012    2    1    2    0    0 -0.33232732209E+02 -0.20693278105E+02 -0.18734917799E+02  0.47787269663E+02  0.19999993702E+02 0.  0.
         12    1    1    2    0    0  0.33232732209E+02  0.20693278105E+02  0.18734917799E+02  0.43400730337E+02  0.00000000000E+00 0. -1.
         11    1    3    3    0    0 -0.15202186441E+02 -0.51189224205E+01 -0.91746878677E+01  0.18479305643E+02  0.51100000000E-03 0.  1.
        -11    1    3    3    0    0  0.42807185818E+00 -0.49238308308E+01 -0.58806208798E+01  0.76817353351E+01  0.51100000000E-03 0. -1.
         12    1    3    3    0    0 -0.18458617627E+02 -0.10650524854E+02 -0.36796090518E+01  0.21626228685E+02  0.00000000000E+00 0. -1.
</event>
<event>
 7    1  0.3807360E-011  0.4778729E+02  0.7816164E-02  0.1312668E+00
        -11   -1    0    0    0    0  0.00000000000E+00  0.00000000000E+00  0.45593999997E+02  0.45594000000E+02  0.51100000000E-03 0. -1.
         11   -1    0    0    0    0 -0.00000000000E+00 -0.00000000000E+00 -0.45593999997E+02  0.45594000000E+02  0.51100000000E-03 0.  1.
    9900012    2    1    2    0    0  0.24128239935E+02  0.22020441049E+02 -0.28575340354E+02  0.47787287302E+02  0.20000074126E+02 0.  0.
         12    1    1    2    0    0 -0.24128239935E+02 -0.22020441049E+02  0.28575340354E+02  0.43400712698E+02  0.00000000000E+00 0. -1.
         11    1    3    3    0    0  0.13936159781E+01  0.53031118062E+01 -0.14530758267E+02  0.15530875584E+02  0.51100000000E-03 0. -1.
        -11    1    3    3    0    0  0.10804153500E+02  0.84538910227E+01 -0.10610102316E+02  0.17342787483E+02  0.51100000000E-03 0.  1.
         12    1    3    3    0    0  0.11930470457E+02  0.82634382199E+01 -0.34344797707E+01  0.14913624235E+02  0.00000000000E+00 0. -1.
</event>
<event>
 7    1  0.3807360E-011  0.4778728E+02  0.7816164E-02  0.1312668E+00
        -11   -1    0    0    0    0  0.00000000000E+00  0.00000000000E+00  0.45593999997E+02  0.45594000000E+02  0.51100000000E-03 0. -1.
         11   -1    0    0    0    0 -0.00000000000E+00 -0.00000000000E+00 -0.45593999997E+02  0.45594000000E+02  0.51100000000E-03 0.  1.
    9900012    2    1    2    0    0  0.82743086742E+01  0.25698601633E+02  0.33981472401E+02  0.47787276775E+02  0.20000026129E+02 0.  0.
        -12    1    1    2    0    0 -0.82743086742E+01 -0.25698601633E+02 -0.33981472401E+02  0.43400723225E+02  0.00000000000E+00 0.  1.
         11    1    3    3    0    0  0.13659149278E+02  0.20934006009E+02  0.24947817435E+02  0.35315698515E+02  0.51100000000E-03 0. -1.
        -11    1    3    3    0    0 -0.93655118894E+00 -0.77653946130E-01  0.42179785340E+01  0.43214004026E+01  0.51100000000E-03 0.  1.
         12    1    3    3    0    0 -0.44482894148E+01  0.48422495699E+01  0.48156764317E+01  0.81501778576E+01  0.00000000000E+00 0. -1.
</event>
<event>
 7    1  0.3807360E-011  0.4778726E+02  0.7816164E-02  0.1312668E+00
        -11   -1    0    0    0    0  0.00000000000E+00  0.00000000000E+00  0.45593999997E+02  0.45594000000E+02  0.51100000000E-03 0. -1.
         11   -1    0    0    0    0 -0.00000000000E+00 -0.00000000000E+00 -0.45593999997E+02  0.45594000000E+02  0.51100000000E-03 0.  1.
    9900012    2    1    2    0    0  0.35671551012E+01 -0.22953240990E+02  0.36661259733E+02  0.47787264607E+02  0.19999970648E+02 0.  0.
        -12    1    1    2    0    0 -0.35671551012E+01  0.22953240990E+02 -0.36661259733E+02  0.43400735393E+02  0.00000000000E+00 0.  1.
         11    1    3    3    0    0  0.95456109601E+01 -0.13481686361E+02  0.14688390700E+02  0.22104827015E+02  0.51100000000E-03 0. -1.
        -11    1    3    3    0    0 -0.15851055639E+01 -0.18779654814E+00  0.89777200550E+01  0.91185133021E+01  0.51100000000E-03 0.  1.
        -12    1    3    3    0    0 -0.43933502950E+01 -0.92837580804E+01  0.12995148978E+02  0.16563924290E+02  0.00000000000E+00 0.  1.
</event>
<event>
 7    1  0.3807360E-011  0.4778727E+02  0.7816164E-02  0.1312668E+00
        -11   -1    0    0    0    0  0.00000000000E+00  0.00000000000E+00  0.45593999997E+02  0.45594000000E+02  0.51100000000E-03 0. -1.
         11   -1    0    0    0    0 -0.00000000000E+00 -0.00000000000E+00 -0.45593999997E+02  0.45594000000E+02  0.51100000000E-03 0.  1.
    9900012    2    1    2    0    0 -0.10491247278E+02  0.21105406974E+01 -0.42060697771E+02  0.47787274794E+02  0.20000017095E+02 0.  0.
         12    1    1    2    0    0  0.10491247278E+02 -0.21105406974E+01  0.42060697771E+02  0.43400725206E+02  0.00000000000E+00 0. -1.
         11    1    3    3    0    0 -0.36830135097E+00  0.54808885048E+01 -0.14189004262E+01  0.56735406377E+01  0.51100000000E-03 0. -1.
        -11    1    3    3    0    0 -0.27840809418E+01 -0.15712558567E+01 -0.16859322213E+02  0.17159740598E+02  0.51100000000E-03 0.  1.
         12    1    3    3    0    0 -0.73388649848E+01 -0.17990919507E+01 -0.23782475131E+02  0.24953993558E+02  0.00000000000E+00 0. -1.
</event>
<event>
 7    1  0.3807360E-011  0.4778727E+02  0.7816164E-02  0.1312668E+00
        -11   -1    0    0    0    0  0.00000000000E+00  0.00000000000E+00  0.45593999997E+02  0.45594000000E+02  0.51100000000E-03 0. -1.
         11   -1    0    0    0    0 -0.00000000000E+00 -0.00000000000E+00 -0.45593999997E+02  0.45594000000E+02  0.51100000000E-03 0.  1.
    9900012    2    1    2    0    0  0.71752709818E+00 -0.15990048206E+02 -0.40341377487E+02  0.47787271615E+02  0.20000002604E+02 0.  0.
         12    1    1    2    0    0 -0.71752709818E+00  0.15990048206E+02  0.40341377487E+02  0.43400728385E+02  0.00000000000E+00 0. -1.
         11    1    3    3    0    0  0.27815124777E+01 -0.28147304897E+01  0.44786050879E+00  0.39824739409E+01  0.51100000000E-03 0. -1.
        -11    1    3    3    0    0 -0.47136755059E+01 -0.48104773179E+01 -0.12676574134E+02  0.14354614618E+02  0.51100000000E-03 0.  1.
        -12    1    3    3    0    0  0.26496901264E+01 -0.83648403987E+01 -0.28112663862E+02  0.29450183057E+02  0.00000000000E+00 0.  1.
</event>
<event>
 7    1  0.3807360E-011  0.4778727E+02  0.7816164E-02  0.1312668E+00
        -11   -1    0    0    0    0  0.00000000000E+00  0.00000000000E+00  0.45593999997E+02  0.45594000000E+02  0.51100000000E-03 0.  1.
         11   -1    0    0    0    0 -0.00000000000E+00 -0.00000000000E+00 -0.45593999997E+02  0.45594000000E+02  0.51100000000E-03 0. -1.
    9900012    2    1    2    0    0 -0.42115017568E+02  0.88609726871E+01  0.56063895951E+01  0.47787272518E+02  0.20000006718E+02 0.  0.
        -12    1    1    2    0    0  0.42115017568E+02 -0.88609726871E+01 -0.56063895951E+01  0.43400727482E+02  0.00000000000E+00 0.  1.
         11    1    3    3    0    0 -0.86549359110E+01  0.53038173331E+00 -0.63660502004E+01  0.10757128605E+02  0.51100000000E-03 0.  1.
        -11    1    3    3    0    0 -0.19781073344E+02  0.30113354454E+01  0.42879382337E+01  0.20463269982E+02  0.51100000000E-03 0. -1.
        -12    1    3    3    0    0 -0.13679008313E+02  0.53192555084E+01  0.76845015619E+01  0.16566873931E+02  0.00000000000E+00 0.  1.
</event>
<event>
 7    1  0.3807360E-011  0.4778728E+02  0.7816164E-02  0.1312668E+00
        -11   -1    0    0    0    0  0.00000000000E+00  0.00000000000E+00  0.45593999997E+02  0.45594000000E+02  0.51100000000E-03 0.  1.
         11   -1    0    0    0    0 -0.00000000000E+00 -0.00000000000E+00 -0.45593999997E+02  0.45594000000E+02  0.51100000000E-03 0. -1.
    9900012    2    1    2    0    0 -0.31575789926E+02  0.29392590930E+02 -0.47610906261E+01  0.47787275409E+02  0.20000019900E+02 0.  0.
         12    1    1    2    0    0  0.31575789926E+02 -0.29392590930E+02  0.47610906261E+01  0.43400724591E+02  0.00000000000E+00 0. -1.
         11    1    3    3    0    0 -0.77241361297E+01 -0.11934482783E+01 -0.65522029045E+00  0.78432079937E+01  0.51100000000E-03 0. -1.
        -11    1    3    3    0    0 -0.78306237781E+01  0.11156175436E+02 -0.55564417002E+01  0.14719135972E+02  0.51100000000E-03 0.  1.
        -12    1    3    3    0    0 -0.16021030019E+02  0.19429863772E+02  0.14505713645E+01  0.25224931444E+02  0.00000000000E+00 0.  1.
</event>
<event>
 7    1  0.3807360E-011  0.4778728E+02  0.7816164E-02  0.1312668E+00
        -11   -1    0    0    0    0  0.00000000000E+00  0.00000000000E+00  0.45593999997E+02  0.45594000000E+02  0.51100000000E-03 0. -1.
         11   -1    0    0    0    0 -0.00000000000E+00 -0.00000000000E+00 -0.45593999997E+02  0.45594000000E+02  0.51100000000E-03 0.  1.
    9900012    2    1    2    0    0 -0.10631299633E+02 -0.15178021829E+02  0.39245708637E+02  0.47787279672E+02  0.20000039337E+02 0.  0.
        -12    1    1    2    0    0  0.10631299633E+02  0.15178021829E+02 -0.39245708637E+02  0.43400720328E+02  0.00000000000E+00 0.  1.
         11    1    3    3    0    0  0.36398782940E+01  0.14930260959E+01  0.23804056041E+01  0.45982792455E+01  0.51100000000E-03 0. -1.
        -11    1    3    3    0    0 -0.37479716134E+01 -0.71178040870E+01  0.10391524322E+02  0.13141316685E+02  0.51100000000E-03 0.  1.
        -12    1    3    3    0    0 -0.10523206314E+02 -0.95532438377E+01  0.26473778712E+02  0.30047683741E+02  0.00000000000E+00 0.  1.
</event>
<event>
 7    1  0.3807360E-011  0.4778727E+02  0.7816164E-02  0.1312668E+00
        -11   -1    0    0    0    0  0.00000000000E+00  0.00000000000E+00  0.45593999997E+02  0.45594000000E+02  0.51100000000E-03 0. -1.
         11   -1    0    0    0    0 -0.00000000000E+00 -0.00000000000E+00 -0.45593999997E+02  0.45594000000E+02  0.51100000000E-03 0.  1.
    9900012    2    1    2    0    0  0.30999521673E+02 -0.38425449039E+01 -0.30131177825E+02  0.47787269909E+02  0.19999994823E+02 0.  0.
         12    1    1    2    0    0 -0.30999521673E+02  0.38425449039E+01  0.30131177825E+02  0.43400730091E+02  0.00000000000E+00 0. -1.
         11    1    3    3    0    0  0.25534809748E+02  0.12793506768E+01 -0.25609025207E+02  0.36186812782E+02  0.51100000000E-03 0. -1.
        -11    1    3    3    0    0 -0.11430673701E+01  0.91211569767E+00 -0.16448757324E+01  0.22009485443E+01  0.51100000000E-03 0.  1.
        -12    1    3    3    0    0  0.66077792945E+01 -0.60340112783E+01 -0.28772768862E+01  0.93995085824E+01  0.00000000000E+00 0.  1.
</event>
<event>
 7    1  0.3807360E-011  0.4778727E+02  0.7816164E-02  0.1312668E+00
        -11   -1    0    0    0    0  0.00000000000E+00  0.00000000000E+00  0.45593999997E+02  0.45594000000E+02  0.51100000000E-03 0. -1.
         11   -1    0    0    0    0 -0.00000000000E+00 -0.00000000000E+00 -0.45593999997E+02  0.45594000000E+02  0.51100000000E-03 0.  1.
    9900012    2    1    2    0    0  0.16588067321E+02  0.31253956534E+02  0.25132636181E+02  0.47787272150E+02  0.20000005043E+02 0.  0.
        -12    1    1    2    0    0 -0.16588067321E+02 -0.31253956534E+02 -0.25132636181E+02  0.43400727850E+02  0.00000000000E+00 0.  1.
         11    1    3    3    0    0  0.23730241168E+01  0.72442072651E+01  0.13138889723E+02  0.15190135146E+02  0.51100000000E-03 0. -1.
        -11    1    3    3    0    0 -0.89674016968E+00  0.47532553125E+01  0.53934246990E+01  0.72447642641E+01  0.51100000000E-03 0.  1.
        -12    1    3    3    0    0  0.15111783374E+02  0.19256493956E+02  0.66003217591E+01  0.25352372740E+02  0.00000000000E+00 0.  1.
</event>
<event>
 7    1  0.3807360E-011  0.4778727E+02  0.7816164E-02  0.1312668E+00
        -11   -1    0    0    0    0  0.00000000000E+00  0.00000000000E+00  0.45593999997E+02  0.45594000000E+02  0.51100000000E-03 0.  1.
         11   -1    0    0    0    0 -0.00000000000E+00 -0.00000000000E+00 -0.45593999997E+02  0.45594000000E+02  0.51100000000E-03 0. -1.
    9900012    2    1    2    0    0  0.40006482644E+02  0.30326686760E+00 -0.16822981693E+02  0.47787270313E+02  0.19999996665E+02 0.  0.
         12    1    1    2    0    0 -0.40006482644E+02 -0.30326686760E+00  0.16822981693E+02  0.43400729687E+02  0.00000000000E+00 0. -1.
         11    1    3    3    0    0  0.14090619129E+02  0.58702326030E+01 -0.83462488182E+01  0.17397271276E+02  0.51100000000E-03 0.  1.
        -11    1    3    3    0    0  0.72070820678E+01  0.37540587897E+01 -0.98436657538E+00  0.81855951002E+01  0.51100000000E-03 0. -1.
         12    1    3    3    0    0  0.18708781447E+02 -0.93210245251E+01 -0.74923662990E+01  0.22204403937E+02  0.00000000000E+00 0. -1.
</event>
<event>
 7    1  0.3807360E-011  0.4778727E+02  0.7816164E-02  0.1312668E+00
        -11   -1    0    0    0    0  0.00000000000E+00  0.00000000000E+00  0.45593999997E+02  0.45594000000E+02  0.51100000000E-03 0. -1.
         11   -1    0    0    0    0 -0.00000000000E+00 -0.00000000000E+00 -0.45593999997E+02  0.45594000000E+02  0.51100000000E-03 0.  1.
    9900012    2    1    2    0    0  0.29348258795E+02 -0.12262426224E+02  0.29528562158E+02  0.47787269887E+02  0.19999994724E+02 0.  0.
        -12    1    1    2    0    0 -0.29348258795E+02  0.12262426224E+02 -0.29528562158E+02  0.43400730113E+02  0.00000000000E+00 0.  1.
         11    1    3    3    0    0  0.31148163118E+01 -0.53464225218E+01  0.12395824494E+02  0.13854341543E+02  0.51100000000E-03 0. -1.
        -11    1    3    3    0    0  0.85906702013E+00  0.19653698471E+01  0.18472500829E+00  0.21528581864E+01  0.51100000000E-03 0.  1.
        -12    1    3    3    0    0  0.25374375463E+02 -0.88813735490E+01  0.16948012656E+02  0.31780070158E+02  0.00000000000E+00 0.  1.
</event>
<event>
 7    1  0.3807360E-011  0.4778727E+02  0.7816164E-02  0.1312668E+00
        -11   -1    0    0    0    0  0.00000000000E+00  0.00000000000E+00  0.45593999997E+02  0.45594000000E+02  0.51100000000E-03 0. -1.
         11   -1    0    0    0    0 -0.00000000000E+00 -0.00000000000E+00 -0.45593999997E+02  0.45594000000E+02  0.51100000000E-03 0.  1.
    9900012    2    1    2    0    0 -0.26965435827E+02 -0.11951399006E+02 -0.31837911655E+02  0.47787270904E+02  0.19999999360E+02 0.  0.
         12    1    1    2    0    0  0.26965435827E+02  0.11951399006E+02  0.31837911655E+02  0.43400729096E+02  0.00000000000E+00 0. -1.
         11    1    3    3    0    0 -0.26990414018E+01 -0.39785623706E+01 -0.17935783500E+01  0.51313454945E+01  0.51100000000E-03 0. -1.
        -11    1    3    3    0    0 -0.18113590929E+02 -0.33068578481E+01 -0.95229485055E+01  0.20729786147E+02  0.51100000000E-03 0.  1.
         12    1    3    3    0    0 -0.61528034954E+01 -0.46659787868E+01 -0.20521384799E+02  0.21926139263E+02  0.00000000000E+00 0. -1.
</event>
<event>
 7    1  0.6481479E-011  0.4778727E+02  0.7816164E-02  0.1312668E+00
        -11   -1    0    0    0    0  0.00000000000E+00  0.00000000000E+00  0.45593999997E+02  0.45594000000E+02  0.51100000000E-03 0. -1.
         11   -1    0    0    0    0 -0.00000000000E+00 -0.00000000000E+00 -0.45593999997E+02  0.45594000000E+02  0.51100000000E-03 0.  1.
    9900012    2    1    2    0    0  0.82319824830E+01 -0.25076586759E+02 -0.34453197567E+02  0.47787267729E+02  0.19999984883E+02 0.  0.
         12    1    1    2    0    0 -0.82319824830E+01  0.25076586759E+02  0.34453197567E+02  0.43400732271E+02  0.00000000000E+00 0. -1.
         11    1    3    3    0    0  0.23905172801E+01  0.90567811622E+00 -0.11848136431E+02  0.12120774020E+02  0.51100000000E-03 0. -1.
        -11    1    3    3    0    0  0.58607557239E+01 -0.99089409914E+01 -0.96698259210E+01  0.15034663376E+02  0.51100000000E-03 0.  1.
         12    1    3    3    0    0 -0.19290521112E-01 -0.16073323883E+02 -0.12935235216E+02  0.20631830333E+02  0.00000000000E+00 0. -1.
</event>
<event>
 7    1  0.3807360E-011  0.4778727E+02  0.7816164E-02  0.1312668E+00
        -11   -1    0    0    0    0  0.00000000000E+00  0.00000000000E+00  0.45593999997E+02  0.45594000000E+02  0.51100000000E-03 0. -1.
         11   -1    0    0    0    0 -0.00000000000E+00 -0.00000000000E+00 -0.45593999997E+02  0.45594000000E+02  0.51100000000E-03 0.  1.
    9900012    2    1    2    0    0 -0.87234325328E+01 -0.23305779703E+02 -0.35557921491E+02  0.47787269321E+02  0.19999992142E+02 0.  0.
         12    1    1    2    0    0  0.87234325328E+01  0.23305779703E+02  0.35557921491E+02  0.43400730679E+02  0.00000000000E+00 0. -1.
         11    1    3    3    0    0  0.47558542549E+00 -0.23011852055E+01  0.13694924096E+01  0.27197692122E+01  0.51100000000E-03 0. -1.
        -11    1    3    3    0    0  0.38226904122E+00 -0.10464015186E+02 -0.93926432112E+01  0.14066395778E+02  0.51100000000E-03 0.  1.
        -12    1    3    3    0    0 -0.95812869995E+01 -0.10540579312E+02 -0.27534770689E+02  0.31001104330E+02  0.00000000000E+00 0.  1.
</event>
<event>
 7    1  0.3807360E-011  0.4778727E+02  0.7816164E-02  0.1312668E+00
        -11   -1    0    0    0    0  0.00000000000E+00  0.00000000000E+00  0.45593999997E+02  0.45594000000E+02  0.51100000000E-03 0. -1.
         11   -1    0    0    0    0 -0.00000000000E+00 -0.00000000000E+00 -0.45593999997E+02  0.45594000000E+02  0.51100000000E-03 0.  1.
    9900012    2    1    2    0    0 -0.21572920958E+02  0.40445156048E+01  0.37441612083E+02  0.47787270277E+02  0.19999996502E+02 0.  0.
        -12    1    1    2    0    0  0.21572920958E+02 -0.40445156048E+01 -0.37441612083E+02  0.43400729723E+02  0.00000000000E+00 0.  1.
         11    1    3    3    0    0 -0.38355698542E+01  0.37588586225E+01  0.62941469545E+00  0.54071043424E+01  0.51100000000E-03 0.  1.
        -11    1    3    3    0    0 -0.13623611493E+02  0.51399022425E+01  0.23922091419E+02  0.28005139587E+02  0.51100000000E-03 0. -1.
         12    1    3    3    0    0 -0.41137396102E+01 -0.48542452601E+01  0.12890105968E+02  0.14375026348E+02  0.00000000000E+00 0. -1.
</event>
<event>
 7    1  0.3807360E-011  0.4778727E+02  0.7816164E-02  0.1312668E+00
        -11   -1    0    0    0    0  0.00000000000E+00  0.00000000000E+00  0.45593999997E+02  0.45594000000E+02  0.51100000000E-03 0.  1.
         11   -1    0    0    0    0 -0.00000000000E+00 -0.00000000000E+00 -0.45593999997E+02  0.45594000000E+02  0.51100000000E-03 0. -1.
    9900012    2    1    2    0    0  0.23661681038E+02 -0.36138362527E+02  0.42150991092E+01  0.47787268945E+02  0.19999990426E+02 0.  0.
         12    1    1    2    0    0 -0.23661681038E+02  0.36138362527E+02 -0.42150991092E+01  0.43400731055E+02  0.00000000000E+00 0. -1.
         11    1    3    3    0    0  0.25614545510E+01 -0.22918835765E+00  0.12739722004E+01  0.28699446247E+01  0.51100000000E-03 0. -1.
        -11    1    3    3    0    0  0.21514032515E+02 -0.21642725967E+02  0.27928558668E+01  0.30644105901E+02  0.51100000000E-03 0.  1.
         12    1    3    3    0    0 -0.41380602792E+00 -0.14266448202E+02  0.14827104200E+00  0.14273218419E+02  0.00000000000E+00 0. -1.
</event>
<event>
 7    1  0.3807360E-011  0.4778726E+02  0.7816164E-02  0.1312668E+00
        -11   -1    0    0    0    0  0.00000000000E+00  0.00000000000E+00  0.45593999997E+02  0.45594000000E+02  0.51100000000E-03 0. -1.
         11   -1    0    0    0    0 -0.00000000000E+00 -0.00000000000E+00 -0.45593999997E+02  0.45594000000E+02  0.51100000000E-03 0.  1.
    9900012    2    1    2    0    0  0.22397919821E+02  0.14683415289E+02 -0.34151930739E+02  0.47787264176E+02  0.19999968683E+02 0.  0.
         12    1    1    2    0    0 -0.22397919821E+02 -0.14683415289E+02  0.34151930739E+02  0.43400735824E+02  0.00000000000E+00 0. -1.
         11    1    3    3    0    0 -0.12332235688E+01  0.68122342846E+00 -0.16043608343E+01  0.21351533148E+01  0.51100000000E-03 0. -1.
        -11    1    3    3    0    0  0.58304551659E+01  0.10911450495E+02 -0.65650552780E+01  0.14005495722E+02  0.51100000000E-03 0.  1.
         12    1    3    3    0    0  0.17800688224E+02  0.30907413659E+01 -0.25982514627E+02  0.31646615139E+02  0.00000000000E+00 0. -1.
</event>
<event>
 7    1  0.3807360E-011  0.4778727E+02  0.7816164E-02  0.1312668E+00
        -11   -1    0    0    0    0  0.00000000000E+00  0.00000000000E+00  0.45593999997E+02  0.45594000000E+02  0.51100000000E-03 0. -1.
         11   -1    0    0    0    0 -0.00000000000E+00 -0.00000000000E+00 -0.45593999997E+02  0.45594000000E+02  0.51100000000E-03 0.  1.
    9900012    2    1    2    0    0  0.10317851763E+02  0.23548333310E+02 -0.34966284831E+02  0.47787272569E+02  0.20000006952E+02 0.  0.
         12    1    1    2    0    0 -0.10317851763E+02 -0.23548333310E+02  0.34966284831E+02  0.43400727431E+02  0.00000000000E+00 0. -1.
         11    1    3    3    0    0  0.62068508482E+00  0.95371111344E+01 -0.18429700244E+02  0.20760433283E+02  0.51100000000E-03 0. -1.
        -11    1    3    3    0    0  0.65952331399E+00  0.44551499115E+01  0.14615366383E+01  0.47349151357E+01  0.51100000000E-03 0.  1.
         12    1    3    3    0    0  0.90376433642E+01  0.95560722636E+01 -0.17998121225E+02  0.22291924150E+02  0.00000000000E+00 0. -1.
</event>
<event>
 7    1  0.3807360E-011  0.4778729E+02  0.7816164E-02  0.1312668E+00
        -11   -1    0    0    0    0  0.00000000000E+00  0.00000000000E+00  0.45593999997E+02  0.45594000000E+02  0.51100000000E-03 0. -1.
         11   -1    0    0    0    0 -0.00000000000E+00 -0.00000000000E+00 -0.45593999997E+02  0.45594000000E+02  0.51100000000E-03 0.  1.
    9900012    2    1    2    0    0  0.65717866531E+01  0.71110377259E+01  0.42306810028E+02  0.47787292493E+02  0.20000097792E+02 0.  0.
        -12    1    1    2    0    0 -0.65717866531E+01 -0.71110377259E+01 -0.42306810028E+02  0.43400707507E+02  0.00000000000E+00 0.  1.
         11    1    3    3    0    0  0.36780573419E+00  0.68174945497E+01  0.18876766090E+02  0.20073510188E+02  0.51100000000E-03 0. -1.
        -11    1    3    3    0    0 -0.20294272656E+01 -0.47344604719E+01  0.84326879781E+01  0.98814937020E+01  0.51100000000E-03 0.  1.
         12    1    3    3    0    0  0.82334081845E+01  0.50280036481E+01  0.14997355960E+02  0.17832288603E+02  0.00000000000E+00 0. -1.
</event>
<event>
 7    1  0.3807360E-011  0.4778727E+02  0.7816164E-02  0.1312668E+00
        -11   -1    0    0    0    0  0.00000000000E+00  0.00000000000E+00  0.45593999997E+02  0.45594000000E+02  0.51100000000E-03 0. -1.
         11   -1    0    0    0    0 -0.00000000000E+00 -0.00000000000E+00 -0.45593999997E+02  0.45594000000E+02  0.51100000000E-03 0.  1.
    9900012    2    1    2    0    0  0.19327304087E+02  0.77130387947E+01  0.38086579191E+02  0.47787272297E+02  0.20000005709E+02 0.  0.
        -12    1    1    2    0    0 -0.19327304087E+02 -0.77130387947E+01 -0.38086579191E+02  0.43400727703E+02  0.00000000000E+00 0.  1.
         11    1    3    3    0    0  0.57817554034E+01 -0.12486246014E+01  0.19388425309E+02  0.20270638746E+02  0.51100000000E-03 0. -1.
        -11    1    3    3    0    0  0.14023059507E+01  0.75323932155E+01  0.95636182828E+01  0.12254232104E+02  0.51100000000E-03 0.  1.
         12    1    3    3    0    0  0.12143242733E+02  0.14292701807E+01  0.91345355992E+01  0.15262401447E+02  0.00000000000E+00 0. -1.
</event>
<event>
 7    1  0.3807360E-011  0.4778727E+02  0.7816164E-02  0.1312668E+00
        -11   -1    0    0    0    0  0.00000000000E+00  0.00000000000E+00  0.45593999997E+02  0.45594000000E+02  0.51100000000E-03 0. -1.
         11   -1    0    0    0    0 -0.00000000000E+00 -0.00000000000E+00 -0.45593999997E+02  0.45594000000E+02  0.51100000000E-03 0.  1.
    9900012    2    1    2    0    0  0.11609702112E+02  0.28178995223E+02  0.30899551695E+02  0.47787271321E+02  0.20000001263E+02 0.  0.
        -12    1    1    2    0    0 -0.11609702112E+02 -0.28178995223E+02 -0.30899551695E+02  0.43400728679E+02  0.00000000000E+00 0.  1.
         11    1    3    3    0    0  0.54399279167E+01  0.10615499992E+02  0.18266516855E+02  0.21816216311E+02  0.51100000000E-03 0. -1.
        -11    1    3    3    0    0  0.46892492701E+01  0.16168845688E+02  0.15209779630E+02  0.22688279490E+02  0.51100000000E-03 0.  1.
        -12    1    3    3    0    0  0.14805249251E+01  0.13946495436E+01 -0.25767447904E+01  0.32827755205E+01  0.00000000000E+00 0.  1.
</event>
<event>
 7    1  0.3807360E-011  0.4778727E+02  0.7816164E-02  0.1312668E+00
        -11   -1    0    0    0    0  0.00000000000E+00  0.00000000000E+00  0.45593999997E+02  0.45594000000E+02  0.51100000000E-03 0. -1.
         11   -1    0    0    0    0 -0.00000000000E+00 -0.00000000000E+00 -0.45593999997E+02  0.45594000000E+02  0.51100000000E-03 0.  1.
    9900012    2    1    2    0    0  0.26432078854E+01 -0.36182801220E+02  0.23821030802E+02  0.47787272350E+02  0.20000005953E+02 0.  0.
        -12    1    1    2    0    0 -0.26432078854E+01  0.36182801220E+02 -0.23821030802E+02  0.43400727650E+02  0.00000000000E+00 0.  1.
         11    1    3    3    0    0 -0.16421282566E+01 -0.20357866648E+02  0.18467661268E+02  0.27535319730E+02  0.51100000000E-03 0. -1.
        -11    1    3    3    0    0  0.61482591991E+01 -0.61752240709E+01  0.57089905776E+01  0.10417632033E+02  0.51100000000E-03 0.  1.
        -12    1    3    3    0    0 -0.18629230571E+01 -0.96497105014E+01 -0.35562104337E+00  0.98343205868E+01  0.00000000000E+00 0.  1.
</event>
<event>
 7    1  0.3807360E-011  0.4778727E+02  0.7816164E-02  0.1312668E+00
        -11   -1    0    0    0    0  0.00000000000E+00  0.00000000000E+00  0.45593999997E+02  0.45594000000E+02  0.51100000000E-03 0. -1.
         11   -1    0    0    0    0 -0.00000000000E+00 -0.00000000000E+00 -0.45593999997E+02  0.45594000000E+02  0.51100000000E-03 0.  1.
    9900012    2    1    2    0    0 -0.26118254657E+02  0.90744358759E+01  0.33453167486E+02  0.47787273881E+02  0.20000012932E+02 0.  0.
        -12    1    1    2    0    0  0.26118254657E+02 -0.90744358759E+01 -0.33453167486E+02  0.43400726119E+02  0.00000000000E+00 0.  1.
         11    1    3    3    0    0 -0.17016596500E+02  0.81707946535E+01  0.91978015589E+01  0.20998237914E+02  0.51100000000E-03 0. -1.
        -11    1    3    3    0    0 -0.27882139170E+01  0.12499819487E+01  0.19976624783E+01  0.36506502650E+01  0.51100000000E-03 0.  1.
        -12    1    3    3    0    0 -0.63134442406E+01 -0.34634072628E+00  0.22257703449E+02  0.23138385702E+02  0.00000000000E+00 0.  1.
</event>
<event>
 7    1  0.3807360E-011  0.4778727E+02  0.7816164E-02  0.1312668E+00
        -11   -1    0    0    0    0  0.00000000000E+00  0.00000000000E+00  0.45593999997E+02  0.45594000000E+02  0.51100000000E-03 0.  1.
         11   -1    0    0    0    0 -0.00000000000E+00 -0.00000000000E+00 -0.45593999997E+02  0.45594000000E+02  0.51100000000E-03 0. -1.
    9900012    2    1    2    0    0  0.18902110808E+02  0.38373829890E+02 -0.73336886720E+01  0.47787267253E+02  0.19999982713E+02 0.  0.
         12    1    1    2    0    0 -0.18902110808E+02 -0.38373829890E+02  0.73336886720E+01  0.43400732747E+02  0.00000000000E+00 0. -1.
         11    1    3    3    0    0  0.81363147627E+01  0.17291336702E+02 -0.64450796525E+00  0.19120808917E+02  0.51100000000E-03 0.  1.
        -11    1    3    3    0    0 -0.22571245677E+01  0.88342872822E+01 -0.57172934290E+01  0.10762280776E+02  0.51100000000E-03 0. -1.
         12    1    3    3    0    0  0.13022920613E+02  0.12248205906E+02 -0.97188727782E+00  0.17904177560E+02  0.00000000000E+00 0. -1.
</event>
<event>
 7    1  0.3807360E-011  0.4778726E+02  0.7816164E-02  0.1312668E+00
        -11   -1    0    0    0    0  0.00000000000E+00  0.00000000000E+00  0.45593999997E+02  0.45594000000E+02  0.51100000000E-03 0. -1.
         11   -1    0    0    0    0 -0.00000000000E+00 -0.00000000000E+00 -0.45593999997E+02  0.45594000000E+02  0.51100000000E-03 0.  1.
    9900012    2    1    2    0    0 -0.35980794114E+02  0.39009633127E+01 -0.23953894764E+02  0.47787261133E+02  0.19999954811E+02 0.  0.
         12    1    1    2    0    0  0.35980794114E+02 -0.39009633127E+01  0.23953894764E+02  0.43400738867E+02  0.00000000000E+00 0. -1.
         11    1    3    3    0    0 -0.24196739043E+02  0.29815837614E+00 -0.12139262580E+02  0.27072731206E+02  0.51100000000E-03 0. -1.
        -11    1    3    3    0    0 -0.96537579169E+01  0.52206228366E+01 -0.13616840880E+02  0.17489090901E+02  0.51100000000E-03 0.  1.
         12    1    3    3    0    0 -0.21302971540E+01 -0.16178179001E+01  0.18022086970E+01  0.32254390259E+01  0.00000000000E+00 0. -1.
</event>
<event>
 7    1  0.3807360E-011  0.4778727E+02  0.7816164E-02  0.1312668E+00
        -11   -1    0    0    0    0  0.00000000000E+00  0.00000000000E+00  0.45593999997E+02  0.45594000000E+02  0.51100000000E-03 0. -1.
         11   -1    0    0    0    0 -0.00000000000E+00 -0.00000000000E+00 -0.45593999997E+02  0.45594000000E+02  0.51100000000E-03 0.  1.
    9900012    2    1    2    0    0 -0.36198824885E+02 -0.73288962612E+01  0.22793769491E+02  0.47787267620E+02  0.19999984387E+02 0.  0.
        -12    1    1    2    0    0  0.36198824885E+02  0.73288962612E+01 -0.22793769491E+02  0.43400732380E+02  0.00000000000E+00 0.  1.
         11    1    3    3    0    0  0.51238714304E-01  0.17313196608E+01  0.10132177139E+01  0.20066647877E+01  0.51100000000E-03 0. -1.
        -11    1    3    3    0    0 -0.37730005695E+02 -0.88897932160E+01  0.20733742720E+02  0.43959866249E+02  0.51100000000E-03 0.  1.
        -12    1    3    3    0    0  0.14799420954E+01 -0.17042270590E+00  0.10468090579E+01  0.18207365839E+01  0.00000000000E+00 0.  1.
</event>
<event>
 7    1  0.3807360E-011  0.4778727E+02  0.7816164E-02  0.1312668E+00
        -11   -1    0    0    0    0  0.00000000000E+00  0.00000000000E+00  0.45593999997E+02  0.45594000000E+02  0.51100000000E-03 0.  1.
         11   -1    0    0    0    0 -0.00000000000E+00 -0.00000000000E+00 -0.45593999997E+02  0.45594000000E+02  0.51100000000E-03 0. -1.
    9900012    2    1    2    0    0  0.42901756694E+01  0.43004935346E+02  0.39740369985E+01  0.47787273722E+02  0.20000012210E+02 0.  0.
        -12    1    1    2    0    0 -0.42901756694E+01 -0.43004935346E+02 -0.39740369985E+01  0.43400726278E+02  0.00000000000E+00 0.  1.
         11    1    3    3    0    0  0.60495601521E+01  0.18126601865E+02 -0.12289340139E+01  0.19148920395E+02  0.51100000000E-03 0. -1.
        -11    1    3    3    0    0  0.31241868044E+01  0.14577010320E+01 -0.15489043507E+01  0.37794894413E+01  0.51100000000E-03 0.  1.
        -12    1    3    3    0    0 -0.48835712872E+01  0.23420632449E+02  0.67518753631E+01  0.24858863886E+02  0.00000000000E+00 0.  1.
</event>
<event>
 7    1  0.3807360E-011  0.4778727E+02  0.7816164E-02  0.1312668E+00
        -11   -1    0    0    0    0  0.00000000000E+00  0.00000000000E+00  0.45593999997E+02  0.45594000000E+02  0.51100000000E-03 0. -1.
         11   -1    0    0    0    0 -0.00000000000E+00 -0.00000000000E+00 -0.45593999997E+02  0.45594000000E+02  0.51100000000E-03 0.  1.
    9900012    2    1    2    0    0 -0.73091307845E+01  0.50965659627E+01 -0.42476168884E+02  0.47787270738E+02  0.19999998604E+02 0.  0.
         12    1    1    2    0    0  0.73091307845E+01 -0.50965659627E+01  0.42476168884E+02  0.43400729262E+02  0.00000000000E+00 0. -1.
         11    1    3    3    0    0 -0.54771130828E+01 -0.31262548381E+01 -0.13991643942E+02  0.15347258306E+02  0.51100000000E-03 0. -1.
        -11    1    3    3    0    0 -0.25983064733E+01  0.71056795952E+01 -0.29682523753E+02  0.30631586568E+02  0.51100000000E-03 0.  1.
        -12    1    3    3    0    0  0.76628877160E+00  0.11171412056E+01  0.11979988119E+01  0.18084258647E+01  0.00000000000E+00 0.  1.
</event>
<event>
 7    1  0.3807360E-011  0.4778728E+02  0.7816164E-02  0.1312668E+00
        -11   -1    0    0    0    0  0.00000000000E+00  0.00000000000E+00  0.45593999997E+02  0.45594000000E+02  0.51100000000E-03 0. -1.
         11   -1    0    0    0    0 -0.00000000000E+00 -0.00000000000E+00 -0.45593999997E+02  0.45594000000E+02  0.51100000000E-03 0.  1.
    9900012    2    1    2    0    0  0.19260873892E+02  0.19411821122E+01 -0.38844218159E+02  0.47787277248E+02  0.20000028283E+02 0.  0.
         12    1    1    2    0    0 -0.19260873892E+02 -0.19411821122E+01  0.38844218159E+02  0.43400722752E+02  0.00000000000E+00 0. -1.
         11    1    3    3    0    0  0.37881397824E+01 -0.67821162738E+01 -0.68810146170E+01  0.10377642631E+02  0.51100000000E-03 0. -1.
        -11    1    3    3    0    0  0.12653546717E+01  0.30196443977E+01 -0.10828008393E+02  0.11312167818E+02  0.51100000000E-03 0.  1.
        -12    1    3    3    0    0  0.14207379437E+02  0.57036539883E+01 -0.21135195149E+02  0.26097466798E+02  0.00000000000E+00 0.  1.
</event>
<event>
 7    1  0.6054805E-011  0.4778727E+02  0.7816164E-02  0.1312668E+00
        -11   -1    0    0    0    0  0.00000000000E+00  0.00000000000E+00  0.45593999997E+02  0.45594000000E+02  0.51100000000E-03 0. -1.
         11   -1    0    0    0    0 -0.00000000000E+00 -0.00000000000E+00 -0.45593999997E+02  0.45594000000E+02  0.51100000000E-03 0.  1.
    9900012    2    1    2    0    0 -0.20577435581E+02  0.19999735892E+02 -0.32560760767E+02  0.47787269216E+02  0.19999991664E+02 0.  0.
         12    1    1    2    0    0  0.20577435581E+02 -0.19999735892E+02  0.32560760767E+02  0.43400730784E+02  0.00000000000E+00 0. -1.
         11    1    3    3    0    0 -0.27053213209E+00  0.21039040731E+01  0.24866140554E+01  0.32684628964E+01  0.51100000000E-03 0. -1.
        -11    1    3    3    0    0 -0.71947976703E+01  0.35953173700E+01 -0.10729867854E+02  0.13409753351E+02  0.51100000000E-03 0.  1.
         12    1    3    3    0    0 -0.13112105778E+02  0.14300514449E+02 -0.24317506968E+02  0.31109052968E+02  0.00000000000E+00 0. -1.
</event>
<event>
 7    1  0.3807360E-011  0.4778727E+02  0.7816164E-02  0.1312668E+00
        -11   -1    0    0    0    0  0.00000000000E+00  0.00000000000E+00  0.45593999997E+02  0.45594000000E+02  0.51100000000E-03 0. -1.
         11   -1    0    0    0    0 -0.00000000000E+00 -0.00000000000E+00 -0.45593999997E+02  0.45594000000E+02  0.51100000000E-03 0.  1.
    9900012    2    1    2    0    0  0.31299006918E+02 -0.23042660768E+02  0.19314020888E+02  0.47787268990E+02  0.19999990633E+02 0.  0.
        -12    1    1    2    0    0 -0.31299006918E+02  0.23042660768E+02 -0.19314020888E+02  0.43400731010E+02  0.00000000000E+00 0.  1.
         11    1    3    3    0    0  0.13811853900E+02 -0.19952119352E+01  0.40881553685E+01  0.14541705312E+02  0.51100000000E-03 0. -1.
        -11    1    3    3    0    0 -0.89314974449E+00 -0.12471846873E+01  0.34472810729E+01  0.37731860764E+01  0.51100000000E-03 0.  1.
         12    1    3    3    0    0  0.18380302763E+02 -0.19800264146E+02  0.11778584447E+02  0.29472377601E+02  0.00000000000E+00 0. -1.
</event>
<event>
 7    1  0.3807360E-011  0.4778726E+02  0.7816164E-02  0.1312668E+00
        -11   -1    0    0    0    0  0.00000000000E+00  0.00000000000E+00  0.45593999997E+02  0.45594000000E+02  0.51100000000E-03 0. -1.
         11   -1    0    0    0    0 -0.00000000000E+00 -0.00000000000E+00 -0.45593999997E+02  0.45594000000E+02  0.51100000000E-03 0.  1.
    9900012    2    1    2    0    0 -0.19674786980E+01  0.26800498447E+02  0.34080582659E+02  0.47787264939E+02  0.19999972164E+02 0.  0.
        -12    1    1    2    0    0  0.19674786980E+01 -0.26800498447E+02 -0.34080582659E+02  0.43400735061E+02  0.00000000000E+00 0.  1.
         11    1    3    3    0    0 -0.69183637264E+00  0.17000825496E+02  0.20742858144E+02  0.26828583066E+02  0.51100000000E-03 0. -1.
        -11    1    3    3    0    0  0.14766298132E+01  0.74353311779E+01  0.47656700381E+00  0.75955053618E+01  0.51100000000E-03 0.  1.
         12    1    3    3    0    0 -0.27522721385E+01  0.23643417740E+01  0.12861157511E+02  0.13363176511E+02  0.00000000000E+00 0. -1.
</event>
<event>
 7    1  0.3807360E-011  0.4778727E+02  0.7816164E-02  0.1312668E+00
        -11   -1    0    0    0    0  0.00000000000E+00  0.00000000000E+00  0.45593999997E+02  0.45594000000E+02  0.51100000000E-03 0. -1.
         11   -1    0    0    0    0 -0.00000000000E+00 -0.00000000000E+00 -0.45593999997E+02  0.45594000000E+02  0.51100000000E-03 0.  1.
    9900012    2    1    2    0    0 -0.30106962653E+02  0.10997338020E+02  0.29261796483E+02  0.47787269855E+02  0.19999994576E+02 0.  0.
        -12    1    1    2    0    0  0.30106962653E+02 -0.10997338020E+02 -0.29261796483E+02  0.43400730145E+02  0.00000000000E+00 0.  1.
         11    1    3    3    0    0 -0.10052593619E+02 -0.18480482551E+01  0.69937628924E+01  0.12384774542E+02  0.51100000000E-03 0. -1.
        -11    1    3    3    0    0  0.18853401047E+00  0.55427741507E+01  0.73931865778E+01  0.92421371119E+01  0.51100000000E-03 0.  1.
         12    1    3    3    0    0 -0.20242903045E+02  0.73026121249E+01  0.14874847013E+02  0.26160358201E+02  0.00000000000E+00 0. -1.
</event>
<event>
 7    1  0.3807360E-011  0.4778728E+02  0.7816164E-02  0.1312668E+00
        -11   -1    0    0    0    0  0.00000000000E+00  0.00000000000E+00  0.45593999997E+02  0.45594000000E+02  0.51100000000E-03 0. -1.
         11   -1    0    0    0    0 -0.00000000000E+00 -0.00000000000E+00 -0.45593999997E+02  0.45594000000E+02  0.51100000000E-03 0.  1.
    9900012    2    1    2    0    0 -0.52135176882E+01 -0.37558601002E+02 -0.21113824139E+02  0.47787275978E+02  0.20000022492E+02 0.  0.
         12    1    1    2    0    0  0.52135176882E+01  0.37558601002E+02  0.21113824139E+02  0.43400724022E+02  0.00000000000E+00 0. -1.
         11    1    3    3    0    0  0.80525231087E+00 -0.14183618934E+02 -0.15503767006E+02  0.21028320641E+02  0.51100000000E-03 0. -1.
        -11    1    3    3    0    0  0.65533076632E+00  0.62173890381E+00  0.60560776461E+00  0.10875562990E+01  0.51100000000E-03 0.  1.
        -12    1    3    3    0    0 -0.66741007654E+01 -0.23996720972E+02 -0.62156648972E+01  0.25671399037E+02  0.00000000000E+00 0.  1.
</event>
<event>
 7    1  0.3807360E-011  0.4778727E+02  0.7816164E-02  0.1312668E+00
        -11   -1    0    0    0    0  0.00000000000E+00  0.00000000000E+00  0.45593999997E+02  0.45594000000E+02  0.51100000000E-03 0. -1.
         11   -1    0    0    0    0 -0.00000000000E+00 -0.00000000000E+00 -0.45593999997E+02  0.45594000000E+02  0.51100000000E-03 0.  1.
    9900012    2    1    2    0    0  0.43974363013E+01  0.19985383111E+02  0.38273623305E+02  0.47787271608E+02  0.20000002568E+02 0.  0.
        -12    1    1    2    0    0 -0.43974363013E+01 -0.19985383111E+02 -0.38273623305E+02  0.43400728392E+02  0.00000000000E+00 0.  1.
         11    1    3    3    0    0 -0.59105984634E+00  0.53700623551E+01  0.16498957180E+02  0.17360947835E+02  0.51100000000E-03 0. -1.
        -11    1    3    3    0    0 -0.32561123460E+01  0.48343166317E+01  0.83466844655E+00  0.58880859863E+01  0.51100000000E-03 0.  1.
         12    1    3    3    0    0  0.82446084936E+01  0.97810041238E+01  0.20939997678E+02  0.24538237786E+02  0.00000000000E+00 0. -1.
</event>
<event>
 7    1  0.3807360E-011  0.4778727E+02  0.7816164E-02  0.1312668E+00
        -11   -1    0    0    0    0  0.00000000000E+00  0.00000000000E+00  0.45593999997E+02  0.45594000000E+02  0.51100000000E-03 0. -1.
         11   -1    0    0    0    0 -0.00000000000E+00 -0.00000000000E+00 -0.45593999997E+02  0.45594000000E+02  0.51100000000E-03 0.  1.
    9900012    2    1    2    0    0 -0.33078617305E+02 -0.12590885230E+02  0.25117679203E+02  0.47787272792E+02  0.20000007967E+02 0.  0.
        -12    1    1    2    0    0  0.33078617305E+02  0.12590885230E+02 -0.25117679203E+02  0.43400727208E+02  0.00000000000E+00 0.  1.
         11    1    3    3    0    0 -0.11248945354E+02 -0.77132943898E+01  0.79911350210E+01  0.15807970177E+02  0.51100000000E-03 0. -1.
        -11    1    3    3    0    0 -0.33149304321E+01  0.45897867722E+01  0.65217921239E+01  0.86364737684E+01  0.51100000000E-03 0.  1.
        -12    1    3    3    0    0 -0.18514741518E+02 -0.94673776124E+01  0.10604752058E+02  0.23342828847E+02  0.00000000000E+00 0.  1.
</event>
<event>
 7    1  0.3807360E-011  0.4778727E+02  0.7816164E-02  0.1312668E+00
        -11   -1    0    0    0    0  0.00000000000E+00  0.00000000000E+00  0.45593999997E+02  0.45594000000E+02  0.51100000000E-03 0. -1.
         11   -1    0    0    0    0 -0.00000000000E+00 -0.00000000000E+00 -0.45593999997E+02  0.45594000000E+02  0.51100000000E-03 0.  1.
    9900012    2    1    2    0    0 -0.11497137679E+01 -0.16438934972E+02  0.40150501498E+02  0.47787271949E+02  0.20000004125E+02 0.  0.
        -12    1    1    2    0    0  0.11497137679E+01  0.16438934972E+02 -0.40150501498E+02  0.43400728051E+02  0.00000000000E+00 0.  1.
         11    1    3    3    0    0 -0.51920798558E+01 -0.34959762802E+00  0.22951993907E+02  0.23534526473E+02  0.51100000000E-03 0. -1.
        -11    1    3    3    0    0 -0.35234816313E-01 -0.75225191652E+01  0.88475309161E+01  0.11613282897E+02  0.51100000000E-03 0.  1.
        -12    1    3    3    0    0  0.40776009042E+01 -0.85668181791E+01  0.83509766749E+01  0.12639462578E+02  0.00000000000E+00 0.  1.
</event>
<event>
 7    1  0.3807360E-011  0.4778728E+02  0.7816164E-02  0.1312668E+00
        -11   -1    0    0    0    0  0.00000000000E+00  0.00000000000E+00  0.45593999997E+02  0.45594000000E+02  0.51100000000E-03 0. -1.
         11   -1    0    0    0    0 -0.00000000000E+00 -0.00000000000E+00 -0.45593999997E+02  0.45594000000E+02  0.51100000000E-03 0.  1.
    9900012    2    1    2    0    0  0.22021258314E+02  0.84557929254E+01  0.36430573357E+02  0.47787275042E+02  0.20000018227E+02 0.  0.
        -12    1    1    2    0    0 -0.22021258314E+02 -0.84557929254E+01 -0.36430573357E+02  0.43400724958E+02  0.00000000000E+00 0.  1.
         11    1    3    3    0    0  0.10041004512E+02  0.82799337247E+01  0.28591855630E+02  0.31414539352E+02  0.51100000000E-03 0. -1.
        -11    1    3    3    0    0  0.13525004819E+01  0.21130583567E+01 -0.69788363655E+00  0.26040958131E+01  0.51100000000E-03 0.  1.
        -12    1    3    3    0    0  0.10627753321E+02 -0.19371991560E+01  0.85366013639E+01  0.13768639877E+02  0.00000000000E+00 0.  1.
</event>
<event>
 7    1  0.3807360E-011  0.4778727E+02  0.7816164E-02  0.1312668E+00
        -11   -1    0    0    0    0  0.00000000000E+00  0.00000000000E+00  0.45593999997E+02  0.45594000000E+02  0.51100000000E-03 0. -1.
         11   -1    0    0    0    0 -0.00000000000E+00 -0.00000000000E+00 -0.45593999997E+02  0.45594000000E+02  0.51100000000E-03 0.  1.
    9900012    2    1    2    0    0  0.12111859352E+02  0.33190791686E+02  0.25205112078E+02  0.47787268848E+02  0.19999989986E+02 0.  0.
        -12    1    1    2    0    0 -0.12111859352E+02 -0.33190791686E+02 -0.25205112078E+02  0.43400731152E+02  0.00000000000E+00 0.  1.
         11    1    3    3    0    0  0.69702843519E+00  0.20122686385E+01 -0.21908989492E+01  0.30553415815E+01  0.51100000000E-03 0. -1.
        -11    1    3    3    0    0  0.69354394910E+01  0.19225743788E+02  0.23999730614E+02  0.31523271007E+02  0.51100000000E-03 0.  1.
         12    1    3    3    0    0  0.44793914255E+01  0.11952779259E+02  0.33962804127E+01  0.13208656260E+02  0.00000000000E+00 0. -1.
</event>
<event>
 7    1  0.3807360E-011  0.4778727E+02  0.7816164E-02  0.1312668E+00
        -11   -1    0    0    0    0  0.00000000000E+00  0.00000000000E+00  0.45593999997E+02  0.45594000000E+02  0.51100000000E-03 0. -1.
         11   -1    0    0    0    0 -0.00000000000E+00 -0.00000000000E+00 -0.45593999997E+02  0.45594000000E+02  0.51100000000E-03 0.  1.
    9900012    2    1    2    0    0  0.23110690563E+02  0.23339048169E+02  0.28369141275E+02  0.47787270001E+02  0.19999995245E+02 0.  0.
        -12    1    1    2    0    0 -0.23110690563E+02 -0.23339048169E+02 -0.28369141275E+02  0.43400729999E+02  0.00000000000E+00 0.  1.
         11    1    3    3    0    0  0.14620353167E+01  0.41645357154E+01  0.10648376807E+02  0.11526874419E+02  0.51100000000E-03 0. -1.
        -11    1    3    3    0    0  0.16884843280E+01  0.91308724171E+01  0.49111298204E+01  0.10504427961E+02  0.51100000000E-03 0.  1.
         12    1    3    3    0    0  0.19960170919E+02  0.10043640036E+02  0.12809634647E+02  0.25755967621E+02  0.00000000000E+00 0. -1.
</event>
<event>
 7    1  0.3807360E-011  0.4778730E+02  0.7816164E-02  0.1312668E+00
        -11   -1    0    0    0    0  0.00000000000E+00  0.00000000000E+00  0.45593999997E+02  0.45594000000E+02  0.51100000000E-03 0. -1.
         11   -1    0    0    0    0 -0.00000000000E+00 -0.00000000000E+00 -0.45593999997E+02  0.45594000000E+02  0.51100000000E-03 0.  1.
    9900012    2    1    2    0    0  0.13114885440E+02 -0.25117407188E+02  0.32874549313E+02  0.47787304654E+02  0.20000153241E+02 0.  0.
        -12    1    1    2    0    0 -0.13114885440E+02  0.25117407188E+02 -0.32874549313E+02  0.43400695346E+02  0.00000000000E+00 0.  1.
         11    1    3    3    0    0  0.45020488098E+01 -0.73637929973E+00  0.67287330874E+00  0.46112315827E+01  0.51100000000E-03 0. -1.
        -11    1    3    3    0    0 -0.19781958725E+01 -0.48772545974E+01  0.12248985138E+02  0.13331860654E+02  0.51100000000E-03 0.  1.
        -12    1    3    3    0    0  0.10591032502E+02 -0.19503773290E+02  0.19952690866E+02  0.29844212418E+02  0.00000000000E+00 0.  1.
</event>
<event>
 7    1  0.3807360E-011  0.4778727E+02  0.7816164E-02  0.1312668E+00
        -11   -1    0    0    0    0  0.00000000000E+00  0.00000000000E+00  0.45593999997E+02  0.45594000000E+02  0.51100000000E-03 0. -1.
         11   -1    0    0    0    0 -0.00000000000E+00 -0.00000000000E+00 -0.45593999997E+02  0.45594000000E+02  0.51100000000E-03 0.  1.
    9900012    2    1    2    0    0 -0.18856975485E+02 -0.16559882209E+02 -0.35409153626E+02  0.47787269778E+02  0.19999994228E+02 0.  0.
         12    1    1    2    0    0  0.18856975485E+02  0.16559882209E+02  0.35409153626E+02  0.43400730222E+02  0.00000000000E+00 0. -1.
         11    1    3    3    0    0 -0.62489906163E+01 -0.66136817643E+01 -0.63957391884E+00  0.91213883407E+01  0.51100000000E-03 0. -1.
        -11    1    3    3    0    0 -0.25262531034E+01 -0.51609822210E+01 -0.12436019894E+02  0.13699353389E+02  0.51100000000E-03 0.  1.
         12    1    3    3    0    0 -0.10081731765E+02 -0.47852182242E+01 -0.22333559814E+02  0.24966528048E+02  0.00000000000E+00 0. -1.
</event>
<event>
 7    1  0.3807360E-011  0.4778727E+02  0.7816164E-02  0.1312668E+00
        -11   -1    0    0    0    0  0.00000000000E+00  0.00000000000E+00  0.45593999997E+02  0.45594000000E+02  0.51100000000E-03 0. -1.
         11   -1    0    0    0    0 -0.00000000000E+00 -0.00000000000E+00 -0.45593999997E+02  0.45594000000E+02  0.51100000000E-03 0.  1.
    9900012    2    1    2    0    0  0.79026656802E+01 -0.32581996673E+02 -0.27560558792E+02  0.47787273819E+02  0.20000012652E+02 0.  0.
         12    1    1    2    0    0 -0.79026656802E+01  0.32581996673E+02  0.27560558792E+02  0.43400726181E+02  0.00000000000E+00 0. -1.
         11    1    3    3    0    0  0.78365388101E+01 -0.23698778749E+02 -0.12361396977E+02  0.27854040824E+02  0.51100000000E-03 0.  1.
        -11    1    3    3    0    0  0.44791374169E+01 -0.28195202782E+01 -0.75558128709E+01  0.92251111104E+01  0.51100000000E-03 0. -1.
         12    1    3    3    0    0 -0.44130105468E+01 -0.60636976459E+01 -0.76433489439E+01  0.10708121885E+02  0.00000000000E+00 0. -1.
</event>
<event>
 7    1  0.3807360E-011  0.4778728E+02  0.7816164E-02  0.1312668E+00
        -11   -1    0    0    0    0  0.00000000000E+00  0.00000000000E+00  0.45593999997E+02  0.45594000000E+02  0.51100000000E-03 0. -1.
         11   -1    0    0    0    0 -0.00000000000E+00 -0.00000000000E+00 -0.45593999997E+02  0.45594000000E+02  0.51100000000E-03 0.  1.
    9900012    2    1    2    0    0 -0.41865463674E+02 -0.91937536868E+01  0.68103176477E+01  0.47787279016E+02  0.20000036345E+02 0.  0.
        -12    1    1    2    0    0  0.41865463674E+02  0.91937536868E+01 -0.68103176477E+01  0.43400720984E+02  0.00000000000E+00 0.  1.
         11    1    3    3    0    0 -0.15553360840E+02  0.28722944833E+01  0.18477745951E+01  0.15923924775E+02  0.51100000000E-03 0.  1.
        -11    1    3    3    0    0  0.67806371943E+00  0.91897534111E+00  0.12331732527E+01  0.16807744101E+01  0.51100000000E-03 0. -1.
         12    1    3    3    0    0 -0.26990166553E+02 -0.12985023511E+02  0.37293697998E+01  0.30182579831E+02  0.00000000000E+00 0. -1.
</event>
<event>
 7    1  0.3807360E-011  0.4778727E+02  0.7816164E-02  0.1312668E+00
        -11   -1    0    0    0    0  0.00000000000E+00  0.00000000000E+00  0.45593999997E+02  0.45594000000E+02  0.51100000000E-03 0.  1.
         11   -1    0    0    0    0 -0.00000000000E+00 -0.00000000000E+00 -0.45593999997E+02  0.45594000000E+02  0.51100000000E-03 0. -1.
    9900012    2    1    2    0    0 -0.36477275177E+01  0.41940306088E+02  0.10551226965E+02  0.47787267503E+02  0.19999983855E+02 0.  0.
         12    1    1    2    0    0  0.36477275177E+01 -0.41940306088E+02 -0.10551226965E+02  0.43400732497E+02  0.00000000000E+00 0. -1.
         11    1    3    3    0    0 -0.94300404056E+01  0.28896559970E+02  0.59745588236E+01  0.30977930750E+02  0.51100000000E-03 0.  1.
        -11    1    3    3    0    0  0.39390057448E+01  0.12620112149E+02  0.16477803998E+01  0.13322844194E+02  0.51100000000E-03 0. -1.
        -12    1    3    3    0    0  0.18433071431E+01  0.42363396868E+00  0.29288877418E+01  0.34864925594E+01  0.00000000000E+00 0.  1.
</event>
<event>
 7    1  0.3807360E-011  0.4778727E+02  0.7816164E-02  0.1312668E+00
        -11   -1    0    0    0    0  0.00000000000E+00  0.00000000000E+00  0.45593999997E+02  0.45594000000E+02  0.51100000000E-03 0. -1.
         11   -1    0    0    0    0 -0.00000000000E+00 -0.00000000000E+00 -0.45593999997E+02  0.45594000000E+02  0.51100000000E-03 0.  1.
    9900012    2    1    2    0    0  0.16307585662E+01 -0.11057220724E+02  0.41936877604E+02  0.47787271817E+02  0.20000003522E+02 0.  0.
        -12    1    1    2    0    0 -0.16307585662E+01  0.11057220724E+02 -0.41936877604E+02  0.43400728183E+02  0.00000000000E+00 0.  1.
         11    1    3    3    0    0 -0.11334540922E+01  0.43865148500E+01  0.56255542801E+01  0.72230943458E+01  0.51100000000E-03 0. -1.
        -11    1    3    3    0    0 -0.32280221765E+01 -0.71759245064E+01  0.15505519014E+02  0.17387787089E+02  0.51100000000E-03 0.  1.
        -12    1    3    3    0    0  0.59922348349E+01 -0.82678110676E+01  0.20805804310E+02  0.23176390382E+02  0.00000000000E+00 0.  1.
</event>
<event>
 7    1  0.3807360E-011  0.4778728E+02  0.7816164E-02  0.1312668E+00
        -11   -1    0    0    0    0  0.00000000000E+00  0.00000000000E+00  0.45593999997E+02  0.45594000000E+02  0.51100000000E-03 0. -1.
         11   -1    0    0    0    0 -0.00000000000E+00 -0.00000000000E+00 -0.45593999997E+02  0.45594000000E+02  0.51100000000E-03 0.  1.
    9900012    2    1    2    0    0 -0.39036949833E+01  0.33494091932E+02 -0.27322687446E+02  0.47787282516E+02  0.20000052302E+02 0.  0.
         12    1    1    2    0    0  0.39036949833E+01 -0.33494091932E+02  0.27322687446E+02  0.43400717484E+02  0.00000000000E+00 0. -1.
         11    1    3    3    0    0  0.20257784690E+00  0.19068649576E+01 -0.33770975587E+01  0.38835499137E+01  0.51100000000E-03 0. -1.
        -11    1    3    3    0    0 -0.47840475294E+01  0.72390691170E+01 -0.16142472248E+02  0.18326773938E+02  0.51100000000E-03 0.  1.
         12    1    3    3    0    0  0.67777469921E+00  0.24348157858E+02 -0.78031176393E+01  0.25576958664E+02  0.00000000000E+00 0. -1.
</event>
<event>
 7    1  0.3807360E-011  0.4778728E+02  0.7816164E-02  0.1312668E+00
        -11   -1    0    0    0    0  0.00000000000E+00  0.00000000000E+00  0.45593999997E+02  0.45594000000E+02  0.51100000000E-03 0. -1.
         11   -1    0    0    0    0 -0.00000000000E+00 -0.00000000000E+00 -0.45593999997E+02  0.45594000000E+02  0.51100000000E-03 0.  1.
    9900012    2    1    2    0    0  0.20161046203E+02  0.67289487918E+01  0.37840138425E+02  0.47787278671E+02  0.20000034774E+02 0.  0.
        -12    1    1    2    0    0 -0.20161046203E+02 -0.67289487918E+01 -0.37840138425E+02  0.43400721329E+02  0.00000000000E+00 0.  1.
         11    1    3    3    0    0  0.51878084668E+00  0.54161243027E+01  0.39724448243E+01  0.67367539789E+01  0.51100000000E-03 0. -1.
        -11    1    3    3    0    0  0.10051351569E+02 -0.27397721359E+01  0.79044010835E+01  0.13077292398E+02  0.51100000000E-03 0.  1.
        -12    1    3    3    0    0  0.95909137879E+01  0.40525966250E+01  0.25963292517E+02  0.27973232295E+02  0.00000000000E+00 0.  1.
</event>
<event>
 7    1  0.3807360E-011  0.4778727E+02  0.7816164E-02  0.1312668E+00
        -11   -1    0    0    0    0  0.00000000000E+00  0.00000000000E+00  0.45593999997E+02  0.45594000000E+02  0.51100000000E-03 0. -1.
         11   -1    0    0    0    0 -0.00000000000E+00 -0.00000000000E+00 -0.45593999997E+02  0.45594000000E+02  0.51100000000E-03 0.  1.
    9900012    2    1    2    0    0 -0.17734762719E+02 -0.15270357699E+02 -0.36550205526E+02  0.47787272391E+02  0.20000006139E+02 0.  0.
         12    1    1    2    0    0  0.17734762719E+02  0.15270357699E+02  0.36550205526E+02  0.43400727609E+02  0.00000000000E+00 0. -1.
         11    1    3    3    0    0 -0.42201287324E+01 -0.65288907997E+01 -0.24907868282E+01  0.81633278066E+01  0.51100000000E-03 0. -1.
        -11    1    3    3    0    0  0.58158765198E-01 -0.39859530162E+01 -0.16254350352E+02  0.16736042229E+02  0.51100000000E-03 0.  1.
         12    1    3    3    0    0 -0.13572792752E+02 -0.47555138830E+01 -0.17805068347E+02  0.22887902355E+02  0.00000000000E+00 0. -1.
</event>
<event>
 7    1  0.3807360E-011  0.4778727E+02  0.7816164E-02  0.1312668E+00
        -11   -1    0    0    0    0  0.00000000000E+00  0.00000000000E+00  0.45593999997E+02  0.45594000000E+02  0.51100000000E-03 0. -1.
         11   -1    0    0    0    0 -0.00000000000E+00 -0.00000000000E+00 -0.45593999997E+02  0.45594000000E+02  0.51100000000E-03 0.  1.
    9900012    2    1    2    0    0  0.30290317753E+01 -0.13284417194E+02  0.41206462189E+02  0.47787270746E+02  0.19999998638E+02 0.  0.
        -12    1    1    2    0    0 -0.30290317753E+01  0.13284417194E+02 -0.41206462189E+02  0.43400729254E+02  0.00000000000E+00 0.  1.
         11    1    3    3    0    0 -0.46613796409E+00  0.49688784393E+01  0.13694225202E+02  0.14575281873E+02  0.51100000000E-03 0.  1.
        -11    1    3    3    0    0  0.13477079870E+01 -0.50590801764E+01  0.76075658197E+01  0.92350239313E+01  0.51100000000E-03 0. -1.
        -12    1    3    3    0    0  0.21474617523E+01 -0.13194215457E+02  0.19904671167E+02  0.23976964941E+02  0.00000000000E+00 0.  1.
</event>
<event>
 7    1  0.3807360E-011  0.4778729E+02  0.7816164E-02  0.1312668E+00
        -11   -1    0    0    0    0  0.00000000000E+00  0.00000000000E+00  0.45593999997E+02  0.45594000000E+02  0.51100000000E-03 0. -1.
         11   -1    0    0    0    0 -0.00000000000E+00 -0.00000000000E+00 -0.45593999997E+02  0.45594000000E+02  0.51100000000E-03 0.  1.
    9900012    2    1    2    0    0  0.96632301515E+01  0.25035404786E+02  0.34109702440E+02  0.47787293666E+02  0.20000103139E+02 0.  0.
        -12    1    1    2    0    0 -0.96632301515E+01 -0.25035404786E+02 -0.34109702440E+02  0.43400706334E+02  0.00000000000E+00 0.  1.
         11    1    3    3    0    0  0.21696437085E+01  0.10230879965E+02  0.17822592783E+01  0.10609180321E+02  0.51100000000E-03 0. -1.
        -11    1    3    3    0    0  0.10116283169E+01  0.16151433909E+01  0.11680940711E+02  0.11835389989E+02  0.51100000000E-03 0.  1.
         12    1    3    3    0    0  0.64819581261E+01  0.13189381430E+02  0.20646502450E+02  0.25342723356E+02  0.00000000000E+00 0. -1.
</event>
<event>
 7    1  0.3807360E-011  0.4778727E+02  0.7816164E-02  0.1312668E+00
        -11   -1    0    0    0    0  0.00000000000E+00  0.00000000000E+00  0.45593999997E+02  0.45594000000E+02  0.51100000000E-03 0. -1.
         11   -1    0    0    0    0 -0.00000000000E+00 -0.00000000000E+00 -0.45593999997E+02  0.45594000000E+02  0.51100000000E-03 0.  1.
    9900012    2    1    2    0    0 -0.92401908930E+01  0.37141603195E+02 -0.20463223429E+02  0.47787270412E+02  0.19999997117E+02 0.  0.
         12    1    1    2    0    0  0.92401908930E+01 -0.37141603195E+02  0.20463223429E+02  0.43400729588E+02  0.00000000000E+00 0. -1.
         11    1    3    3    0    0  0.12357735173E+01  0.17621484805E+02 -0.37135072634E+01  0.18050872538E+02  0.51100000000E-03 0. -1.
        -11    1    3    3    0    0 -0.71232982217E+01  0.19805838456E+02 -0.15530943571E+02  0.26157653238E+02  0.51100000000E-03 0.  1.
         12    1    3    3    0    0 -0.33526661886E+01 -0.28572006565E+00 -0.12187725946E+01  0.35787446354E+01  0.00000000000E+00 0. -1.
</event>
<event>
 7    1  0.3807360E-011  0.4778727E+02  0.7816164E-02  0.1312668E+00
        -11   -1    0    0    0    0  0.00000000000E+00  0.00000000000E+00  0.45593999997E+02  0.45594000000E+02  0.51100000000E-03 0. -1.
         11   -1    0    0    0    0 -0.00000000000E+00 -0.00000000000E+00 -0.45593999997E+02  0.45594000000E+02  0.51100000000E-03 0.  1.
    9900012    2    1    2    0    0 -0.21763909823E+02 -0.36526886206E+02 -0.87029973399E+01  0.47787270174E+02  0.19999996033E+02 0.  0.
         12    1    1    2    0    0  0.21763909823E+02  0.36526886206E+02  0.87029973399E+01  0.43400729826E+02  0.00000000000E+00 0. -1.
         11    1    3    3    0    0  0.90408317593E+00 -0.52267248245E+01 -0.21215443757E+01  0.57128775218E+01  0.51100000000E-03 0. -1.
        -11    1    3    3    0    0 -0.16412037896E+02 -0.28176569741E+02 -0.20107221952E+00  0.32608503501E+02  0.51100000000E-03 0.  1.
         12    1    3    3    0    0 -0.62559551029E+01 -0.31235916409E+01 -0.63803807446E+01  0.94658891518E+01  0.00000000000E+00 0. -1.
</event>
<event>
 7    1  0.3807360E-011  0.4778726E+02  0.7816164E-02  0.1312668E+00
        -11   -1    0    0    0    0  0.00000000000E+00  0.00000000000E+00  0.45593999997E+02  0.45594000000E+02  0.51100000000E-03 0. -1.
         11   -1    0    0    0    0 -0.00000000000E+00 -0.00000000000E+00 -0.45593999997E+02  0.45594000000E+02  0.51100000000E-03 0.  1.
    9900012    2    1    2    0    0 -0.26794601562E+02  0.28065283230E+02 -0.19442556669E+02  0.47787264920E+02  0.19999972076E+02 0.  0.
         12    1    1    2    0    0  0.26794601562E+02 -0.28065283230E+02  0.19442556669E+02  0.43400735080E+02  0.00000000000E+00 0. -1.
         11    1    3    3    0    0 -0.23133580698E+02  0.17206159291E+02 -0.83273378804E+01  0.30009315719E+02  0.51100000000E-03 0. -1.
        -11    1    3    3    0    0 -0.25672941786E+01  0.32397269152E+00 -0.47817802464E+01  0.54370378231E+01  0.51100000000E-03 0.  1.
        -12    1    3    3    0    0 -0.10937266853E+01  0.10535151248E+02 -0.63334385420E+01  0.12340911378E+02  0.00000000000E+00 0.  1.
</event>
<event>
 7    1  0.3807360E-011  0.4778727E+02  0.7816164E-02  0.1312668E+00
        -11   -1    0    0    0    0  0.00000000000E+00  0.00000000000E+00  0.45593999997E+02  0.45594000000E+02  0.51100000000E-03 0. -1.
         11   -1    0    0    0    0 -0.00000000000E+00 -0.00000000000E+00 -0.45593999997E+02  0.45594000000E+02  0.51100000000E-03 0.  1.
    9900012    2    1    2    0    0  0.21562003778E+02  0.19371016616E+02 -0.32302740884E+02  0.47787270049E+02  0.19999995463E+02 0.  0.
         12    1    1    2    0    0 -0.21562003778E+02 -0.19371016616E+02  0.32302740884E+02  0.43400729951E+02  0.00000000000E+00 0. -1.
         11    1    3    3    0    0  0.67628724767E+00 -0.22502559278E+01  0.23072168363E-01  0.23497976015E+01  0.51100000000E-03 0. -1.
        -11    1    3    3    0    0  0.96968049863E+01  0.10902108169E+02 -0.81223490053E+01  0.16698998266E+02  0.51100000000E-03 0.  1.
         12    1    3    3    0    0  0.11188911544E+02  0.10719164375E+02 -0.24203464047E+02  0.28738474182E+02  0.00000000000E+00 0. -1.
</event>
<event>
 7    1  0.3807360E-011  0.4778731E+02  0.7816164E-02  0.1312668E+00
        -11   -1    0    0    0    0  0.00000000000E+00  0.00000000000E+00  0.45593999997E+02  0.45594000000E+02  0.51100000000E-03 0. -1.
         11   -1    0    0    0    0 -0.00000000000E+00 -0.00000000000E+00 -0.45593999997E+02  0.45594000000E+02  0.51100000000E-03 0.  1.
    9900012    2    1    2    0    0 -0.83827083469E+01 -0.18995624779E+02 -0.38111887893E+02  0.47787313845E+02  0.20000195145E+02 0.  0.
         12    1    1    2    0    0  0.83827083469E+01  0.18995624779E+02  0.38111887893E+02  0.43400686155E+02  0.00000000000E+00 0. -1.
         11    1    3    3    0    0 -0.71225358698E+01 -0.37925679740E+00 -0.82106883517E+01  0.10876109433E+02  0.51100000000E-03 0. -1.
        -11    1    3    3    0    0 -0.49066385924E+01 -0.12857647270E+02 -0.24924896543E+02  0.28471822273E+02  0.51100000000E-03 0.  1.
        -12    1    3    3    0    0  0.36464661153E+01 -0.57587207112E+01 -0.49763029976E+01  0.84393821388E+01  0.00000000000E+00 0.  1.
</event>
<event>
 7    1  0.3807360E-011  0.4778727E+02  0.7816164E-02  0.1312668E+00
        -11   -1    0    0    0    0  0.00000000000E+00  0.00000000000E+00  0.45593999997E+02  0.45594000000E+02  0.51100000000E-03 0. -1.
         11   -1    0    0    0    0 -0.00000000000E+00 -0.00000000000E+00 -0.45593999997E+02  0.45594000000E+02  0.51100000000E-03 0.  1.
    9900012    2    1    2    0    0 -0.26047684296E+02  0.34708350879E+02 -0.68707088251E+00  0.47787267929E+02  0.19999985794E+02 0.  0.
        -12    1    1    2    0    0  0.26047684296E+02 -0.34708350879E+02  0.68707088251E+00  0.43400732071E+02  0.00000000000E+00 0.  1.
         11    1    3    3    0    0 -0.31236666116E+01 -0.93782711090E-01  0.28348911394E+01  0.42193241557E+01  0.51100000000E-03 0. -1.
        -11    1    3    3    0    0 -0.18766473323E+02  0.17832177321E+02 -0.92439711956E+00  0.25904084220E+02  0.51100000000E-03 0.  1.
        -12    1    3    3    0    0 -0.41575443623E+01  0.16969956269E+02 -0.25975649023E+01  0.17663859553E+02  0.00000000000E+00 0.  1.
</event>
<event>
 7    1  0.3807360E-011  0.4778727E+02  0.7816164E-02  0.1312668E+00
        -11   -1    0    0    0    0  0.00000000000E+00  0.00000000000E+00  0.45593999997E+02  0.45594000000E+02  0.51100000000E-03 0. -1.
         11   -1    0    0    0    0 -0.00000000000E+00 -0.00000000000E+00 -0.45593999997E+02  0.45594000000E+02  0.51100000000E-03 0.  1.
    9900012    2    1    2    0    0  0.29375838565E+02 -0.11887580372E+02  0.29654149594E+02  0.47787273662E+02  0.20000011935E+02 0.  0.
        -12    1    1    2    0    0 -0.29375838565E+02  0.11887580372E+02 -0.29654149594E+02  0.43400726338E+02  0.00000000000E+00 0.  1.
         11    1    3    3    0    0  0.13253185736E+02 -0.46798042737E+01  0.26000250379E+02  0.29556057252E+02  0.51100000000E-03 0. -1.
        -11    1    3    3    0    0  0.40835139456E+01 -0.16971299376E+01 -0.24433431248E+00  0.44288865063E+01  0.51100000000E-03 0.  1.
         12    1    3    3    0    0  0.12039138883E+02 -0.55106461605E+01  0.38982335275E+01  0.13802329904E+02  0.00000000000E+00 0. -1.
</event>
<event>
 7    1  0.3807360E-011  0.4778727E+02  0.7816164E-02  0.1312668E+00
        -11   -1    0    0    0    0  0.00000000000E+00  0.00000000000E+00  0.45593999997E+02  0.45594000000E+02  0.51100000000E-03 0.  1.
         11   -1    0    0    0    0 -0.00000000000E+00 -0.00000000000E+00 -0.45593999997E+02  0.45594000000E+02  0.51100000000E-03 0. -1.
    9900012    2    1    2    0    0  0.24331083510E+02 -0.35438819560E+02 -0.59759259343E+01  0.47787271350E+02  0.20000001393E+02 0.  0.
        -12    1    1    2    0    0 -0.24331083510E+02  0.35438819560E+02  0.59759259343E+01  0.43400728650E+02  0.00000000000E+00 0.  1.
         11    1    3    3    0    0  0.46550043798E+01 -0.17989504085E+02 -0.97362600170E+01  0.20978228771E+02  0.51100000000E-03 0.  1.
        -11    1    3    3    0    0  0.10959540062E+02 -0.11205828942E+02  0.84092748037E+00  0.15696792027E+02  0.51100000000E-03 0. -1.
        -12    1    3    3    0    0  0.87165390673E+01 -0.62434865330E+01  0.29194066024E+01  0.11112250551E+02  0.00000000000E+00 0.  1.
</event>
<event>
 7    1  0.3807360E-011  0.4778727E+02  0.7816164E-02  0.1312668E+00
        -11   -1    0    0    0    0  0.00000000000E+00  0.00000000000E+00  0.45593999997E+02  0.45594000000E+02  0.51100000000E-03 0. -1.
         11   -1    0    0    0    0 -0.00000000000E+00 -0.00000000000E+00 -0.45593999997E+02  0.45594000000E+02  0.51100000000E-03 0.  1.
    9900012    2    1    2    0    0  0.71983540787E+01  0.14285088259E+02  0.40345301521E+02  0.47787269559E+02  0.19999993227E+02 0.  0.
        -12    1    1    2    0    0 -0.71983540787E+01 -0.14285088259E+02 -0.40345301521E+02  0.43400730441E+02  0.00000000000E+00 0.  1.
         11    1    3    3    0    0  0.81183895739E+01  0.22174622231E+01  0.31438307091E+02  0.32545238377E+02  0.51100000000E-03 0. -1.
        -11    1    3    3    0    0 -0.55770472280E+00  0.21058049390E+01  0.58268511299E+00  0.22549880712E+01  0.51100000000E-03 0.  1.
         12    1    3    3    0    0 -0.36233077234E+00  0.99618210973E+01  0.83243093166E+01  0.12987043111E+02  0.00000000000E+00 0. -1.
</event>
